Membrane in water
40344
    1TMC1    C1    1   3.921   1.781  11.574  0.3778  0.1676  0.9714
    1TMC1    C2    2   3.891   1.908  11.618  0.4836 -0.2580 -1.2061
    1TMC1    C3    3   3.935   2.017  11.545 -0.5671 -0.4027  0.1752
    1TMC1    C4    4   3.980   1.751  11.446 -0.2355  0.2759 -0.0545
    1TMC1    C5    5   4.027   1.866  11.384  0.3955 -0.1991 -0.0840
    1TMC1    C6    6   4.006   1.995  11.432  0.3510 -0.4834 -0.0060
    1TMC1     C    7   3.875   1.672  11.659 -0.0377  0.3992  0.1378
    1TMC1     O    8   3.848   1.693  11.774  0.1108  0.1450 -0.5907
    1TMC1     H    9   3.856   1.915  11.720  0.7664 -0.5168 -1.0879
    1TMC1    H1   10   3.992   1.654  11.399  0.3317  0.0701  0.5210
    1TMC1    H2   11   4.058   2.075  11.382  2.2911 -0.9366  1.2940
    1TMC1    C7   12   4.096   1.852  11.264  0.0777  0.7723 -0.1036
    1TMC1    C8   13   3.863   2.139  11.543  0.7426  0.6153  0.6572
    1TMC1    O1   14   4.152   1.750  11.240 -0.2780 -1.0746  0.6279
    1TMC1    O2   15   3.848   2.199  11.437 -0.6135 -0.5116 -0.1513
    1TMC1    O3   16   4.058   1.941  11.178  0.0620  0.8666  0.0962
    1TMC1    H3   17   3.986   2.000  11.210 -0.5403  0.0801  0.2169
    1TMC1    O5   18   3.789   2.156  11.652 -0.0255 -0.7980 -0.6923
    1TMC1    H5   19   3.794   2.095  11.728  0.6502  0.6906  0.4534
    2MPD2     C   20   3.663   1.217  11.712 -0.3172 -0.0450  0.2248
    2MPD2    C1   21   3.709   1.307  11.809 -0.4628  0.2874 -0.1679
    2MPD2    C2   22   3.770   1.420  11.769 -0.0477 -0.7873 -0.6457
    2MPD2    C3   23   3.785   1.454  11.631  0.0233 -0.2521  0.7172
    2MPD2    C4   24   3.741   1.364  11.538 -0.5369 -0.6233  0.0132
    2MPD2    C5   25   3.669   1.256  11.580 -0.2315  0.0183 -0.3638
    2MPD2     H   26   3.809   1.482  11.849 -3.5847 -0.3342  0.7484
    2MPD2    H1   27   3.754   1.365  11.431 -1.1054  3.0758  0.0063
    2MPD2    H2   28   3.605   1.127  11.732 -0.1267 -0.0412  0.7974
    2MPD2    H3   29   3.626   1.198  11.499 -0.0789 -0.1410 -0.3309
    2MPD2     N   30   3.849   1.566  11.583 -0.0959 -0.6905  0.0037
    2MPD2    H5   31   3.852   1.578  11.483  0.5244  3.2518  0.5171
    2MPD2    N1   32   3.710   1.275  11.953  0.7967  0.4988 -1.0134
    2MPD2    H7   33   3.755   1.341  12.015  0.8671 -0.2954 -0.2301
    3TMC1    C1   34   2.877   4.049  10.675 -0.5141 -0.5941 -0.6430
    3TMC1    C2   35   2.743   4.019  10.694  0.3759  0.0481 -0.1181
    3TMC1    C3   36   2.665   4.009  10.576  0.7416 -0.3379  0.3406
    3TMC1    C4   37   2.939   4.050  10.552  0.1740 -0.4799 -0.0502
    3TMC1    C5   38   2.859   4.040  10.441 -0.5423 -0.1349  0.1212
    3TMC1    C6   39   2.729   4.021  10.454 -0.4063 -0.8514 -0.1622
    3TMC1     C   40   2.955   4.099  10.788  0.8879 -0.1161  0.1987
    3TMC1     O   41   3.062   4.155  10.759  0.2583  0.2253  0.4817
    3TMC1     H   42   2.702   4.037  10.793 -3.0153 -0.1133 -1.4641
    3TMC1    H1   43   3.037   4.095  10.540  0.5797 -1.7372 -1.4193
    3TMC1    H2   44   2.659   4.012  10.371  0.1887  1.0288 -0.8566
    3TMC1    C7   45   2.890   4.114  10.328  0.1257 -0.2791  0.1277
    3TMC1    C8   46   2.530   4.048  10.573 -0.1730  0.6425 -0.8553
    3TMC1    O1   47   2.805   4.159  10.249 -0.4083 -0.2198 -0.2038
    3TMC1    O2   48   2.464   4.092  10.480 -0.4454  0.9215 -0.0825
    3TMC1    O3   49   3.021   4.150  10.316  0.1358 -0.1084  0.1668
    3TMC1    H3   50   3.077   4.095  10.374  0.8867 -0.5941 -1.0260
    3TMC1    O5   51   2.479   3.996  10.689 -0.3393  0.0760 -0.7503
    3TMC1    H5   52   2.549   3.947  10.737 -0.7600  0.9663  0.7649
    4MPD2     C   53   3.058   4.180  11.283 -0.0373  0.2259 -0.5722
    4MPD2    C1   54   2.933   4.109  11.274 -0.3689  0.7992  0.6275
    4MPD2    C2   55   2.893   4.067  11.151 -0.1881  0.0483 -0.0935
    4MPD2    C3   56   2.966   4.094  11.038 -0.3606  0.6992  0.4800
    4MPD2    C4   57   3.090   4.153  11.052 -0.9868  0.0537 -0.4806
    4MPD2    C5   58   3.137   4.181  11.175 -0.2931 -0.5850 -0.3942
    4MPD2     H   59   2.804   4.006  11.148 -0.1484 -0.0645  1.2208
    4MPD2    H1   60   3.151   4.163  10.962  0.7349 -2.6115  0.4014
    4MPD2    H2   61   3.101   4.201  11.380  0.7327  1.0788 -1.1016
    4MPD2    H3   62   3.229   4.238  11.183  0.5034 -1.8106 -0.9708
    4MPD2     N   63   2.904   4.066  10.912  0.3551 -0.6812 -0.6008
    4MPD2    H5   64   2.808   4.035  10.922  0.4266 -0.7617 -0.1776
    4MPD2    N1   65   2.854   4.073  11.386 -0.2274  0.1340  0.3566
    4MPD2    H7   66   2.764   4.028  11.369  0.8042 -1.9540  0.4007
    5TCq1    O1   67   3.145   4.584  11.373  0.3409 -0.6761  0.8129
    5TCq1    C1   68   3.051   4.521  11.299 -0.1708  0.8302 -0.0539
    5TCq1    O2   69   2.938   4.480  11.332 -0.2465  0.5308 -0.1017
    5TCq1    C2   70   3.088   4.569  11.164 -0.1701  0.2218 -0.7744
    5TCq1    C3   71   2.981   4.617  11.095  0.2599  0.1313  0.8470
    5TCq1    C4   72   3.001   4.666  10.968  0.0529  0.0103 -0.2864
    5TCq1    C5   73   3.129   4.667  10.912  0.5863  0.1993 -0.2599
    5TCq1    C6   74   3.232   4.608  10.990  0.5359 -0.4647 -0.1514
    5TCq1    C7   75   3.212   4.554  11.117 -0.2652  0.0009 -0.1150
    5TCq1    C8   76   3.365   4.588  10.940  0.4192  0.8391 -0.0411
    5TCq1    O4   77   3.446   4.534  11.013 -0.4350  0.3912  0.3403
    5TCq1    C9   78   2.890   4.724  10.901  0.2814 -0.2312  0.4270
    5TCq1    O5   79   2.900   0.016  10.779  0.2127 -0.2098 -1.0067
    5TCq1    O6   80   2.793   0.033  10.971  0.2573 -0.0417 -0.3056
    5TCq1    H1   81   3.209   4.642  11.327 -0.0666 -1.4359 -0.7266
    5TCq1    H2   82   2.883   4.621  11.141 -0.1315 -3.6771  0.3138
    5TCq1    H3   83   3.141   4.705  10.811  0.6355  0.4951 -0.1452
    5TCq1    H4   84   3.296   4.516  11.174 -0.2723  1.1624  0.6742
    6MPD2     C   85   3.455   4.644  10.588 -0.2194 -0.2826 -0.4736
    6MPD2    C1   86   3.476   4.598  10.718  1.1198 -0.1239 -0.3426
    6MPD2    C2   87   3.566   4.492  10.737 -0.1314  0.5344 -0.7203
    6MPD2    C3   88   3.641   4.438  10.634 -0.0532 -0.3251  0.4112
    6MPD2    C4   89   3.623   4.487  10.505 -0.1965  0.0019  0.3166
    6MPD2    C5   90   3.528   4.585  10.486 -0.0535  0.2161  0.1434
    6MPD2     H   91   3.590   4.452  10.835 -0.8438 -0.6921 -1.0518
    6MPD2    H1   92   3.672   4.443  10.419 -0.7737  0.3492 -0.1837
    6MPD2    H2   93   3.380   4.716  10.558  2.2452  1.6071 -2.0539
    6MPD2    H3   94   3.507   4.624  10.387 -2.8707 -0.5707  0.4057
    6MPD2     N   95   3.709   4.313  10.659  0.1998  0.0542 -0.2858
    6MPD2    H5   96   3.695   4.277  10.753  0.6927 -1.0912 -0.6472
    6MPD2    N1   97   3.385   4.642  10.813  0.0061  0.1244  0.1989
    6MPD2    H7   98   3.308   4.699  10.780  0.5935  0.4303 -0.6462
    7TCq1    O1   99   4.585   3.597  13.811 -0.2335 -0.4623  0.3504
    7TCq1    C1  100   4.688   3.515  13.847 -0.1982 -0.3043  0.0409
    7TCq1    O2  101   4.681   3.410  13.914  0.3439  0.0236  0.3703
    7TCq1    C2  102   0.060   3.549  13.758  0.2703 -0.1569  0.5103
    7TCq1    C3  103   0.068   3.658  13.671  0.0646 -0.4608 -0.3625
    7TCq1    C4  104   0.184   3.702  13.620 -0.9579  0.3295  0.4078
    7TCq1    C5  105   0.295   3.624  13.647  0.1597 -0.1096  0.0599
    7TCq1    C6  106   0.288   3.513  13.727  0.2544 -0.3793 -0.3073
    7TCq1    C7  107   0.172   3.475  13.782  0.0252  0.3700  0.9532
    7TCq1    C8  108   0.403   3.424  13.733  0.3987 -0.1464  0.4213
    7TCq1    O4  109   0.405   3.353  13.833  0.3285  0.0321 -0.4873
    7TCq1    C9  110   0.196   3.810  13.527  0.1051 -0.0331 -0.1125
    7TCq1    O5  111   0.308   3.863  13.502  0.5809 -0.5878 -0.1525
    7TCq1    O6  112   0.085   3.851  13.481  0.0260  0.5928  0.1572
    7TCq1    H1  113   4.619   3.685  13.783 -0.2859 -1.0675 -1.6031
    7TCq1    H2  114   4.721   3.721  13.643  0.4209  1.7168  3.5782
    7TCq1    H3  115   0.388   3.672  13.618  0.8396 -0.8182  1.0919
    7TCq1    H4  116   0.165   3.393  13.852 -0.5270  1.0246  1.6562
    8MPD2     C  117   0.828   3.202  13.543  0.0523  0.6483 -0.5722
    8MPD2    C1  118   0.760   3.185  13.660 -0.3834 -0.6093 -0.1698
    8MPD2    C2  119   0.650   3.258  13.695 -0.2956  0.0845 -0.2055
    8MPD2    C3  120   0.602   3.356  13.608  0.4437  0.2905  0.3216
    8MPD2    C4  121   0.683   3.378  13.496 -0.4842  0.0293  0.0602
    8MPD2    C5  122   0.789   3.299  13.458  0.0098 -0.1382  0.3742
    8MPD2     H  123   0.598   3.233  13.786  0.6518 -0.3562  0.2189
    8MPD2    H1  124   0.653   3.455  13.425  1.4513  0.4275 -0.3262
    8MPD2    H2  125   0.905   3.133  13.509 -1.0538 -2.4797  3.2106
    8MPD2    H3  126   0.833   3.328  13.363  0.8487  1.8733  1.3763
    8MPD2     N  127   0.486   3.437  13.623 -0.9481  0.2402 -0.6385
    8MPD2    H5  128   0.468   3.504  13.549 -0.5569  1.2528  0.1915
    8MPD2    N1  129   0.785   3.063  13.731 -0.4166  0.4916 -0.0810
    8MPD2    H7  130   0.847   2.999  13.684 -0.8843 -0.6429  0.8677
    9TMC1    C1  131   2.928   3.084  11.978  0.3265  0.5519 -0.2675
    9TMC1    C2  132   3.057   3.099  11.929 -0.0611  0.3148 -0.2743
    9TMC1    C3  133   3.089   3.217  11.872 -0.1084  0.4360 -0.7772
    9TMC1    C4  134   2.838   3.183  11.971  0.2737  0.1962 -0.6399
    9TMC1    C5  135   2.875   3.301  11.910  0.3566  0.2440 -0.5610
    9TMC1    C6  136   3.005   3.319  11.869  0.0764  0.9197  0.3745
    9TMC1     C  137   2.883   2.970  12.049  0.4497 -1.0270  0.7246
    9TMC1     O  138   2.767   2.974  12.090  0.3916  0.4490  0.7587
    9TMC1     H  139   3.127   3.016  11.928  0.9874  1.2012 -0.4629
    9TMC1    H1  140   2.737   3.172  12.008  0.2674 -3.2219 -1.6326
    9TMC1    H2  141   3.034   3.401  11.804  0.2698 -0.6771 -1.5471
    9TMC1    C7  142   2.770   3.403  11.896  0.8201  0.0955 -0.1938
    9TMC1    C8  143   3.227   3.242  11.843 -0.4996  0.1976  0.3885
    9TMC1    O1  144   2.659   3.375  11.856 -0.0271 -0.2613 -0.1652
    9TMC1    O2  145   3.253   3.327  11.757 -0.3968  0.6070  0.9812
    9TMC1    O3  146   2.837   3.514  11.880  0.1140 -0.2125  0.2003
    9TMC1    H3  147   2.904   3.512  11.951  0.2121 -2.3392  0.0585
    9TMC1    O5  148   3.292   3.201  11.951  0.2001 -1.3468 -0.0505
    9TMC1    H5  149   3.267   3.124  12.006 -0.9184  0.0569  1.4143
   10MPD2     C  150   2.848   2.781  12.269  0.0678 -0.3612  0.8880
   10MPD2    C1  151   2.963   2.789  12.186 -0.1081  0.1892 -0.4228
   10MPD2    C2  152   3.069   2.709  12.213 -0.3412 -0.4295 -0.3357
   10MPD2    C3  153   3.056   2.607  12.301 -0.0131  0.5145  0.0314
   10MPD2    C4  154   2.946   2.599  12.382  0.1792  0.9429  0.6326
   10MPD2    C5  155   2.843   2.688  12.365 -0.3736  0.5318  0.2024
   10MPD2     H  156   3.157   2.719  12.150 -0.4396  1.3885 -0.1681
   10MPD2    H1  157   2.934   2.523  12.459  1.7733  0.6845  0.6370
   10MPD2    H2  158   2.768   2.854  12.271  0.2418 -0.1572  0.4976
   10MPD2    H3  159   2.753   2.683  12.426  0.9304 -1.2577  1.9918
   10MPD2     N  160   3.155   2.508  12.325 -0.2825 -0.3805 -0.0414
   10MPD2    H5  161   3.129   2.421  12.371 -1.1167 -1.3333 -2.3473
   10MPD2    N1  162   2.982   2.884  12.085 -0.0774 -0.1229  0.0994
   10MPD2    H7  163   3.077   2.892  12.049  0.5279  1.5486  2.0178
   11TCq1    O1  164   4.009   2.072  14.548 -0.3542 -0.2842  0.7794
   11TCq1    C1  165   3.971   2.077  14.420 -0.2184  0.3681 -0.1702
   11TCq1    O2  166   3.917   1.985  14.357  0.0608  0.0291 -0.0928
   11TCq1    C2  167   3.914   2.208  14.408  0.5329 -0.8830 -0.3571
   11TCq1    C3  168   3.996   2.312  14.434  0.2989 -0.4216 -0.1695
   11TCq1    C4  169   3.933   2.433  14.406 -0.2844  0.5734  0.2246
   11TCq1    C5  170   3.802   2.451  14.373  0.2880  0.0400  0.9089
   11TCq1    C6  171   3.731   2.342  14.342  0.3434 -0.4233 -0.0144
   11TCq1    C7  172   3.786   2.218  14.361 -0.3973 -0.3766 -0.9180
   11TCq1    C8  173   3.644   2.347  14.231  0.2355  0.1575 -0.4046
   11TCq1    O4  174   3.583   2.453  14.218 -0.5147  0.0725 -0.6119
   11TCq1    C9  175   4.028   2.544  14.402 -0.0951  0.5927  0.8430
   11TCq1    O5  176   3.981   2.665  14.422 -0.1401  0.1331 -0.5189
   11TCq1    O6  177   4.141   2.516  14.356  0.2244  0.0717 -0.7030
   11TCq1    H1  178   4.018   2.149  14.608 -0.6612 -0.6170  1.2545
   11TCq1    H2  179   4.094   2.295  14.479 -0.6485  1.7235  2.6642
   11TCq1    H3  180   3.789   2.551  14.333  0.1037 -0.8101 -1.1877
   11TCq1    H4  181   3.743   2.123  14.329  0.6489 -1.2760  0.3404
   12MPD2     C  182   3.474   2.286  13.979  0.7199 -0.1440  0.8795
   12MPD2    C1  183   3.592   2.219  14.027  0.4148 -0.1930 -0.0990
   12MPD2    C2  184   3.628   2.107  13.959  0.3916  0.4902 -0.2144
   12MPD2    C3  185   3.552   2.039  13.864 -0.9403 -0.2756  0.1897
   12MPD2    C4  186   3.434   2.104  13.826 -0.4550 -0.8718  0.5158
   12MPD2    C5  187   3.393   2.225  13.881 -0.4022  0.0628  0.7753
   12MPD2     H  188   3.729   2.077  13.984  0.9548  1.1323 -1.7045
   12MPD2    H1  189   3.373   2.060  13.748 -2.0548  0.3685  1.0737
   12MPD2    H2  190   3.445   2.385  14.013 -2.2259 -0.2815 -1.2669
   12MPD2    H3  191   3.310   2.279  13.837 -1.0247 -0.0608  1.7854
   12MPD2     N  192   3.580   1.913  13.813 -0.5159 -0.7425 -0.2242
   12MPD2    H5  193   3.523   1.873  13.738 -0.7615 -0.5471 -0.1418
   12MPD2    N1  194   3.676   2.254  14.137 -0.2793  0.0132  0.3990
   12MPD2    H7  195   3.760   2.198  14.146  0.6696  1.2000 -1.0519
   13TCq1    O1  196   4.229   3.151  11.311  0.0004  0.2380  0.3534
   13TCq1    C1  197   4.114   3.125  11.367  0.1533 -0.3517  0.0998
   13TCq1    O2  198   4.004   3.174  11.351  0.0830 -0.4964  0.2729
   13TCq1    C2  199   4.133   3.034  11.476 -0.3128 -1.0333  0.1259
   13TCq1    C3  200   4.249   3.042  11.543 -1.1040  0.6455 -0.1131
   13TCq1    C4  201   4.270   2.950  11.644  0.5981  0.1146  0.3988
   13TCq1    C5  202   4.171   2.863  11.683 -0.3233  0.7032  0.1896
   13TCq1    C6  203   4.061   2.848  11.611 -0.7813  0.4173 -0.6903
   13TCq1    C7  204   4.036   2.935  11.505 -0.2814 -0.4331  0.0198
   13TCq1    C8  205   3.971   2.734  11.638  0.0962  0.1376 -0.3649
   13TCq1    O4  206   3.865   2.722  11.583  0.7051 -0.0473 -0.6844
   13TCq1    C9  207   4.390   2.958  11.719  0.9091  0.2751 -0.0155
   13TCq1    O5  208   4.474   3.050  11.707  0.4048  0.0502  0.4484
   13TCq1    O6  209   4.387   2.886  11.823  0.0288  0.9114  0.9036
   13TCq1    H1  210   4.308   3.096  11.330 -1.7246 -2.8560 -1.4044
   13TCq1    H2  211   4.323   3.119  11.524 -1.0713  0.7527  0.4561
   13TCq1    H3  212   4.182   2.813  11.778  0.5021  0.0149 -0.2768
   13TCq1    H4  213   3.952   2.904  11.444 -1.7816  2.8924  0.4125
   14MPD2     C  214   4.049   2.453  11.864  0.2345 -0.4120  0.1793
   14MPD2    C1  215   3.964   2.537  11.791 -0.7742 -0.3419 -0.9037
   14MPD2    C2  216   3.826   2.517  11.792 -0.6043  0.7428  0.0833
   14MPD2    C3  217   3.776   2.431  11.884 -0.2608  0.2513  0.4825
   14MPD2    C4  218   3.865   2.342  11.952 -0.0746 -0.0392 -0.1855
   14MPD2    C5  219   3.999   2.347  11.934 -0.0254  0.2612 -0.3706
   14MPD2     H  220   3.760   2.581  11.734  0.6563  2.2932  0.3457
   14MPD2    H1  221   3.827   2.272  12.025 -0.7240 -1.2215 -1.6755
   14MPD2    H2  222   4.156   2.445  11.852  0.1391  0.4213 -1.1391
   14MPD2    H3  223   4.059   2.271  11.983  0.4617  0.6673 -0.3299
   14MPD2     N  224   3.633   2.431  11.894  0.1439 -0.1133 -0.6406
   14MPD2    H5  225   3.577   2.489  11.833  0.3629  0.5154 -0.2445
   14MPD2    N1  226   4.027   2.638  11.719  0.2857  0.7115  1.0884
   14MPD2    H7  227   4.129   2.636  11.724  0.1567 -2.2817  2.6637
   15TCq1    O1  228   1.188   1.150   1.677  0.1156  1.0390 -0.0525
   15TCq1    C1  229   1.117   1.030   1.662 -0.0278 -0.9771 -0.2724
   15TCq1    O2  230   1.001   1.025   1.624 -0.2779 -0.3029  0.2021
   15TCq1    C2  231   1.197   0.907   1.673  0.1968  0.0297 -0.7057
   15TCq1    C3  232   1.307   0.900   1.755 -0.1999 -0.1092 -0.1013
   15TCq1    C4  233   1.368   0.776   1.755  0.1047  0.4916  0.4311
   15TCq1    C5  234   1.325   0.668   1.686 -0.1982 -0.5424 -0.5488
   15TCq1    C6  235   1.220   0.687   1.602  0.2936 -1.1855  0.4543
   15TCq1    C7  236   1.155   0.804   1.593 -0.5059 -0.9173 -0.1368
   15TCq1    C8  237   1.153   0.571   1.549 -1.1586  0.3689 -0.7276
   15TCq1    O4  238   1.220   0.477   1.532  0.0204 -0.1411  0.0015
   15TCq1    C9  239   1.466   0.748   1.857 -0.1138  0.1436  1.0494
   15TCq1    O5  240   1.493   0.842   1.931  0.0687  0.2683  0.6130
   15TCq1    O6  241   1.498   0.625   1.872 -0.1232 -0.2578  0.5665
   15TCq1    H1  242   1.281   1.146   1.706  0.0210  1.3323  0.2924
   15TCq1    H2  243   1.348   0.983   1.811  0.1630 -0.3341 -0.0274
   15TCq1    H3  244   1.365   0.568   1.696  1.8194  0.4029  1.0618
   15TCq1    H4  245   1.063   0.814   1.536 -0.0379 -1.1179 -0.9334
   16MPD2     C  246   0.788   0.508   1.487  0.0281 -0.2054 -0.1975
   16MPD2    C1  247   0.928   0.495   1.477  0.2726 -0.0055 -0.3980
   16MPD2    C2  248   0.971   0.398   1.396 -0.3376  0.2470 -0.1018
   16MPD2    C3  249   0.881   0.332   1.304  0.2389  0.6764 -0.6253
   16MPD2    C4  250   0.744   0.357   1.310  0.1291 -0.2755  0.1805
   16MPD2    C5  251   0.703   0.444   1.407 -0.2461 -0.0085  0.1021
   16MPD2     H  252   1.075   0.369   1.387 -0.5297  0.4392 -2.9924
   16MPD2    H1  253   0.669   0.302   1.255 -3.2029  4.7194 -0.2726
   16MPD2    H2  254   0.737   0.572   1.558  1.8113 -0.3160  1.1852
   16MPD2    H3  255   0.599   0.475   1.411  0.2396  1.5895  0.1777
   16MPD2     N  256   0.940   0.239   1.218 -0.2474 -0.0213 -0.0497
   16MPD2    H5  257   1.032   0.202   1.239  1.0604  2.5426 -1.2930
   16MPD2    N1  258   1.018   0.589   1.541 -0.1707  0.4237 -0.0607
   16MPD2    H7  259   0.970   0.667   1.586  0.5981  1.1958 -0.6000
   17TMC1    C1  260   3.408   1.606  11.848  0.2162  0.3369 -0.5038
   17TMC1    C2  261   3.400   1.492  11.774  0.3273 -0.3905 -0.0186
   17TMC1    C3  262   3.360   1.380  11.844 -0.2493 -0.0575  0.0835
   17TMC1    C4  263   3.368   1.621  11.976 -0.9985  1.5404 -0.2535
   17TMC1    C5  264   3.329   1.507  12.037 -0.1385  0.2827  0.3327
   17TMC1    C6  265   3.314   1.385  11.970  0.1042 -0.1886 -0.0385
   17TMC1     C  266   3.432   1.732  11.776 -0.7761  0.8852  0.0155
   17TMC1     O  267   3.385   1.836  11.825  0.0438  0.1732 -0.9081
   17TMC1     H  268   3.409   1.481  11.667 -1.8320  0.3712 -0.2651
   17TMC1    H1  269   3.388   1.706  12.041 -2.6659  2.4089 -0.8787
   17TMC1    H2  270   3.286   1.297  12.027 -1.4608  0.6581  0.4859
   17TMC1    C7  271   3.255   1.512  12.159  0.3252  0.8946  0.3099
   17TMC1    C8  272   3.312   1.275  11.753  0.0704  0.0979 -0.3439
   17TMC1    O1  273   3.251   1.417  12.236 -0.3406 -0.0511 -0.2087
   17TMC1    O2  274   3.363   1.272  11.643  0.3907 -0.1689 -0.0420
   17TMC1    O3  275   3.200   1.637  12.170 -0.9498  0.0091  0.3587
   17TMC1    H3  276   3.200   1.698  12.093 -2.4945  0.7958  0.9966
   17TMC1    O5  277   3.229   1.187  11.819  0.0478  0.5953  0.5141
   17TMC1    H5  278   3.188   1.235  11.894 -0.2104  1.4615 -0.1861
   18MPD2     C  279   3.497   1.953  11.565 -0.4021  0.6483  0.1774
   18MPD2    C1  280   3.531   1.818  11.567  0.1170  0.4778  0.4843
   18MPD2    C2  281   3.585   1.769  11.447 -0.1319  0.0848 -0.3408
   18MPD2    C3  282   3.618   1.857  11.343 -0.0685 -0.3022 -0.0540
   18MPD2    C4  283   3.595   1.992  11.354 -0.4636  0.2213  0.3620
   18MPD2    C5  284   3.528   2.039  11.462  0.1697  0.0524 -0.6160
   18MPD2     H  285   3.598   1.661  11.441 -0.6148  0.0659 -1.1354
   18MPD2    H1  286   3.605   2.062  11.271  0.7653 -1.6429 -1.0812
   18MPD2    H2  287   3.452   1.999  11.652 -1.2554 -0.1418  0.1578
   18MPD2    H3  288   3.506   2.144  11.476  2.6665  0.4903  0.0234
   18MPD2     N  289   3.685   1.814  11.227  0.1721 -0.0186 -0.0872
   18MPD2    H5  290   3.687   1.875  11.147  1.9407 -1.0957 -0.8490
   18MPD2    N1  291   3.505   1.714  11.661  0.0494 -0.3358 -0.0902
   18MPD2    H7  292   3.537   1.619  11.644 -1.2136 -0.5674 -1.1765
   19TMC2    C1  293   0.163   2.209  14.605  0.7136 -0.0496  0.5894
   19TMC2    C2  294   0.064   2.274  14.674  0.6574  0.4097  0.1828
   19TMC2    C3  295   4.671   2.255  14.635  0.5136 -0.3112  0.2041
   19TMC2    C4  296   0.143   2.110  14.508  0.1736 -0.2405 -0.1535
   19TMC2    C5  297   0.011   2.079  14.493  0.0604 -0.5822  0.3867
   19TMC2    C6  298   4.640   2.151  14.552 -0.4241 -0.1973  0.5263
   19TMC2     C  299   0.301   2.262  14.613 -1.1607 -0.7240 -0.2075
   19TMC2     O  300   0.300   2.377  14.652 -0.3547  0.1447  0.3131
   19TMC2     H  301   0.091   2.342  14.754 -0.1060 -0.7763  1.4546
   19TMC2    H1  302   0.222   2.054  14.460  2.2163  2.0575  0.5177
   19TMC2    H2  303   4.538   2.135  14.521 -1.0843  1.1699  1.9998
   19TMC2    C7  304   4.713   1.961  14.410 -0.2960 -0.4854  0.6106
   19TMC2    C8  305   4.563   2.310  14.717  0.5063 -0.4601 -0.4482
   19TMC2    O1  306   0.065   1.873  14.391  0.3687 -0.1834 -0.3619
   19TMC2    O2  307   4.447   2.267  14.722 -0.4129  0.1088 -0.3782
   19TMC2    O5  308   4.600   2.434  14.769  0.0603 -0.3811 -0.5320
   19TMC2    H5  309   4.693   2.462  14.759 -0.2149  0.7179 -0.1038
   20MPD2     C  310   0.590   2.317  14.637  0.2319  0.4505 -0.2298
   20MPD2    C1  311   0.536   2.198  14.594 -0.2899  0.1282 -0.5291
   20MPD2    C2  312   0.617   2.091  14.576  0.5201  0.5367  0.1130
   20MPD2    C3  313   0.754   2.101  14.609 -0.1064 -0.6040  1.0698
   20MPD2    C4  314   0.801   2.222  14.652  0.7937 -0.2547  0.4464
   20MPD2    C5  315   0.724   2.335  14.665  0.1353  0.4511  0.0619
   20MPD2     H  316   0.573   2.001  14.534 -0.5063  1.3849 -0.6326
   20MPD2    H1  317   0.907   2.237  14.667  1.2329  0.1383 -3.0475
   20MPD2    H2  318   0.532   2.403  14.668 -1.9777 -0.8371 -0.8094
   20MPD2    H3  319   0.761   2.433  14.695 -0.5223  0.3102  1.3654
   20MPD2     N  320   0.855   2.003  14.579  0.1019  0.2115 -0.0717
   20MPD2    H5  321   0.949   2.028  14.606  0.9260 -1.7783 -1.1443
   20MPD2    N1  322   0.397   2.169  14.584 -0.6160  0.0657  0.0780
   20MPD2    H7  323   0.359   2.077  14.565  1.4241 -1.0566  1.4077
   21TMC2    C1  324   2.580   1.986  14.687 -0.4488  0.0873  0.2041
   21TMC2    C2  325   2.600   1.884  14.770 -0.9413  0.4895 -0.2460
   21TMC2    C3  326   2.538   1.882  14.896 -0.0302 -0.4749  0.1548
   21TMC2    C4  327   2.486   2.080  14.707 -0.1700  0.3639 -0.0224
   21TMC2    C5  328   2.429   2.081  14.835  0.0593  0.4962  0.6165
   21TMC2    C6  329   2.455   1.981  14.927  0.3090 -0.5038  0.2511
   21TMC2     C  330   2.656   2.001  14.567 -0.0183  0.0150  0.4288
   21TMC2     O  331   2.771   1.977  14.593 -0.1764 -0.1308 -0.1675
   21TMC2     H  332   2.676   1.811  14.743  1.3355  1.8086  2.5979
   21TMC2    H1  333   2.480   2.158  14.632 -3.5310  0.9151  0.8197
   21TMC2    H2  334   2.418   1.980  15.029 -1.7386 -1.6397 -0.5009
   21TMC2    C7  335   2.391   2.209  14.892  0.1582 -0.1693  0.0057
   21TMC2    C8  336   2.599   1.800  15.003 -0.6156 -0.7025 -1.0600
   21TMC2    O1  337   2.348   2.209  15.003  0.0781 -0.0672  0.5693
   21TMC2    O2  338   2.700   1.731  14.994 -0.0013 -0.1621 -0.4849
   21TMC2    O5  339   2.496   1.769  15.089 -0.4138 -0.1176 -0.5374
   21TMC2    H5  340   2.407   1.803  15.067 -0.4589  0.2084  0.1551
   22MPD2     C  341   2.720   2.121  14.078 -0.0380  0.7846 -0.4039
   22MPD2    C1  342   2.817   2.086  14.167  0.2686  0.2438  0.1929
   22MPD2    C2  343   2.778   2.067  14.296 -0.5792  0.1852  0.4520
   22MPD2    C3  344   2.639   2.061  14.327  0.1820  0.4542  0.5745
   22MPD2    C4  345   2.546   2.105  14.236  0.3341 -0.0840 -0.0018
   22MPD2    C5  346   2.587   2.140  14.108 -0.7398 -0.3067  1.2197
   22MPD2     H  347   2.850   2.049  14.376  1.1197  0.4719 -1.0193
   22MPD2    H1  348   2.442   2.115  14.265  1.0045  0.8328  2.0429
   22MPD2    H2  349   2.751   2.153  13.979  1.9122  0.7820  0.2057
   22MPD2    H3  350   2.523   2.199  14.044  0.5293 -0.2256  0.0359
   22MPD2     N  351   2.590   2.035  14.454  0.0877  0.4423  0.0464
   22MPD2    H5  352   2.490   2.049  14.469 -0.0248  0.7453 -0.9937
   22MPD2    N1  353   2.956   2.073  14.144  0.5171 -0.3991 -0.0413
   22MPD2    H7  354   3.008   2.047  14.227  0.1547  2.5203  1.0921
   23TMC2    C1  355   3.837   3.255  14.813  0.5297 -0.0156 -0.5376
   23TMC2    C2  356   3.917   3.253  14.705  0.6490 -0.1556 -0.4481
   23TMC2    C3  357   3.879   3.158  14.617  0.2013  0.3780  0.2085
   23TMC2    C4  358   3.721   3.182  14.821  0.3316  0.2582  0.7027
   23TMC2    C5  359   3.684   3.094  14.726 -0.6649  0.5237 -0.8780
   23TMC2    C6  360   3.774   3.070  14.625 -0.3466 -0.6377 -0.2580
   23TMC2     C  361   3.874   3.340  14.922  0.3837 -0.3696  0.1180
   23TMC2     O  362   3.993   3.362  14.930 -0.0791 -0.2523 -0.3277
   23TMC2     H  363   3.990   3.330  14.683  1.5452 -0.3515  1.8385
   23TMC2    H1  364   3.654   3.195  14.906 -0.2524  1.8717 -0.0172
   23TMC2    H2  365   3.752   3.012  14.536 -0.9177 -0.6954 -0.0805
   23TMC2    C7  366   3.542   3.056  14.725 -0.0027 -0.6621 -0.4640
   23TMC2    C8  367   3.949   3.150  14.494 -0.1941  1.1056  0.3522
   23TMC2    O1  368   3.482   3.053  14.831 -0.1583  0.0126 -0.1961
   23TMC2    O2  369   3.953   3.050  14.425  0.6437  0.0562  0.1323
   23TMC2    O5  370   3.994   3.270  14.452 -0.5040 -0.0114  0.6178
   23TMC2    H5  371   3.969   3.350  14.502  0.7085  2.9920 -3.5707
   24MPD2     C  372   3.859   3.591  15.347  0.4659 -0.8680  0.2512
   24MPD2    C1  373   3.928   3.480  15.308 -0.4804  0.6134 -0.3659
   24MPD2    C2  374   3.903   3.423  15.189  0.0921 -0.3000 -0.0416
   24MPD2    C3  375   3.792   3.454  15.113 -0.0579  0.8024  0.2285
   24MPD2    C4  376   3.713   3.559  15.158  0.2599  0.5501  0.4963
   24MPD2    C5  377   3.751   3.621  15.273  0.5475 -0.3378 -0.3351
   24MPD2     H  378   3.973   3.348  15.155  0.4791  0.3801 -0.7291
   24MPD2    H1  379   3.619   3.599  15.122  0.0345 -0.0853  0.3832
   24MPD2    H2  380   3.887   3.653  15.431  2.9404 -2.3664  0.5407
   24MPD2    H3  381   3.694   3.708  15.304  0.3880 -0.8617  0.8343
   24MPD2     N  382   3.766   3.394  14.989  0.2559 -0.2000 -0.1751
   24MPD2    H5  383   3.680   3.413  14.940  0.7644  1.2042 -0.5167
   24MPD2    N1  384   4.049   3.443  15.365  0.2965 -0.5637 -0.0850
   24MPD2    H7  385   4.098   3.364  15.325 -1.5860 -2.1853  0.7962
   25TMC2    C1  386   2.621   1.534  11.583 -0.0840  0.0774  0.2113
   25TMC2    C2  387   2.553   1.654  11.592 -0.2597  0.3344 -0.5474
   25TMC2    C3  388   2.554   1.710  11.717  0.2807 -0.2191  0.1801
   25TMC2    C4  389   2.697   1.488  11.689 -0.8377 -0.5333 -0.4331
   25TMC2    C5  390   2.708   1.563  11.805  0.1751  0.0963  0.2301
   25TMC2    C6  391   2.634   1.675  11.822  0.1193  0.1656  0.6649
   25TMC2     C  392   2.570   1.442  11.489  0.3419  0.4550  0.4917
   25TMC2     O  393   2.467   1.473  11.429 -0.0699 -0.2486 -0.2347
   25TMC2     H  394   2.494   1.697  11.512  1.0994  0.4392 -1.4894
   25TMC2    H1  395   2.744   1.390  11.684 -1.2671 -0.7876  0.6105
   25TMC2    H2  396   2.636   1.723  11.919  0.2304  0.8786  0.3127
   25TMC2    C7  397   2.774   1.501  11.922  0.6848  1.3180 -0.0156
   25TMC2    C8  398   2.488   1.839  11.739  1.0776  0.2795  0.2142
   25TMC2    O1  399   2.768   1.378  11.925  0.1013  0.3394  0.0840
   25TMC2    O2  400   2.528   1.938  11.803 -0.1345  0.5992  0.2546
   25TMC2    O5  401   2.389   1.857  11.649 -0.0085  0.3398 -0.2788
   25TMC2    H5  402   2.341   1.772  11.637  1.6382 -0.4313 -1.5528
   26MPD2     C  403   2.525   0.981  11.263 -0.3814 -0.0283 -0.1232
   26MPD2    C1  404   2.657   0.985  11.317 -0.3204  0.8251 -0.7065
   26MPD2    C2  405   2.697   1.103  11.382 -0.4545 -0.4469 -0.2749
   26MPD2    C3  406   2.609   1.212  11.401  0.4560 -0.2934 -0.8229
   26MPD2    C4  407   2.502   1.211  11.323 -0.7821  0.7405  0.1154
   26MPD2    C5  408   2.466   1.098  11.251  0.4446 -0.4041  0.2227
   26MPD2     H  409   2.788   1.108  11.441 -0.4593 -2.3239 -0.0936
   26MPD2    H1  410   2.440   1.300  11.312  0.6732  1.7994  0.4508
   26MPD2    H2  411   2.480   0.892  11.221  1.4767 -1.3762  0.7254
   26MPD2    H3  412   2.374   1.104  11.194  0.3717 -0.3501  0.3463
   26MPD2     N  413   2.645   1.324  11.475 -0.0329  0.5002  0.3832
   26MPD2    H5  414   2.721   1.319  11.543  0.7386 -2.2817 -0.6803
   26MPD2    N1  415   2.737   0.874  11.298 -0.7320  0.0372 -0.2027
   26MPD2    H7  416   2.697   0.795  11.248 -1.0061 -0.5602  0.9561
   27TMC2    C1  417   1.707   2.469  11.992  0.6182 -0.4706  0.2440
   27TMC2    C2  418   1.837   2.493  11.954  0.3123  0.1446  0.2930
   27TMC2    C3  419   1.864   2.580  11.861  0.0016  0.4232 -0.3633
   27TMC2    C4  420   1.605   2.549  11.939 -0.6390 -0.1790 -0.8901
   27TMC2    C5  421   1.645   2.663  11.861 -0.1199 -1.1263  0.1915
   27TMC2    C6  422   1.769   2.662  11.802  0.2127 -0.4655 -0.3519
   27TMC2     C  423   1.694   2.433  12.134  0.3436  0.3145 -0.4884
   27TMC2     O  424   1.767   2.353  12.184  0.2713 -0.0075  0.2853
   27TMC2     H  425   1.914   2.454  12.020  0.6796 -1.9176 -1.3574
   27TMC2    H1  426   1.503   2.546  11.976 -0.0362  1.1592  0.8403
   27TMC2    H2  427   1.800   2.741  11.735  0.4624 -0.2120  0.0658
   27TMC2    C7  428   1.599   2.791  11.915 -0.8733 -0.4721  0.3896
   27TMC2    C8  429   2.002   2.609  11.827  0.2882  0.1008 -0.4883
   27TMC2    O1  430   1.543   2.780  12.022 -0.1485  0.1318  0.1443
   27TMC2    O2  431   2.028   2.709  11.761 -0.3276 -0.1298 -0.2062
   27TMC2    O5  432   2.055   2.489  11.804  0.3144  0.1798  0.3345
   27TMC2    H5  433   2.019   2.432  11.876 -1.5968  1.4185  0.3538
   28MPD2     C  434   1.540   2.580  12.608 -1.1475 -0.3588  1.2559
   28MPD2    C1  435   1.461   2.644  12.516  0.1679 -0.4494  0.5712
   28MPD2    C2  436   1.480   2.617  12.379 -0.1122 -0.0282  0.0472
   28MPD2    C3  437   1.582   2.538  12.336  0.3609  0.0895 -0.5724
   28MPD2    C4  438   1.654   2.460  12.426  0.7536  0.2382  0.2446
   28MPD2    C5  439   1.625   2.484  12.560  0.1348 -0.2816  0.4486
   28MPD2     H  440   1.416   2.668  12.309  1.6745 -0.4235 -1.8615
   28MPD2    H1  441   1.735   2.390  12.408  0.2171 -0.0040 -1.1756
   28MPD2    H2  442   1.530   2.595  12.715 -1.8483  0.2444  1.1097
   28MPD2    H3  443   1.689   2.425  12.625  1.8290 -1.1905 -2.0419
   28MPD2     N  444   1.606   2.520  12.199 -0.3852  0.0767 -0.1776
   28MPD2    H5  445   1.566   2.583  12.131  1.7668  2.3800  0.6903
   28MPD2    N1  446   1.364   2.733  12.561  0.0931 -0.1249  0.5565
   28MPD2    H7  447   1.332   2.726  12.657 -1.2850  2.4043  0.2816
   29TMC2    C1  448   1.370   0.530  14.444 -0.5011 -0.5791 -0.0819
   29TMC2    C2  449   1.397   0.492  14.575  0.0651 -0.2163 -0.2040
   29TMC2    C3  450   1.448   0.592  14.651  0.0915 -0.1116  0.6054
   29TMC2    C4  451   1.399   0.647  14.389 -0.1737  0.7559 -0.5485
   29TMC2    C5  452   1.466   0.739  14.468  0.1779  0.2267  0.7477
   29TMC2    C6  453   1.487   0.713  14.602  0.0876  0.2252 -0.3446
   29TMC2     C  454   1.307   0.421  14.361 -0.0220 -0.2312  0.8828
   29TMC2     O  455   1.271   0.326  14.425  0.0422  0.2420  0.1286
   29TMC2     H  456   1.375   0.392  14.611 -0.5205 -0.6818 -1.8803
   29TMC2    H1  457   1.388   0.669  14.284  1.0001  0.2277 -0.7750
   29TMC2    H2  458   1.523   0.792  14.666 -1.1245 -0.3594  1.0753
   29TMC2    C7  459   1.446   0.875  14.431 -0.3250 -0.4295  0.2126
   29TMC2    C8  460   1.493   0.565  14.786 -0.6351  0.0760 -0.0761
   29TMC2    O1  461   1.341   0.898  14.375 -0.2613  0.0482 -0.6038
   29TMC2    O2  462   1.529   0.454  14.826 -0.1947 -0.3414 -0.7404
   29TMC2    O5  463   1.415   0.648  14.861 -0.0341  0.8062  0.5223
   29TMC2    H5  464   1.364   0.717  14.814 -0.9047 -1.1307 -1.3896
   30MPD2     C  465   1.328   0.168  13.922 -1.0850  0.6463  0.2628
   30MPD2    C1  466   1.319   0.117  14.050 -0.3660 -0.0511 -0.3073
   30MPD2    C2  467   1.307   0.205  14.158 -0.7652  0.2449  0.7595
   30MPD2    C3  468   1.317   0.341  14.131 -0.4865  0.3859 -0.0753
   30MPD2    C4  469   1.310   0.388  14.005  1.0727  0.1190 -0.0945
   30MPD2    C5  470   1.317   0.303  13.907  0.0512 -0.2721  0.0754
   30MPD2     H  471   1.296   0.168  14.259  0.5092  2.0685  1.5481
   30MPD2    H1  472   1.313   0.493  13.978  0.6184  0.1809  0.0886
   30MPD2    H2  473   1.355   0.107  13.837 -1.7826 -0.3050  0.7276
   30MPD2    H3  474   1.318   0.354  13.811  1.8159  0.1110  0.2906
   30MPD2     N  475   1.322   0.440  14.228  0.2781  0.0896 -0.4163
   30MPD2    H5  476   1.342   0.530  14.185 -2.0155 -0.5859 -2.9133
   30MPD2    N1  477   1.340   4.716  14.077 -0.1028  0.0462  0.4654
   30MPD2    H7  478   1.353   4.700  14.177  2.1817  1.2188  0.3489
   31TMC2    C1  479   3.780   4.081  15.318 -0.3909  0.1774  0.0612
   31TMC2    C2  480   3.639   4.093  15.305 -0.0744  0.3167 -0.5803
   31TMC2    C3  481   3.568   4.019  15.392  0.1586 -1.0628 -0.6251
   31TMC2    C4  482   3.843   4.018  15.419  0.4724  0.4156  0.0791
   31TMC2    C5  483   3.758   3.967  15.510  0.1402  0.2443 -0.0073
   31TMC2    C6  484   3.621   3.958  15.504 -0.3993  0.2115  0.5896
   31TMC2     C  485   3.854   4.145  15.213 -0.2509  0.5309 -0.8813
   31TMC2     O  486   3.796   4.222  15.141 -0.3767  0.3584 -0.3419
   31TMC2     H  487   3.599   4.147  15.220 -1.6175 -3.2781 -2.1427
   31TMC2    H1  488   3.951   4.007  15.423  0.2223 -2.2695 -0.8056
   31TMC2    H2  489   3.562   3.899  15.573 -1.8913  1.1352  0.0840
   31TMC2    C7  490   3.823   3.894  15.620 -0.6525  0.5331 -0.4524
   31TMC2    C8  491   3.424   4.012  15.376 -0.8515  0.2251 -0.0569
   31TMC2    O1  492   3.930   3.841  15.604 -0.1644  0.7642  0.0315
   31TMC2    O2  493   3.350   3.985  15.470  0.4637  0.1216 -0.3756
   31TMC2    O5  494   3.398   4.024  15.244  0.3204  0.2457  0.2846
   31TMC2    H5  495   3.469   4.019  15.177  0.6699 -2.1102  0.8350
   32MPD2     C  496   4.283   4.224  14.938  0.1628  0.4632 -0.2879
   32MPD2    C1  497   4.167   4.290  14.939 -0.1945  1.3969 -0.4435
   32MPD2    C2  498   4.069   4.251  15.023  0.3469 -0.9230  0.0053
   32MPD2    C3  499   4.082   4.145  15.111 -0.2002  0.5318 -0.2242
   32MPD2    C4  500   4.204   4.081  15.114 -0.0161 -0.6409 -0.6338
   32MPD2    C5  501   4.299   4.113  15.020 -0.0370 -0.0836 -0.0400
   32MPD2     H  502   3.978   4.309  15.022 -0.3440 -2.0230 -1.3082
   32MPD2    H1  503   4.225   4.003  15.186 -0.2086  1.3415  1.5522
   32MPD2    H2  504   4.353   4.246  14.858 -1.6381 -0.5073 -2.1342
   32MPD2    H3  505   4.392   4.058  15.010  0.0584 -0.0573  0.6794
   32MPD2     N  506   3.984   4.102  15.207  0.2970 -0.2619 -0.1956
   32MPD2    H5  507   4.009   4.024  15.267  1.6569  3.0927  3.5661
   32MPD2    N1  508   4.158   4.389  14.842  0.1204  0.5651  0.5953
   32MPD2    H7  509   4.241   4.403  14.785  0.6150 -0.2541  1.1065
   33TMC2    C1  510   4.023   2.282  10.300  0.3717 -0.3848  0.6707
   33TMC2    C2  511   3.890   2.312  10.298  0.2246 -0.5576  0.8848
   33TMC2    C3  512   3.863   2.443  10.241 -0.9639 -0.1828  0.4234
   33TMC2    C4  513   4.118   2.352  10.229  0.1000  0.4554 -0.2732
   33TMC2    C5  514   4.076   2.467  10.169 -0.0191 -0.1170  0.8990
   33TMC2    C6  515   3.951   2.521  10.173  0.0076 -0.3856 -0.6734
   33TMC2     C  516   4.056   2.172  10.385 -0.6073 -0.0161 -0.0837
   33TMC2     O  517   3.960   2.098  10.389  0.3943 -0.2013  0.1688
   33TMC2     H  518   3.823   2.261  10.367  1.2380 -0.9558  1.5668
   33TMC2    H1  519   4.222   2.327  10.214  0.3154 -0.4323  2.6491
   33TMC2    H2  520   3.928   2.625  10.154 -0.5444 -0.4497 -0.3716
   33TMC2    C7  521   4.178   2.555  10.111  0.4638 -0.0096  0.5049
   33TMC2    C8  522   3.721   2.476  10.243 -0.2140  0.3056  0.6426
   33TMC2    O1  523   4.298   2.531  10.129 -0.5849  0.1041  0.2289
   33TMC2    O2  524   3.643   2.425  10.321 -0.3127 -1.0363 -0.1962
   33TMC2    O5  525   3.691   2.513  10.118 -0.6158  0.5007 -0.2830
   33TMC2    H5  526   3.758   2.514  10.046 -0.9046  0.8606 -0.5464
   34MPD2     C  527   4.322   2.013  10.782  0.7035 -0.1455 -0.8935
   34MPD2    C1  528   4.196   1.980  10.748 -0.1551  0.5269 -0.5515
   34MPD2    C2  529   4.152   2.026  10.624 -0.2173  0.0649  0.3771
   34MPD2    C3  530   4.229   2.108  10.545 -0.4966  0.5185 -0.1288
   34MPD2    C4  531   4.359   2.139  10.586  0.7504  0.9542 -0.1154
   34MPD2    C5  532   4.406   2.090  10.698  0.1819 -0.2822 -0.2272
   34MPD2     H  533   4.055   1.990  10.591  1.0886 -3.0693 -0.1026
   34MPD2    H1  534   4.439   2.191  10.534  0.8569  0.4846 -0.4156
   34MPD2    H2  535   4.368   1.981  10.875  1.4472 -0.1750 -1.2681
   34MPD2    H3  536   4.505   2.118  10.732  0.0552  0.1776 -0.2347
   34MPD2     N  537   4.184   2.176  10.435  0.0773  0.3741 -0.1504
   34MPD2    H5  538   4.250   2.241  10.393  1.2141 -0.3964  0.4654
   34MPD2    N1  539   4.124   1.906  10.845  0.4921 -0.7378 -0.2859
   34MPD2    H7  540   4.175   1.872  10.925 -0.4569  1.0090  1.0508
   35TMC2    C1  541   0.268   3.096  11.633 -0.7936 -0.3077 -0.4853
   35TMC2    C2  542   0.179   3.169  11.552  0.3855 -0.7398  0.1485
   35TMC2    C3  543   0.045   3.133  11.551 -1.0244  0.4364 -0.2347
   35TMC2    C4  544   0.228   2.980  11.690  0.5837  0.4175  0.6761
   35TMC2    C5  545   0.097   2.944  11.680 -0.1580 -0.4785  0.4692
   35TMC2    C6  546   0.004   3.019  11.613 -0.8132  0.2351  0.3461
   35TMC2     C  547   0.412   3.124  11.617  0.1268 -0.9095  0.4573
   35TMC2     O  548   0.438   3.221  11.547 -0.1844  0.6794  0.4884
   35TMC2     H  549   0.202   3.261  11.500 -1.1752 -0.6302 -0.3549
   35TMC2    H1  550   0.305   2.915  11.729  0.7113  0.1252 -0.0684
   35TMC2    H2  551   4.649   2.965  11.590 -0.5113 -0.3908  0.6154
   35TMC2    C7  552   0.040   2.831  11.750 -0.0209 -0.2427  0.3849
   35TMC2    C8  553   4.690   3.196  11.460  0.3122 -0.2352 -0.5096
   35TMC2    O1  554   4.684   2.771  11.692 -0.5430  0.0198 -0.3004
   35TMC2    O2  555   4.735   3.258  11.365  1.1171  0.1517  0.0099
   35TMC2    O5  556   4.566   3.176  11.498 -0.5999  0.0451 -0.0271
   35TMC2    H5  557   4.552   3.120  11.578  1.1632 -0.2058  0.1154
   36MPD2     C  558   0.904   3.079  11.706  0.0919 -0.5187 -0.4543
   36MPD2    C1  559   0.848   3.002  11.800  0.6455  0.0226  0.2549
   36MPD2    C2  560   0.715   2.991  11.796 -0.4136 -0.2673  0.2293
   36MPD2    C3  561   0.633   3.056  11.699  0.0756 -0.1229 -0.2019
   36MPD2    C4  562   0.701   3.125  11.602  0.9170 -0.4659 -0.0795
   36MPD2    C5  563   0.837   3.138  11.608 -0.0014  0.2326  0.1572
   36MPD2     H  564   0.668   2.943  11.881  3.5554 -2.3799  1.2120
   36MPD2    H1  565   0.655   3.189  11.527  1.3716  0.7918  0.7266
   36MPD2    H2  566   1.011   3.089  11.712  0.0737  0.2603 -1.4739
   36MPD2    H3  567   0.895   3.189  11.532  2.0012 -1.0425  0.8138
   36MPD2     N  568   0.496   3.051  11.699  0.4561  0.2920  0.0202
   36MPD2    H5  569   0.452   2.981  11.758  0.2802 -0.1645 -0.6529
   36MPD2    N1  570   0.933   2.947  11.906 -0.2606  0.7199 -0.4990
   36MPD2    H7  571   1.027   2.984  11.905  0.3633 -0.7662  2.7889
   37TMC2    C1  572   2.324   3.428  11.794 -0.2642 -0.2917  0.2598
   37TMC2    C2  573   2.206   3.389  11.735 -0.3073 -0.8635  0.1657
   37TMC2    C3  574   2.196   3.413  11.595 -1.1877  0.1999  0.5565
   37TMC2    C4  575   2.424   3.496  11.724  0.0795 -0.1894 -0.2474
   37TMC2    C5  576   2.414   3.516  11.584  0.2834 -0.4103  0.5026
   37TMC2    C6  577   2.296   3.473  11.520  0.5925 -0.7008  1.3388
   37TMC2     C  578   2.315   3.460  11.939 -0.4989  0.0967  0.2019
   37TMC2     O  579   2.211   3.465  12.003 -0.2834  0.6909 -0.4959
   37TMC2     H  580   2.127   3.346  11.795 -0.2662  0.5329  1.2091
   37TMC2    H1  581   2.503   3.554  11.771  0.2742  0.9802 -2.0046
   37TMC2    H2  582   2.289   3.484  11.413  0.4323  2.5865  1.6697
   37TMC2    C7  583   2.523   3.586  11.504 -0.4741  0.1051  0.7456
   37TMC2    C8  584   2.091   3.351  11.508  0.5770 -0.5757 -0.0110
   37TMC2    O1  585   2.619   3.629  11.573  0.2148  0.2056 -0.2809
   37TMC2    O2  586   2.106   3.341  11.388 -0.2804 -0.2790  0.0016
   37TMC2    O5  587   1.985   3.307  11.588 -0.0573  0.0442 -0.0021
   37TMC2    H5  588   2.003   3.302  11.684 -0.3077  1.2331  0.1136
   38MPD2     C  589   2.532   3.685  12.355  0.0352 -0.2186  0.9902
   38MPD2    C1  590   2.620   3.642  12.262  0.1883  0.3443  0.3166
   38MPD2    C2  591   2.586   3.585  12.141  0.4775 -0.8626 -0.6357
   38MPD2    C3  592   2.462   3.569  12.102  0.0226 -0.3015 -0.0990
   38MPD2    C4  593   2.364   3.620  12.184  0.5900  0.3128 -0.2954
   38MPD2    C5  594   2.401   3.688  12.301  0.1497  0.2772  0.8239
   38MPD2     H  595   2.662   3.543  12.075 -1.0872 -3.3832 -0.7956
   38MPD2    H1  596   2.259   3.607  12.162  0.3071 -0.8479  1.6799
   38MPD2    H2  597   2.553   3.729  12.452  0.3060  0.5912  0.5666
   38MPD2    H3  598   2.327   3.728  12.369 -0.7076 -1.3427  0.8634
   38MPD2     N  599   2.438   3.498  11.978 -0.0445 -0.8058  0.0352
   38MPD2    H5  600   2.520   3.468  11.927  1.1527  0.0874  1.4161
   38MPD2    N1  601   2.752   3.650  12.292 -0.2559  0.9512 -0.1308
   38MPD2    H7  602   2.810   3.635  12.211 -1.8639 -0.4405 -1.0329
   39TMC2    C1  603   1.107   4.234   1.593  0.0092  0.7120  0.6098
   39TMC2    C2  604   1.079   4.104   1.619 -0.6195 -0.5487  0.0966
   39TMC2    C3  605   1.168   4.036   1.696  0.2341 -0.5844  0.0589
   39TMC2    C4  606   1.225   4.296   1.623 -0.3131 -0.1860  0.5213
   39TMC2    C5  607   1.314   4.223   1.704  0.3945 -0.0783  0.1862
   39TMC2    C6  608   1.282   4.094   1.753 -0.1022 -0.5564 -0.1823
   39TMC2     C  609   1.003   4.304   1.525 -0.1176  0.5609  0.5746
   39TMC2     O  610   0.913   4.244   1.469 -0.1357  0.3566 -0.5500
   39TMC2     H  611   0.983   4.063   1.589 -0.1744 -1.7954  0.3945
   39TMC2    H1  612   1.243   4.396   1.586  0.6479 -0.5835 -0.0814
   39TMC2    H2  613   1.342   4.042   1.826 -0.4932  0.0075  0.5454
   39TMC2    C7  614   1.455   4.251   1.719  0.1106  0.0590 -0.5937
   39TMC2    C8  615   1.126   3.907   1.758 -0.0046  0.7190 -0.8988
   39TMC2    O1  616   1.524   4.157   1.758  0.4462  0.2334 -0.7956
   39TMC2    O2  617   1.163   3.876   1.871  0.4131 -0.3113 -0.0258
   39TMC2    O5  618   1.039   3.840   1.683 -0.1358 -0.1909 -0.1602
   39TMC2    H5  619   1.045   3.871   1.590  1.1041  0.3869  0.1098
   40MPD2     C  620   0.919   4.663   1.578  0.4388 -0.1242 -0.3735
   40MPD2    C1  621   0.920   4.540   1.507 -0.5135 -0.1649  0.0925
   40MPD2    C2  622   0.836   4.523   1.399 -0.8238 -0.1502 -0.5408
   40MPD2    C3  623   0.751   4.627   1.361 -0.5229 -0.6606 -0.1960
   40MPD2    C4  624   0.758   0.011   1.435 -0.4622  0.1293 -0.6648
   40MPD2    C5  625   0.837   0.029   1.543 -0.1283  0.8209  0.3640
   40MPD2     H  626   0.837   4.429   1.344  0.5570 -1.1657  1.2130
   40MPD2    H1  627   0.717   0.097   1.383 -0.2943  0.3714 -0.3925
   40MPD2    H2  628   0.978   4.687   1.665  1.9546 -0.3237 -1.3604
   40MPD2    H3  629   0.849   0.124   1.594  0.5824 -0.0853  1.8980
   40MPD2     N  630   0.679   4.640   1.242 -0.0198 -0.0022  0.1971
   40MPD2    H5  631   0.619   4.721   1.240 -1.2434 -0.9475 -2.1475
   40MPD2    N1  632   1.016   4.443   1.546 -0.6925 -0.0355 -0.6425
   40MPD2    H7  633   1.083   4.473   1.616  0.6730  0.2548 -2.0828
   41TMC2    C1  634   4.147   3.453  13.871 -0.1589  0.1127  0.3811
   41TMC2    C2  635   4.032   3.386  13.840  0.1325 -0.1104  0.5355
   41TMC2    C3  636   4.009   3.346  13.708 -0.0065  0.2669 -0.3486
   41TMC2    C4  637   4.231   3.486  13.772 -1.0688 -0.3834  0.1779
   41TMC2    C5  638   4.205   3.449  13.638 -0.8703 -0.3907 -0.0363
   41TMC2    C6  639   4.088   3.388  13.604 -0.2540 -0.4495  0.3104
   41TMC2     C  640   4.165   3.498  14.013  0.0918  0.1466 -0.1963
   41TMC2     O  641   4.074   3.474  14.097 -0.3967  0.0852 -0.2740
   41TMC2     H  642   3.968   3.349  13.920 -0.8208  1.7781  0.6416
   41TMC2    H1  643   4.321   3.544  13.789 -0.1459 -1.9950  0.8215
   41TMC2    H2  644   4.071   3.360  13.501 -0.0510  1.7939 -0.3363
   41TMC2    C7  645   4.286   3.489  13.531  0.1067  0.0117  0.8158
   41TMC2    C8  646   3.892   3.258  13.669 -0.2508 -0.4758  0.1560
   41TMC2    O1  647   4.230   3.512  13.428  0.0312  0.4690  0.0203
   41TMC2    O2  648   3.873   3.212  13.555  0.7015  0.1960  0.0587
   41TMC2    O5  649   3.791   3.277  13.755  0.3397 -0.6211 -0.1369
   41TMC2    H5  650   3.806   3.320  13.842  1.2210  0.6540 -0.9243
   42MPD2     C  651   4.230   3.659  14.249 -0.3314  0.3242  0.2657
   42MPD2    C1  652   4.329   3.608  14.161 -0.3167  0.0741 -0.5524
   42MPD2    C2  653   4.464   3.648  14.168 -0.3077 -0.6916  0.1302
   42MPD2    C3  654   4.505   3.723  14.279  0.1017 -1.0210 -0.1115
   42MPD2    C4  655   4.407   3.761  14.372 -0.5558 -0.4898  0.3514
   42MPD2    C5  656   4.274   3.726  14.361  0.4962  0.2043  0.1758
   42MPD2     H  657   4.533   3.630  14.086  0.8334  0.9369  0.7351
   42MPD2    H1  658   4.426   3.808  14.467  2.0298  0.3344 -0.5830
   42MPD2    H2  659   4.125   3.640  14.233  0.1100 -0.7919 -1.3037
   42MPD2    H3  660   4.202   3.750  14.438 -0.3327  0.9293 -0.8158
   42MPD2     N  661   4.635   3.782  14.293  0.0145 -0.8969  0.6451
   42MPD2    H5  662   4.662   3.844  14.369  3.1320 -1.1729 -0.2381
   42MPD2    N1  663   4.293   3.548  14.040 -0.2716  0.6447  0.3228
   42MPD2    H7  664   4.372   3.552  13.977 -1.4464  0.3309 -1.1737
   43TMC2    C1  665   1.074   1.240   1.350  0.0519  0.1015  1.0526
   43TMC2    C2  666   0.952   1.248   1.429  0.3998  0.3176  0.4093
   43TMC2    C3  667   0.911   1.376   1.468 -0.2711  0.0230 -0.3391
   43TMC2    C4  668   1.158   1.341   1.349 -0.1871 -0.3429  0.8527
   43TMC2    C5  669   1.110   1.463   1.386 -0.5836  0.4527  0.3156
   43TMC2    C6  670   0.988   1.486   1.444  0.6313  0.2947 -0.4485
   43TMC2     C  671   1.113   1.109   1.296  0.0714  0.1735  0.2584
   43TMC2     O  672   1.232   1.093   1.272  0.3932 -0.7541 -0.1230
   43TMC2     H  673   0.880   1.168   1.439  0.1303  0.5449  0.2871
   43TMC2    H1  674   1.258   1.328   1.310  0.1103  1.4729  1.0321
   43TMC2    H2  675   0.966   1.583   1.487  3.4855  0.3664  0.8724
   43TMC2    C7  676   1.199   1.579   1.379 -0.4221 -0.6586 -0.4265
   43TMC2    C8  677   0.834   1.375   1.588  0.7501  0.1850 -0.3558
   43TMC2    O1  678   1.308   1.551   1.416 -0.5861 -0.0351  0.5477
   43TMC2    O2  679   0.807   1.484   1.637  0.3420 -0.3150 -0.6213
   43TMC2    O5  680   0.897   1.274   1.656  0.2362  0.8417  0.0687
   43TMC2    H5  681   0.919   1.195   1.602 -1.1819  1.0065 -0.7576
   44MPD2     C  682   1.037   0.617   1.169  0.1497  0.5583  0.2880
   44MPD2    C1  683   1.148   0.700   1.148  0.2563  0.4197  0.3972
   44MPD2    C2  684   1.140   0.829   1.179 -0.5587  0.2902  0.1515
   44MPD2    C3  685   1.024   0.883   1.246 -0.1099  0.6431 -1.2056
   44MPD2    C4  686   0.922   0.799   1.270  0.0833 -0.3639  0.0302
   44MPD2    C5  687   0.925   0.673   1.221  0.7046 -0.9359  0.4255
   44MPD2     H  688   1.217   0.901   1.154  1.7679 -1.6796  1.7057
   44MPD2    H1  689   0.835   0.838   1.322 -0.4787 -4.2980  2.0209
   44MPD2    H2  690   1.032   0.511   1.145  0.7194  0.3397  1.1178
   44MPD2    H3  691   0.831   0.619   1.227 -0.1084  0.4265  0.0065
   44MPD2     N  692   1.010   1.019   1.282  0.1782 -0.6787  0.4527
   44MPD2    H5  693   0.913   1.047   1.294 -0.1520 -1.3323 -0.7174
   44MPD2    N1  694   1.258   0.656   1.075 -0.9606 -0.1406  0.2703
   44MPD2    H7  695   1.321   0.728   1.041  0.4583 -1.4541  0.1016
   45TMC2    C1  696   2.254   3.895   9.654 -0.0414 -0.5011 -0.4003
   45TMC2    C2  697   2.298   3.814   9.756 -0.0543  1.0348  0.0137
   45TMC2    C3  698   2.354   3.864   9.866  0.3503 -0.6134 -0.4170
   45TMC2    C4  699   2.259   4.029   9.677  0.2338 -0.5404  0.1157
   45TMC2    C5  700   2.306   4.083   9.795 -0.0087  0.2386 -0.3746
   45TMC2    C6  701   2.350   3.999   9.893 -0.3638 -0.0891  0.3085
   45TMC2     C  702   2.165   3.830   9.553 -0.1985 -0.4190  0.9193
   45TMC2     O  703   2.156   3.708   9.554 -0.0019 -0.1312  0.1978
   45TMC2     H  704   2.306   3.708   9.734 -0.5902  0.8901  0.5342
   45TMC2    H1  705   2.233   4.091   9.591  2.4315  0.8795  0.4635
   45TMC2    H2  706   2.369   4.022   9.997  1.1269 -1.8996  0.4492
   45TMC2    C7  707   2.341   4.228   9.810 -0.3130 -1.1248 -0.0384
   45TMC2    C8  708   2.400   3.775   9.966 -0.1472  1.0514 -0.3071
   45TMC2    O1  709   2.284   4.306   9.732 -0.0288  0.3706 -0.0775
   45TMC2    O2  710   2.482   3.801  10.055  0.2933 -0.2679 -0.2365
   45TMC2    O5  711   2.310   3.667   9.978 -0.0632 -0.0335 -0.1675
   45TMC2    H5  712   2.225   3.678   9.931 -0.4767 -3.1555 -0.1550
   46MPD2     C  713   1.952   3.779   9.365  0.5533 -0.5276  0.1351
   46MPD2    C1  714   1.956   3.902   9.430  0.1697  0.5290  0.3278
   46MPD2    C2  715   1.854   3.992   9.418 -0.5933 -0.4021  0.7625
   46MPD2    C3  716   1.740   3.961   9.341  0.1069 -0.1802 -0.0999
   46MPD2    C4  717   1.744   3.841   9.272  0.5647  0.7389  0.4988
   46MPD2    C5  718   1.848   3.752   9.281 -0.4983  0.4180  0.9783
   46MPD2     H  719   1.862   4.090   9.463  1.0863  0.1090 -0.6264
   46MPD2    H1  720   1.657   3.801   9.221  0.8427  0.0800  0.5301
   46MPD2    H2  721   2.032   3.706   9.363  1.0291  0.0373 -1.0276
   46MPD2    H3  722   1.848   3.658   9.226  0.5153 -0.0341  1.7437
   46MPD2     N  723   1.628   4.052   9.341 -0.2948  0.7026  0.0328
   46MPD2    H5  724   1.631   4.133   9.402  0.5033  0.9144 -0.2961
   46MPD2    N1  725   2.070   3.925   9.512 -0.2403 -0.0396  0.0901
   46MPD2    H7  726   2.073   4.019   9.550  1.2391 -0.3564  0.7279
   47TMC2    C1  727   0.297   4.669   8.893  0.4919 -0.1407  0.0661
   47TMC2    C2  728   0.220   0.034   8.835 -0.3452  0.2862 -0.2677
   47TMC2    C3  729   0.211   0.155   8.899 -0.7181 -0.2606  0.0051
   47TMC2    C4  730   0.381   4.709   8.997 -0.2413  0.4904 -0.4807
   47TMC2    C5  731   0.369   0.098   9.051 -0.2279  0.0579  0.1621
   47TMC2    C6  732   0.278   0.193   9.012 -0.0070 -0.3901 -0.0133
   47TMC2     C  733   0.298   4.530   8.838  0.2413 -0.0666  1.0189
   47TMC2     O  734   0.216   4.495   8.753  0.3144  0.2110  0.6979
   47TMC2     H  735   0.165   0.014   8.744  1.5702 -0.7085 -1.2176
   47TMC2    H1  736   0.451   4.641   9.044  0.1475  0.5374 -0.9970
   47TMC2    H2  737   0.280   0.299   9.034  2.3394 -0.2590 -0.9105
   47TMC2    C7  738   0.448   0.117   9.169 -0.3765 -0.4639 -0.3024
   47TMC2    C8  739   0.116   0.260   8.850  0.0602 -0.4326  0.3446
   47TMC2    O1  740   0.549   0.048   9.181 -0.6958  0.3553  0.1114
   47TMC2    O2  741   0.077   0.339   8.933  0.3751  0.8366  0.2903
   47TMC2    O5  742   0.176   0.294   8.732  0.2719  0.2932 -0.0139
   47TMC2    H5  743   0.228   0.221   8.694 -0.0142 -1.0219  2.1625
   48MPD2     C  744   0.379   4.249   8.749 -0.0830  0.1221  0.5850
   48MPD2    C1  745   0.432   4.311   8.861 -0.1815  0.1545 -0.4882
   48MPD2    C2  746   0.502   4.238   8.954  0.5351 -0.2774 -0.9792
   48MPD2    C3  747   0.526   4.108   8.936  0.1629 -0.7708  0.0286
   48MPD2    C4  748   0.477   4.043   8.825  0.4292 -0.4682 -0.3244
   48MPD2    C5  749   0.405   4.113   8.737  0.0396  0.2698  0.4397
   48MPD2     H  750   0.542   4.288   9.041  0.2721  2.1540 -2.2560
   48MPD2    H1  751   0.496   3.939   8.799 -1.6502 -0.5856 -1.3329
   48MPD2    H2  752   0.307   4.299   8.685 -0.7436  0.5180  1.6443
   48MPD2    H3  753   0.366   4.065   8.648 -1.4608  0.6977  0.8845
   48MPD2     N  754   0.593   4.055   9.049  0.5313 -0.1006 -0.3231
   48MPD2    H5  755   0.614   4.122   9.122  3.4078 -1.4999  0.1407
   48MPD2    N1  756   0.401   4.446   8.892  0.2353  0.7850 -1.0561
   48MPD2    H7  757   0.462   4.494   8.958  0.5050  0.0352 -0.7666
   49TMC2    C1  758   3.631   1.873  10.579 -0.2749 -0.1157  0.1892
   49TMC2    C2  759   3.630   1.867  10.443 -0.3105 -0.5116 -0.2876
   49TMC2    C3  760   3.636   1.989  10.379 -0.0982 -0.5092  0.3314
   49TMC2    C4  761   3.632   1.987  10.660 -0.1155  0.2961  0.0089
   49TMC2    C5  762   3.621   2.106  10.594 -0.7459  0.3617 -0.3433
   49TMC2    C6  763   3.616   2.102  10.457 -0.0820  0.3411  0.4615
   49TMC2     C  764   3.607   1.748  10.646 -0.1245 -0.1864 -0.7086
   49TMC2     O  765   3.644   1.651  10.582 -0.1582 -0.1177 -0.7005
   49TMC2     H  766   3.625   1.773  10.389  2.0515 -1.5044  1.2394
   49TMC2    H1  767   3.631   1.984  10.769 -0.0354  0.1001  0.0036
   49TMC2    H2  768   3.595   2.193  10.403  0.7301  1.3946  1.9047
   49TMC2    C7  769   3.672   2.224  10.647 -0.0610  0.7556  0.1807
   49TMC2    C8  770   3.640   2.008  10.238 -0.2712  0.7930 -0.3561
   49TMC2    O1  771   3.635   2.325  10.597 -0.2143 -0.4986  0.2535
   49TMC2    O2  772   3.582   2.099  10.191 -0.8643  0.1942  0.1200
   49TMC2    O5  773   3.711   1.909  10.171  0.6025 -0.2533 -0.2428
   49TMC2    H5  774   3.779   1.879  10.235 -1.4144 -0.7915  1.6462
   50MPD2     C  775   3.556   1.525  10.854  0.1413  0.5485  0.5210
   50MPD2    C1  776   3.511   1.655  10.864  0.7596 -0.5724  0.6326
   50MPD2    C2  777   3.461   1.690  10.982  1.0637 -0.5031 -0.3264
   50MPD2    C3  778   3.430   1.592  11.079  0.8656  0.5632  0.1858
   50MPD2    C4  779   3.460   1.454  11.061  0.2836 -0.4889 -0.3074
   50MPD2    C5  780   3.527   1.422  10.944 -0.2177 -0.3513  0.2564
   50MPD2     H  781   3.448   1.795  11.006  1.6210 -0.3125 -0.8799
   50MPD2    H1  782   3.434   1.378  11.134  0.9644  0.2312  0.6850
   50MPD2    H2  783   3.601   1.491  10.761 -0.1966 -1.4680  1.1137
   50MPD2    H3  784   3.561   1.321  10.922 -0.1322 -0.0913 -0.7634
   50MPD2     N  785   3.361   1.627  11.204 -0.4672  0.5210  0.2247
   50MPD2    H5  786   3.350   1.554  11.274  0.8493  0.4934  0.3966
   50MPD2    N1  787   3.549   1.760  10.770 -0.0167  0.3116  0.5035
   50MPD2    H7  788   3.519   1.856  10.788 -0.1821  0.5303 -1.0073
   51TMC2    C1  789   2.520   0.104   1.053 -0.4440  0.4783 -0.3678
   51TMC2    C2  790   2.426   0.203   1.036 -0.0638 -0.5019 -0.9369
   51TMC2    C3  791   2.469   0.321   0.978 -0.0619  0.6774  0.4909
   51TMC2    C4  792   2.645   0.111   1.010 -0.8382 -0.0427 -0.3242
   51TMC2    C5  793   2.683   0.234   0.954 -0.3989 -0.5864  0.4432
   51TMC2    C6  794   2.597   0.335   0.947 -0.5318  0.1009  0.0042
   51TMC2     C  795   2.499   4.721   1.129 -0.3925 -0.6879 -0.0853
   51TMC2     O  796   2.580   4.630   1.129 -0.0399 -0.5481 -0.4137
   51TMC2     H  797   2.320   0.183   1.048 -0.0549  1.1174  1.8993
   51TMC2    H1  798   2.719   0.034   1.028 -0.5020 -0.5750 -3.9243
   51TMC2    H2  799   2.636   0.429   0.909  1.4848  0.3379  2.6397
   51TMC2    C7  800   2.828   0.270   0.959 -0.1068  0.1714  0.8379
   51TMC2    C8  801   2.381   0.430   0.982 -0.0449 -0.4085  0.1183
   51TMC2    O1  802   2.870   0.371   0.907 -0.0529 -0.7410 -0.0048
   51TMC2    O2  803   2.263   0.419   0.964 -0.6081  0.0505  0.1746
   51TMC2    O5  804   2.449   0.537   1.045  0.9771 -0.0590 -1.1569
   51TMC2    H5  805   2.543   0.519   1.065  0.8039 -0.5187 -0.7481
   52MPD2     C  806   2.296   4.465   1.523  0.6847  0.1916 -0.7735
   52MPD2    C1  807   2.416   4.443   1.457  0.1138 -0.2965 -0.2183
   52MPD2    C2  808   2.447   4.520   1.348 -0.0938 -0.1165  0.5061
   52MPD2    C3  809   2.364   4.627   1.310  0.2455  0.4522  0.3334
   52MPD2    C4  810   2.254   4.646   1.384  0.8749  0.5510  0.9097
   52MPD2    C5  811   2.216   4.570   1.494  0.3007  0.5820 -0.1644
   52MPD2     H  812   2.531   4.491   1.286 -0.3425  3.8661 -1.7198
   52MPD2    H1  813   2.187   4.729   1.362  2.4483  1.7128  0.5656
   52MPD2    H2  814   2.262   4.426   1.619  1.8814  2.3809  0.5474
   52MPD2    H3  815   2.128   4.599   1.550  0.9396 -1.1116  1.7017
   52MPD2     N  816   2.382   4.721   1.205 -0.6410 -0.0293  0.2527
   52MPD2    H5  817   2.314   0.059   1.192  1.0363  1.6463  1.0519
   52MPD2    N1  818   2.514   4.342   1.500  0.2709 -0.0472  0.0291
   52MPD2    H7  819   2.607   4.338   1.461 -0.3114 -0.8332 -1.2866
   53TMC2    C1  820   3.181   3.808  11.229  0.2484 -0.1599  0.0328
   53TMC2    C2  821   3.304   3.767  11.179 -0.1634  0.7234 -0.0796
   53TMC2    C3  822   3.405   3.732  11.263  0.1440  0.0264  0.8731
   53TMC2    C4  823   3.171   3.837  11.364  0.5989 -0.5046 -0.6809
   53TMC2    C5  824   3.271   3.790  11.451 -0.2198 -0.2056 -0.1374
   53TMC2    C6  825   3.387   3.739  11.396  0.5436 -0.8513 -0.1573
   53TMC2     C  826   3.060   3.771  11.168  0.2704 -0.2091 -0.8105
   53TMC2     O  827   3.074   3.740  11.052 -0.2558 -0.8116  0.1744
   53TMC2     H  828   3.322   3.730  11.079 -1.1450  0.2180 -0.0599
   53TMC2    H1  829   3.088   3.895  11.403  1.7160  0.9579 -0.4840
   53TMC2    H2  830   3.471   3.713  11.460  0.1067  1.1839  1.2441
   53TMC2    C7  831   3.250   3.816  11.597 -0.0452  0.3110 -0.3449
   53TMC2    C8  832   3.536   3.707  11.214  0.1948 -0.6089 -0.3089
   53TMC2    O1  833   3.144   3.870  11.638  0.7200 -0.5661 -0.3580
   53TMC2    O2  834   3.617   3.665  11.291  0.4210  0.0218  0.5835
   53TMC2    O5  835   3.550   3.824  11.150 -0.5284 -0.0847 -0.3999
   53TMC2    H5  836   3.477   3.874  11.108 -0.6478  0.7498  0.7826
   54MPD2     C  837   2.792   3.663  11.074  0.2881 -0.1328 -0.3167
   54MPD2    C1  838   2.829   3.685  11.206  0.3336  0.8066 -0.3617
   54MPD2    C2  839   2.742   3.651  11.303  0.2183  0.4248 -0.9931
   54MPD2    C3  840   2.618   3.594  11.275  0.3176 -0.1348  0.6203
   54MPD2    C4  841   2.585   3.559  11.146 -0.2119 -0.0175  0.1587
   54MPD2    C5  842   2.675   3.595  11.044 -0.0750 -0.1298  0.4703
   54MPD2     H  843   2.779   3.639  11.404 -2.4939 -3.3110 -0.4171
   54MPD2    H1  844   2.494   3.506  11.117  0.0844 -1.3150  1.6040
   54MPD2    H2  845   2.864   3.684  10.995 -0.0045 -1.9072 -1.0526
   54MPD2    H3  846   2.646   3.570  10.942 -0.1298  1.4264  0.1067
   54MPD2     N  847   2.523   3.555  11.371 -0.0074 -0.6828 -0.3147
   54MPD2    H5  848   2.445   3.503  11.332  1.2558 -0.8718 -2.5444
   54MPD2    N1  849   2.957   3.735  11.251 -0.1298 -0.1585 -0.1569
   54MPD2    H7  850   2.978   3.742  11.349  0.1379  2.0917 -0.3764
   55TMC2    C1  851   4.231   1.194  17.547 -0.4030  0.6503  0.4122
   55TMC2    C2  852   4.240   1.150  17.418 -0.4919  0.3820  0.5747
   55TMC2    C3  853   4.244   1.019  17.398  0.1540 -0.0968  0.0529
   55TMC2    C4  854   4.235   1.104  17.652 -1.1048 -0.0767  0.4326
   55TMC2    C5  855   4.231   0.968  17.623  0.1217  0.0892  0.3330
   55TMC2    C6  856   4.243   0.928  17.491  0.1866 -0.1606  0.2412
   55TMC2     C  857   4.176   1.320  17.589 -0.1334 -0.0779 -0.5245
   55TMC2     O  858   4.110   1.325  17.691  0.1882  0.4490 -0.1993
   55TMC2     H  859   4.221   1.217  17.335  1.3340  0.4260  0.1781
   55TMC2    H1  860   4.253   1.146   0.007 -1.3973  1.9522 -0.3758
   55TMC2    H2  861   4.228   0.824  17.463 -2.1630  0.6199 -1.3594
   55TMC2    C7  862   4.239   0.867  17.727  0.6282 -0.3459 -0.5151
   55TMC2    C8  863   4.249   0.979  17.263  0.1984  0.3937 -0.0934
   55TMC2    O1  864   4.255   0.752  17.682 -0.1960  0.0279 -0.3883
   55TMC2    O2  865   4.297   0.872  17.233 -0.1609  0.0090 -0.0344
   55TMC2    O5  866   4.129   1.016  17.222  0.2928  0.2961 -0.3216
   55TMC2    H5  867   4.070   1.057  17.289 -0.9803 -1.6265 -0.2561
   56MPD2     C  868   4.202   1.630  17.395 -0.1618 -0.0230 -0.2351
   56MPD2    C1  869   4.176   1.558  17.512 -0.0970  0.3496 -0.4831
   56MPD2    C2  870   4.101   1.611  17.618  0.3718  0.0337 -0.7863
   56MPD2    C3  871   4.049   1.741  17.612 -0.0912  0.3653 -0.4192
   56MPD2    C4  872   4.084   1.817  17.504 -0.7855 -0.0525 -0.0357
   56MPD2    C5  873   4.145   1.760  17.396  0.2046  0.3836 -0.0260
   56MPD2     H  874   4.093   1.559  17.713  0.5033 -0.4213 -1.0242
   56MPD2    H1  875   4.051   1.920  17.494 -3.1612 -0.7444  0.6353
   56MPD2    H2  876   4.250   1.602  17.302  1.2056 -1.5676  0.9182
   56MPD2    H3  877   4.162   1.829  17.314  2.8903  0.5546  0.6761
   56MPD2     N  878   3.969   1.789  17.726  0.2576  0.0924  0.0848
   56MPD2    H5  879   3.980   1.722   0.058 -1.2273  0.8591  0.9732
   56MPD2    N1  880   4.213   1.421  17.504  0.1665 -0.0697 -0.4622
   56MPD2    H7  881   4.263   1.401  17.419  0.0401  0.1926 -0.6010
   57TMC2    C1  882   3.633   2.631  13.870 -0.3891 -0.2386 -1.1750
   57TMC2    C2  883   3.738   2.610  13.959 -0.3574 -0.2262 -0.3285
   57TMC2    C3  884   3.828   2.510  13.929 -0.1977 -0.6558 -0.5065
   57TMC2    C4  885   3.613   2.548  13.761 -0.1836 -0.4555  0.2570
   57TMC2    C5  886   3.700   2.437  13.749 -0.0366  0.4457  0.3411
   57TMC2    C6  887   3.800   2.410  13.842  0.4252 -0.5806 -0.8506
   57TMC2     C  888   3.513   2.686  13.923 -0.3796  0.8755 -0.1863
   57TMC2     O  889   3.430   2.728  13.845  0.1162  0.2536  0.5420
   57TMC2     H  890   3.765   2.685  14.033  0.3690 -0.0696 -0.7524
   57TMC2    H1  891   3.539   2.568  13.684  0.0152  0.2408  0.2482
   57TMC2    H2  892   3.871   2.332  13.816  2.0367  0.0371  1.6255
   57TMC2    C7  893   3.657   2.332  13.653  0.2957 -0.7214  0.3708
   57TMC2    C8  894   3.938   2.502  14.026  0.1332 -0.3386  0.5012
   57TMC2    O1  895   3.547   2.347  13.602  0.0563  0.1060 -0.2144
   57TMC2    O2  896   3.994   2.394  14.042 -0.3272 -0.6476 -0.0473
   57TMC2    O5  897   4.003   2.621  14.008 -0.6810 -0.4061 -0.1675
   57TMC2    H5  898   3.962   2.672  13.935 -1.9960 -0.6249  0.4228
   58MPD2     C  899   3.173   2.751  14.310  0.1653 -0.7845  0.4562
   58MPD2    C1  900   3.161   2.740  14.171 -0.5318 -0.4036  0.0861
   58MPD2    C2  901   3.264   2.718  14.083 -0.6485 -0.8641  0.5367
   58MPD2    C3  902   3.391   2.709  14.131 -0.3059 -0.1366 -0.7013
   58MPD2    C4  903   3.407   2.707  14.269 -0.0200  0.3987  0.2734
   58MPD2    C5  904   3.304   2.726  14.355  0.8952  0.4664 -0.7436
   58MPD2     H  905   3.251   2.723  13.976  0.7261  0.6171  0.4427
   58MPD2    H1  906   3.504   2.696  14.318  1.1352  0.4369 -1.9988
   58MPD2    H2  907   3.102   2.778  14.387  0.3692 -1.4557  0.8864
   58MPD2    H3  908   3.323   2.734  14.462 -2.4824  0.0198 -0.1091
   58MPD2     N  909   3.503   2.686  14.060 -0.2866 -0.6078 -0.2633
   58MPD2    H5  910   3.588   2.658  14.109  1.0184  0.8491 -1.6943
   58MPD2    N1  911   3.033   2.766  14.112 -0.2352  0.0690  0.5842
   58MPD2    H7  912   3.025   2.759  14.011  1.2980 -1.6882  0.5873
   59TMC2    C1  913   0.934   2.348  13.279  0.4434  0.5354  0.7620
   59TMC2    C2  914   0.807   2.308  13.259 -0.1883  0.0259 -0.3597
   59TMC2    C3  915   0.774   2.281  13.131 -0.4406 -0.7476 -0.6883
   59TMC2    C4  916   1.030   2.361  13.178  0.6385  0.6668 -0.1236
   59TMC2    C5  917   0.992   2.350  13.048  0.5238  0.5793 -0.6289
   59TMC2    C6  918   0.860   2.312  13.026  0.0022  0.0067 -0.3064
   59TMC2     C  919   0.972   2.393  13.417 -0.6570  0.0558 -0.4786
   59TMC2     O  920   0.906   2.355  13.514 -0.3264  0.2644  0.4550
   59TMC2     H  921   0.745   2.280  13.344  1.1371  0.3300  0.7016
   59TMC2    H1  922   1.131   2.381  13.213  0.0851 -1.5428  2.7562
   59TMC2    H2  923   0.819   2.303  12.926  0.7498  0.1792 -0.6263
   59TMC2    C7  924   1.080   2.366  12.941  0.2155  0.1525  0.2917
   59TMC2    C8  925   0.639   2.223  13.096 -0.7372 -0.3692 -0.7535
   59TMC2    O1  926   1.198   2.335  12.959 -0.4846  0.7838 -0.4068
   59TMC2    O2  927   0.588   2.240  12.989  0.0488  0.8062  0.2316
   59TMC2    O5  928   0.572   2.165  13.201  0.1705 -0.2611  0.4911
   59TMC2    H5  929   0.635   2.128  13.267  1.4806 -1.5491 -1.4785
   60MPD2     C  930   1.071   2.536  13.651 -0.0232  0.4919 -0.0242
   60MPD2    C1  931   1.114   2.568  13.521 -0.1674  0.0745  0.1093
   60MPD2    C2  932   1.210   2.665  13.509  0.3135 -0.2370  0.2063
   60MPD2    C3  933   1.258   2.741  13.620 -0.8027 -0.1347  0.0551
   60MPD2    C4  934   1.214   2.702  13.746 -0.1221 -0.1214  0.8634
   60MPD2    C5  935   1.121   2.603  13.759 -0.8538  0.1481 -0.9122
   60MPD2     H  936   1.255   2.688  13.413 -1.4503 -1.0347 -0.8043
   60MPD2    H1  937   1.265   2.745  13.832 -0.3059  1.6504  0.0889
   60MPD2    H2  938   0.998   2.463  13.683 -0.9985  1.4902  0.0457
   60MPD2    H3  939   1.093   2.581  13.861  0.2498  0.0584 -0.6294
   60MPD2     N  940   1.356   2.848  13.614  0.5239 -0.6479  0.1971
   60MPD2    H5  941   1.381   2.890  13.703  1.4568  1.7196 -1.2065
   60MPD2    N1  942   1.071   2.493  13.411  0.3642  0.6778 -0.7186
   60MPD2    H7  943   1.107   2.526  13.322  0.3647 -0.3709 -1.1038
   61TMC2    C1  944   0.773   3.987  15.843  0.4675  0.1837 -0.7437
   61TMC2    C2  945   0.723   3.986  15.969 -0.0150 -0.1917  0.1174
   61TMC2    C3  946   0.620   4.069  16.000 -0.2062  0.0250 -0.1743
   61TMC2    C4  947   0.718   4.065  15.748 -0.1631  0.6800 -0.7953
   61TMC2    C5  948   0.605   4.139  15.778 -0.0676 -0.0525 -0.0807
   61TMC2    C6  949   0.561   4.149  15.911 -0.2373 -0.5809  0.7990
   61TMC2     C  950   0.847   3.867  15.800 -0.1361  0.0837 -0.0220
   61TMC2     O  951   0.854   3.770  15.873  0.6769  0.3005 -0.1006
   61TMC2     H  952   0.758   3.914  16.043  0.7882  0.9555  0.8683
   61TMC2    H1  953   0.758   4.053  15.647 -0.2322 -0.6189 -0.6692
   61TMC2    H2  954   0.494   4.227  15.944 -0.8922 -1.0720  0.6362
   61TMC2    C7  955   0.547   4.216  15.676 -0.6590 -0.0992  0.2518
   61TMC2    C8  956   0.570   4.072  16.136 -0.6127  0.5006 -0.5639
   61TMC2    O1  957   0.606   4.227  15.570 -0.0794 -0.3308  0.2853
   61TMC2    O2  958   0.641   4.052  16.234 -0.8293  0.4443 -0.2874
   61TMC2    O5  959   0.446   4.137  16.142  0.4902  0.0816 -0.2768
   61TMC2    H5  960   0.400   4.145  16.055 -2.7868  0.4883  1.5095
   62MPD2     C  961   0.995   3.639  15.648  0.1881 -0.1341 -0.1833
   62MPD2    C1  962   0.965   3.762  15.597  0.0405  0.3196 -0.0693
   62MPD2    C2  963   1.011   3.792  15.471 -0.4521 -0.3398 -0.1873
   62MPD2    C3  964   1.073   3.697  15.389 -0.0773  0.3346 -0.4342
   62MPD2    C4  965   1.095   3.575  15.444 -0.2725  0.6885 -0.4565
   62MPD2    C5  966   1.055   3.548  15.569 -0.1009  0.4500  0.7371
   62MPD2     H  967   0.993   3.895  15.441 -1.0281  0.3854  2.6721
   62MPD2    H1  968   1.142   3.494  15.389  1.9865  2.4523 -1.1431
   62MPD2    H2  969   0.959   3.611  15.746  2.5149  0.2349  0.7718
   62MPD2    H3  970   1.061   3.455  15.625 -0.2057  0.3970  0.6600
   62MPD2     N  971   1.114   3.720  15.251  0.2870 -0.1759  0.7536
   62MPD2    H5  972   1.155   3.648  15.192  0.2096 -0.9378  1.6250
   62MPD2    N1  973   0.906   3.865  15.675  0.0120 -0.0211  0.0490
   62MPD2    H7  974   0.905   3.953  15.624  3.1918  0.1260  0.2408
   63TMC2    C1  975   0.257   3.886  10.478 -0.1954  0.1898 -0.0379
   63TMC2    C2  976   0.310   3.914  10.598 -0.5250  0.6735  0.1676
   63TMC2    C3  977   0.401   4.017  10.606  0.3610 -0.6933  0.2733
   63TMC2    C4  978   0.300   3.944  10.359 -0.5187 -0.3263 -0.3315
   63TMC2    C5  979   0.390   4.045  10.371  0.4537  0.2557 -0.4022
   63TMC2    C6  980   0.427   4.097  10.497 -0.7820 -0.6159  0.5505
   63TMC2     C  981   0.171   3.768  10.482  0.0217  0.0432  0.3879
   63TMC2     O  982   0.181   3.693  10.578 -0.1381 -0.4963  0.0415
   63TMC2     H  983   0.279   3.855  10.684 -2.0244  1.1318 -0.0685
   63TMC2    H1  984   0.279   3.901  10.262 -3.8469  1.5244 -0.4376
   63TMC2    H2  985   0.494   4.181  10.511 -0.3408 -1.0950  1.3577
   63TMC2    C7  986   0.406   4.123  10.256 -0.2134  0.7171 -0.1651
   63TMC2    C8  987   0.462   4.063  10.725 -0.3509  0.7722 -0.1614
   63TMC2    O1  988   0.361   4.082  10.148  0.1400  0.6850  0.5417
   63TMC2    O2  989   0.523   4.166  10.737 -0.1742  0.5115 -0.5043
   63TMC2    O5  990   0.429   3.989  10.830 -0.0528  0.5294 -0.5576
   63TMC2    H5  991   0.385   3.915  10.784  2.4548 -1.3474  0.0884
   64MPD2     C  992   4.540   3.473  10.284  0.0624 -0.0801 -0.9038
   64MPD2    C1  993   4.625   3.453  10.390  0.5424 -0.6708  0.7792
   64MPD2    C2  994   4.725   3.547  10.415  0.0103  0.8219 -0.1511
   64MPD2    C3  995   4.732   3.663  10.342 -0.2410  0.4349 -0.4897
   64MPD2    C4  996   4.647   3.678  10.233  0.4160  0.3956  0.4949
   64MPD2    C5  997   4.552   3.583  10.204 -0.7778 -0.5006  0.0452
   64MPD2     H  998   0.063   3.529  10.491 -1.1764 -0.0740  0.7939
   64MPD2    H1  999   4.647   3.771  10.177  4.0538 -0.4855 -0.9232
   64MPD2    H2 1000   4.454   3.409  10.272  1.2908 -1.8002 -0.5780
   64MPD2    H3 1001   4.479   3.611  10.128 -0.8869  1.4510  0.8600
   64MPD2     N 1002   0.095   3.756  10.366  0.7118 -0.0060 -0.6202
   64MPD2    H5 1003   0.090   3.836  10.304  2.5827  0.2856 -0.3833
   64MPD2    N1 1004   4.625   3.330  10.458  0.1669 -0.6321 -0.4760
   64MPD2    H7 1005   4.701   3.320  10.523  0.4216 -2.1667 -1.0294
   65TMC2    C1 1006   1.383   3.500  15.695  0.2985  0.4169 -0.9157
   65TMC2    C2 1007   1.426   3.433  15.582  0.1242 -0.3196 -0.3210
   65TMC2    C3 1008   1.452   3.513  15.476  0.3510  0.1491  0.1679
   65TMC2    C4 1009   1.380   3.633  15.704  0.2691  0.5695 -0.1126
   65TMC2    C5 1010   1.396   3.709  15.590 -0.0014 -0.7007  0.1398
   65TMC2    C6 1011   1.429   3.647  15.469  0.1347 -0.2143 -0.3077
   65TMC2     C 1012   1.326   3.420  15.801 -0.2106 -0.0813 -0.0298
   65TMC2     O 1013   1.314   3.479  15.910 -0.0077 -0.2149 -0.2643
   65TMC2     H 1014   1.450   3.328  15.573 -1.5879 -0.6319 -1.2201
   65TMC2    H1 1015   1.349   3.678  15.798  1.6944 -1.8267  1.5229
   65TMC2    H2 1016   1.441   3.704  15.378  0.3871  1.3066  0.6759
   65TMC2    C7 1017   1.379   3.853  15.587  0.6538 -0.0426 -0.8129
   65TMC2    C8 1018   1.497   3.441  15.357  0.7885 -0.7703  1.0309
   65TMC2    O1 1019   1.412   3.919  15.486  1.0245  0.4478 -0.0437
   65TMC2    O2 1020   1.489   3.319  15.352  0.3775 -0.1637 -1.0640
   65TMC2    O5 1021   1.584   3.515  15.290  0.3416 -0.4934  0.7168
   65TMC2    H5 1022   1.577   3.612  15.306  0.0696 -0.5291  0.8114
   66MPD2     C 1023   1.236   3.211  16.001  0.4599 -0.2138  0.9003
   66MPD2    C1 1024   1.258   3.185  15.861  0.7790  1.2669 -0.1286
   66MPD2    C2 1025   1.233   3.058  15.812 -0.3142 -0.1376  0.4700
   66MPD2    C3 1026   1.197   2.957  15.896  0.0861  0.6875 -0.3415
   66MPD2    C4 1027   1.176   2.982  16.032  0.1893 -0.6259  1.3471
   66MPD2    C5 1028   1.189   3.110  16.086  0.5853 -0.7356  0.2142
   66MPD2     H 1029   1.233   3.054  15.704  0.8923  1.7431  0.4016
   66MPD2    H1 1030   1.145   2.900  16.096  0.2409 -0.5420  1.4782
   66MPD2    H2 1031   1.257   3.306  16.047 -1.2321  1.2842 -1.4388
   66MPD2    H3 1032   1.157   3.124  16.188 -0.4052 -1.4618  0.0099
   66MPD2     N 1033   1.185   2.822  15.848  0.4733 -0.2290 -0.7230
   66MPD2    H5 1034   1.153   2.748  15.909 -0.1988  1.4351  0.9413
   66MPD2    N1 1035   1.294   3.292  15.772 -0.0329  0.2424  0.0710
   66MPD2    H7 1036   1.320   3.261  15.679  0.5812 -1.4091  0.7830
   67TMC2    C1 1037   1.566   2.589  14.682  0.0723  0.5564 -0.1585
   67TMC2    C2 1038   1.570   2.696  14.599  0.2449 -0.5708 -0.5875
   67TMC2    C3 1039   1.686   2.762  14.578 -0.2865  0.4956  0.5472
   67TMC2    C4 1040   1.672   2.549  14.752 -0.1637  0.4609  0.5536
   67TMC2    C5 1041   1.786   2.623  14.739  0.6105 -0.7591 -1.0730
   67TMC2    C6 1042   1.800   2.723  14.648  0.2934 -0.0481 -0.5896
   67TMC2     C 1043   1.472   2.487  14.646 -0.0646 -0.2407  0.0524
   67TMC2     O 1044   1.530   2.379  14.641 -0.0083 -0.3226  0.3976
   67TMC2     H 1045   1.487   2.741  14.546  0.5783  1.7839  0.8841
   67TMC2    H1 1046   1.654   2.463  14.816 -0.5806  0.6036  0.6248
   67TMC2    H2 1047   1.900   2.765  14.635 -0.0417  0.7012 -0.7253
   67TMC2    C7 1048   1.889   2.601  14.838 -0.1519  0.2947 -0.0269
   67TMC2    C8 1049   1.690   2.863  14.484 -0.6808 -0.8882  0.2561
   67TMC2    O1 1050   2.000   2.635  14.804  0.1425  0.1484 -0.6447
   67TMC2    O2 1051   1.602   2.944  14.465  0.1302  0.2239 -0.2686
   67TMC2    O5 1052   1.788   2.823  14.399  0.1161  0.0494  0.3090
   67TMC2    H5 1053   1.863   2.764  14.421  2.7490  2.2613 -2.8718
   68MPD2     C 1054   1.254   2.306  14.552  0.6173  0.1234 -0.1701
   68MPD2    C1 1055   1.246   2.446  14.563 -0.3044 -0.3247  0.9832
   68MPD2    C2 1056   1.131   2.503  14.527  0.1569  0.2452  0.2813
   68MPD2    C3 1057   1.026   2.437  14.474  0.4234 -0.3023  0.5629
   68MPD2    C4 1058   1.044   2.303  14.442 -0.0457  0.8664  0.1122
   68MPD2    C5 1059   1.151   2.240  14.493  0.2631  0.0548 -0.0731
   68MPD2     H 1060   1.114   2.607  14.554 -1.2723  0.1081 -0.1127
   68MPD2    H1 1061   0.971   2.246  14.386 -0.6151 -0.0314  1.7751
   68MPD2    H2 1062   1.337   2.252  14.597  1.1380  1.3706  0.3647
   68MPD2    H3 1063   1.152   2.133  14.477  0.2979  0.2423 -1.3541
   68MPD2     N 1064   0.897   2.487  14.440 -0.5465  0.6788  0.1690
   68MPD2    H5 1065   0.850   2.425  14.375  0.0437  0.4826 -0.0690
   68MPD2    N1 1066   1.347   2.527  14.615  0.1363 -0.0621 -0.0024
   68MPD2    H7 1067   1.335   2.627  14.608  1.7204  0.1962  0.7783
   69TMC2    C1 1068   3.735   3.815  12.335 -0.2919  0.2614 -0.3730
   69TMC2    C2 1069   3.642   3.912  12.342  0.9110 -0.2695 -0.0672
   69TMC2    C3 1070   3.626   3.996  12.241  0.3647  0.4726  0.0095
   69TMC2    C4 1071   3.821   3.807  12.233  0.0282 -0.0934  0.5680
   69TMC2    C5 1072   3.800   3.883  12.127  0.0420 -0.2448  0.7156
   69TMC2    C6 1073   3.704   3.981  12.127  0.1224 -0.5952  0.2696
   69TMC2     C 1074   3.798   3.769  12.454 -0.4090 -0.7379 -0.0372
   69TMC2     O 1075   3.915   3.791  12.477  0.3094 -0.4927 -0.0670
   69TMC2     H 1076   3.586   3.931  12.433  0.4661 -0.3296 -0.3292
   69TMC2    H1 1077   3.895   3.728  12.237 -1.1163 -1.2237 -0.6118
   69TMC2    H2 1078   3.701   4.045  12.039  1.3146 -0.6279  0.1985
   69TMC2    C7 1079   3.869   3.836  12.009  0.0851 -0.1593  0.3998
   69TMC2    C8 1080   3.559   4.121  12.263  0.9029 -0.5829  0.0127
   69TMC2    O1 1081   3.975   3.775  12.025  0.0307 -0.1194 -0.3875
   69TMC2    O2 1082   3.533   4.157  12.375  0.4112  0.5453 -0.2621
   69TMC2    O5 1083   3.511   4.165  12.143 -0.0512 -0.1590  0.1401
   69TMC2    H5 1084   3.517   4.110  12.062  0.3801 -1.9693  1.3975
   70MPD2     C 1085   3.883   3.599  12.676  0.5398  0.6676 -0.0833
   70MPD2    C1 1086   3.751   3.634  12.655  0.2232 -0.1852 -0.0923
   70MPD2    C2 1087   3.647   3.587  12.734 -0.8533  0.3300  0.0794
   70MPD2    C3 1088   3.677   3.494  12.832  0.8278 -0.1418  0.2149
   70MPD2    C4 1089   3.807   3.463  12.859  0.2848  0.5449 -0.3764
   70MPD2    C5 1090   3.906   3.505  12.774 -0.5011  0.6083  0.0171
   70MPD2     H 1091   3.546   3.617  12.707 -0.9383 -0.4751 -0.4853
   70MPD2    H1 1092   3.838   3.386  12.928 -1.3199 -0.0864 -0.3712
   70MPD2    H2 1093   3.964   3.629  12.611  0.5155 -0.8377 -0.8048
   70MPD2    H3 1094   4.004   3.463  12.792 -0.5936  0.6105  0.5268
   70MPD2     N 1095   3.585   3.441  12.916  0.9968 -0.3925  0.0651
   70MPD2    H5 1096   3.617   3.384  12.994  1.6793 -0.2680 -0.1210
   70MPD2    N1 1097   3.710   3.714  12.541 -0.4747  0.4092  0.2372
   70MPD2    H7 1098   3.610   3.719  12.527 -0.4730  1.3032  0.4952
   71TMC2    C1 1099   0.780   3.789   1.034  0.0999  0.0296 -0.1556
   71TMC2    C2 1100   0.904   3.802   1.100  0.0523 -0.8737 -0.0302
   71TMC2    C3 1101   0.908   3.798   1.238  0.0636  0.2112 -0.3070
   71TMC2    C4 1102   0.664   3.771   1.112  0.0094  0.1212  0.0994
   71TMC2    C5 1103   0.668   3.765   1.246 -0.0621  0.6503  0.6246
   71TMC2    C6 1104   0.791   3.774   1.307  0.6041 -0.4750  0.7564
   71TMC2     C 1105   0.777   3.791   0.891  0.0309  0.3178 -0.3822
   71TMC2     O 1106   0.881   3.817   0.828 -0.1347 -0.1039 -0.1385
   71TMC2     H 1107   0.989   3.801   1.033  0.5687 -1.2173  0.6315
   71TMC2    H1 1108   0.566   3.781   1.065 -0.0363  0.9953  0.3813
   71TMC2    H2 1109   0.805   3.756   1.413 -2.0504 -1.9326  0.8770
   71TMC2    C7 1110   0.553   3.758   1.335  0.0891  0.0616 -0.1902
   71TMC2    C8 1111   1.017   3.850   1.312 -0.1373  0.0983 -0.5638
   71TMC2    O1 1112   0.581   3.772   1.454  0.0717  0.0194  0.3749
   71TMC2    O2 1113   1.007   3.890   1.432  1.0471  0.8355  0.3170
   71TMC2    O5 1114   1.122   3.871   1.233  0.0513 -0.1420 -0.5944
   71TMC2    H5 1115   1.117   3.816   1.152 -3.7375  0.8157 -0.9937
   72MPD2     C 1116   0.591   3.687   0.430 -0.0179  0.8647  0.0877
   72MPD2    C1 1117   0.674   3.783   0.471  0.2212  0.5674 -0.1221
   72MPD2    C2 1118   0.693   3.797   0.603  0.1536 -0.1072  0.4776
   72MPD2    C3 1119   0.642   3.712   0.699  0.2189  0.1428 -0.6039
   72MPD2    C4 1120   0.551   3.615   0.656  0.5456 -0.2066 -0.2966
   72MPD2    C5 1121   0.528   3.603   0.524 -0.6883  0.2325 -0.4957
   72MPD2     H 1122   0.768   3.871   0.631 -0.9788  0.3250  2.4182
   72MPD2    H1 1123   0.517   3.539   0.725  1.0638 -0.3245 -0.1743
   72MPD2    H2 1124   0.561   3.668   0.327 -0.2007  1.6878 -0.0078
   72MPD2    H3 1125   0.464   3.525   0.483  0.2362  1.0843 -3.5199
   72MPD2     N 1126   0.664   3.731   0.836 -0.0515 -0.5004 -0.7224
   72MPD2    H5 1127   0.600   3.693   0.905  0.8672  1.1760  1.0242
   72MPD2    N1 1128   0.730   3.883   0.378  0.4879  0.2922 -0.3350
   72MPD2    H7 1129   0.770   3.967   0.420 -0.7637  0.8467 -0.2454
   73TMC2    C1 1130   0.473   1.756  14.255  0.2678  0.1170  0.0331
   73TMC2    C2 1131   0.411   1.817  14.363 -0.3967  1.2352  0.1867
   73TMC2    C3 1132   0.400   1.731  14.472 -0.7077  0.0587 -0.4190
   73TMC2    C4 1133   0.505   1.620  14.253  0.3555  0.1421  0.6767
   73TMC2    C5 1134   0.492   1.546  14.366  0.1349  0.0356  0.2752
   73TMC2    C6 1135   0.445   1.599  14.486  0.0410 -0.2198  0.0090
   73TMC2     C 1136   0.590   1.814  14.203 -0.3140 -0.8374 -0.0678
   73TMC2     O 1137   0.683   1.748  14.162 -1.0691  0.6648 -0.3724
   73TMC2     H 1138   0.361   1.913  14.365 -2.2870  0.2892 -1.0283
   73TMC2    H1 1139   0.539   1.572  14.162 -1.6330  0.1009 -0.0475
   73TMC2    H2 1140   0.453   1.541  14.577 -0.8700 -0.1262  0.1527
   73TMC2    C7 1141   0.607   1.467  14.404  0.5206 -0.4134  0.4552
   73TMC2    C8 1142   0.342   1.798  14.584 -0.1114  0.3414  0.2473
   73TMC2    O1 1143   0.595   1.368  14.478  0.0080  0.1130  0.0285
   73TMC2    O2 1144   0.376   1.910  14.609 -0.5168 -0.0157  0.0332
   73TMC2    O5 1145   0.320   1.703  14.669  0.1902 -0.4002  0.4310
   73TMC2    H5 1146   0.273   1.634  14.618  2.8787 -0.9917 -1.2867
   74MPD2     C 1147   0.910   2.205  14.124 -0.3444  0.8664  0.0173
   74MPD2    C1 1148   0.937   2.079  14.170  0.1389 -0.2723 -0.0318
   74MPD2    C2 1149   0.831   1.994  14.186  0.3394 -0.6849  0.4668
   74MPD2    C3 1150   0.698   2.036  14.191 -0.0457 -0.1650 -0.2075
   74MPD2    C4 1151   0.677   2.173  14.168  0.2211  0.0963 -0.4275
   74MPD2    C5 1152   0.782   2.255  14.137  0.1715  0.5268 -0.3548
   74MPD2     H 1153   0.859   1.892  14.213 -1.3401 -0.8488  1.6141
   74MPD2    H1 1154   0.580   2.221  14.171  0.1101 -0.1064 -0.9266
   74MPD2    H2 1155   0.992   2.271  14.097  0.6833 -0.3215  0.2076
   74MPD2    H3 1156   0.767   2.358  14.106  1.0972 -0.1268 -2.9875
   74MPD2     N 1157   0.587   1.953  14.218  0.3028  0.0340  0.3550
   74MPD2    H5 1158   0.503   2.010  14.218  0.9260  0.9482 -0.3218
   74MPD2    N1 1159   1.068   2.036  14.142  0.0348 -0.3144  0.2913
   74MPD2    H7 1160   1.133   2.098  14.094  0.6726  0.0934  1.6968
   75TMC2    C1 1161   0.706   2.615  14.427  0.1136 -0.0173  0.6908
   75TMC2    C2 1162   0.606   2.681  14.505  0.5662 -0.9795 -0.2611
   75TMC2    C3 1163   0.480   2.667  14.469  0.6948  0.2371  0.1622
   75TMC2    C4 1164   0.673   2.545  14.311  0.2936 -0.6943  0.2473
   75TMC2    C5 1165   0.540   2.541  14.279  0.6822  0.0309  0.0383
   75TMC2    C6 1166   0.444   2.597  14.353 -0.1432  0.4446 -0.5442
   75TMC2     C 1167   0.826   2.588  14.494 -0.0391  0.2136  0.2153
   75TMC2     O 1168   0.846   2.649  14.601  0.3673 -0.4311 -0.1576
   75TMC2     H 1169   0.635   2.742  14.590  0.5521 -0.1979 -0.8191
   75TMC2    H1 1170   0.756   2.511  14.250  2.6238  3.6399  1.0293
   75TMC2    H2 1171   0.337   2.581  14.345  0.0031  0.2498 -2.0395
   75TMC2    C7 1172   0.509   2.548  14.137 -0.0165 -0.1282  0.3243
   75TMC2    C8 1173   0.394   2.706  14.577 -0.4148  0.1769  0.4172
   75TMC2    O1 1174   0.583   2.491  14.055  0.3007  0.2804 -0.1354
   75TMC2    O2 1175   0.417   2.666  14.688 -0.1403 -0.0883 -0.2545
   75TMC2    O5 1176   0.337   2.829  14.556  0.0970  1.0369 -0.3616
   75TMC2    H5 1177   0.335   2.853  14.461 -1.1990  0.8595 -0.3773
   76TMC2    C1 1178   0.032   3.157  12.214 -0.0902 -0.5488  0.2200
   76TMC2    C2 1179   4.645   3.127  12.269 -0.5830 -0.1014  0.0164
   76TMC2    C3 1180   4.641   3.060  12.386  0.8622 -0.1629  0.7895
   76TMC2    C4 1181   0.145   3.119  12.286  0.5306  0.4543  0.6170
   76TMC2    C5 1182   0.132   3.057  12.407  0.1356 -0.9209  0.6185
   76TMC2    C6 1183   0.013   3.031  12.466 -0.7351  0.4380  0.5040
   76TMC2     C 1184   0.032   3.183  12.069  0.5863 -0.1538 -0.6972
   76TMC2     O 1185   4.662   3.163  12.009 -0.5034  0.3437  0.0844
   76TMC2     H 1186   4.557   3.149  12.209  0.6778 -1.0538 -2.2063
   76TMC2    H1 1187   0.243   3.133  12.241 -1.3838 -3.9658 -4.9259
   76TMC2    H2 1188   0.006   2.958  12.546 -1.5155 -0.2016 -0.1560
   76TMC2    C7 1189   0.249   2.992  12.469 -0.3861 -0.3807 -0.3980
   76TMC2    C8 1190   4.521   2.998  12.422  0.4832  0.0228  0.2812
   76TMC2    O1 1191   0.336   2.949  12.393 -0.4755  0.2297 -0.0874
   76TMC2    O2 1192   4.421   3.004  12.352 -0.2227 -0.4918  0.3212
   76TMC2    O5 1193   4.529   3.040  12.554  0.2495 -0.1275  0.0201
   76TMC2    H5 1194   4.607   3.096  12.575  0.8075  0.1531 -2.7898
   77MPD2     C 1195   0.175   3.483  11.675 -1.1936  0.3438 -0.8198
   77MPD2    C1 1196   0.052   3.435  11.712  0.4842  0.5553 -0.0939
   77MPD2    C2 1197   0.046   3.364  11.829 -0.5299 -0.2405  0.4703
   77MPD2    C3 1198   0.152   3.334  11.915 -0.4224 -0.6616 -0.2092
   77MPD2    C4 1199   0.274   3.394  11.877  0.0991  0.0136  0.6506
   77MPD2    C5 1200   0.283   3.458  11.759  0.0498  0.6296  0.5625
   77MPD2     H 1201   4.680   3.344  11.858 -0.0124 -1.8924  1.1748
   77MPD2    H1 1202   0.363   3.372  11.934 -0.3031 -3.7811 -0.1813
   77MPD2    H2 1203   0.188   3.542  11.585  0.2672  1.4062  0.0926
   77MPD2    H3 1204   0.380   3.502  11.741  1.4040 -1.6443  2.3065
   77MPD2     N 1205   0.146   3.244  12.025 -0.0197  0.5222 -0.4172
   77MPD2    H5 1206   0.232   3.238  12.078  0.6499  0.1287 -1.5296
   77MPD2    N1 1207   4.668   3.468  11.646  0.3249 -0.0039  0.3342
   77MPD2    H7 1208   4.582   3.436  11.689 -1.1169 -0.0918 -2.5571
   78TMC2    C1 1209   0.520   3.410   1.308  0.2933  0.5905 -0.5940
   78TMC2    C2 1210   0.416   3.415   1.400  0.6609 -0.1839 -0.8864
   78TMC2    C3 1211   0.445   3.429   1.535 -0.1296  0.9502  0.3350
   78TMC2    C4 1212   0.651   3.415   1.349  0.4812  0.2785 -0.4344
   78TMC2    C5 1213   0.671   3.435   1.486 -0.2479  0.5741 -0.5420
   78TMC2    C6 1214   0.571   3.446   1.580 -0.1703 -0.2630  0.0294
   78TMC2     C 1215   0.468   3.378   1.177 -0.1835  0.0377  0.1195
   78TMC2     O 1216   0.348   3.368   1.162  0.3853 -0.6002 -0.3798
   78TMC2     H 1217   0.312   3.401   1.373 -0.3736  3.3685  1.2795
   78TMC2    H1 1218   0.736   3.395   1.284  2.2615 -0.7077  2.1650
   78TMC2    H2 1219   0.592   3.475   1.683  1.0393  1.7276 -0.7679
   78TMC2    C7 1220   0.799   3.479   1.528 -0.0979 -0.1120 -0.5864
   78TMC2    C8 1221   0.333   3.386   1.628 -0.0344  0.4492  0.3765
   78TMC2    O1 1222   0.875   3.512   1.434 -0.2691  0.1663 -0.3738
   78TMC2    O2 1223   0.246   3.309   1.593  0.2708 -0.3976  0.1809
   78TMC2    O5 1224   0.365   3.438   1.751  0.0216 -0.0618  0.4618
   78TMC2    H5 1225   0.436   3.505   1.739 -0.7665  0.8148  0.6995
   79MPD1     C 1226   0.548   3.159   0.716 -0.1074  0.4924 -0.0820
   79MPD1    C1 1227   0.429   3.183   0.784 -0.4011 -0.0883 -0.4804
   79MPD1    C2 1228   0.431   3.253   0.904 -0.2397 -0.1838 -0.5609
   79MPD1    C3 1229   0.549   3.294   0.960 -0.6392 -0.0301  0.4776
   79MPD1    C4 1230   0.664   3.273   0.885 -0.3598  0.4176 -0.6381
   79MPD1    C5 1231   0.666   3.215   0.763 -0.6341  0.0078 -0.1659
   79MPD1     H 1232   0.338   3.281   0.951 -0.5770 -1.0904 -0.6888
   79MPD1    H1 1233   0.760   3.302   0.927 -0.9402  1.1541  0.1894
   79MPD1    H2 1234   0.549   3.093   0.630 -1.1539  0.7011 -0.2561
   79MPD1    H3 1235   0.761   3.194   0.717 -0.3922  1.1426 -0.1794
   79MPD1     N 1236   0.568   3.361   1.085 -0.6030 -0.9145  0.3902
   79MPD1    H5 1237   0.664   3.384   1.108 -1.0805  1.4940  0.0332
   79MPD1    N1 1238   0.308   3.165   0.713  0.8143  0.1653 -0.1606
   79MPD1    H6 1239   0.318   3.088   0.648  2.9823 -1.2626  1.8503
   79MPD1    H7 1240   0.237   3.141   0.781  0.0417  1.3954 -0.5360
   80TMC2    C1 1241   2.591   3.186  12.408  0.2057  0.0185 -0.6553
   80TMC2    C2 1242   2.492   3.281  12.419  0.6646  0.5727  0.5740
   80TMC2    C3 1243   2.364   3.246  12.454 -0.2000 -0.6381 -0.1999
   80TMC2    C4 1244   2.559   3.060  12.450  0.8164  0.3826  0.1329
   80TMC2    C5 1245   2.435   3.034  12.505  0.0988 -1.0691 -0.5913
   80TMC2    C6 1246   2.335   3.122  12.506 -0.2173 -0.5806  0.3892
   80TMC2     C 1247   2.707   3.219  12.329  0.1610  0.1650 -0.4991
   80TMC2     O 1248   2.694   3.307  12.248  0.0161 -0.2503  0.6965
   80TMC2     H 1249   2.509   3.376  12.371 -2.0917  1.3034  1.0546
   80TMC2    H1 1250   2.634   2.983  12.435  0.3202 -0.0787  0.0207
   80TMC2    H2 1251   2.238   3.091  12.545 -1.2019  2.5687  0.4518
   80TMC2    C7 1252   2.418   2.916  12.593  0.0727  0.3704  0.3664
   80TMC2    C8 1253   2.252   3.330  12.453  0.2964 -0.6030 -0.1081
   80TMC2    O1 1254   2.312   2.895  12.651  0.6185 -0.0289  0.0177
   80TMC2    O2 1255   2.137   3.294  12.426  0.2847  0.2273 -0.5623
   80TMC2    O5 1256   2.284   3.447  12.507  0.0351 -0.2474 -0.0877
   80TMC2    H5 1257   2.381   3.451  12.523 -0.2099 -2.9639  2.0461
   81MPD2     C 1258   3.038   3.071  12.355 -0.0356 -0.1255 -0.4615
   81MPD2    C1 1259   2.944   3.160  12.310  0.0602  0.5848  0.0379
   81MPD2    C2 1260   2.986   3.281  12.253 -0.2148  0.3824  0.2612
   81MPD2    C3 1261   3.125   3.294  12.218  0.3554  0.0533 -0.0074
   81MPD2    C4 1262   3.211   3.198  12.255  0.6785 -0.0481  0.6309
   81MPD2    C5 1263   3.165   3.093  12.324 -0.2186 -0.0525 -0.3501
   81MPD2     H 1264   2.923   3.368  12.235 -1.3539 -0.3497  0.7144
   81MPD2    H1 1265   3.319   3.196  12.241  0.4872 -1.5591 -0.6486
   81MPD2    H2 1266   3.015   2.984  12.416  2.0602 -1.6367 -1.8508
   81MPD2    H3 1267   3.239   3.028  12.370  0.0796  0.2360 -0.4238
   81MPD2     N 1268   3.178   3.418  12.173 -0.0742  0.1876  0.6305
   81MPD2    H5 1269   3.280   3.421  12.170 -0.0554  1.0108  2.2498
   81MPD2    N1 1270   2.812   3.143  12.361 -0.3043  0.3168 -0.4387
   81MPD2    H7 1271   2.804   3.075  12.435  0.7826  0.6811  0.0246
   82TMC2    C1 1272   1.830   2.528  11.402  0.0933  0.1082  0.3721
   82TMC2    C2 1273   1.941   2.454  11.364  0.2676 -0.7680  0.3440
   82TMC2    C3 1274   1.959   2.342  11.440 -0.2691 -0.0721  0.3961
   82TMC2    C4 1275   1.743   2.493  11.502  0.3534  0.1311 -0.9094
   82TMC2    C5 1276   1.755   2.371  11.560 -0.0789  1.0637 -0.4598
   82TMC2    C6 1277   1.865   2.298  11.532 -0.5758 -0.0093 -0.4452
   82TMC2     C 1278   1.785   2.642  11.322  0.6917  0.4172 -0.7043
   82TMC2     O 1279   1.666   2.681  11.326  0.4348 -0.0850  0.2923
   82TMC2     H 1280   2.013   2.481  11.288  1.5207  1.3430  2.2944
   82TMC2    H1 1281   1.660   2.557  11.529  1.4419  1.9504 -1.8686
   82TMC2    H2 1282   1.886   2.202  11.578  1.0644  0.5024 -0.1442
   82TMC2    C7 1283   1.659   2.322  11.657  0.6576 -0.1685  1.0755
   82TMC2    C8 1284   2.053   2.250  11.379  0.1396  0.0254 -0.5742
   82TMC2    O1 1285   1.693   2.220  11.713 -0.4387 -0.2275 -0.0571
   82TMC2    O2 1286   2.094   2.155  11.450  1.0476 -0.1415  0.2383
   82TMC2    O5 1287   2.001   2.226  11.256 -0.0845 -0.6516  0.1524
   82TMC2    H5 1288   1.955   2.307  11.225  0.5505 -1.4216 -2.7639
   83MPD2     C 1289   1.795   2.870  10.873 -0.3833  0.0834 -0.0122
   83MPD2    C1 1290   1.694   2.815  10.937  0.0205 -0.5850 -0.4687
   83MPD2    C2 1291   1.717   2.761  11.059 -0.5282 -0.3517  0.3307
   83MPD2    C3 1292   1.845   2.756  11.115  0.0769 -0.8155 -0.1189
   83MPD2    C4 1293   1.950   2.821  11.048  0.3099 -0.3855  0.6720
   83MPD2    C5 1294   1.920   2.882  10.926  0.6115  0.7683 -0.7847
   83MPD2     H 1295   1.638   2.713  11.117 -1.6677 -1.0282 -1.7802
   83MPD2    H1 1296   2.051   2.829  11.086  0.3395 -2.4176  0.9862
   83MPD2    H2 1297   1.773   2.921  10.780  0.1588 -0.8198 -0.6227
   83MPD2    H3 1298   1.991   2.939  10.867  1.6058  0.0303 -0.2872
   83MPD2     N 1299   1.877   2.687  11.235 -0.0170 -0.6425  0.5221
   83MPD2    H5 1300   1.975   2.687  11.262 -0.3058 -0.2354  1.5972
   83MPD2    N1 1301   1.570   2.826  10.878 -0.0601 -0.4897  0.0058
   83MPD2    H7 1302   1.563   2.886  10.796  3.3167 -1.3006 -0.8615
   84TMC2    C1 1303   3.168   1.862  11.543 -0.1824 -0.1973  1.8092
   84TMC2    C2 1304   3.130   1.745  11.599  0.5358 -0.8242  0.2229
   84TMC2    C3 1305   3.125   1.638  11.516  0.3479  0.1772 -0.6451
   84TMC2    C4 1306   3.215   1.866  11.415  0.7962 -0.4831  0.0121
   84TMC2    C5 1307   3.224   1.751  11.341 -0.5736 -0.7931 -0.1943
   84TMC2    C6 1308   3.183   1.634  11.393  0.3512 -0.1063  0.3811
   84TMC2     C 1309   3.144   1.983  11.618 -0.0463 -0.4477  0.0057
   84TMC2     O 1310   3.066   1.993  11.714 -0.4178  0.3370  0.3152
   84TMC2     H 1311   3.090   1.737  11.700  1.1282 -1.6649  0.3919
   84TMC2    H1 1312   3.237   1.959  11.364  0.9062 -0.2818  0.4266
   84TMC2    H2 1313   3.183   1.544  11.333 -1.8605 -1.2281  2.0560
   84TMC2    C7 1314   3.305   1.752  11.225 -1.0096 -0.1877  0.2968
   84TMC2    C8 1315   3.049   1.531  11.567 -0.3575 -0.0721 -0.4503
   84TMC2    O1 1316   3.309   1.858  11.168 -0.0079 -0.1551 -0.0702
   84TMC2    O2 1317   3.066   1.488  11.678  0.3862  0.2316 -0.0075
   84TMC2    O5 1318   2.987   1.474  11.462  0.5957  0.0591 -0.0670
   84TMC2    H5 1319   2.963   1.542  11.397 -0.8832  0.1526  0.5646
   85TMC2    C1 1320   2.620   4.199  15.778 -0.1833  0.6486 -0.3463
   85TMC2    C2 1321   2.537   4.246  15.677 -0.0168  0.1068 -0.1059
   85TMC2    C3 1322   2.606   4.297  15.565  0.4029  0.3372  0.4702
   85TMC2    C4 1323   2.758   4.206  15.766 -0.3713  0.0829  0.0138
   85TMC2    C5 1324   2.817   4.265  15.652  0.5510 -0.3672 -0.2934
   85TMC2    C6 1325   2.738   4.296  15.546  0.8934 -0.0874  0.2976
   85TMC2     C 1326   2.561   4.170  15.903  0.2808  0.0028 -0.1246
   85TMC2     O 1327   2.467   4.235  15.937  0.6022 -0.1347  0.9836
   85TMC2     H 1328   2.430   4.246  15.687 -0.0942  1.6774 -0.9368
   85TMC2    H1 1329   2.822   4.169  15.845  2.2451 -0.9982 -2.6225
   85TMC2    H2 1330   2.786   4.337  15.458 -1.0089 -0.2860 -0.8208
   85TMC2    C7 1331   2.961   4.286  15.661 -0.3939  0.2861  0.3688
   85TMC2    C8 1332   2.534   4.371  15.455  0.5094  0.4343 -0.2967
   85TMC2    O1 1333   3.032   4.232  15.748  0.0034 -0.0436 -0.5948
   85TMC2    O2 1334   2.575   4.472  15.400 -0.3171  0.4589 -0.0770
   85TMC2    O5 1335   2.443   4.284  15.407  0.4772 -0.3059  0.3732
   85TMC2    H5 1336   2.436   4.210  15.472  1.7760  1.8660  2.9905
   86MPD2     C 1337   2.588   3.956  16.364  0.4781 -0.0150  0.3893
   86MPD2    C1 1338   2.682   3.893  16.286  0.2056  0.5902 -0.8698
   86MPD2    C2 1339   2.682   3.927  16.149 -0.0055  0.3460  0.2150
   86MPD2    C3 1340   2.601   4.022  16.101  0.0028 -0.1930  0.4329
   86MPD2    C4 1341   2.505   4.073  16.180  0.0598 -0.9601  0.1949
   86MPD2    C5 1342   2.501   4.052  16.318  0.5328 -0.4626 -0.1966
   86MPD2     H 1343   2.762   3.887  16.088 -0.0583  2.6883 -1.3724
   86MPD2    H1 1344   2.427   4.137  16.140  0.6367 -0.4635 -0.1374
   86MPD2    H2 1345   2.573   3.910  16.461 -1.7454  2.6790  1.3393
   86MPD2    H3 1346   2.435   4.109  16.383  0.0796  0.8193 -1.8066
   86MPD2     N 1347   2.623   4.061  15.969 -0.1079 -0.8177  0.6499
   86MPD2    H5 1348   2.684   4.010  15.907  1.3314 -0.4016  1.7324
   86MPD2    N1 1349   2.748   3.780  16.325  0.2102  0.4666  0.0468
   86MPD2    H7 1350   2.784   3.724  16.248  2.8018  1.1813  0.7407
   87TMC2    C1 1351   1.368   2.208   0.824  0.0063  0.3152 -0.3664
   87TMC2    C2 1352   1.465   2.136   0.898 -0.7300 -0.1421  0.0934
   87TMC2    C3 1353   1.535   2.216   0.985 -0.2994  0.3999 -0.0064
   87TMC2    C4 1354   1.331   2.338   0.853 -0.1667 -0.7393  0.9228
   87TMC2    C5 1355   1.407   2.413   0.938  0.1147  0.8321 -0.1630
   87TMC2    C6 1356   1.518   2.353   0.997  0.1580 -0.0664  0.8098
   87TMC2     C 1357   1.274   2.132   0.744 -0.3206  0.6717  0.4795
   87TMC2     O 1358   1.193   2.199   0.680 -0.3242 -0.3986  0.0837
   87TMC2     H 1359   1.500   2.035   0.886  0.6336  0.1277  1.7592
   87TMC2    H1 1360   1.230   2.369   0.829  0.6126  0.6765 -0.5247
   87TMC2    H2 1361   1.589   2.414   1.052  1.7567 -1.0277 -0.1960
   87TMC2    C7 1362   1.357   2.534   0.999 -0.1282 -0.4278  0.4426
   87TMC2    C8 1363   1.637   2.152   1.072 -0.3809  0.1305  0.7200
   87TMC2    O1 1364   1.235   2.555   0.987 -0.1711 -0.5289 -0.0270
   87TMC2    O2 1365   1.727   2.218   1.117  0.1288 -0.6092  0.6322
   87TMC2    O5 1366   1.598   2.031   1.122  0.3732 -0.3808  0.0941
   87TMC2    H5 1367   1.505   2.012   1.095 -0.6995  2.7547  1.6335
   88MPD2     C 1368   1.555   2.804   1.169 -0.0847 -0.2508  0.0600
   88MPD2    C1 1369   1.444   2.733   1.126  0.4172  0.0709  0.3331
   88MPD2    C2 1370   1.319   2.781   1.169  0.0869  0.4196 -0.1467
   88MPD2    C3 1371   1.314   2.890   1.250 -0.0551  0.0464 -0.3578
   88MPD2    C4 1372   1.421   2.965   1.286 -0.3502  0.1419 -0.7236
   88MPD2    C5 1373   1.544   2.913   1.251  0.2196 -0.0928 -0.0939
   88MPD2     H 1374   1.231   2.720   1.152 -0.5096  0.9333  1.1126
   88MPD2    H1 1375   1.417   3.052   1.351  5.2175  1.0914 -1.6159
   88MPD2    H2 1376   1.654   2.775   1.138 -0.7026 -0.1927 -1.9413
   88MPD2    H3 1377   1.634   2.954   1.295  1.2132 -2.5674  0.1264
   88MPD2     N 1378   1.200   2.926   1.318  0.0191  0.7358  0.1502
   88MPD2    H5 1379   1.205   3.006   1.380 -1.2333  0.2956  0.8306
   88MPD2    N1 1380   1.460   2.616   1.056 -0.3971 -0.9168 -0.5692
   88MPD2    H7 1381   1.553   2.582   1.032 -0.4442 -1.1755 -0.3942
   89TMC2    C1 1382   1.904   0.204   1.475  0.8081  0.7925 -0.2333
   89TMC2    C2 1383   2.025   0.239   1.435 -0.3907 -0.0492 -0.1392
   89TMC2    C3 1384   2.040   0.332   1.338 -0.6220  0.2090 -0.2687
   89TMC2    C4 1385   1.792   0.261   1.420  0.5878 -0.8367  0.4427
   89TMC2    C5 1386   1.815   0.372   1.338  0.0067 -0.4244 -0.3684
   89TMC2    C6 1387   1.936   0.393   1.280  0.3115 -0.0929  0.2752
   89TMC2     C 1388   1.900   0.100   1.578 -0.2443 -0.7515  0.1953
   89TMC2     O 1389   2.006   0.072   1.629  0.4226  0.5757 -0.1560
   89TMC2     H 1390   2.108   0.183   1.477 -0.1973 -0.0907 -0.5741
   89TMC2    H1 1391   1.701   0.268   1.479 -0.0900 -1.0970 -0.5766
   89TMC2    H2 1392   1.942   0.435   1.180  0.7793 -2.0009 -0.5060
   89TMC2    C7 1393   1.706   0.469   1.328 -0.6050 -0.3065  0.1642
   89TMC2    C8 1394   2.178   0.345   1.289  0.4972  0.0313 -1.1196
   89TMC2    O1 1395   1.591   0.429   1.355 -0.2395  0.7061 -0.1783
   89TMC2    O2 1396   2.257   0.251   1.294  0.3864  0.1148 -0.4660
   89TMC2    O5 1397   2.198   0.476   1.287 -0.1967  0.1526  0.3056
   89TMC2    H5 1398   2.120   0.529   1.315  0.0746  1.6842 -1.7866
   90MPD2     C 1399   1.717   4.381   1.742  0.2263  0.1515  1.1983
   90MPD2    C1 1400   1.611   4.448   1.684  0.6381 -0.8191 -0.5987
   90MPD2    C2 1401   1.633   4.572   1.635  0.2457 -0.2822  0.5819
   90MPD2    C3 1402   1.762   4.636   1.651 -0.0097 -0.3196  0.5521
   90MPD2    C4 1403   1.860   4.574   1.721  0.0323  0.0680 -0.5093
   90MPD2    C5 1404   1.838   4.445   1.758  0.2069 -0.2860 -0.5373
   90MPD2     H 1405   1.559   4.621   1.573  1.8601  2.2176  0.6223
   90MPD2    H1 1406   1.952   4.625   1.747 -0.4255  0.4199  0.3956
   90MPD2    H2 1407   1.710   4.282   1.786 -0.8002  0.9337  2.7700
   90MPD2    H3 1408   1.922   4.394   1.802  0.0083 -0.7921 -0.7395
   90MPD2     N 1409   1.781   0.028   1.580  0.2821 -0.0494 -0.2722
   90MPD2    H5 1410   1.709   0.054   1.515  0.2933 -0.5983 -0.5056
   90MPD2    N1 1411   1.482   4.381   1.674  0.2383  0.8602 -0.7299
   90MPD2    H7 1412   1.404   4.439   1.645 -2.0206 -0.6593  2.3857
   91TMC2    C1 1413   3.401   0.501  16.876 -0.2857 -0.5618  0.3499
   91TMC2    C2 1414   3.403   0.622  16.812  0.3343  0.0768  0.0760
   91TMC2    C3 1415   3.308   0.640  16.710 -0.5903  0.3748  0.5252
   91TMC2    C4 1416   3.308   0.403  16.860 -0.0608 -0.0872  0.3709
   91TMC2    C5 1417   3.215   0.428  16.757 -0.3562  0.1627 -0.0438
   91TMC2    C6 1418   3.206   0.548  16.688  0.2787 -0.1023  0.1474
   91TMC2     C 1419   3.498   0.461  16.976  0.5042 -0.1948  0.4969
   91TMC2     O 1420   3.460   0.402  17.077 -0.0277  0.1843  0.0937
   91TMC2     H 1421   3.465   0.704  16.848  2.4261 -0.7185 -1.6781
   91TMC2    H1 1422   3.313   0.308  16.913 -0.0315 -0.1990  0.1673
   91TMC2    H2 1423   3.124   0.577  16.624  0.3842  0.7735  0.4066
   91TMC2    C7 1424   3.139   0.319  16.717  0.0493  0.0732 -0.0292
   91TMC2    C8 1425   3.282   0.768  16.641  0.3554  0.1015 -0.0196
   91TMC2    O1 1426   3.138   0.224  16.795 -0.2507  0.1766  0.9830
   91TMC2    O2 1427   3.170   0.818  16.615 -0.3137 -0.1077 -0.1805
   91TMC2    O5 1428   3.409   0.821  16.637 -0.1420 -0.5468  0.1048
   91TMC2    H5 1429   3.478   0.752  16.650  0.4025  0.1330  0.8233
   92MPD2     C 1430   3.758   0.387  17.105  0.5061  0.5219 -0.6296
   92MPD2    C1 1431   3.757   0.467  16.999  0.8043 -0.3441  0.0262
   92MPD2    C2 1432   3.872   0.493  16.926  0.6963  0.5085 -0.5153
   92MPD2    C3 1433   3.985   0.419  16.960 -0.6031 -0.3766  1.4047
   92MPD2    C4 1434   3.990   0.329  17.068  0.2116 -0.4962  0.5456
   92MPD2    C5 1435   3.872   0.314  17.135  0.2715 -0.6258  0.0344
   92MPD2     H 1436   3.875   0.569  16.850  3.1933  0.3359 -0.5902
   92MPD2    H1 1437   4.073   0.261  17.081  0.8310 -0.3515 -2.6088
   92MPD2    H2 1438   3.670   0.384  17.168  1.7300 -1.9329  0.9998
   92MPD2    H3 1439   3.873   0.248  17.221  1.4229  1.1298  1.3688
   92MPD2     N 1440   4.102   0.449  16.881 -0.1218  0.6999 -0.2232
   92MPD2    H5 1441   4.094   0.522  16.812 -2.3974  1.1764  0.5492
   92MPD2    N1 1442   3.629   0.505  16.942  0.7671 -0.1268  0.4316
   92MPD2    H7 1443   3.631   0.542  16.848  0.3024 -0.4638  0.2873
   93TMC2    C1 1444   0.908   0.665  13.951  0.0997  0.3468  0.1731
   93TMC2    C2 1445   0.820   0.772  13.946  0.1029  0.2630  0.0795
   93TMC2    C3 1446   0.866   0.887  14.008 -0.2130  0.5421  0.0704
   93TMC2    C4 1447   1.031   0.672  14.016 -0.2322 -0.0803  0.1886
   93TMC2    C5 1448   1.076   0.793  14.066  0.2921 -0.2059 -0.8242
   93TMC2    C6 1449   0.988   0.900  14.065 -0.1871  0.4669  0.1423
   93TMC2     C 1450   0.849   0.527  13.940  0.2344  0.0838  0.3062
   93TMC2     O 1451   0.916   0.437  13.981  0.2433  0.5501 -0.3530
   93TMC2     H 1452   0.725   0.777  13.893  0.3551  2.7961 -0.1425
   93TMC2    H1 1453   1.079   0.575  14.031  0.0783 -0.2552 -2.0318
   93TMC2    H2 1454   0.999   0.983  14.133  0.8234  1.1418 -0.8725
   93TMC2    C7 1455   1.217   0.800  14.079  0.1715 -1.0666  0.4717
   93TMC2    C8 1456   0.778   1.001  14.011 -0.2732  0.3825 -0.4500
   93TMC2    O1 1457   1.283   0.701  14.074 -0.3352  0.4011  0.5628
   93TMC2    O2 1458   0.825   1.114  14.022 -0.5230  0.1953  0.0575
   93TMC2    O5 1459   0.655   0.970  14.050  0.3876  0.0782 -0.0328
   93TMC2    H5 1460   0.624   0.878  14.036 -2.5255  0.8159  1.5778
   94MPD2     C 1461   0.665   0.296  13.931  0.1353  0.4046  0.1164
   94MPD2    C1 1462   0.628   0.422  13.889 -0.2630  0.4036 -0.1848
   94MPD2    C2 1463   0.500   0.445  13.846  0.5296  0.3326 -0.1523
   94MPD2    C3 1464   0.408   0.344  13.840 -0.5084  0.1302 -0.0993
   94MPD2    C4 1465   0.443   0.218  13.882  0.1527  0.0652  0.5405
   94MPD2    C5 1466   0.571   0.195  13.919 -0.0128 -0.2921 -0.2549
   94MPD2     H 1467   0.478   0.545  13.813  0.3668 -0.4264 -2.3621
   94MPD2    H1 1468   0.367   0.140  13.881 -0.9940  1.1584  4.3403
   94MPD2    H2 1469   0.765   0.263  13.953 -0.0560 -1.0084 -1.1294
   94MPD2    H3 1470   0.602   0.095  13.949  1.0235  0.4740  1.2657
   94MPD2     N 1471   0.270   0.361  13.809 -0.1577 -0.0328 -0.2048
   94MPD2    H5 1472   0.210   0.279  13.814  0.0792 -0.0616  2.4445
   94MPD2    N1 1473   0.716   0.532  13.896  0.4280 -0.1334  0.7686
   94MPD2    H7 1474   0.675   0.622  13.873  1.7233  0.8735  2.3535
   95TMC2    C1 1475   0.499   2.254  16.213  0.7503 -0.3023  0.4001
   95TMC2    C2 1476   0.395   2.163  16.232 -0.4448  0.2489  0.3170
   95TMC2    C3 1477   0.315   2.181  16.339  0.4851  0.0069 -0.1022
   95TMC2    C4 1478   0.510   2.364  16.294 -0.6653  0.3906  0.2712
   95TMC2    C5 1479   0.428   2.372  16.402  0.0162  0.2599 -0.0470
   95TMC2    C6 1480   0.331   2.279  16.435  0.1667  0.2540 -0.3503
   95TMC2     C 1481   0.569   2.262  16.086 -0.1989  0.1497  0.5502
   95TMC2     O 1482   0.640   2.358  16.076  0.4141  0.4946 -0.2788
   95TMC2     H 1483   0.365   2.094  16.154 -0.7458  2.0842 -1.1887
   95TMC2    H1 1484   0.576   2.450  16.283  1.9873 -1.7047  0.0553
   95TMC2    H2 1485   0.272   2.278  16.526  0.8255 -1.5526  0.0703
   95TMC2    C7 1486   0.435   2.489  16.483 -1.1865 -0.4421  0.3839
   95TMC2    C8 1487   0.208   2.081  16.369 -0.1047 -1.2766 -0.4510
   95TMC2    O1 1488   0.453   2.592  16.423 -0.5473  0.0437 -0.0693
   95TMC2    O2 1489   0.251   1.990  16.438 -0.0642 -0.6552  0.0158
   95TMC2    O5 1490   0.100   2.155  16.390  0.0880  0.0126 -0.2878
   95TMC2    H5 1491   0.094   2.246  16.353 -4.1287 -0.4907 -0.8287
   96MPD2     C 1492   0.722   2.159  15.615 -0.1777 -0.0701  0.4584
   96MPD2    C1 1493   0.785   2.237  15.709 -0.2175 -0.3624 -0.1553
   96MPD2    C2 1494   0.725   2.233  15.831 -0.5547 -0.0609 -0.0230
   96MPD2    C3 1495   0.612   2.159  15.865 -0.1579 -0.9333  0.3226
   96MPD2    C4 1496   0.553   2.086  15.765  0.9799  0.4677  0.2285
   96MPD2    C5 1497   0.614   2.081  15.639 -0.1519  0.0990  0.3963
   96MPD2     H 1498   0.764   2.299  15.908  0.6614 -1.2855  0.4055
   96MPD2    H1 1499   0.455   2.041  15.772  0.2135  2.0746 -0.1722
   96MPD2    H2 1500   0.749   2.156  15.510 -0.6141 -0.5003  0.3557
   96MPD2    H3 1501   0.565   2.022  15.562  1.0755 -1.5655  0.9036
   96MPD2     N 1502   0.551   2.158  15.992 -0.5964 -0.1612 -0.0026
   96MPD2    H5 1503   0.485   2.083  16.009 -1.9089  0.4456 -2.4253
   96MPD2    N1 1504   0.888   2.326  15.667 -0.3883  0.4330  0.4085
   96MPD2    H7 1505   0.914   2.325  15.569  1.5516  1.5840  0.9048
   97TMC2    C1 1506   2.731   4.593   0.269 -0.6961 -0.4628 -0.0028
   97TMC2    C2 1507   2.619   4.573   0.200  0.7312 -0.4471 -0.2527
   97TMC2    C3 1508   2.540   4.681   0.162  0.4069 -0.6377 -0.1144
   97TMC2    C4 1509   2.790   4.718   0.283 -0.1115  0.8570 -0.1321
   97TMC2    C5 1510   2.720   0.088   0.234  0.3711 -0.2065 -1.0132
   97TMC2    C6 1511   2.592   0.070   0.183  0.1777  0.9458  0.7382
   97TMC2     C 1512   2.769   4.478   0.358 -0.6705 -0.4433 -0.1246
   97TMC2     O 1513   2.684   4.412   0.413 -0.3034  0.0954 -0.4462
   97TMC2     H 1514   2.580   4.472   0.200 -1.4266  0.3895 -2.4870
   97TMC2    H1 1515   2.885   0.010   0.327 -0.2203  2.0983 -0.6744
   97TMC2    H2 1516   2.531   0.151   0.146 -0.4431 -0.3060 -0.9854
   97TMC2    C7 1517   2.791   0.214   0.241  0.1742  0.4840 -0.1372
   97TMC2    C8 1518   2.399   4.671   0.158 -0.3457  0.4558  0.0069
   97TMC2    O1 1519   2.912   0.217   0.256 -0.1537  0.2047  0.1935
   97TMC2    O2 1520   2.343   0.030   0.203 -0.4869 -0.1211  0.0990
   97TMC2    O5 1521   2.361   4.540   0.178  0.5292  0.2402 -0.7304
   97TMC2    H5 1522   2.423   4.478   0.134  0.1009 -0.6629 -0.0537
   98MPD2     C 1523   3.073   4.279   0.715 -0.3342 -0.9381 -0.5836
   98MPD2    C1 1524   2.964   4.227   0.661 -0.3822 -0.0116  0.4906
   98MPD2    C2 1525   2.909   4.294   0.556  0.3312  0.3892  1.0977
   98MPD2    C3 1526   2.969   4.407   0.492  0.2935 -0.7971 -0.2709
   98MPD2    C4 1527   3.083   4.454   0.550  0.5136 -0.2169  0.1454
   98MPD2    C5 1528   3.131   4.388   0.663 -0.1329  0.5026  0.2004
   98MPD2     H 1529   2.814   4.257   0.520  1.8927  0.2111 -2.8065
   98MPD2    H1 1530   3.131   4.546   0.519 -0.2852  0.7453  1.7815
   98MPD2    H2 1531   3.121   4.244   0.805 -0.7282 -0.5313 -0.2141
   98MPD2    H3 1532   3.219   4.429   0.710  0.9919 -1.8979  0.1759
   98MPD2     N 1533   2.903   4.482   0.391 -0.3435  0.0970  0.3521
   98MPD2    H5 1534   2.958   4.553   0.343 -0.1772  0.4679  1.0853
   98MPD2    N1 1535   2.908   4.111   0.718  0.3087 -0.6245 -0.3738
   98MPD2    H7 1536   2.817   4.098   0.677 -2.1809  0.1023  4.9283
   99TMC2    C1 1537   1.058   2.405   1.299 -0.3888 -0.2164  0.6647
   99TMC2    C2 1538   1.117   2.500   1.386  0.1586  0.2189 -0.4337
   99TMC2    C3 1539   1.032   2.569   1.465 -0.2990 -0.4481 -0.5629
   99TMC2    C4 1540   0.927   2.391   1.280  0.2191 -0.0737  0.1199
   99TMC2    C5 1541   0.843   2.481   1.349  0.9962 -0.3159  0.5816
   99TMC2    C6 1542   0.898   2.565   1.444 -0.0267 -0.3012 -0.3943
   99TMC2     C 1543   1.155   2.307   1.270  0.1275  0.1718  0.7070
   99TMC2     O 1544   1.266   2.349   1.249 -0.0330  0.0758 -0.6045
   99TMC2     H 1545   1.222   2.524   1.391  0.5250 -1.3055 -1.0634
   99TMC2    H1 1546   0.890   2.314   1.213  0.8568 -0.6072  0.3745
   99TMC2    H2 1547   0.841   2.634   1.506 -2.5226 -1.7172 -1.1176
   99TMC2    C7 1548   0.700   2.498   1.322 -0.6228  0.2331  0.9119
   99TMC2    C8 1549   1.075   2.616   1.597 -0.2239  0.1510 -0.4329
   99TMC2    O1 1550   0.647   2.602   1.358 -0.0111  0.3407 -0.1478
   99TMC2    O2 1551   1.021   2.712   1.648  0.2357 -0.7664  0.3502
   99TMC2    O5 1552   1.169   2.531   1.638 -0.1539  0.2880  0.3421
   99TMC2    H5 1553   1.146   2.444   1.597  0.3738  1.9462 -3.4448
  100MPD2     C 1554   1.305   2.073   1.342 -0.5870 -0.3533  0.8152
  100MPD2    C1 1555   1.176   2.058   1.305 -0.4332  0.4828  0.3987
  100MPD2    C2 1556   1.118   1.934   1.302  0.0191 -0.2175 -0.5798
  100MPD2    C3 1557   1.200   1.823   1.341  0.3187 -0.8733 -0.0855
  100MPD2    C4 1558   1.337   1.839   1.367 -0.3931  0.3741  1.1342
  100MPD2    C5 1559   1.384   1.965   1.370  0.3383  0.8270 -0.0691
  100MPD2     H 1560   1.012   1.919   1.286 -0.0704  2.1313 -2.1176
  100MPD2    H1 1561   1.407   1.762   1.399 -2.1899 -1.3545  0.9123
  100MPD2    H2 1562   1.352   2.170   1.358 -2.6767  0.7008  0.5985
  100MPD2    H3 1563   1.487   1.984   1.398  0.2878 -0.8488  1.2885
  100MPD2     N 1564   1.135   1.698   1.342  0.2756 -0.4508  0.4798
  100MPD2    H5 1565   1.038   1.701   1.313 -0.0854  1.9141  1.9803
  100MPD2    N1 1566   1.105   2.172   1.267  0.9879  0.2644  0.2771
  100MPD2    H7 1567   1.005   2.164   1.256  0.9777 -0.7453  1.1665
  101TMC2    C1 1568   2.471   3.446  13.159  0.4751  0.0269  1.0892
  101TMC2    C2 1569   2.565   3.379  13.227 -0.1001 -0.1466 -0.5945
  101TMC2    C3 1570   2.688   3.375  13.171  0.0260  0.3405  0.0324
  101TMC2    C4 1571   2.499   3.531  13.053  0.1639  0.3218  0.2370
  101TMC2    C5 1572   2.626   3.534  13.007 -0.3017 -0.9837  0.8835
  101TMC2    C6 1573   2.723   3.445  13.059 -0.2030  0.4465 -0.3713
  101TMC2     C 1574   2.335   3.422  13.195  0.2001 -0.5053 -0.0363
  101TMC2     O 1575   2.312   3.395  13.312 -0.4793 -0.1053  0.4874
  101TMC2     H 1576   2.541   3.304  13.302  0.2409  0.5856  0.2438
  101TMC2    H1 1577   2.419   3.580  12.998 -0.0793 -1.7767 -1.3092
  101TMC2    H2 1578   2.827   3.459  13.033 -0.0508  1.3718  0.6905
  101TMC2    C7 1579   2.676   3.638  12.923  0.0701  0.2430 -0.2087
  101TMC2    C8 1580   2.758   3.250  13.207 -0.2891  0.3706 -0.2222
  101TMC2    O1 1581   2.607   3.692  12.838  0.1847 -0.2012 -0.1606
  101TMC2    O2 1582   2.704   3.145  13.238 -0.1643 -0.7618 -0.0549
  101TMC2    O5 1583   2.887   3.258  13.160  0.5488 -0.3074 -0.1794
  101TMC2    H5 1584   2.926   3.347  13.168 -3.0904  1.4304 -2.1038
  102MPD2     C 1585   2.032   3.440  12.984  0.4026 -0.1563  0.7113
  102MPD2    C1 1586   2.113   3.404  13.092 -0.1288  1.2277 -0.2344
  102MPD2    C2 1587   2.046   3.337  13.193  0.5360  0.1652  0.1804
  102MPD2    C3 1588   1.907   3.295  13.177 -0.3520  0.2220 -0.6801
  102MPD2    C4 1589   1.836   3.336  13.071  0.0592 -0.0723  0.5515
  102MPD2    C5 1590   1.898   3.411  12.979  0.0334 -0.0367  0.1969
  102MPD2     H 1591   2.093   3.312  13.287  0.5733 -0.7281 -0.0776
  102MPD2    H1 1592   1.731   3.317  13.054  0.0046  0.1756  0.6193
  102MPD2    H2 1593   2.071   3.484  12.893  0.0444 -1.7379 -0.2163
  102MPD2    H3 1594   1.840   3.454  12.898  0.8420 -1.3276 -1.0665
  102MPD2     N 1595   1.854   3.222  13.279 -0.2250 -0.4657 -0.7795
  102MPD2    H5 1596   1.923   3.184  13.342 -0.9138 -1.7503 -0.8109
  102MPD2    N1 1597   2.251   3.440  13.090 -0.0943  0.1071 -0.5458
  102MPD2    H7 1598   2.280   3.479  13.001 -0.9047 -1.4900 -1.5104
  103TMC2    C1 1599   0.397   3.155  13.242  0.1533  0.0099  0.7828
  103TMC2    C2 1600   0.487   3.082  13.315  0.5638  0.4281  0.7872
  103TMC2    C3 1601   0.461   3.076  13.449  0.1733  0.2419 -0.1265
  103TMC2    C4 1602   0.310   3.241  13.296  0.1857 -0.7509  0.4464
  103TMC2    C5 1603   0.286   3.237  13.432  0.0975  0.9928  0.1145
  103TMC2    C6 1604   0.362   3.152  13.507  0.8236  0.2038 -0.3160
  103TMC2     C 1605   0.369   3.112  13.103 -0.2247 -0.6739  0.1363
  103TMC2     O 1606   0.260   3.149  13.063 -0.0837  0.0368 -0.8951
  103TMC2     H 1607   0.542   3.006  13.261 -1.1212 -1.2489  1.4476
  103TMC2    H1 1608   0.266   3.310  13.225 -1.2092 -0.7034  1.3501
  103TMC2    H2 1609   0.337   3.152  13.613  1.3086  0.6247 -0.1986
  103TMC2    C7 1610   0.183   3.313  13.484  0.5153  0.1713 -0.3831
  103TMC2    C8 1611   0.518   2.968  13.529 -0.5169 -0.3112 -0.2350
  103TMC2    O1 1612   0.126   3.256  13.573 -0.0804  0.2844 -0.0269
  103TMC2    O2 1613   0.591   2.894  13.466 -0.6490 -0.0071 -0.0968
  103TMC2    O5 1614   0.416   2.928  13.606  0.1815  0.2936 -0.3066
  103TMC2    H5 1615   0.351   3.000  13.616 -0.7345 -0.5873  0.1793
  104MPD2     C 1616   0.560   2.919  12.864  0.3045 -0.8290 -0.0240
  104MPD2    C1 1617   0.457   2.994  12.904 -0.2499  0.0498  0.7469
  104MPD2    C2 1618   0.355   3.019  12.815  0.0888 -0.4803 -0.6026
  104MPD2    C3 1619   0.362   2.983  12.681  0.4218 -0.2523  0.1522
  104MPD2    C4 1620   0.476   2.906  12.643 -0.0380  0.1526  0.7784
  104MPD2    C5 1621   0.575   2.882  12.732 -1.1440  0.0426 -0.0014
  104MPD2     H 1622   0.268   3.073  12.851  0.3830 -0.4385  0.0421
  104MPD2    H1 1623   0.494   2.874  12.541  2.0933 -0.4352  1.3382
  104MPD2    H2 1624   0.647   2.913  12.928 -0.8207  0.9759  1.6865
  104MPD2    H3 1625   0.657   2.819  12.698 -1.0635  0.6688 -0.9727
  104MPD2     N 1626   0.259   3.030  12.603  0.0018  0.0480 -0.2642
  104MPD2    H5 1627   0.185   3.088  12.642 -0.2497  0.7316 -1.7626
  104MPD2    N1 1628   0.471   3.041  13.036  0.6341  0.1104  0.0356
  104MPD2    H7 1629   0.558   3.021  13.086  0.5579  0.2323  0.2168
  105TMC2    C1 1630   0.888   1.937  17.733  0.5782  0.1034  0.3670
  105TMC2    C2 1631   0.866   2.068   0.017 -0.2929  0.1366 -0.0867
  105TMC2    C3 1632   0.835   2.095   0.144  0.3225 -0.1533  0.2009
  105TMC2    C4 1633   0.863   1.843   0.083  0.5232 -0.1216  0.4433
  105TMC2    C5 1634   0.841   1.875   0.212 -0.4713  0.4723  0.1193
  105TMC2    C6 1635   0.825   2.000   0.245  0.1016 -0.2274 -0.2928
  105TMC2     C 1636   0.937   1.897  17.599 -0.2638 -0.2880  0.0376
  105TMC2     O 1637   0.909   1.781  17.565 -0.0344 -0.0098  0.5850
  105TMC2     H 1638   0.878   2.148  17.689  0.4943  0.2155  0.1390
  105TMC2    H1 1639   0.890   1.739   0.066  0.6585  0.4034 -2.5425
  105TMC2    H2 1640   0.800   2.027   0.346 -0.9569 -0.4137 -0.5069
  105TMC2    C7 1641   0.905   1.790   0.317  1.2294  0.0554  0.0040
  105TMC2    C8 1642   0.835   2.234   0.188 -0.2444  0.2168 -0.0723
  105TMC2    O1 1643   0.933   1.676   0.289 -0.4047  0.4817  0.0781
  105TMC2    O2 1644   0.778   2.262   0.289  0.1845  0.0644 -0.6368
  105TMC2    O5 1645   0.943   2.299   0.140 -0.3571 -0.2001  0.3542
  105TMC2    H5 1646   0.988   2.269   0.058  1.4456  2.7196  0.2735
  106MPD2     C 1647   1.264   1.917  17.203 -0.2274 -0.5906 -0.3195
  106MPD2    C1 1648   1.284   2.032  17.290  0.4584 -0.9404 -0.4780
  106MPD2    C2 1649   1.201   2.041  17.398  0.0397 -0.4840 -0.0156
  106MPD2    C3 1650   1.103   1.953  17.431  0.4368  0.1081  0.0988
  106MPD2    C4 1651   1.092   1.837  17.352  0.1105 -0.1430  0.2056
  106MPD2    C5 1652   1.160   1.827  17.234  0.2824  0.0716 -0.0387
  106MPD2     H 1653   1.220   2.127  17.462 -0.3131 -2.4539  2.7273
  106MPD2    H1 1654   1.031   1.752  17.381  0.5498  0.0256  1.6359
  106MPD2    H2 1655   1.335   1.893  17.125  0.8085  0.3324  0.3420
  106MPD2    H3 1656   1.152   1.723  17.208 -0.0694 -0.0901  0.7120
  106MPD2     N 1657   1.030   1.977  17.549  0.4004 -1.2539  0.1840
  106MPD2    H5 1658   1.050   2.063  17.599  2.6942 -0.5494 -1.9275
  106MPD2    N1 1659   1.385   2.129  17.274 -0.0623 -0.4105 -0.0986
  106MPD2    H7 1660   1.376   2.210  17.334  1.7919  0.5701 -1.1637
  107TMC2    C1 1661   2.497   2.437  11.834 -1.0790 -0.3003  0.1312
  107TMC2    C2 1662   2.395   2.499  11.768 -0.5787 -0.4264  0.2516
  107TMC2    C3 1663   2.413   2.557  11.646  0.2248 -0.0760  0.2761
  107TMC2    C4 1664   2.625   2.433  11.778 -0.6028 -0.2024  0.1757
  107TMC2    C5 1665   2.644   2.510  11.664 -0.2106 -0.1857  0.6207
  107TMC2    C6 1666   2.541   2.579  11.608  0.2768 -0.7605 -0.9566
  107TMC2     C 1667   2.472   2.374  11.965  0.3965 -0.1508 -0.0157
  107TMC2     O 1668   2.375   2.408  12.026 -0.1125 -0.1679 -0.5724
  107TMC2     H 1669   2.293   2.495  11.803 -1.2156  0.5727 -1.5065
  107TMC2    H1 1670   2.718   2.409  11.828  0.3136  1.3785 -0.7800
  107TMC2    H2 1671   2.558   2.643  11.522  1.0256 -1.9466 -1.7027
  107TMC2    C7 1672   2.781   2.527  11.611  0.2791  0.4263  0.5688
  107TMC2    C8 1673   2.301   2.593  11.557  0.3492  0.0699  0.3931
  107TMC2    O1 1674   2.801   2.631  11.547  0.1233  0.2803 -0.2102
  107TMC2    O2 1675   2.320   2.677  11.470 -0.0359 -0.2517 -0.4241
  107TMC2    O5 1676   2.232   2.481  11.543  0.2423 -0.3058  0.1077
  107TMC2    H5 1677   2.254   2.413  11.611 -1.6081 -1.7798 -0.7671
  108MPD2     C 1678   2.668   2.088  12.071  0.4062  0.4633  0.4240
  108MPD2    C1 1679   2.560   2.171  12.085 -0.3088 -0.6594  0.5324
  108MPD2    C2 1680   2.469   2.159  12.181 -0.2166 -0.3935 -0.3543
  108MPD2    C3 1681   2.481   2.057  12.272  0.2237 -0.6366 -0.1175
  108MPD2    C4 1682   2.584   1.968  12.257  0.1264  0.4982  0.3383
  108MPD2    C5 1683   2.672   1.981  12.154  0.5609  0.4061  0.1582
  108MPD2     H 1684   2.390   2.233  12.181 -0.0870 -0.2551 -0.4451
  108MPD2    H1 1685   2.581   1.884  12.325  2.4528  0.7555  0.7477
  108MPD2    H2 1686   2.749   2.101  12.000 -0.1381 -0.5836 -0.3850
  108MPD2    H3 1687   2.763   1.923  12.150 -0.1686 -0.7050 -0.1992
  108MPD2     N 1688   2.398   2.044  12.383 -0.4190  0.1948  0.3848
  108MPD2    H5 1689   2.415   1.971  12.451 -1.4224 -0.0684  0.3565
  108MPD2    N1 1690   2.562   2.275  11.985 -0.1745 -0.0526  0.1184
  108MPD2    H7 1691   2.629   2.262  11.911  1.4745  2.5476  1.1351
  109TMC2    C1 1692   1.795   3.856   0.496 -0.8438 -0.1428 -0.0429
  109TMC2    C2 1693   1.784   3.897   0.364 -0.0586 -0.1745 -0.3038
  109TMC2    C3 1694   1.877   3.863   0.275  0.3657  0.2646 -0.4179
  109TMC2    C4 1695   1.904   3.778   0.529  0.4171  0.6518  0.2550
  109TMC2    C5 1696   1.993   3.733   0.433  0.2902  0.3011  0.3711
  109TMC2    C6 1697   1.988   3.784   0.302 -0.1663 -0.9988 -1.0904
  109TMC2     C 1698   1.764   3.971   0.577  0.1208  0.5102  0.0208
  109TMC2     O 1699   1.792   4.080   0.528  0.2524 -0.2808 -0.6833
  109TMC2     H 1700   1.703   3.961   0.332 -1.1378  0.6035  3.9401
  109TMC2    H1 1701   1.910   3.751   0.634 -0.4095  1.9255  0.6324
  109TMC2    H2 1702   2.059   3.779   0.220 -1.4009 -1.0340 -2.1557
  109TMC2    C7 1703   2.121   3.701   0.480 -0.0311 -0.4836 -0.0901
  109TMC2    C8 1704   1.874   3.951   0.160 -0.2930  0.1579 -0.1554
  109TMC2    O1 1705   2.138   3.713   0.600  0.0469 -0.0991 -0.4900
  109TMC2    O2 1706   1.969   4.003   0.110  0.6052 -0.7240 -0.7050
  109TMC2    O5 1707   1.750   3.958   0.109  0.4233 -0.1557 -0.2656
  109TMC2    H5 1708   1.687   3.894   0.148  2.3418 -1.8657  0.0138
  110MPD2     C 1709   1.718   4.186   1.038 -0.4521  0.0009  0.1432
  110MPD2    C1 1710   1.684   4.051   1.050  0.3687  0.0870  0.2531
  110MPD2    C2 1711   1.680   3.968   0.935 -0.0984  1.0497 -0.1628
  110MPD2    C3 1712   1.723   4.022   0.818  0.4539  0.7143  1.2733
  110MPD2    C4 1713   1.755   4.155   0.809 -0.0211 -0.1298 -0.1118
  110MPD2    C5 1714   1.745   4.237   0.920 -0.2023  0.0477 -0.5033
  110MPD2     H 1715   1.681   3.860   0.949 -1.6757  0.6751 -3.1008
  110MPD2    H1 1716   1.769   4.208   0.715 -0.1369 -0.9997 -0.6194
  110MPD2    H2 1717   1.711   4.258   1.119 -0.6231  1.8664 -1.5182
  110MPD2    H3 1718   1.784   4.337   0.911 -0.7136  0.3253  0.3700
  110MPD2     N 1719   1.744   3.938   0.707 -0.1896  0.1399 -0.4318
  110MPD2    H5 1720   1.711   3.848   0.740  1.9146  0.1304  1.5751
  110MPD2    N1 1721   1.650   4.007   1.178  0.5383  0.6824 -0.1044
  110MPD2    H7 1722   1.686   4.062   1.256 -2.1738  0.6022  1.2175
  111TMC2    C1 1723   1.985   4.089  11.667  0.2686  0.4026  0.2329
  111TMC2    C2 1724   1.887   4.029  11.748 -0.0044 -0.3637  0.2944
  111TMC2    C3 1725   1.916   4.037  11.881  0.5591  0.1010 -0.2114
  111TMC2    C4 1726   2.102   4.140  11.708 -0.4655  0.5232 -0.5157
  111TMC2    C5 1727   2.129   4.142  11.840 -0.4919  0.2953  0.3433
  111TMC2    C6 1728   2.042   4.080  11.927  0.1879 -0.0050 -0.3801
  111TMC2     C 1729   1.972   4.073  11.522  0.1799 -0.4017 -0.6415
  111TMC2     O 1730   2.073   4.094  11.462  0.3338  0.4380  0.0697
  111TMC2     H 1731   1.793   3.992  11.708 -0.6600  0.0178  1.4773
  111TMC2    H1 1732   2.153   4.201  11.635  0.9031 -0.0213 -0.0265
  111TMC2    H2 1733   2.066   4.102  12.030  0.2024  2.9997 -1.0441
  111TMC2    C7 1734   2.264   4.160  11.886  0.3431  0.8421  0.2764
  111TMC2    C8 1735   1.804   4.036  11.974  0.2166  0.3873  0.7712
  111TMC2    O1 1736   2.294   4.119  11.998  0.1180  0.2457 -0.3188
  111TMC2    O2 1737   1.690   4.032  11.923  0.4324 -0.0925  0.4883
  111TMC2    O5 1738   1.847   3.972  12.084 -0.5377 -0.2333  0.0639
  111TMC2    H5 1739   1.944   3.964  12.097 -0.4854 -0.2547 -0.3372
  112MPD2     C 1740   1.720   3.922  11.094 -0.1864  0.1103  0.0120
  112MPD2    C1 1741   1.843   3.973  11.105  0.5448 -0.2429  0.4310
  112MPD2    C2 1742   1.894   4.005  11.234 -0.4355 -0.3619 -0.9343
  112MPD2    C3 1743   1.820   3.988  11.351  0.1945 -0.1714  0.2976
  112MPD2    C4 1744   1.698   3.917  11.334  0.0978  1.0904  0.2081
  112MPD2    C5 1745   1.655   3.886  11.208 -0.6105  0.4014 -0.2117
  112MPD2     H 1746   1.993   4.047  11.243 -0.1197 -1.0696 -1.0818
  112MPD2    H1 1747   1.629   3.901  11.416  1.9630 -1.9353  1.1954
  112MPD2    H2 1748   1.690   3.888  10.995  0.3337  0.3600 -0.2347
  112MPD2    H3 1749   1.561   3.833  11.198  1.6343 -3.2416 -2.3801
  112MPD2     N 1750   1.860   4.007  11.481  0.3125  0.9939 -0.3161
  112MPD2    H5 1751   1.794   3.975  11.552 -0.7017  1.0358 -1.2443
  112MPD2    N1 1752   1.916   3.990  10.984 -0.5726  0.8359  0.2982
  112MPD2    H7 1753   1.875   3.958  10.896 -1.1618 -0.1075  0.9092
  113TMC2    C1 1754   0.040   1.779   0.477  0.3003 -0.6709 -0.0696
  113TMC2    C2 1755   4.716   1.894   0.429  0.0304  0.0246 -0.0873
  113TMC2    C3 1756   4.589   1.883   0.384 -0.4916 -0.6786 -0.0911
  113TMC2    C4 1757   4.706   1.656   0.480 -0.0682  0.6731  0.3415
  113TMC2    C5 1758   4.581   1.651   0.426 -0.4152  0.2542 -0.6745
  113TMC2    C6 1759   4.513   1.767   0.395 -0.0413 -0.4422 -0.0912
  113TMC2     C 1760   0.185   1.777   0.495 -0.3042  0.6494 -0.3036
  113TMC2     O 1761   0.233   1.864   0.570 -0.0398  0.3786 -0.3627
  113TMC2     H 1762   0.026   1.992   0.428 -0.1778  0.1083 -1.3325
  113TMC2    H1 1763   0.020   1.565   0.511 -2.3418  0.0912  2.3192
  113TMC2    H2 1764   4.414   1.758   0.353 -0.9302 -2.5507  2.4255
  113TMC2    C7 1765   4.518   1.533   0.375  0.3606  0.1632 -0.4487
  113TMC2    C8 1766   4.513   2.002   0.364  0.6263 -0.5035 -0.5530
  113TMC2    O1 1767   4.449   1.544   0.273 -0.0245  0.5433  0.2958
  113TMC2    O2 1768   4.407   2.000   0.303  0.3302 -0.0972 -0.0169
  113TMC2    O5 1769   4.531   2.074   0.476  0.4424  0.1909  0.2476
  113TMC2    H5 1770   4.614   2.059   0.525  0.1454  1.7010  1.2004
  114MPD2     C 1771   0.627   1.497   0.430  0.3536 -0.8622  0.6475
  114MPD2    C1 1772   0.589   1.593   0.525 -0.5677  0.1444  0.1519
  114MPD2    C2 1773   0.464   1.656   0.525 -1.0053 -0.6477  0.2959
  114MPD2    C3 1774   0.376   1.638   0.420  0.4361  0.2587  0.3159
  114MPD2    C4 1775   0.412   1.549   0.324 -1.0934  0.6783  0.5110
  114MPD2    C5 1776   0.534   1.483   0.325 -0.0602  0.0284 -0.3345
  114MPD2     H 1777   0.437   1.720   0.608  0.9162  1.0548 -0.3842
  114MPD2    H1 1778   0.352   1.534   0.234  0.5183 -1.0232 -0.2899
  114MPD2    H2 1779   0.727   1.459   0.416  0.1075 -0.9152 -0.9234
  114MPD2    H3 1780   0.550   1.427   0.233  0.2195  0.0162 -0.2772
  114MPD2     N 1781   0.242   1.691   0.411  0.2409  0.0313  0.5434
  114MPD2    H5 1782   0.189   1.664   0.329 -0.3925 -0.4187  1.0931
  114MPD2    N1 1783   0.683   1.626   0.631 -0.7018  0.3980  0.3224
  114MPD2    H7 1784   0.658   1.711   0.680 -0.2175  2.7034 -3.4072
  115TMC2    C1 1785   1.080   4.547   0.171 -0.5611  0.4119  0.3251
  115TMC2    C2 1786   1.105   4.577   0.037  0.8312 -0.5135  0.0217
  115TMC2    C3 1787   1.133   4.708   0.006 -0.7306 -0.0119  0.2616
  115TMC2    C4 1788   1.105   4.638   0.275  0.0184 -0.4167  0.2814
  115TMC2    C5 1789   1.167   0.016   0.239 -0.0789  0.5525  1.3826
  115TMC2    C6 1790   1.164   0.060   0.104  0.1014 -0.0465 -0.9474
  115TMC2     C 1791   1.073   4.401   0.185  0.1696  0.0953 -0.5183
  115TMC2     O 1792   1.051   4.338   0.081  0.3229  0.9672  0.2671
  115TMC2     H 1793   1.068   4.519  17.697  2.6943 -1.5739 -0.0715
  115TMC2    H1 1794   1.100   4.616   0.381  0.6251 -2.3075 -0.0738
  115TMC2    H2 1795   1.194   0.157   0.067  0.4799  0.2489  0.1360
  115TMC2    C7 1796   1.191   0.115   0.338  0.3137  0.4347  1.0234
  115TMC2    C8 1797   1.131   0.028  17.615  0.2012  0.8634 -0.1734
  115TMC2    O1 1798   1.139   0.108   0.450  0.0591  0.2640  0.2157
  115TMC2    O2 1799   1.188   0.130  17.578  0.0007  0.3021  0.0043
  115TMC2    O5 1800   1.046   4.699  17.529  0.3096  0.1854 -0.2128
  115TMC2    H5 1801   0.996   4.626  17.570  2.4788 -1.9153 -1.3250
  116MPD2     C 1802   1.072   3.943   0.389  0.6065  0.1421  0.3954
  116MPD2    C1 1803   1.112   3.986   0.265  0.4498 -0.2311  0.7161
  116MPD2    C2 1804   1.125   4.116   0.239 -0.2539 -0.2052 -0.0296
  116MPD2    C3 1805   1.089   4.212   0.331  0.0062  0.3964  0.3748
  116MPD2    C4 1806   1.057   4.166   0.457 -0.1240 -0.0719  0.1129
  116MPD2    C5 1807   1.051   4.031   0.485  0.8080  0.3976 -0.0807
  116MPD2     H 1808   1.150   4.141   0.136  0.5967 -2.3824 -0.3667
  116MPD2    H1 1809   1.052   4.228   0.546 -0.2233  0.2463 -0.1173
  116MPD2    H2 1810   1.059   3.838   0.413 -2.6365  0.9275  2.1843
  116MPD2    H3 1811   1.029   3.990   0.583  0.9423  2.5123  0.8486
  116MPD2     N 1812   1.094   4.348   0.309  0.2739 -0.0876 -0.1507
  116MPD2    H5 1813   1.103   4.408   0.391  0.2717 -0.3166  0.0154
  116MPD2    N1 1814   1.115   3.909   0.149 -0.4193  0.0795 -0.1852
  116MPD2    H7 1815   1.126   3.963   0.064 -2.5047  1.3607  0.3723
  117TMC2    C1 1816   4.494   1.120  14.179 -0.0854  0.5039  0.2232
  117TMC2    C2 1817   4.605   1.050  14.217  0.5790  0.4269  0.1685
  117TMC2    C3 1818   4.709   1.113  14.272 -0.4184 -0.6706  0.0846
  117TMC2    C4 1819   4.484   1.250  14.214  0.8437  0.8476  0.4568
  117TMC2    C5 1820   4.597   1.313  14.266  0.5555  0.6918 -0.4511
  117TMC2    C6 1821   4.704   1.241  14.292 -0.2785  0.2097  0.3926
  117TMC2     C 1822   4.395   1.050  14.097  1.0675 -0.3644  0.0380
  117TMC2     O 1823   4.413   0.930  14.071 -0.5372  0.0951 -0.2896
  117TMC2     H 1824   4.604   0.942  14.210  0.7730  0.3207  1.7547
  117TMC2    H1 1825   4.386   1.296  14.214  0.1303 -0.6747  0.2206
  117TMC2    H2 1826   0.048   1.280  14.354  0.4713  0.4421 -0.7162
  117TMC2    C7 1827   4.610   1.453  14.259  0.1620 -0.0776  0.6352
  117TMC2    C8 1828   0.081   1.037  14.330  0.0025  0.0643 -0.0626
  117TMC2    O1 1829   4.720   1.491  14.300  0.2390 -0.1525 -0.6333
  117TMC2    O2 1830   0.126   0.943  14.266 -0.0009  0.5197  0.4198
  117TMC2    O5 1831   0.066   1.051  14.457 -0.5441 -0.6865 -0.0489
  117TMC2    H5 1832   0.003   1.126  14.468 -0.1690 -0.3522 -0.2009
  118MPD2     C 1833   4.361   1.711  14.157  0.2637 -0.1954 -0.6327
  118MPD2    C1 1834   4.477   1.663  14.219  0.0156  0.0323 -0.4628
  118MPD2    C2 1835   4.547   1.750  14.295  0.3994 -0.9116  0.0449
  118MPD2    C3 1836   4.511   1.885  14.300 -0.4194  0.4390 -0.4405
  118MPD2    C4 1837   4.393   1.926  14.243 -0.2375  0.3015 -0.0709
  118MPD2    C5 1838   4.316   1.836  14.173  0.2180 -0.0069  0.3082
  118MPD2     H 1839   4.635   1.716  14.349 -0.8906  1.6794  3.7036
  118MPD2    H1 1840   4.347   2.024  14.249 -0.0277  0.4375 -0.6637
  118MPD2    H2 1841   4.301   1.643  14.098  0.0817 -0.9619  0.4323
  118MPD2    H3 1842   4.236   1.868  14.107 -0.8340 -1.5679  0.8186
  118MPD2     N 1843   4.589   1.985  14.357  0.2555  0.1480  0.1446
  118MPD2    H5 1844   4.554   2.081  14.361  1.0768  0.3807  1.7604
  118MPD2    N1 1845   4.498   1.523  14.215  0.1665  0.0561 -0.7059
  118MPD2    H7 1846   4.427   1.465  14.171 -0.6585  0.6283 -0.1361
  119TMC2    C1 1847   2.555   2.306  13.444  0.0841  0.1194 -0.1932
  119TMC2    C2 1848   2.590   2.300  13.309  0.9182 -0.1817 -0.6153
  119TMC2    C3 1849   2.480   2.261  13.231 -0.0327  0.5711  1.1104
  119TMC2    C4 1850   2.434   2.266  13.493  0.3405 -0.1290  0.3666
  119TMC2    C5 1851   2.329   2.229  13.416  0.0334  0.0070 -0.1999
  119TMC2    C6 1852   2.350   2.234  13.280  0.0095 -0.3661  0.0651
  119TMC2     C 1853   2.618   2.417  13.507 -0.8331 -0.3223 -0.6847
  119TMC2     O 1854   2.555   2.473  13.598 -0.0591 -0.1041 -0.6102
  119TMC2     H 1855   2.676   2.354  13.272  1.4811 -2.7851 -3.1223
  119TMC2    H1 1856   2.416   2.268  13.600 -0.5648 -0.3412  0.2180
  119TMC2    H2 1857   2.278   2.198  13.207 -0.8694 -1.8147  1.6307
  119TMC2    C7 1858   2.198   2.228  13.463  0.7491  0.5103 -0.3765
  119TMC2    C8 1859   2.480   2.281  13.087  0.9188  0.1625 -0.1931
  119TMC2    O1 1860   2.113   2.240  13.374  0.3580 -0.2221  0.0864
  119TMC2    O2 1861   2.382   2.311  13.021  0.3064 -0.3411  0.0634
  119TMC2    O5 1862   2.608   2.279  13.041 -0.7520 -0.5698 -0.1671
  119TMC2    H5 1863   2.671   2.236  13.103  0.7792  2.2899  0.2744
  120MPD2     C 1864   3.032   2.690  13.605 -1.0260  0.3505  0.2298
  120MPD2    C1 1865   2.902   2.712  13.642 -0.2098  0.5251 -0.1943
  120MPD2    C2 1866   2.807   2.631  13.593  0.4024 -0.1689 -0.0309
  120MPD2    C3 1867   2.838   2.527  13.508 -0.6940 -0.6758 -0.6620
  120MPD2    C4 1868   2.968   2.506  13.466  0.1471  0.0190  0.2736
  120MPD2    C5 1869   3.065   2.595  13.510  0.3163 -0.4091  0.7909
  120MPD2     H 1870   2.706   2.645  13.629  0.5941  0.2096  0.3584
  120MPD2    H1 1871   2.995   2.432  13.392  0.0073  1.3014 -1.0579
  120MPD2    H2 1872   3.112   2.754  13.640 -0.9590  0.0296  0.6619
  120MPD2    H3 1873   3.169   2.585  13.481  0.4250  3.1601  0.0304
  120MPD2     N 1874   2.749   2.432  13.469  0.7691 -0.2924 -0.0699
  120MPD2    H5 1875   2.795   2.359  13.417 -3.0250 -4.0776  1.9254
  120MPD2    N1 1876   2.872   2.822  13.726  0.4510 -0.3839  0.3864
  120MPD2    H7 1877   2.947   2.886  13.750  1.4390 -0.6341 -2.0520
  121TMC2    C1 1878   4.461   4.157  14.253 -0.4902  0.0478 -0.3981
  121TMC2    C2 1879   4.419   4.192  14.378 -0.1184 -0.6367  1.0781
  121TMC2    C3 1880   4.290   4.157  14.410 -0.0092  0.2359  0.3662
  121TMC2    C4 1881   4.386   4.092  14.153 -0.3051 -0.5285  0.3788
  121TMC2    C5 1882   4.268   4.047  14.201 -0.3137  0.4952 -0.3552
  121TMC2    C6 1883   4.219   4.078  14.323  0.8540  0.2597 -0.1630
  121TMC2     C 1884   4.582   4.235  14.215 -0.0135  0.3693  0.3458
  121TMC2     O 1885   4.658   4.266  14.305  0.2831 -0.4185 -0.2510
  121TMC2     H 1886   4.484   4.253  14.440  0.5208 -1.2212  0.9860
  121TMC2    H1 1887   4.419   4.073  14.052 -2.3036  2.2282 -0.8014
  121TMC2    H2 1888   4.130   4.026  14.357  2.0060 -0.4112  1.8789
  121TMC2    C7 1889   4.172   3.991  14.104  0.1910 -0.1334  0.1256
  121TMC2    C8 1890   4.218   4.199  14.533  0.6456  1.2170 -0.1371
  121TMC2    O1 1891   4.213   3.965  13.993  0.3887 -0.4176  0.1526
  121TMC2    O2 1892   4.110   4.247  14.513 -0.3779  0.8374  0.1643
  121TMC2    O5 1893   4.319   4.264  14.601 -0.2898 -0.2907  0.5551
  121TMC2    H5 1894   4.393   4.200  14.608  3.0186  3.2350 -2.6308
  122MPD2     C 1895   0.108   4.317  14.070  0.4067 -1.2756 -0.1985
  122MPD2    C1 1896   4.716   4.303  14.015 -0.7758  0.5227  0.4583
  122MPD2    C2 1897   4.696   4.360  13.889 -0.2549  0.1472  0.6331
  122MPD2    C3 1898   0.057   4.439  13.834 -0.9585 -0.0485  0.0622
  122MPD2    C4 1899   0.182   4.459  13.892  0.0021  0.5215  0.3091
  122MPD2    C5 1900   0.200   4.406  14.016 -0.1521 -0.1163 -0.3532
  122MPD2     H 1901   4.595   4.348  13.850  0.1857  1.6755 -1.0036
  122MPD2    H1 1902   0.250   4.533  13.852 -2.1584  1.2616 -2.0260
  122MPD2    H2 1903   0.124   4.291  14.175  0.8969 -0.5481 -0.0947
  122MPD2    H3 1904   0.294   4.432  14.063 -0.3931  2.4634 -1.3350
  122MPD2     N 1905   0.030   4.509  13.713  0.5059  0.3435  0.2456
  122MPD2    H5 1906   0.098   4.580  13.689  0.1491  0.3409 -0.7729
  122MPD2    N1 1907   4.599   4.245  14.079 -0.0690  0.2381 -0.4520
  122MPD2    H7 1908   4.514   4.237  14.023 -0.2695 -0.0246 -0.1124
  123TMC2    C1 1909   3.050   2.350  11.143  0.1900 -0.1106 -1.0088
  123TMC2    C2 1910   3.180   2.334  11.136 -0.1407 -0.8100  0.1316
  123TMC2    C3 1911   3.246   2.357  11.023 -0.9846  0.8524  0.0047
  123TMC2    C4 1912   2.980   2.422  11.042  0.0198 -0.7640  0.1585
  123TMC2    C5 1913   3.050   2.455  10.931  0.4352 -0.2352 -0.6940
  123TMC2    C6 1914   3.179   2.410  10.919  0.4117  0.2115 -0.3834
  123TMC2     C 1915   2.980   2.240  11.208 -0.2731 -0.2215  0.7475
  123TMC2     O 1916   3.050   2.145  11.233 -0.1026  0.1931  0.3502
  123TMC2     H 1917   3.230   2.295  11.224  0.3646 -2.9167 -1.0744
  123TMC2    H1 1918   2.875   2.445  11.052  0.1344 -0.4768  0.6737
  123TMC2    H2 1919   3.243   2.415  10.831 -0.5731  1.4393 -1.0331
  123TMC2    C7 1920   2.964   2.448  10.811  0.2670  0.6137 -0.1018
  123TMC2    C8 1921   3.369   2.280  11.002 -0.5373 -0.3627 -1.0348
  123TMC2    O1 1922   2.844   2.420  10.824  0.1844 -0.0663  0.4468
  123TMC2    O2 1923   3.396   2.180  11.070 -0.1546 -0.3657 -0.4318
  123TMC2    O5 1924   3.459   2.342  10.917  0.4207  0.2154 -0.3589
  123TMC2    H5 1925   3.436   2.429  10.879  0.2337  0.7046  0.8654
  124MPD2     C 1926   2.579   1.941  11.340 -0.4814  0.0872 -0.1374
  124MPD2    C1 1927   2.522   2.043  11.269  0.0053 -0.6780 -1.0681
  124MPD2    C2 1928   2.612   2.149  11.236 -0.5473  0.0452  0.6877
  124MPD2    C3 1929   2.748   2.141  11.253  0.4206 -0.8096  0.0353
  124MPD2    C4 1930   2.795   2.041  11.339  0.4090  0.1456  0.6581
  124MPD2    C5 1931   2.712   1.940  11.375  0.8960  0.1007 -0.4024
  124MPD2     H 1932   2.585   2.236  11.178  1.0861 -0.0918 -0.2984
  124MPD2    H1 1933   2.901   2.032  11.360  0.6419  0.4912 -0.3371
  124MPD2    H2 1934   2.511   1.865  11.376 -1.0182  0.7407  0.2426
  124MPD2    H3 1935   2.751   1.860  11.437  2.0319  0.1192 -1.0861
  124MPD2     N 1936   2.837   2.237  11.197  0.4413  0.1259 -0.4295
  124MPD2    H5 1937   2.789   2.309  11.145 -0.7046  0.9142  1.7626
  124MPD2    N1 1938   2.385   2.042  11.237 -0.0794  0.4314 -0.0497
  124MPD2    H7 1939   2.336   1.955  11.254 -0.7489  0.3644 -2.2795
  125TMC2    C1 1940   1.186   0.214   9.553 -0.0479 -0.0064 -0.0139
  125TMC2    C2 1941   1.256   0.235   9.672  0.6397 -0.3172  0.1211
  125TMC2    C3 1942   1.193   0.317   9.761 -0.5501  0.3347  0.3149
  125TMC2    C4 1943   1.056   0.262   9.533 -0.0367  0.3434 -0.6134
  125TMC2    C5 1944   0.998   0.321   9.637 -0.4629 -0.3353 -0.2214
  125TMC2    C6 1945   1.066   0.356   9.746 -0.4130 -0.6135 -0.4095
  125TMC2     C 1946   1.244   0.118   9.455  0.2994 -0.4648 -0.2611
  125TMC2     O 1947   1.172   0.105   9.359  0.0938  0.0470 -0.2171
  125TMC2     H 1948   1.360   0.205   9.680  0.8575  0.3708 -0.1165
  125TMC2    H1 1949   1.001   0.233   9.444  0.8122 -0.3360 -0.9177
  125TMC2    H2 1950   1.023   0.415   9.825  0.3769  1.0182 -1.2010
  125TMC2    C7 1951   0.861   0.359   9.639  0.1376 -0.1233 -0.3008
  125TMC2    C8 1952   1.269   0.385   9.866  0.3785  0.3495  0.6867
  125TMC2    O1 1953   0.820   0.435   9.725  0.6990  0.1218 -0.8691
  125TMC2    O2 1954   1.359   0.325   9.931 -0.0548 -0.5470 -0.4702
  125TMC2    O5 1955   1.221   0.508   9.892  0.2625 -0.5694  0.4123
  125TMC2    H5 1956   1.145   0.533   9.835  0.7031  2.7446  1.2835
  126MPD1     C 1957   1.562   4.512   9.247 -0.2946 -0.1448 -0.1552
  126MPD1    C1 1958   1.614   4.531   9.371  0.0188 -0.4758 -0.0218
  126MPD1    C2 1959   1.544   4.622   9.451  0.1327  0.4915  0.7344
  126MPD1    C3 1960   1.418   4.682   9.412 -0.3370  0.9203  0.2712
  126MPD1    C4 1961   1.385   4.668   9.278  0.0009 -0.0742 -0.6842
  126MPD1    C5 1962   1.458   4.590   9.196 -0.2235  0.7576  0.3165
  126MPD1     H 1963   1.572   4.637   9.554  0.2883 -0.5222  0.8420
  126MPD1    H1 1964   1.301   4.718   9.231 -0.3152  1.1664  1.1874
  126MPD1    H2 1965   1.607   4.441   9.179  0.9210 -0.3046  0.7913
  126MPD1    H3 1966   1.443   4.582   9.089  1.4278  3.3385 -0.1037
  126MPD1     N 1967   1.354   0.041   9.493  0.6620 -0.9281  0.2880
  126MPD1    H5 1968   1.391   0.031   9.587 -1.2789 -2.2044  0.9113
  126MPD1    N1 1969   1.724   4.459   9.417  0.0408 -0.3116 -0.4121
  126MPD1    H6 1970   1.782   4.502   9.489 -0.4044  1.5239 -1.1658
  126MPD1    H7 1971   1.778   4.418   9.341  0.6343 -2.4524  1.1575
  127TMC2    C1 1972   0.185   3.106   9.797  0.4070 -0.9403 -0.0078
  127TMC2    C2 1973   0.224   3.087   9.921  0.5071  0.0807 -0.1518
  127TMC2    C3 1974   0.143   3.010  10.004  0.4558 -0.5062 -0.1606
  127TMC2    C4 1975   0.062   3.062   9.749 -0.6558  0.1092  0.1843
  127TMC2    C5 1976   4.713   2.996   9.836  0.3190  0.8920 -0.3679
  127TMC2    C6 1977   0.020   2.970   9.972 -0.4412  0.3571  0.1957
  127TMC2     C 1978   0.277   3.168   9.703 -0.1916  0.2639  0.0135
  127TMC2     O 1979   0.223   3.204   9.599  0.4796 -0.1550  0.0991
  127TMC2     H 1980   0.302   3.148   9.965  2.2626 -0.5075 -2.4527
  127TMC2    H1 1981   0.037   3.062   9.644  0.5191  0.1708 -0.0939
  127TMC2    H2 1982   4.701   2.910  10.043 -0.4022  1.0918  0.8547
  127TMC2    C7 1983   4.571   2.979   9.798 -0.1750  0.2820  0.2715
  127TMC2    C8 1984   0.187   3.004  10.142  0.5742 -0.1779 -0.0839
  127TMC2    O1 1985   4.532   3.028   9.691 -0.3746 -0.3351  0.5262
  127TMC2    O2 1986   0.117   3.007  10.241 -0.5167  0.9824 -0.2978
  127TMC2    O5 1987   0.320   3.000  10.140 -0.1493  0.1161  0.3353
  127TMC2    H5 1988   0.358   2.975  10.053 -1.8174  0.3529 -0.4571
  128MPD2     C 1989   0.649   3.166   9.682  0.0605 -0.6084 -0.5335
  128MPD2    C1 1990   0.528   3.207   9.654 -0.0223  0.3578  0.0141
  128MPD2    C2 1991   0.517   3.320   9.579  0.1253  0.4473  0.0846
  128MPD2    C3 1992   0.629   3.392   9.523 -0.1283 -0.8792  0.5370
  128MPD2    C4 1993   0.756   3.332   9.536 -0.1115  0.1062  0.3588
  128MPD2    C5 1994   0.761   3.218   9.617 -0.1822 -0.2879 -0.6872
  128MPD2     H 1995   0.421   3.366   9.559  0.7972  1.0172 -1.8250
  128MPD2    H1 1996   0.849   3.373   9.500 -1.1396  1.3140 -0.9668
  128MPD2    H2 1997   0.671   3.084   9.749  2.2921 -1.3893 -2.2048
  128MPD2    H3 1998   0.860   3.180   9.639 -0.6911 -0.4158  1.3620
  128MPD2     N 1999   0.607   3.510   9.453 -0.0218  0.2867  0.4285
  128MPD2    H5 2000   0.526   3.567   9.474 -0.9383  0.2167 -2.9606
  128MPD2    N1 2001   0.414   3.149   9.736  0.2378 -0.3845  0.4963
  128MPD2    H7 2002   0.435   3.083   9.810  0.1925 -0.2250  0.6536
  129TMC2    C1 2003   3.031   3.126   2.030 -0.3690 -0.2849  0.4850
  129TMC2    C2 2004   3.127   3.156   1.943  0.7616 -0.7093  0.3212
  129TMC2    C3 2005   3.230   3.069   1.926 -0.4649 -0.2439  0.0481
  129TMC2    C4 2006   3.034   3.007   2.100 -0.6517 -0.2875 -0.1137
  129TMC2    C5 2007   3.133   2.918   2.074  0.1303 -0.1797  0.4119
  129TMC2    C6 2008   3.229   2.946   1.983 -0.3114 -0.5483  0.8495
  129TMC2     C 2009   2.899   3.185   2.024 -0.0017  0.2720  0.4068
  129TMC2     O 2010   2.803   3.131   2.081 -0.2410 -0.5337 -1.0010
  129TMC2     H 2011   3.127   3.239   1.873 -1.1232  0.7659  2.0482
  129TMC2    H1 2012   2.946   2.970   2.151 -0.4632 -0.7884 -0.1586
  129TMC2    H2 2013   3.305   2.872   1.958 -2.2956 -2.0180 -0.8033
  129TMC2    C7 2014   3.089   2.773   2.098  0.6910  0.7435 -0.2252
  129TMC2    C8 2015   3.332   3.105   1.833 -0.1177 -0.1060 -0.0569
  129TMC2    O1 2016   2.973   2.753   2.134 -0.1689  0.1582  0.6230
  129TMC2    O2 2017   3.408   3.027   1.770  0.0192  0.1760 -0.3660
  129TMC2    O5 2018   3.352   3.232   1.843 -0.2177 -0.7845  0.2582
  129TMC2    H5 2019   3.318   3.267   1.929 -0.6356 -0.9274  0.1541
  130MPD2     C 2020   2.667   3.372   2.012  0.3422 -0.5076  0.6425
  130MPD2    C1 2021   2.779   3.385   1.931  0.6762  0.1089 -0.6629
  130MPD2    C2 2022   2.780   3.497   1.843 -0.3919 -0.2839 -0.1574
  130MPD2    C3 2023   2.680   3.593   1.843  0.0104 -0.6823  0.1450
  130MPD2    C4 2024   2.569   3.565   1.919 -0.3686 -0.8543  0.0522
  130MPD2    C5 2025   2.560   3.453   1.998 -0.0363  0.1229  0.8113
  130MPD2     H 2026   2.859   3.498   1.769 -0.4107  0.9441 -0.1595
  130MPD2    H1 2027   2.490   3.639   1.932 -0.1501 -0.7233  0.6167
  130MPD2    H2 2028   2.649   3.304   2.094 -1.8950 -0.0072  0.5703
  130MPD2    H3 2029   2.472   3.448   2.061  0.4911 -3.1221  1.3033
  130MPD2     N 2030   2.700   3.715   1.765  0.5967 -0.1994 -0.6016
  130MPD2    H5 2031   2.789   3.729   1.720 -0.2884  2.7599 -1.4177
  130MPD2    N1 2032   2.895   3.299   1.944  0.0325 -0.0286  0.1352
  130MPD2    H7 2033   2.979   3.329   1.895 -0.0057 -1.3125 -0.7082
  131TMC2    C1 2034   2.505   2.723  10.476 -1.0146  0.7220  0.3927
  131TMC2    C2 2035   2.629   2.730  10.523  0.2313  0.3933  0.5854
  131TMC2    C3 2036   2.703   2.838  10.489  0.8093  0.5174 -0.2993
  131TMC2    C4 2037   2.453   2.815  10.389 -0.6940 -0.5667 -0.1791
  131TMC2    C5 2038   2.534   2.918  10.355  0.7815  0.1846  0.0428
  131TMC2    C6 2039   2.663   2.933  10.397 -0.1834  0.4570  0.9430
  131TMC2     C 2040   2.415   2.622  10.528 -0.1901  0.0062 -0.1502
  131TMC2     O 2041   2.456   2.566  10.625  0.6634 -0.3392  0.4224
  131TMC2     H 2042   2.664   2.641  10.574  1.8579 -0.3722 -1.9039
  131TMC2    H1 2043   2.345   2.821  10.379 -0.7310  0.0817  0.5895
  131TMC2    H2 2044   2.735   3.000  10.352 -0.9235  0.7284  0.1531
  131TMC2    C7 2045   2.488   3.002  10.249  0.7460 -0.0612 -0.2976
  131TMC2    C8 2046   2.842   2.866  10.533 -0.3992 -0.0609 -0.1098
  131TMC2    O1 2047   2.394   2.961  10.183 -0.4058  0.1224 -0.4525
  131TMC2    O2 2048   2.919   2.937  10.473 -0.5470  0.1612  0.4635
  131TMC2    O5 2049   2.865   2.812  10.655 -1.0501 -0.1111  0.3114
  131TMC2    H5 2050   2.799   2.753  10.699 -0.5491 -2.1105 -1.6209
  132MPD2     C 2051   2.123   2.459  10.374 -0.2354 -0.1555 -0.1632
  132MPD2    C1 2052   2.217   2.485  10.475  0.8124  0.2497 -0.8098
  132MPD2    C2 2053   2.214   2.414  10.591 -0.2971 -0.4158 -0.3757
  132MPD2    C3 2054   2.116   2.323  10.613  0.4368  0.7189 -0.4262
  132MPD2    C4 2055   2.016   2.303  10.519  0.7670  0.5665 -0.1736
  132MPD2    C5 2056   2.020   2.374  10.398  0.1138  0.6572 -0.7012
  132MPD2     H 2057   2.287   2.419  10.671  0.6898 -2.8699 -1.1394
  132MPD2    H1 2058   1.960   2.210  10.526  1.9824 -0.1353  0.3454
  132MPD2    H2 2059   2.117   2.516  10.282 -1.7715 -0.4028 -0.2223
  132MPD2    H3 2060   1.943   2.351  10.325 -0.1459  0.1733 -0.2765
  132MPD2     N 2061   2.117   2.246  10.731 -0.2056  0.4361 -0.0707
  132MPD2    H5 2062   2.204   2.239  10.784  0.3553 -3.5774 -1.4836
  132MPD2    N1 2063   2.310   2.588  10.448  0.4134  0.0747  0.6847
  132MPD2    H7 2064   2.305   2.631  10.356  0.3482 -1.8914 -0.2502
  133TMC2    C1 2065   0.816   4.161   8.536 -0.2172 -0.3080  0.5334
  133TMC2    C2 2066   0.901   4.078   8.464  0.2891 -0.6482 -0.8290
  133TMC2    C3 2067   0.851   4.014   8.351  0.3650 -0.1106  0.1524
  133TMC2    C4 2068   0.685   4.158   8.506  0.3973 -0.7398  0.3294
  133TMC2    C5 2069   0.644   4.088   8.393 -0.2265  0.4917  0.8216
  133TMC2    C6 2070   0.726   4.013   8.314 -0.6715  0.0941 -0.0362
  133TMC2     C 2071   0.861   4.190   8.670  0.8242 -0.6886 -0.2298
  133TMC2     O 2072   0.969   4.139   8.704  0.0776 -0.1048  0.4830
  133TMC2     H 2073   1.004   4.090   8.495 -0.0340 -1.1014  0.4242
  133TMC2    H1 2074   0.618   4.200   8.580  0.2948  1.7216 -1.1595
  133TMC2    H2 2075   0.681   3.959   8.232 -0.5650 -1.8738  1.1988
  133TMC2    C7 2076   0.508   4.072   8.368  0.3724 -0.5120  0.1966
  133TMC2    C8 2077   0.921   3.898   8.307  0.0142 -0.1762  0.4676
  133TMC2    O1 2078   0.471   3.966   8.320 -0.6387 -0.8790 -0.4379
  133TMC2    O2 2079   0.867   3.793   8.274 -0.2565 -0.9113  0.6931
  133TMC2    O5 2080   1.054   3.927   8.302 -0.0491 -0.2909 -0.2932
  133TMC2    H5 2081   1.082   4.019   8.320 -0.9197 -0.1524  0.2801
  134MPD2     C 2082   0.752   4.498   8.857  0.6296 -0.1923  1.0561
  134MPD2    C1 2083   0.825   4.382   8.832 -0.0204  0.3606 -0.3786
  134MPD2    C2 2084   0.937   4.354   8.913  0.3013  0.1716  0.4219
  134MPD2    C3 2085   0.979   4.447   9.009 -0.2983  0.4768  0.2842
  134MPD2    C4 2086   0.904   4.557   9.036 -0.3099 -0.1029  0.3806
  134MPD2    C5 2087   0.791   4.582   8.961 -0.4050  0.1303 -0.0969
  134MPD2     H 2088   0.994   4.264   8.894  0.1802  0.1637  0.0791
  134MPD2    H1 2089   0.938   4.613   9.123 -1.4543  1.9928 -0.5262
  134MPD2    H2 2090   0.666   4.524   8.797  0.0569 -1.0692  1.5139
  134MPD2    H3 2091   0.736   4.673   8.985  0.8909  0.4467  1.7369
  134MPD2     N 2092   1.095   4.423   9.090 -0.1571 -0.1022 -0.2670
  134MPD2    H5 2093   1.101   4.475   9.176  0.4421 -1.4510  0.5121
  134MPD2    N1 2094   0.794   4.306   8.716 -0.9346  0.0954  0.2485
  134MPD2    H7 2095   0.711   4.330   8.662 -0.5591 -0.8730 -0.7722
  135TMC2    C1 2096   3.691   4.602   9.623  0.4287 -0.1411 -0.3832
  135TMC2    C2 2097   3.570   4.561   9.671 -0.5657  0.8327  0.4230
  135TMC2    C3 2098   3.565   4.442   9.734 -0.2495 -0.1851  0.5071
  135TMC2    C4 2099   3.806   4.538   9.646  0.0409  0.2529  0.0030
  135TMC2    C5 2100   3.795   4.414   9.712 -0.0635 -0.2152 -0.3682
  135TMC2    C6 2101   3.674   4.358   9.752 -0.4262 -0.4124 -0.1564
  135TMC2     C 2102   3.703   0.005   9.586 -0.1823  1.1295 -0.6846
  135TMC2     O 2103   3.611   0.079   9.620 -0.1773  0.0391 -0.0025
  135TMC2     H 2104   3.478   4.615   9.652 -0.9689  0.0337  0.1096
  135TMC2    H1 2105   3.902   4.582   9.621  0.2302 -0.1229  0.0644
  135TMC2    H2 2106   3.668   4.251   9.766  0.1668 -0.5126 -0.6443
  135TMC2    C7 2107   3.914   4.338   9.724  0.0805  0.1636 -0.3054
  135TMC2    C8 2108   3.449   4.427   9.814  0.6986 -0.4073 -0.2899
  135TMC2    O1 2109   4.011   4.379   9.665 -0.0058  0.1035 -0.2980
  135TMC2    O2 2110   3.367   4.511   9.845 -0.0940 -0.3590  0.0264
  135TMC2    O5 2111   3.461   4.312   9.875  0.5657  0.0264  0.5267
  135TMC2    H5 2112   3.520   4.248   9.830 -0.0598  1.0359 -1.7214
  136MPD2     C 2113   3.768   0.268   9.467 -0.0044 -0.2300  0.3612
  136MPD2    C1 2114   3.856   0.160   9.480 -0.4708 -0.0368  0.0681
  136MPD2    C2 2115   3.987   0.180   9.457 -0.0270 -0.6826  0.1476
  136MPD2    C3 2116   4.042   0.299   9.415 -0.6095  0.1908  0.0233
  136MPD2    C4 2117   3.956   0.404   9.417 -0.1481 -0.1895 -0.2144
  136MPD2    C5 2118   3.822   0.389   9.428  0.0609  0.3162  0.2951
  136MPD2     H 2119   4.043   0.088   9.460 -0.5217 -0.9479  1.5849
  136MPD2    H1 2120   3.997   0.498   9.381  2.2268 -1.7490 -1.6108
  136MPD2    H2 2121   3.661   0.256   9.478  0.1418 -1.3108  0.6116
  136MPD2    H3 2122   3.760   0.478   9.417 -0.8777 -0.1856  1.4913
  136MPD2     N 2123   4.176   0.324   9.380 -0.0634 -0.2322  0.1498
  136MPD2    H5 2124   4.191   0.416   9.340 -2.5133  0.3974  0.7037
  136MPD2    N1 2125   3.814   0.031   9.514  0.0477 -0.1010 -0.1265
  136MPD2    H7 2126   3.869   4.686   9.487  0.4025  0.5268 -1.2852
  137TMC2    C1 2127   3.140   4.706   9.518  0.5070 -0.8759  0.9109
  137TMC2    C2 2128   3.099   0.102   9.512  0.1777  0.3055 -0.0710
  137TMC2    C3 2129   2.977   0.124   9.555  0.0029 -0.4849 -0.3500
  137TMC2    C4 2130   3.058   4.606   9.568  0.0114  0.3071  0.0476
  137TMC2    C5 2131   2.933   4.638   9.603  0.4981  0.5776  0.6859
  137TMC2    C6 2132   2.890   0.028   9.607 -0.2982  0.2015  0.2364
  137TMC2     C 2133   3.264   4.661   9.460 -0.7721 -0.0988  0.1341
  137TMC2     O 2134   3.300   4.551   9.500  0.2997  0.5172 -0.1348
  137TMC2     H 2135   3.157   0.179   9.462 -0.3645  1.7294  1.5105
  137TMC2    H1 2136   3.087   4.502   9.559 -1.7910 -0.1610 -0.3920
  137TMC2    H2 2137   2.784   0.047   9.625 -0.3393 -0.9889  1.2411
  137TMC2    C7 2138   2.832   4.535   9.593 -0.8153 -0.1050  0.1966
  137TMC2    C8 2139   2.924   0.253   9.525  0.0814 -0.3084 -0.5609
  137TMC2    O1 2140   2.725   4.567   9.545 -0.3505 -0.1907  0.0858
  137TMC2    O2 2141   2.955   0.328   9.433 -0.6336  0.4869 -0.8737
  137TMC2    O5 2142   2.890   0.299   9.636 -0.5369 -0.2738 -0.2255
  137TMC2    H5 2143   2.880   0.229   9.704  0.3918 -2.0867 -1.9676
  138MPD2     C 2144   3.527   0.078   9.256  0.3271 -0.3528  0.0413
  138MPD2    C1 2145   3.461   4.713   9.308  0.5199  0.0584 -0.5777
  138MPD2    C2 2146   3.519   4.584   9.307 -0.0471 -0.1057  0.1049
  138MPD2    C3 2147   3.644   4.567   9.251  0.3343  0.1243 -0.3639
  138MPD2    C4 2148   3.704   4.677   9.187 -0.7112  0.0388  0.0651
  138MPD2    C5 2149   3.645   0.061   9.204 -0.1397 -0.3082  0.9707
  138MPD2     H 2150   3.469   4.497   9.346  0.3943 -0.0079  0.8775
  138MPD2    H1 2151   3.799   4.680   9.135 -0.7579 -2.2801 -0.1376
  138MPD2    H2 2152   3.479   0.174   9.268 -0.1113 -0.6065  0.3524
  138MPD2    H3 2153   3.693   0.153   9.171 -1.0620  0.6747  2.3617
  138MPD2     N 2154   3.700   4.440   9.248 -0.5228  0.6554 -0.4612
  138MPD2    H5 2155   3.634   4.370   9.281 -0.1874  0.4654 -0.2036
  138MPD2    N1 2156   3.336   0.005   9.375  0.6567  0.1696  0.4427
  138MPD2    H7 2157   3.309   0.101   9.352  3.1405  0.7104 -0.1813
  139TMC2    C1 2158   4.252   2.151  13.384  0.0378 -0.2961 -0.3669
  139TMC2    C2 2159   4.221   2.094  13.267  0.2641  0.5308  0.0154
  139TMC2    C3 2160   4.098   2.126  13.208  0.5158 -0.0271 -0.6568
  139TMC2    C4 2161   4.173   2.244  13.444  0.2567  0.8706 -0.3678
  139TMC2    C5 2162   4.051   2.264  13.385 -0.2738 -0.1530  0.4231
  139TMC2    C6 2163   4.007   2.208  13.270 -0.0448  0.1702 -0.1946
  139TMC2     C 2164   4.377   2.108  13.439  0.6729 -0.2384  0.6212
  139TMC2     O 2165   4.423   2.008  13.384  0.1637 -0.0042 -0.1331
  139TMC2     H 2166   4.285   2.021  13.218  2.9704  3.7170 -1.1844
  139TMC2    H1 2167   4.185   2.296  13.539  1.0646 -1.1260  0.6333
  139TMC2    H2 2168   3.914   2.239  13.225  0.0516  0.4954 -0.1733
  139TMC2    C7 2169   3.989   2.393  13.412 -0.7483 -0.2148  0.8004
  139TMC2    C8 2170   4.070   2.055  13.090  0.8250 -0.1543 -0.6179
  139TMC2    O1 2171   3.867   2.404  13.412 -0.1928  0.1751 -0.6111
  139TMC2    O2 2172   4.105   1.942  13.053  0.0540  0.1177  0.0507
  139TMC2    O5 2173   4.008   2.144  13.006 -0.3550  0.1288 -0.2153
  139TMC2    H5 2174   4.019   2.238  13.029  0.0386 -0.0405  0.2880
  140MPD2     C 2175   4.469   2.208  13.778  0.2678  0.1634  0.3813
  140MPD2    C1 2176   4.465   2.124  13.676 -0.3657 -0.4190  0.2906
  140MPD2    C2 2177   4.501   1.995  13.690  0.5372 -0.8059 -0.2015
  140MPD2    C3 2178   4.556   1.957  13.802 -0.5735 -0.0093  0.0128
  140MPD2    C4 2179   4.567   2.042  13.911 -0.2428  0.2005  0.6547
  140MPD2    C5 2180   4.509   2.168  13.904 -0.1027  0.0966  0.3749
  140MPD2     H 2181   4.499   1.933  13.601 -1.8579 -0.3285 -0.4568
  140MPD2    H1 2182   4.622   2.019  14.002  0.1289 -1.2931  0.0637
  140MPD2    H2 2183   4.431   2.309  13.764 -0.7243 -0.2725 -0.0577
  140MPD2    H3 2184   4.502   2.243  13.982 -3.6272 -0.1049  0.2624
  140MPD2     N 2185   4.596   1.823  13.806 -0.1332  0.4801 -0.0174
  140MPD2    H5 2186   4.563   1.762  13.732 -1.4008  1.1028  0.0223
  140MPD2    N1 2187   4.411   2.178  13.558 -0.4760  0.1879 -0.5297
  140MPD2    H7 2188   4.357   2.264  13.563  0.2563  0.4937  1.8678
  141TMC2    C1 2189   0.118   3.801  14.249 -0.1155  0.0777  0.2186
  141TMC2    C2 2190   0.120   3.928  14.300 -0.5963  0.4450  0.1659
  141TMC2    C3 2191   0.243   3.978  14.326 -0.5532  1.1973  0.3328
  141TMC2    C4 2192   0.228   3.721  14.238 -0.2780  0.0999 -0.1672
  141TMC2    C5 2193   0.345   3.765  14.292 -0.3470  0.1060  0.3964
  141TMC2    C6 2194   0.355   3.895  14.340  0.0760 -0.1091 -0.2574
  141TMC2     C 2195   4.729   3.752  14.201 -0.0563 -0.3881 -0.6718
  141TMC2     O 2196   0.008   3.657  14.126  0.3011  0.3904  0.4232
  141TMC2     H 2197   0.035   3.994  14.290 -0.5547  0.3982 -0.4760
  141TMC2    H1 2198   0.222   3.619  14.201  1.5570 -0.1189  0.0968
  141TMC2    H2 2199   0.446   3.941  14.377  1.6417 -2.9155 -0.6358
  141TMC2    C7 2200   0.456   3.675  14.306  0.1116  0.5299 -0.3566
  141TMC2    C8 2201   0.248   4.101  14.404 -0.1368 -0.2628 -0.3158
  141TMC2    O1 2202   0.455   3.574  14.236  0.2414 -0.0102  0.6215
  141TMC2    O2 2203   0.348   4.170  14.411 -0.5209 -0.0965 -0.4836
  141TMC2    O5 2204   0.164   4.078  14.512  0.5753  0.5289  0.3016
  141TMC2    H5 2205   0.100   4.004  14.498  1.0280  0.1990 -0.0244
  142TMC2    C1 2206   2.345   2.056  10.428  0.6373  1.0803  0.4515
  142TMC2    C2 2207   2.265   2.096  10.323  0.2826 -0.0893 -0.3557
  142TMC2    C3 2208   2.314   2.204  10.250  0.6759  0.2026 -0.5705
  142TMC2    C4 2209   2.459   2.111  10.460  0.2613  0.5634 -0.5924
  142TMC2    C5 2210   2.490   2.226  10.391  0.5752 -0.2290 -0.4640
  142TMC2    C6 2211   2.419   2.274  10.288  0.5101  0.9259  0.2662
  142TMC2     C 2212   2.285   1.956  10.516  0.7925  0.5088  0.3723
  142TMC2     O 2213   2.193   1.897  10.473  0.3603 -0.0793  0.2298
  142TMC2     H 2214   2.175   2.045  10.292  1.7144 -1.5833 -2.0327
  142TMC2    H1 2215   2.525   2.077  10.540 -1.8303  0.0582  0.9166
  142TMC2    H2 2216   2.441   2.374  10.252 -0.4908 -0.1129 -3.2431
  142TMC2    C7 2217   2.593   2.301  10.456 -0.6548  0.5844  0.5746
  142TMC2    C8 2218   2.245   2.259  10.137  0.5070 -0.7629  0.7259
  142TMC2    O1 2219   2.592   2.293  10.579  0.3704  0.2524  0.0627
  142TMC2    O2 2220   2.250   2.371  10.090  0.1692  0.0970 -0.7517
  142TMC2    O5 2221   2.169   2.168  10.081  0.6785  0.1008  0.0800
  142TMC2    H5 2222   2.171   2.079  10.121  0.0835  1.1104  2.3305
  143MPD2     C 2223   2.334   1.665  10.933 -0.4776  0.4010 -0.3839
  143MPD2    C1 2224   2.279   1.639  10.805  0.2212  0.2120 -0.0858
  143MPD2    C2 2225   2.275   1.738  10.716 -0.4923  0.3466 -0.5864
  143MPD2    C3 2226   2.331   1.862  10.740  0.0639  0.2038  0.1914
  143MPD2    C4 2227   2.383   1.881  10.863 -0.2455 -0.0851  0.8400
  143MPD2    C5 2228   2.386   1.783  10.959 -0.0854  0.2994 -0.4677
  143MPD2     H 2229   2.239   1.711  10.617 -2.4889 -1.5179  0.6494
  143MPD2    H1 2230   2.416   1.981  10.886 -2.0155  0.6989 -0.0384
  143MPD2    H2 2231   2.334   1.589  11.010 -2.5267 -0.0951 -0.8474
  143MPD2    H3 2232   2.428   1.806  11.056 -1.0177  1.9083 -0.4487
  143MPD2     N 2233   2.337   1.963  10.639 -0.2988 -0.5723 -0.0427
  143MPD2    H5 2234   2.383   2.049  10.668 -0.1784 -1.0423  1.1539
  143MPD2    N1 2235   2.226   1.512  10.775 -0.3040 -0.2646  0.7278
  143MPD2    H7 2236   2.226   1.443  10.849 -0.4130 -0.2410  0.7507
  144TMC2    C1 2237   0.709   0.728   0.776  0.8243 -0.1648 -0.2221
  144TMC2    C2 2238   0.826   0.659   0.781  0.4142  0.3880  0.4683
  144TMC2    C3 2239   0.939   0.729   0.801 -0.6129 -0.5462  0.0366
  144TMC2    C4 2240   0.707   0.861   0.818 -0.2585  0.2259 -0.2662
  144TMC2    C5 2241   0.819   0.924   0.856 -0.3048 -0.3233  0.1032
  144TMC2    C6 2242   0.939   0.857   0.850 -0.4847  0.6481 -0.6754
  144TMC2     C 2243   0.607   0.683   0.681 -0.6454 -0.1317 -0.0581
  144TMC2     O 2244   0.634   0.586   0.608  0.1378  0.0346  0.3526
  144TMC2     H 2245   0.834   0.561   0.736 -2.2042  0.4280 -0.0697
  144TMC2    H1 2246   0.616   0.914   0.793 -0.8021 -0.4105  0.3285
  144TMC2    H2 2247   1.028   0.916   0.870  1.6509 -3.7570  2.7847
  144TMC2    C7 2248   0.827   1.056   0.919  0.0356 -0.0281  0.2369
  144TMC2    C8 2249   1.072   0.664   0.785 -0.0584 -0.1473  0.2791
  144TMC2    O1 2250   0.934   1.089   0.968  0.6534 -0.3154  0.0783
  144TMC2    O2 2251   1.076   0.543   0.772 -0.3103 -0.0865  0.2777
  144TMC2    O5 2252   1.172   0.750   0.754 -0.1731  0.2464  0.0840
  144TMC2    H5 2253   1.146   0.841   0.726  0.8487  0.4706 -0.1512
  145MPD2     C 2254   0.199   0.709   0.373  0.1401 -0.1638 -0.0094
  145MPD2    C1 2255   0.328   0.682   0.342  0.3529  0.1427 -0.1805
  145MPD2    C2 2256   0.424   0.695   0.438 -0.0332 -0.0141  0.5115
  145MPD2    C3 2257   0.393   0.740   0.568 -0.3723  0.0642 -0.4655
  145MPD2    C4 2258   0.267   0.792   0.592 -0.1937  0.0689  0.6058
  145MPD2    C5 2259   0.176   0.774   0.494 -0.3693  0.2554  0.0124
  145MPD2     H 2260   0.520   0.651   0.415  1.1043  1.6164  2.0938
  145MPD2    H1 2261   0.254   0.846   0.685  0.8162  1.0789  0.1562
  145MPD2    H2 2262   0.117   0.709   0.303  1.5403 -1.0433 -1.6641
  145MPD2    H3 2263   0.075   0.809   0.513 -0.7404  0.1130 -1.7397
  145MPD2     N 2264   0.488   0.746   0.676  0.1589  0.2976 -0.7426
  145MPD2    H5 2265   0.470   0.800   0.760 -0.2643 -0.3568 -0.4114
  145MPD2    N1 2266   0.362   0.622   0.217 -0.0831  0.2114  0.3589
  145MPD2    H7 2267   0.283   0.584   0.165 -1.2467  1.9436  0.8407
  146TMC2    C1 2268   1.650   0.006  12.878  0.4016 -0.3471 -0.3819
  146TMC2    C2 2269   1.601   0.086  12.779 -0.0770 -0.7284  0.3373
  146TMC2    C3 2270   1.569   0.028  12.663 -0.1592  0.6265  0.1986
  146TMC2    C4 2271   1.653   4.606  12.870 -0.2415  0.5215 -0.0583
  146TMC2    C5 2272   1.645   4.557  12.739  0.6471  0.5171  0.0965
  146TMC2    C6 2273   1.601   4.634  12.634 -0.4604  0.2241 -0.4008
  146TMC2     C 2274   1.687   0.069  13.007 -0.5485 -0.3829 -0.6825
  146TMC2     O 2275   1.626   0.171  13.041 -0.4572  0.4365  0.1850
  146TMC2     H 2276   1.596   0.193  12.797 -0.0941 -0.8639  1.1313
  146TMC2    H1 2277   1.663   4.538  12.954 -1.0710  1.2513  0.6385
  146TMC2    H2 2278   1.593   4.599  12.532 -0.4397  1.3406 -0.7868
  146TMC2    C7 2279   1.677   4.420  12.710 -0.5325  0.7871 -0.7973
  146TMC2    C8 2280   1.516   0.111  12.547  0.1349  0.4633  0.4451
  146TMC2    O1 2281   1.662   4.379  12.598 -0.3593  0.0488 -0.1055
  146TMC2    O2 2282   1.512   0.062  12.433 -0.0796 -0.2540  0.0217
  146TMC2    O5 2283   1.437   0.208  12.603 -0.3924 -0.2870 -0.1817
  146TMC2    H5 2284   1.445   0.206  12.700  1.7033  2.5898 -0.2612
  147MPD2     C 2285   1.743   3.927  12.848 -0.3536  0.3576 -0.1116
  147MPD2    C1 2286   1.813   4.007  12.936  0.6288  0.1907 -0.5501
  147MPD2    C2 2287   1.798   4.151  12.927  0.9396 -0.1264  0.0328
  147MPD2    C3 2288   1.731   4.203  12.817  0.9207  0.3499  0.1500
  147MPD2    C4 2289   1.674   4.125  12.721  0.4294  0.4350 -0.2105
  147MPD2    C5 2290   1.678   3.992  12.746 -0.5299 -0.4895  0.0171
  147MPD2     H 2291   1.848   4.217  12.996  1.5276  1.6586 -2.1051
  147MPD2    H1 2292   1.629   4.151  12.625 -0.6044 -0.3529  0.0608
  147MPD2    H2 2293   1.755   3.819  12.844  1.3008  0.5528 -0.4388
  147MPD2    H3 2294   1.632   3.944  12.660  0.6057  0.7074 -1.2442
  147MPD2     N 2295   1.718   4.340  12.813 -0.1470 -0.2638 -0.1845
  147MPD2    H5 2296   1.741   4.384  12.902  0.0602 -1.2531  0.2586
  147MPD2    N1 2297   1.899   3.939  13.029 -0.3412  0.2666 -0.0403
  147MPD2    H7 2298   1.900   3.838  13.039  2.3714  0.1300 -1.8242
  148TMC2    C1 2299   2.217   3.571  10.284  0.0365 -0.6400 -0.6536
  148TMC2    C2 2300   2.321   3.653  10.308  0.0753  0.9392 -0.3050
  148TMC2    C3 2301   2.416   3.599  10.385 -0.3198  0.1839 -0.3951
  148TMC2    C4 2302   2.205   3.439  10.329  0.4562 -0.2444  0.3949
  148TMC2    C5 2303   2.311   3.393  10.408  0.3309  0.5608 -0.0088
  148TMC2    C6 2304   2.419   3.473  10.430  0.5510  0.2178  0.4488
  148TMC2     C 2305   2.096   3.630  10.224 -0.0669 -0.8256 -0.3480
  148TMC2     O 2306   2.101   3.751  10.222  0.0188  0.1243 -0.1829
  148TMC2     H 2307   2.319   3.753  10.268  0.8570  0.5329 -1.3564
  148TMC2    H1 2308   2.119   3.374  10.323  0.5666 -0.4645  1.0921
  148TMC2    H2 2309   2.507   3.444  10.488 -0.8843 -0.6833  2.1745
  148TMC2    C7 2310   2.302   3.264  10.472  0.1899 -0.4152  0.3243
  148TMC2    C8 2311   2.531   3.673  10.417  0.5914  0.1552 -0.0994
  148TMC2    O1 2312   2.196   3.202  10.455 -0.2461 -0.1424  0.0073
  148TMC2    O2 2313   2.584   3.654  10.523  0.8069 -0.4219 -0.2015
  148TMC2    O5 2314   2.557   3.773  10.329 -0.1642 -0.5501 -0.3886
  148TMC2    H5 2315   2.518   3.750  10.242  0.1449  0.4337 -0.7867
  149MPD2     C 2316   1.830   3.704  10.137  0.3016  0.1317  0.0319
  149MPD2    C1 2317   1.870   3.575  10.144 -0.1662  0.0324  0.5576
  149MPD2    C2 2318   1.778   3.480  10.121 -0.7222  0.1010 -0.1951
  149MPD2    C3 2319   1.652   3.507  10.064 -0.0871  0.1779 -0.6020
  149MPD2    C4 2320   1.617   3.640  10.041  0.1401  0.2565  0.4821
  149MPD2    C5 2321   1.708   3.738  10.079 -0.3195  0.0663  0.3607
  149MPD2     H 2322   1.809   3.377  10.132 -0.3266 -0.1825 -4.0866
  149MPD2    H1 2323   1.528   3.675   9.990  0.3637 -0.6081 -0.5203
  149MPD2    H2 2324   1.890   3.791  10.163  2.5232 -0.8284 -1.9552
  149MPD2    H3 2325   1.685   3.843  10.067  1.6006  0.2832 -1.2419
  149MPD2     N 2326   1.550   3.408  10.054 -0.1462 -0.1514 -0.5139
  149MPD2    H5 2327   1.464   3.460  10.039  0.4085  1.0861  0.6368
  149MPD2    N1 2328   1.995   3.542  10.191  0.0816  0.6970  0.1291
  149MPD2    H7 2329   2.005   3.444  10.218 -0.8437  0.1977 -1.3047
  150TMC2    C1 2330   4.430   2.491  12.327  0.2508  0.0045  0.0363
  150TMC2    C2 2331   4.406   2.572  12.219 -0.5020 -0.0907 -0.2205
  150TMC2    C3 2332   4.484   2.681  12.209 -0.1157  0.7119  0.0053
  150TMC2    C4 2333   4.532   2.517  12.417 -0.4387 -0.0232 -0.1000
  150TMC2    C5 2334   4.621   2.617  12.392  0.5444 -0.3121 -0.9289
  150TMC2    C6 2335   4.594   2.707  12.294  1.1727 -0.5182  0.1779
  150TMC2     C 2336   4.371   2.364  12.326 -0.1078  0.6899  0.1496
  150TMC2     O 2337   4.439   2.270  12.372  0.0080  0.5677 -0.0601
  150TMC2     H 2338   4.332   2.547  12.143  0.8456 -1.1564 -1.1812
  150TMC2    H1 2339   4.553   2.445  12.496  0.6128  0.2176 -0.1655
  150TMC2    H2 2340   4.662   2.790  12.273  2.2917 -1.5421 -0.2728
  150TMC2    C7 2341   0.014   2.629  12.451  0.9027 -0.6836  0.0225
  150TMC2    C8 2342   4.467   2.778  12.103  0.3145 -0.2354 -0.4311
  150TMC2    O1 2343   0.077   2.736  12.445  0.1164  0.3353  0.0945
  150TMC2    O2 2344   4.518   2.888  12.097  0.0172 -0.2130 -0.8306
  150TMC2    O5 2345   4.385   2.727  12.018  0.4482  0.2757 -0.1202
  150TMC2    H5 2346   4.378   2.779  11.935  0.7234 -0.3095 -0.5156
  151MPD2     C 2347   3.959   2.053  12.303 -0.5058 -0.5233  0.6147
  151MPD2    C1 2348   3.916   2.183  12.292 -0.2684  0.8620  0.0974
  151MPD2    C2 2349   4.010   2.287  12.284  0.1475  0.1112 -0.1716
  151MPD2    C3 2350   4.147   2.256  12.295  0.5222  0.4569 -1.2307
  151MPD2    C4 2351   4.187   2.124  12.320  0.2793 -0.7415  0.0124
  151MPD2    C5 2352   4.089   2.026  12.319  0.1477  0.5019  0.9115
  151MPD2     H 2353   3.981   2.390  12.268  0.3426  0.1879 -0.0332
  151MPD2    H1 2354   4.290   2.102  12.346  0.2908 -0.6306  0.0616
  151MPD2    H2 2355   3.892   1.970  12.323  0.1797 -2.0806 -3.6025
  151MPD2    H3 2356   4.112   1.921  12.328  0.7032  0.5772  0.3848
  151MPD2     N 2357   4.237   2.366  12.298  0.0252 -0.2288  0.4424
  151MPD2    H5 2358   4.204   2.459  12.273  0.8261  0.0436  0.3844
  151MPD2    N1 2359   3.785   2.205  12.292  0.3807 -0.0996 -0.6372
  151MPD2    H7 2360   3.739   2.114  12.288  1.1006 -0.3573 -3.0454
  152TMC2    C1 2361   4.097   2.140  12.653  0.3782  0.3671 -0.2740
  152TMC2    C2 2362   4.134   2.026  12.717 -1.0151  0.5290 -0.3886
  152TMC2    C3 2363   4.257   2.021  12.781 -0.6433 -0.3152  0.4642
  152TMC2    C4 2364   4.183   2.247  12.650  0.2345  0.2181 -0.0257
  152TMC2    C5 2365   4.298   2.250  12.723  0.0645  0.0343 -0.3790
  152TMC2    C6 2366   4.341   2.134  12.791 -0.4982 -0.2592 -0.6508
  152TMC2     C 2367   3.958   2.179  12.663 -0.0196  0.0676  0.6108
  152TMC2     O 2368   3.930   2.298  12.660 -0.0356  0.1598  0.0989
  152TMC2     H 2369   4.078   1.934  12.718 -0.4644  0.2167  0.8455
  152TMC2    H1 2370   4.151   2.326  12.582 -4.2240 -1.1320  0.4614
  152TMC2    H2 2371   4.430   2.133  12.853  0.2002  0.1602 -1.6487
  152TMC2    C7 2372   4.363   2.382  12.732 -0.2139 -0.1465  1.2938
  152TMC2    C8 2373   4.327   1.891  12.781  0.2367 -0.6866 -0.3665
  152TMC2    O1 2374   4.317   2.472  12.669  0.6819  0.7862  0.6742
  152TMC2    O2 2375   4.270   1.781  12.803  0.0917 -0.0962  0.4466
  152TMC2    O5 2376   4.454   1.907  12.806  0.3838  0.0096 -0.0033
  152TMC2    H5 2377   4.502   1.988  12.777 -0.9055  1.0753  0.8020
  153MPD2     C 2378   3.666   1.972  12.713 -0.1223 -0.0938 -0.1642
  153MPD2    C1 2379   3.739   2.086  12.703  0.3461 -0.4444  0.4263
  153MPD2    C2 2380   3.670   2.205  12.721 -0.0974  0.2037  0.1751
  153MPD2    C3 2381   3.531   2.214  12.739  0.5429  0.0569 -0.4178
  153MPD2    C4 2382   3.459   2.093  12.746  0.6104 -0.0016  1.2094
  153MPD2    C5 2383   3.526   1.977  12.739  0.0361  0.7643  1.0056
  153MPD2     H 2384   3.717   2.301  12.699  0.1625  0.3281  1.2885
  153MPD2    H1 2385   3.351   2.086  12.734  0.9410  2.8450 -3.7155
  153MPD2    H2 2386   3.706   1.872  12.700 -0.9904 -0.7272  2.0329
  153MPD2    H3 2387   3.465   1.888  12.736 -1.5789  1.8829  0.7611
  153MPD2     N 2388   3.476   2.339  12.742  0.0190 -0.2700 -0.0900
  153MPD2    H5 2389   3.538   2.417  12.724 -1.7255  1.5235  1.7498
  153MPD2    N1 2390   3.874   2.073  12.681  0.0925 -0.0602 -0.3980
  153MPD2    H7 2391   3.909   1.982  12.653  0.1083  0.4427 -2.0007
  154TMC2    C1 2392   0.218   1.872  17.694 -0.1595 -0.1209 -0.0878
  154TMC2    C2 2393   0.279   1.750  17.712 -0.6346  0.6351  0.5571
  154TMC2    C3 2394   0.283   1.669  17.605 -0.0385 -0.1998 -0.3918
  154TMC2    C4 2395   0.179   1.921  17.569 -0.8895 -0.4582  0.7138
  154TMC2    C5 2396   0.180   1.826  17.469 -0.3990  0.1811 -0.3580
  154TMC2    C6 2397   0.245   1.708  17.483 -0.1599  0.0410  0.2131
  154TMC2     C 2398   0.185   1.954   0.065  0.1552 -0.6708  0.4749
  154TMC2     O 2399   0.252   1.926   0.168 -0.4095  0.1161 -0.0297
  154TMC2     H 2400   0.310   1.716   0.066 -0.8437 -4.2526 -1.0788
  154TMC2    H1 2401   0.143   2.023  17.563  0.6257  0.0124 -0.3022
  154TMC2    H2 2402   0.273   1.646  17.398 -1.0438 -2.6736  1.8786
  154TMC2    C7 2403   0.138   1.859  17.331 -0.0495  0.3584  0.1890
  154TMC2    C8 2404   0.307   1.531  17.641  1.2119 -0.1320  0.4181
  154TMC2    O1 2405   0.179   1.780  17.247  0.8372 -0.1606 -0.3649
  154TMC2    O2 2406   0.331   1.497   0.011 -0.0405  0.4024  0.1129
  154TMC2    O5 2407   0.278   1.446  17.545  0.1168  0.4796  0.1060
  154TMC2    H5 2408   0.218   1.488  17.479 -0.1029  0.7960  0.5120
  155MPD2     C 2409   4.643   2.178   0.100 -0.1387  0.4842 -0.1921
  155MPD2    C1 2410   0.036   2.137   0.131 -0.2574 -0.5624 -0.0695
  155MPD2    C2 2411   0.099   2.194   0.233 -0.8241 -0.3965  0.0997
  155MPD2    C3 2412   0.045   2.301   0.304  0.2657 -0.1007  0.3617
  155MPD2    C4 2413   4.651   2.342   0.280 -0.1018  0.1403 -0.0082
  155MPD2    C5 2414   4.593   2.283   0.177  0.0969 -0.9613  0.0959
  155MPD2     H 2415   0.196   2.152   0.257 -2.2090 -4.2463 -1.0294
  155MPD2    H1 2416   4.592   2.407   0.343  0.7833  0.2949  0.6487
  155MPD2    H2 2417   4.581   2.149   0.016  0.4676  1.0941 -0.8562
  155MPD2    H3 2418   4.494   2.326   0.163  0.8200  1.2409  1.9236
  155MPD2     N 2419   0.120   2.347   0.414  0.2438 -0.1362  0.6418
  155MPD2    H5 2420   0.203   2.294   0.437 -0.2400 -1.1556  0.0419
  155MPD2    N1 2421   0.085   2.039   0.042 -0.5263 -0.4209 -0.1763
  155MPD2    H7 2422   0.016   2.014  17.716 -1.0175 -1.2880  0.6398
  156TMC2    C1 2423   4.247   4.289  11.666 -0.1873  0.0288  0.0375
  156TMC2    C2 2424   4.275   4.157  11.654  0.7453  0.2206 -0.1338
  156TMC2    C3 2425   4.260   4.096  11.529 -0.7029 -0.2358  0.2662
  156TMC2    C4 2426   4.200   4.363  11.565  0.2705  0.2172  0.1922
  156TMC2    C5 2427   4.194   4.304  11.443 -0.2941  0.4110  0.1945
  156TMC2    C6 2428   4.220   4.173  11.420 -0.4234  0.2175 -0.8974
  156TMC2     C 2429   4.283   4.360  11.791  0.0816 -0.4970  0.5797
  156TMC2     O 2430   4.236   4.475  11.808  0.4748  0.3860 -0.8337
  156TMC2     H 2431   4.300   4.091  11.737  1.7633  2.4919  1.3647
  156TMC2    H1 2432   4.184   4.469  11.582 -0.8234 -0.1856  1.7336
  156TMC2    H2 2433   4.207   4.120  11.327  1.7165  0.4594 -1.3390
  156TMC2    C7 2434   4.113   4.382  11.346  0.3435 -0.5626  0.3307
  156TMC2    C8 2435   4.283   3.950  11.504 -0.4795 -0.4373  0.0678
  156TMC2    O1 2436   4.025   4.453  11.384  0.4008 -0.0823 -0.1864
  156TMC2    O2 2437   4.216   3.884  11.423  0.1313 -0.6127 -0.4081
  156TMC2    O5 2438   4.351   3.904  11.610 -0.2507 -0.7292  0.4499
  156TMC2    H5 2439   4.405   3.981  11.637 -0.7596 -0.7383  1.5029
  157MPD2     C 2440   4.546   4.260  12.042  0.1969 -0.3708 -0.5470
  157MPD2    C1 2441   4.457   4.343  11.982 -0.5919 -0.6778 -0.0715
  157MPD2    C2 2442   4.431   4.467  12.038 -0.8079  0.7961  0.6609
  157MPD2    C3 2443   4.507   4.508  12.142  0.3979 -0.0573  0.3665
  157MPD2    C4 2444   4.616   4.433  12.192 -0.3984 -0.2135  0.3595
  157MPD2    C5 2445   4.630   4.308  12.137 -0.0720 -1.0508 -0.4469
  157MPD2     H 2446   4.358   4.539  12.004 -0.4927  1.0760  0.5676
  157MPD2    H1 2447   4.686   4.470  12.266 -2.3497  1.5418  1.3237
  157MPD2    H2 2448   4.564   4.154  12.024 -0.3810 -0.8321  1.6053
  157MPD2    H3 2449   4.700   4.239  12.182  1.2655  1.0713  0.6979
  157MPD2     N 2450   4.475   4.638  12.198 -0.1816 -0.2096 -0.8405
  157MPD2    H5 2451   4.416   4.699  12.142  0.0012 -0.3851 -1.2310
  157MPD2    N1 2452   4.384   4.299  11.864  0.1734  0.9200  0.8022
  157MPD2    H7 2453   4.416   4.208  11.832  0.7216  1.9400 -1.5781
  158TMC2    C1 2454   4.427   3.380  13.099  0.2414 -0.1386 -0.0121
  158TMC2    C2 2455   4.501   3.432  13.000  0.3550  1.2672 -0.4033
  158TMC2    C3 2456   4.457   3.550  12.946 -0.0239  0.1254  0.4554
  158TMC2    C4 2457   4.312   3.436  13.152  0.3491 -0.4634 -0.0041
  158TMC2    C5 2458   4.270   3.556  13.090 -0.2057  0.1508 -0.1633
  158TMC2    C6 2459   4.342   3.614  12.991  0.9257  0.6994  0.3736
  158TMC2     C 2460   4.473   3.249  13.145  0.9404 -0.1158  0.5757
  158TMC2     O 2461   4.543   3.184  13.071 -0.4950 -0.0257  0.3854
  158TMC2     H 2462   4.588   3.379  12.962 -0.1130  1.1206 -1.2738
  158TMC2    H1 2463   4.262   3.384  13.232  0.4685 -1.0992 -0.3427
  158TMC2    H2 2464   4.302   3.700  12.937 -0.7635  1.7060  3.2066
  158TMC2    C7 2465   4.146   3.626  13.124 -0.1334  0.4839 -0.2900
  158TMC2    C8 2466   4.525   3.595  12.824 -0.5915  0.2849  0.2114
  158TMC2    O1 2467   4.099   3.706  13.047 -0.3688 -0.1273  0.3305
  158TMC2    O2 2468   4.540   3.717  12.799  0.4945  0.0723  0.5902
  158TMC2    O5 2469   4.523   3.498  12.732  0.4197  0.3399  0.2558
  158TMC2    H5 2470   4.481   3.415  12.764  0.8702 -0.4977 -1.3441
  159MPD2     C 2471   4.501   2.904  13.525 -0.1806 -0.5816 -0.3199
  159MPD2    C1 2472   4.465   3.025  13.576 -0.0030 -0.8833  0.0216
  159MPD2    C2 2473   4.439   3.128  13.495  0.6355 -0.3524  0.4946
  159MPD2    C3 2474   4.462   3.120  13.359  0.2538  0.1680  0.3577
  159MPD2    C4 2475   4.511   3.004  13.310  0.4053 -0.1514 -0.0335
  159MPD2    C5 2476   4.527   2.894  13.393 -0.6936  0.2282  0.1538
  159MPD2     H 2477   4.404   3.224  13.532 -0.4959  0.0275 -1.5189
  159MPD2    H1 2478   4.537   2.996  13.205  1.7965 -2.7342  0.4980
  159MPD2    H2 2479   4.508   2.821  13.595 -0.6665 -2.1255 -2.0916
  159MPD2    H3 2480   4.562   2.800  13.351 -0.5863  0.0291  0.6852
  159MPD2     N 2481   4.443   3.237  13.279 -0.0325 -0.0196  0.6555
  159MPD2    H5 2482   4.421   3.318  13.336  1.7967  2.1602 -1.7252
  159MPD2    N1 2483   4.439   3.029  13.718  0.4683  0.0353  0.0260
  159MPD2    H7 2484   4.442   2.944  13.773  0.5408 -0.6404 -1.0251
  160TMC2    C1 2485   3.870   0.490   1.143  0.2960  0.1109 -0.5826
  160TMC2    C2 2486   3.907   0.374   1.212  0.2378  0.5465 -0.5160
  160TMC2    C3 2487   4.039   0.390   1.262  0.2032  0.2618 -0.2129
  160TMC2    C4 2488   3.955   0.592   1.107 -0.2511 -0.2235  0.4551
  160TMC2    C5 2489   4.079   0.592   1.161 -0.2299  0.1124 -0.2953
  160TMC2    C6 2490   4.125   0.495   1.242  0.4490  0.7485 -0.0317
  160TMC2     C 2491   3.728   0.507   1.133  0.5488 -0.1868 -0.3893
  160TMC2     O 2492   3.658   0.408   1.153  0.0264 -0.5069  0.5344
  160TMC2     H 2493   3.838   0.299   1.245  0.0464  1.6262  1.5504
  160TMC2    H1 2494   3.925   0.670   1.037  1.4998 -0.0087 -0.0493
  160TMC2    H2 2495   4.224   0.495   1.286  0.5318  0.5451 -0.2210
  160TMC2    C7 2496   4.178   0.689   1.126 -0.3208 -0.2626 -0.4868
  160TMC2    C8 2497   4.086   0.302   1.370 -0.4305  0.2657  0.3247
  160TMC2    O1 2498   4.291   0.646   1.102  0.4083 -0.6341  0.1767
  160TMC2    O2 2499   4.194   0.252   1.384  0.4198 -0.2127 -0.6897
  160TMC2    O5 2500   3.986   0.290   1.452  0.2940 -0.0032 -0.4391
  160TMC2    H5 2501   3.922   0.358   1.425 -0.8904 -1.5337 -1.5062
  161MPD2     C 2502   3.455   0.603   1.095 -1.2599 -0.1777  0.3487
  161MPD2    C1 2503   3.563   0.684   1.117 -0.0151 -0.0295 -0.2765
  161MPD2    C2 2504   3.543   0.819   1.126  0.3864 -0.1529 -0.1939
  161MPD2    C3 2505   3.420   0.874   1.093 -0.3245 -0.2540  0.1988
  161MPD2    C4 2506   3.318   0.793   1.065 -0.5661  0.2097  0.8298
  161MPD2    C5 2507   3.337   0.656   1.070  0.0399  0.5775  0.5595
  161MPD2     H 2508   3.626   0.887   1.145  0.2714 -0.1715  0.3770
  161MPD2    H1 2509   3.221   0.828   1.030 -0.0876  2.6355  1.9024
  161MPD2    H2 2510   3.468   0.495   1.102  1.7604  0.3500  3.2447
  161MPD2    H3 2511   3.252   0.590   1.055  1.6284 -1.4009  0.2480
  161MPD2     N 2512   3.389   1.016   1.088  0.0544  0.0581 -0.5544
  161MPD2    H5 2513   3.292   1.033   1.063  0.5744  0.2974 -2.3506
  161MPD2    N1 2514   3.696   0.639   1.135  0.5653 -0.2606 -0.2249
  161MPD2    H7 2515   3.770   0.705   1.155  1.1505 -1.2558  0.9002
  162TMC2    C1 2516   1.919   3.123   1.503 -0.3556 -0.3504  0.2382
  162TMC2    C2 2517   1.832   3.223   1.535 -0.0236  0.3498 -0.2527
  162TMC2    C3 2518   1.841   3.271   1.660  0.2665  0.5959 -1.0113
  162TMC2    C4 2519   2.024   3.085   1.591 -0.3495 -0.4879  0.1981
  162TMC2    C5 2520   2.027   3.142   1.719 -0.3186 -0.3131  0.3920
  162TMC2    C6 2521   1.932   3.229   1.756 -0.1570  0.0921  0.0328
  162TMC2     C 2522   1.917   3.065   1.373  0.4639 -0.0897 -0.0397
  162TMC2     O 2523   1.978   2.958   1.369 -0.0384 -0.0210  0.1496
  162TMC2     H 2524   1.744   3.248   1.476 -1.0915  4.7860  3.2021
  162TMC2    H1 2525   2.100   3.014   1.559 -1.3148 -1.4910  0.1136
  162TMC2    H2 2526   1.939   3.283   1.849  1.1123  2.1427 -1.2647
  162TMC2    C7 2527   2.136   3.119   1.812  0.0034  0.0332  0.1454
  162TMC2    C8 2528   1.726   3.352   1.703  0.1537 -0.1717 -0.4127
  162TMC2    O1 2529   2.144   3.182   1.915 -0.7366 -0.0905 -0.0474
  162TMC2    O2 2530   1.716   3.371   1.826  0.9771  0.5231 -0.2131
  162TMC2    O5 2531   1.724   3.448   1.610 -0.2922 -0.1167 -0.9831
  162TMC2    H5 2532   1.749   3.417   1.520  2.6174  0.1650 -0.2933
  163MPD2     C 2533   1.870   3.123   0.862  0.3740 -0.3533 -1.1001
  163MPD2    C1 2534   1.940   3.025   0.929  0.1952 -0.1942  0.1748
  163MPD2    C2 2535   1.928   3.017   1.069 -0.6866 -0.3133  0.6732
  163MPD2    C3 2536   1.850   3.115   1.132  0.2482  0.3236 -0.1703
  163MPD2    C4 2537   1.773   3.203   1.057 -0.8631 -0.3095  0.2168
  163MPD2    C5 2538   1.781   3.211   0.925  0.1862  0.1337  0.7131
  163MPD2     H 2539   1.975   2.937   1.125  0.9754  0.3588  0.2380
  163MPD2    H1 2540   1.708   3.280   1.097  1.2689  1.4390  0.2899
  163MPD2    H2 2541   1.882   3.126   0.754  3.8498 -1.9645 -0.7837
  163MPD2    H3 2542   1.726   3.288   0.872 -2.0044 -1.3969  0.7453
  163MPD2     N 2543   1.848   3.132   1.276  0.6754  0.1685 -0.6494
  163MPD2    H5 2544   1.790   3.212   1.298  2.0973  1.2804 -0.8814
  163MPD2    N1 2545   2.004   2.933   0.841  0.6154  0.3643  0.5626
  163MPD2    H7 2546   2.007   2.954   0.742  1.1370  1.0916  0.7407
  164TMC2    C1 2547   2.808   4.000  11.603  0.1526  0.4152 -0.4896
  164TMC2    C2 2548   2.862   3.951  11.713  0.0278 -0.0654 -0.2901
  164TMC2    C3 2549   2.772   3.883  11.793  0.2278  0.2712 -0.7033
  164TMC2    C4 2550   2.673   3.991  11.582 -0.4366 -0.1956 -0.1076
  164TMC2    C5 2551   2.591   3.925  11.670  0.7479  0.4447 -0.4680
  164TMC2    C6 2552   2.643   3.859  11.777 -0.1797 -0.4003 -0.6889
  164TMC2     C 2553   2.888   4.084  11.516  0.5550  0.0827 -0.1086
  164TMC2     O 2554   2.983   4.143  11.567 -0.5342  0.1975 -0.5228
  164TMC2     H 2555   2.956   3.980  11.758  1.4609 -2.4381 -1.7114
  164TMC2    H1 2556   2.628   4.047  11.501 -3.4684 -1.9933  0.3608
  164TMC2    H2 2557   2.583   3.784  11.828  0.4280  1.0204  2.1081
  164TMC2    C7 2558   2.452   3.888  11.633  0.4246 -0.3501  0.0990
  164TMC2    C8 2559   2.826   3.848  11.920 -0.2822  0.7514  0.3292
  164TMC2    O1 2560   2.430   3.891  11.509 -0.6483  0.5550  0.6195
  164TMC2    O2 2561   2.946   3.854  11.946  0.1184  0.3562 -0.3370
  164TMC2    O5 2562   2.717   3.836  12.005 -0.4728  0.3239 -0.0798
  164TMC2    H5 2563   2.628   3.863  11.974 -0.9260  2.1326  2.8808
  165TMC2    C1 2564   3.445   0.376   0.717 -0.0844  0.6193 -0.6190
  165TMC2    C2 2565   3.435   0.376   0.582 -0.3056 -0.1206  0.1135
  165TMC2    C3 2566   3.554   0.385   0.515 -0.3428  0.5204 -0.1647
  165TMC2    C4 2567   3.560   0.391   0.788  0.5489  0.3711 -0.0138
  165TMC2    C5 2568   3.671   0.398   0.718  0.3664 -0.5440  0.4711
  165TMC2    C6 2569   3.676   0.392   0.580  0.6000  0.5308  0.5854
  165TMC2     C 2570   3.325   0.349   0.790  0.3861  0.3745 -0.1316
  165TMC2     O 2571   3.220   0.348   0.734  0.0171 -0.0868  0.5012
  165TMC2     H 2572   3.342   0.348   0.533 -0.4779  0.0239  0.3627
  165TMC2    H1 2573   3.554   0.422   0.892  1.4084 -1.6800  0.6317
  165TMC2    H2 2574   3.763   0.371   0.520 -1.1024  0.4954 -1.8894
  165TMC2    C7 2575   3.788   0.354   0.796 -0.0386  0.3001 -0.0001
  165TMC2    C8 2576   3.542   0.381   0.374 -0.2783  0.5912  0.0770
  165TMC2    O1 2577   3.756   0.270   0.874 -0.2830  0.2202  0.1430
  165TMC2    O2 2578   3.475   0.454   0.310 -0.0999 -0.0196 -0.1870
  165TMC2    O5 2579   3.564   0.252   0.339  0.0906  0.6875  0.8123
  165TMC2    H5 2580   3.594   0.194   0.412  1.3550 -0.1503 -0.3620
  166MPD2     C 2581   3.076   0.131   1.197 -0.2049 -0.1659 -0.4480
  166MPD2    C1 2582   3.032   0.188   1.078  0.1786 -1.0179 -0.1237
  166MPD2    C2 2583   3.120   0.232   0.981 -0.6345  0.1739 -0.3207
  166MPD2    C3 2584   3.253   0.256   1.008 -0.5940 -0.8079  0.1444
  166MPD2    C4 2585   3.298   0.206   1.130 -0.1495  0.6540 -0.3274
  166MPD2    C5 2586   3.209   0.149   1.221  0.7056  0.2910  0.6907
  166MPD2     H 2587   3.073   0.262   0.889 -1.4994  2.1856  0.7774
  166MPD2    H1 2588   3.395   0.228   1.173 -0.2975  0.1101  0.2972
  166MPD2    H2 2589   3.011   0.081   1.267 -1.9179 -0.6127 -2.3668
  166MPD2    H3 2590   3.249   0.138   1.321  1.1136  1.0507  0.6139
  166MPD2     N 2591   3.352   0.300   0.915 -0.2719 -0.5498  0.2788
  166MPD2    H5 2592   3.450   0.307   0.942  0.5503  1.5946 -3.2329
  166MPD2    N1 2593   2.895   0.193   1.050  0.0965 -0.3772 -0.9060
  166MPD2    H7 2594   2.828   0.163   1.120  0.1630 -2.9472 -1.9436
  167TMC2    C1 2595   1.573   3.299  12.449 -0.5268  0.3333 -0.6914
  167TMC2    C2 2596   1.573   3.412  12.533 -0.2452 -0.0832  0.2232
  167TMC2    C3 2597   1.567   3.390  12.670 -0.0273  0.2585  0.1095
  167TMC2    C4 2598   1.564   3.174  12.502  0.2936  0.9268  0.1653
  167TMC2    C5 2599   1.552   3.157  12.640  1.0026 -0.1465  0.0028
  167TMC2    C6 2600   1.550   3.263  12.730  0.8215  0.3199  0.1628
  167TMC2     C 2601   1.598   3.320  12.307  0.3288  0.6316 -0.6827
  167TMC2     O 2602   1.597   3.437  12.273  0.5839  0.2345  0.3345
  167TMC2     H 2603   1.594   3.511  12.496  2.3612 -1.7235 -2.7326
  167TMC2    H1 2604   1.563   3.086  12.439 -0.8300  0.5014  0.7812
  167TMC2    H2 2605   1.557   3.251  12.838 -2.1623 -0.2704  0.2727
  167TMC2    C7 2606   1.585   3.028  12.692 -0.0144 -0.0031  0.5040
  167TMC2    C8 2607   1.589   3.509  12.750  0.3602 -0.0884 -0.4322
  167TMC2    O1 2608   1.525   2.993  12.794  0.1514 -0.3277 -0.0154
  167TMC2    O2 2609   1.666   3.602  12.720  0.2071  0.3209 -0.5806
  167TMC2    O5 2610   1.544   3.479  12.875 -0.0478  0.0578 -0.1056
  167TMC2    H5 2611   1.470   3.414  12.873 -1.4935  1.6818  1.3633
  168MPD2     C 2612   1.626   3.295  12.007 -1.0282 -0.2604 -0.1208
  168MPD2    C1 2613   1.615   3.187  12.096 -0.6924  0.3433  0.2704
  168MPD2    C2 2614   1.631   3.063  12.045 -0.0672  0.4373  0.5342
  168MPD2    C3 2615   1.649   3.037  11.912 -0.7566 -0.1987 -0.3388
  168MPD2    C4 2616   1.666   3.148  11.828 -0.5614  0.3123 -0.1491
  168MPD2    C5 2617   1.649   3.278  11.873  0.4081 -0.5450  0.5595
  168MPD2     H 2618   1.640   2.980  12.114  0.8679  0.9696  1.0465
  168MPD2    H1 2619   1.694   3.128  11.725  0.6008 -0.0102  0.2286
  168MPD2    H2 2620   1.617   3.397  12.043  0.7629 -0.3839  0.6962
  168MPD2    H3 2621   1.669   3.357  11.802 -2.6763 -0.8326 -0.6206
  168MPD2     N 2622   1.663   2.904  11.855  0.5561  0.0448 -0.0815
  168MPD2    H5 2623   1.659   2.909  11.753 -2.0507 -3.9364 -0.1687
  168MPD2    N1 2624   1.611   3.202  12.237  0.2862 -0.1882  0.7601
  168MPD2    H7 2625   1.631   3.119  12.292  2.5342 -0.4175 -0.3945
  169MPD1     C 2626   3.664   2.918   9.207 -0.7369 -0.3941  0.1046
  169MPD1    C1 2627   3.648   2.868   9.334 -0.7697  0.2491 -0.5187
  169MPD1    C2 2628   3.749   2.788   9.379 -0.0686  0.1951 -0.4841
  169MPD1    C3 2629   3.870   2.777   9.309  0.1052 -0.1085  0.0252
  169MPD1    C4 2630   3.888   2.847   9.190 -0.5253 -0.0531  0.8853
  169MPD1    C5 2631   3.781   2.910   9.136 -0.2799 -0.0557 -0.4543
  169MPD1     H 2632   3.751   2.733   9.472 -0.0658 -2.3128 -1.9712
  169MPD1    H1 2633   3.981   2.844   9.136 -1.2000 -3.0727 -0.0843
  169MPD1    H2 2634   3.584   2.971   9.156 -1.9223 -0.5049  1.8557
  169MPD1    H3 2635   3.792   2.955   9.038 -0.9050  1.5750  0.2325
  169MPD1     N 2636   3.967   2.706   9.368  0.7166 -0.3351  0.3597
  169MPD1    H5 2637   3.933   2.657   9.450 -0.9596 -0.5155 -0.4466
  169MPD1    N1 2638   3.521   2.884   9.399 -0.0690  0.4729  0.6939
  169MPD1    H6 2639   3.543   2.898   9.498 -0.4813  1.2731  0.6711
  169MPD1    H7 2640   3.470   2.969   9.377 -3.0758 -1.3946  0.5123
  170MPD1     C 2641   2.527   0.066  12.893  0.5878  0.4735  0.2487
  170MPD1    C1 2642   2.565   4.714  12.992 -0.7879 -0.5206  0.0473
  170MPD1    C2 2643   2.572   0.016  13.121  0.3345 -0.4514  0.0083
  170MPD1    C3 2644   2.546   0.154  13.155  0.2475  0.0899  0.6581
  170MPD1    C4 2645   2.501   0.244  13.051  0.1418 -0.2120  0.3059
  170MPD1    C5 2646   2.497   0.196  12.925 -1.1307 -0.0455 -0.6629
  170MPD1     H 2647   2.616   4.691  13.198  2.3467  1.3954  0.3511
  170MPD1    H1 2648   2.471   0.345  13.077 -0.0329 -0.8394  2.5340
  170MPD1    H2 2649   2.514   0.039  12.789  0.5400 -1.6420  0.8025
  170MPD1    H3 2650   2.455   0.258  12.847  1.7993  2.3650 -0.3192
  170MPD1     N 2651   2.572   0.186  13.287 -0.4825  0.2255 -0.6217
  170MPD1    H5 2652   2.614   0.107  13.335 -1.8739  0.7026  1.3688
  170MPD1    N1 2653   2.623   4.584  12.952 -0.6810  0.1544 -0.2121
  170MPD1    H6 2654   2.591   4.540  12.866 -1.8202 -0.8125  0.7092
  170MPD1    H7 2655   2.616   4.516  13.027 -0.2268  1.3446  0.9181
  171MPD1     C 2656   1.541   1.735  15.270  1.0070 -0.0749  0.0359
  171MPD1    C1 2657   1.469   1.618  15.238 -0.2919  0.4282  0.1605
  171MPD1    C2 2658   1.495   1.503  15.313  0.0599  0.7410 -0.2501
  171MPD1    C3 2659   1.588   1.505  15.413 -0.3405  0.3601 -0.5242
  171MPD1    C4 2660   1.662   1.613  15.434 -0.2791  0.3649  0.2371
  171MPD1    C5 2661   1.635   1.726  15.366 -0.2591  0.4142 -0.3745
  171MPD1     H 2662   1.428   1.422  15.286  0.8075 -1.0524  3.2762
  171MPD1    H1 2663   1.739   1.612  15.511 -0.5125  0.3369  0.4717
  171MPD1    H2 2664   1.518   1.830  15.223  0.3310 -0.0785  0.3512
  171MPD1    H3 2665   1.693   1.812  15.397  2.5436 -1.6952  0.2435
  171MPD1     N 2666   1.601   1.395  15.509  0.8034  0.5624 -0.2697
  171MPD1    H5 2667   1.671   1.409  15.581  2.0469 -0.6255 -1.2589
  171MPD1    N1 2668   1.358   1.620  15.155 -0.4768 -0.2145 -0.0736
  171MPD1    H6 2669   1.367   1.694  15.086  3.3333  0.4951  1.1653
  171MPD1    H7 2670   1.349   1.531  15.107  0.6980 -0.6710  0.5495
  172MPD1     C 2671   0.505   0.045   0.026  0.0911  0.6864 -0.2671
  172MPD1    C1 2672   0.616   0.081  17.696  0.5673  0.3775  0.2630
  172MPD1    C2 2673   0.709   0.167   0.015  0.0919 -0.4110 -0.0952
  172MPD1    C3 2674   0.681   0.232   0.134 -0.1902  0.8409 -0.7119
  172MPD1    C4 2675   0.563   0.200   0.194 -0.9124 -0.2336  0.6056
  172MPD1    C5 2676   0.474   0.109   0.140  0.5470  0.1162 -0.4532
  172MPD1     H 2677   0.799   0.192  17.703  0.0655  0.4276  0.2399
  172MPD1    H1 2678   0.551   0.223   0.299  1.7733  1.8667  0.4549
  172MPD1    H2 2679   0.443   4.697  17.741  0.3674  0.2253  0.4795
  172MPD1    H3 2680   0.390   0.078   0.201  1.0648  0.5357  0.4577
  172MPD1     N 2681   0.760   0.332   0.188  0.0351 -0.0181  0.1948
  172MPD1    H5 2682   0.738   0.367   0.280  2.5343  0.2216  0.7152
  172MPD1    N1 2683   0.649   0.005  17.574 -0.1109 -0.1459 -0.5622
  172MPD1    H6 2684   0.692   0.066  17.505 -0.0464  0.3349 -0.1015
  172MPD1    H7 2685   0.580   4.688  17.522  1.2545 -2.6796  0.2478
  173MPD1     C 2686   2.671   1.218  13.825  0.9551 -0.2083  0.2158
  173MPD1    C1 2687   2.575   1.131  13.775  0.6183 -0.1577  0.8265
  173MPD1    C2 2688   2.546   1.011  13.851  0.1506 -0.2699  0.2546
  173MPD1    C3 2689   2.628   0.970  13.954  0.1574  0.6502 -0.1599
  173MPD1    C4 2690   2.734   1.055  13.992  0.7603 -0.1248 -0.3354
  173MPD1    C5 2691   2.744   1.183  13.935  0.2996 -0.0875 -0.1036
  173MPD1     H 2692   2.467   0.941  13.825 -1.6637  0.5552  3.6164
  173MPD1    H1 2693   2.804   1.020  14.067  2.0811 -0.0686 -1.5507
  173MPD1    H2 2694   2.688   1.316  13.784  0.1824  0.5247  1.6482
  173MPD1    H3 2695   2.820   1.257  13.958 -1.4248  1.6390  0.0365
  173MPD1     N 2696   2.609   0.847  14.022  1.2599  0.2353 -0.1978
  173MPD1    H5 2697   2.522   0.802  13.997  1.1177  0.6174 -0.3799
  173MPD1    N1 2698   2.488   1.179  13.677  0.1387 -0.1149 -0.6622
  173MPD1    H6 2699   2.452   1.094  13.635 -0.3666 -0.0090 -0.4454
  173MPD1    H7 2700   2.536   1.229  13.602  3.1548 -0.3340  1.1084
  174MPD1     C 2701   3.037   0.219  14.691  0.3535  0.0003  0.9625
  174MPD1    C1 2702   2.943   0.281  14.766 -0.2159 -0.4450  0.6929
  174MPD1    C2 2703   2.860   0.367  14.697 -0.0489 -0.3242 -0.2754
  174MPD1    C3 2704   2.866   0.373  14.554 -0.7697  0.2910 -0.1852
  174MPD1    C4 2705   2.965   0.304  14.481 -0.2869  0.2978 -0.3314
  174MPD1    C5 2706   3.054   0.234  14.559  0.4031  0.3085  0.0957
  174MPD1     H 2707   2.782   0.418  14.752 -2.3989 -3.5256 -0.6771
  174MPD1    H1 2708   2.988   0.307  14.375  1.8887  1.5026  0.1742
  174MPD1    H2 2709   3.114   0.156  14.735  1.9405  1.6073  0.4786
  174MPD1    H3 2710   3.126   0.183  14.497  0.3671 -0.8046  0.9609
  174MPD1     N 2711   2.778   0.447  14.473  0.4947  0.6069  0.6496
  174MPD1    H5 2712   2.784   0.443  14.372 -0.9419  2.6372  0.4947
  174MPD1    N1 2713   2.945   0.283  14.902  0.4878  0.5218  0.2072
  174MPD1    H6 2714   2.977   0.198  14.948  1.0491  0.4568 -0.3126
  174MPD1    H7 2715   2.862   0.319  14.949 -0.2443  0.8654 -1.3796
  175MPD1     C 2716   4.321   2.258  15.506  0.1331  0.2264  0.0078
  175MPD1    C1 2717   4.430   2.188  15.456  0.5470  0.6282 -0.0384
  175MPD1    C2 2718   4.504   2.108  15.538 -0.3422 -0.4421 -0.0248
  175MPD1    C3 2719   4.466   2.084  15.667 -0.6284  0.8456  0.0517
  175MPD1    C4 2720   4.344   2.138  15.710 -1.0037  0.0304  0.9507
  175MPD1    C5 2721   4.278   2.231  15.630  0.0554 -0.6830 -0.5969
  175MPD1     H 2722   4.596   2.061  15.504 -0.0771  0.1439 -0.1059
  175MPD1    H1 2723   4.309   2.114  15.810 -0.6765  0.5102  1.1767
  175MPD1    H2 2724   4.282   2.340  15.448  0.8717  2.0230  2.0595
  175MPD1    H3 2725   4.196   2.285  15.677 -0.3759 -0.5523 -1.4951
  175MPD1     N 2726   4.544   2.008  15.762 -0.1436 -0.5514  0.0296
  175MPD1    H5 2727   4.498   1.994  15.851 -0.0253  3.2349  0.6714
  175MPD1    N1 2728   4.481   2.228  15.333  0.1138 -0.5348 -0.3228
  175MPD1    H6 2729   4.549   2.159  15.303  1.1841  0.1106  0.6057
  175MPD1    H7 2730   4.403   2.241  15.269 -0.0842 -0.3197 -0.0345
  176MPD1     C 2731   2.117   2.927  17.475  0.7267  0.2852  0.1106
  176MPD1    C1 2732   2.130   2.960  17.344  0.0994 -0.0244  0.4584
  176MPD1    C2 2733   2.139   3.091  17.308  0.6360 -0.0330 -0.0620
  176MPD1    C3 2734   2.142   3.187  17.399  0.4130 -0.5849  1.0987
  176MPD1    C4 2735   2.135   3.158  17.537 -0.1746  0.4077 -0.1309
  176MPD1    C5 2736   2.129   3.027  17.569  0.0208 -0.5369 -1.3042
  176MPD1     H 2737   2.142   3.123  17.205 -0.6059 -1.8522 -0.6630
  176MPD1    H1 2738   2.120   3.236  17.611 -0.3512  1.2811 -1.0873
  176MPD1    H2 2739   2.109   2.823  17.503 -1.2206  0.1705 -0.9226
  176MPD1    H3 2740   2.123   3.002  17.674 -0.3887 -1.4869 -1.5597
  176MPD1     N 2741   2.113   3.318  17.363 -0.6031 -0.7453 -0.2564
  176MPD1    H5 2742   2.079   3.332  17.268 -1.0848  1.8106  0.2973
  176MPD1    N1 2743   2.130   2.854  17.254  0.0559  0.4581  0.2831
  176MPD1    H6 2744   2.166   2.889  17.165  1.3977 -0.6644  0.3952
  176MPD1    H7 2745   2.039   2.809  17.242 -0.1241  0.8419  0.2197
  177MPD1     C 2746   0.807   4.271   9.911 -0.0121  0.3548  1.6066
  177MPD1    C1 2747   0.894   4.169   9.878 -0.1256 -0.2136  0.2486
  177MPD1    C2 2748   0.846   4.073   9.794  0.4588 -0.1544  0.5076
  177MPD1    C3 2749   0.734   4.089   9.717 -0.4892 -1.1214 -0.3779
  177MPD1    C4 2750   0.648   4.199   9.744  0.2099 -0.3123 -0.6707
  177MPD1    C5 2751   0.689   4.290   9.842  0.3060 -0.6145  0.1666
  177MPD1     H 2752   0.911   3.991   9.768  0.3110 -0.2244  0.3572
  177MPD1    H1 2753   0.563   4.227   9.682  0.4814 -0.0736 -0.9332
  177MPD1    H2 2754   0.843   4.333   9.993  0.5647  1.1588  0.7534
  177MPD1    H3 2755   0.617   4.357   9.886  1.6535  0.9435 -0.0052
  177MPD1     N 2756   0.707   3.996   9.616 -0.6021 -0.0966 -0.1197
  177MPD1    H5 2757   0.757   3.907   9.615 -0.4538 -0.0431  1.9052
  177MPD1    N1 2758   1.016   4.155   9.943  0.1272 -0.5781 -0.2251
  177MPD1    H6 2759   1.086   4.116   9.881  0.0843  3.8852 -3.0526
  177MPD1    H7 2760   1.055   4.247   9.962 -0.8830  0.3246 -2.4915
  178MPD1     C 2761   2.372   4.069   0.376 -0.3077 -0.2053  0.3738
  178MPD1    C1 2762   2.460   4.169   0.352  0.3936  0.1813 -0.0553
  178MPD1    C2 2763   2.546   4.152   0.247 -0.0899  0.2337  0.2037
  178MPD1    C3 2764   2.548   4.039   0.174  0.3892  0.2486 -0.0738
  178MPD1    C4 2765   2.471   3.930   0.202  0.4472 -0.3664  0.3357
  178MPD1    C5 2766   2.380   3.956   0.299 -0.0471 -0.1140 -0.1140
  178MPD1     H 2767   2.609   4.239   0.229  0.7433 -0.3459  0.2830
  178MPD1    H1 2768   2.474   3.838   0.144  0.2907 -0.0231 -0.2206
  178MPD1    H2 2769   2.292   4.064   0.449 -1.0170 -0.2469 -0.4105
  178MPD1    H3 2770   2.295   3.888   0.306  1.9467 -2.6099  0.0381
  178MPD1     N 2771   2.640   4.023   0.073  0.4931  0.1157  0.0628
  178MPD1    H5 2772   2.625   3.943   0.012  0.4067 -0.9053  1.4065
  178MPD1    N1 2773   2.443   4.294   0.412 -0.2208 -0.1650 -0.1151
  178MPD1    H6 2774   2.521   4.358   0.403  1.1258 -1.9121 -0.6521
  178MPD1    H7 2775   2.395   4.287   0.502 -1.6700 -0.0211 -0.8830
  179MPD1     C 2776   3.026   1.634  15.483  0.2804  0.1151  0.7655
  179MPD1    C1 2777   2.888   1.646  15.461 -0.3605  0.1505 -0.0345
  179MPD1    C2 2778   2.829   1.747  15.533  0.5524  0.3071  0.0659
  179MPD1    C3 2779   2.892   1.826  15.623  0.0504  0.3844 -0.4867
  179MPD1    C4 2780   3.022   1.810  15.644 -0.2213 -0.4937 -0.5193
  179MPD1    C5 2781   3.087   1.713  15.570 -0.0497  0.3843  0.5670
  179MPD1     H 2782   2.725   1.760  15.506  0.8895  1.2739 -0.7440
  179MPD1    H1 2783   3.080   1.886  15.696 -1.5294 -0.6436  1.1649
  179MPD1    H2 2784   3.081   1.576  15.410  1.0357  1.1106  0.5525
  179MPD1    H3 2785   3.196   1.713  15.565  0.0130  0.8328  1.9472
  179MPD1     N 2786   2.828   1.917  15.716 -0.0044  0.9381 -0.2378
  179MPD1    H5 2787   2.893   1.976  15.766  0.2296  1.3435 -1.0109
  179MPD1    N1 2788   2.824   1.580  15.356 -0.1900 -0.0187 -0.1414
  179MPD1    H6 2789   2.857   1.484  15.345 -1.3915 -0.4475 -0.0347
  179MPD1    H7 2790   2.723   1.590  15.347  0.0436  2.3951  0.1294
  180MPD1     C 2791   2.682   4.733  14.922  0.1168 -0.0069 -0.4192
  180MPD1    C1 2792   2.678   4.704  14.790 -0.2952  0.0495  0.4308
  180MPD1    C2 2793   2.599   4.593  14.754 -0.6703 -0.3188 -0.2663
  180MPD1    C3 2794   2.542   4.516  14.853 -0.1439  0.2661 -0.0567
  180MPD1    C4 2795   2.542   4.552  14.988 -0.3637  0.4255  0.0365
  180MPD1    C5 2796   2.617   4.660  15.015  0.3451  0.5518  0.7746
  180MPD1     H 2797   2.588   4.562  14.651  0.7877  2.4532 -1.2712
  180MPD1    H1 2798   2.498   4.489  15.064 -1.6439  2.1426  0.7317
  180MPD1    H2 2799   2.737   0.086  14.952  0.4269  0.3235 -2.0007
  180MPD1    H3 2800   2.606   4.701  15.115 -0.7920 -2.9740  2.1110
  180MPD1     N 2801   2.479   4.400  14.808 -0.2034  0.1396 -0.2095
  180MPD1    H5 2802   2.475   4.390  14.707 -0.6010 -1.9498  0.0221
  180MPD1    N1 2803   2.753   0.038  14.695 -0.0889  0.3923  0.3491
  180MPD1    H6 2804   2.719   0.032  14.600 -0.9882  0.8112  0.6368
  180MPD1    H7 2805   2.773   0.134  14.725 -1.5758  0.8351 -0.0877
  181MPD1     C 2806   3.515   1.186  10.652  0.3546  0.7330 -0.3575
  181MPD1    C1 2807   3.547   1.295  10.579 -0.0345  0.3926  0.2877
  181MPD1    C2 2808   3.663   1.284  10.506 -0.4062  0.3029 -0.4563
  181MPD1    C3 2809   3.756   1.184  10.532 -0.5468  0.7233 -0.0909
  181MPD1    C4 2810   3.724   1.090  10.626  0.6211  0.6565 -0.1863
  181MPD1    C5 2811   3.605   1.093  10.688 -0.1358 -0.0786 -0.6117
  181MPD1     H 2812   3.687   1.367  10.440 -0.9906  0.5088 -0.4009
  181MPD1    H1 2813   3.801   1.025  10.665  0.3693 -1.1816 -2.7443
  181MPD1    H2 2814   3.425   1.173  10.710  1.4976  1.6398  1.6016
  181MPD1    H3 2815   3.580   1.016  10.761 -0.2703  0.7372  0.2064
  181MPD1     N 2816   3.876   1.184  10.463 -0.1317 -0.0434 -0.0252
  181MPD1    H5 2817   3.889   1.268  10.408 -0.9817 -1.0737 -1.8439
  181MPD1    N1 2818   3.453   1.396  10.552  0.0522 -0.6275 -0.2309
  181MPD1    H6 2819   3.397   1.403  10.636 -0.0273 -1.5826 -0.1979
  181MPD1    H7 2820   3.480   1.493  10.537  0.4859 -0.4393  1.8214
  182MPD1     C 2821   0.376   4.353   1.227  0.5534  0.3995  0.1809
  182MPD1    C1 2822   0.396   4.247   1.145  0.6288 -0.5897 -0.8891
  182MPD1    C2 2823   0.335   4.245   1.021  0.7136 -0.0629  0.5580
  182MPD1    C3 2824   0.283   4.363   0.968  0.1057 -0.7589  0.0489
  182MPD1    C4 2825   0.277   4.482   1.038 -0.4443 -0.2594  0.2197
  182MPD1    C5 2826   0.325   4.467   1.167  0.0605  0.2212 -0.3518
  182MPD1     H 2827   0.340   4.156   0.961  0.2227 -1.6652  2.8934
  182MPD1    H1 2828   0.232   4.571   0.996 -0.7619 -1.1582 -1.3404
  182MPD1    H2 2829   0.414   4.347   1.328 -1.2862  2.1425  0.9880
  182MPD1    H3 2830   0.312   4.555   1.229  0.8656 -1.6714  2.5091
  182MPD1     N 2831   0.229   4.363   0.835 -0.0992  0.3616  0.8015
  182MPD1    H5 2832   0.186   4.447   0.798 -0.6433 -0.4488 -0.4048
  182MPD1    N1 2833   0.452   4.125   1.195 -0.6313  0.3881 -0.3867
  182MPD1    H6 2834   0.529   4.158   1.253  0.5482 -0.7429 -1.3274
  182MPD1    H7 2835   0.482   4.064   1.120 -0.5285  0.5261 -0.4581
  183MPD1     C 2836   1.162   1.974  10.194 -0.4679 -0.1169 -0.0875
  183MPD1    C1 2837   1.027   1.970  10.188  0.7212 -0.3632  0.3826
  183MPD1    C2 2838   0.964   1.842  10.178  0.1742  0.1621  0.1464
  183MPD1    C3 2839   1.033   1.726  10.187  0.4517 -0.3779 -0.2848
  183MPD1    C4 2840   1.172   1.736  10.212  0.2530  0.8583 -0.2383
  183MPD1    C5 2841   1.232   1.857  10.208  0.4686 -0.0423 -0.2395
  183MPD1     H 2842   0.859   1.837  10.154  0.1606  0.8035  0.0890
  183MPD1    H1 2843   1.230   1.646  10.231 -1.4209 -0.1144  0.2969
  183MPD1    H2 2844   1.210   2.071  10.186 -0.2236 -0.1375  1.0350
  183MPD1    H3 2845   1.340   1.866  10.214  0.3171  1.3863  0.2113
  183MPD1     N 2846   0.953   1.605  10.181 -0.3751  0.6200  0.0978
  183MPD1    H5 2847   0.855   1.619  10.159 -0.3433  1.2406  0.3531
  183MPD1    N1 2848   0.964   2.091  10.139  0.4565  0.6539  0.6171
  183MPD1    H6 2849   0.863   2.080  10.135  0.2583  2.5562  0.6497
  183MPD1    H7 2850   0.995   2.173  10.191 -0.4858  0.2493  1.8281
  184MPD1     C 2851   4.204   2.586  10.571  0.5888 -0.2784 -0.0506
  184MPD1    C1 2852   4.093   2.631  10.506 -0.5302 -0.3478 -1.1689
  184MPD1    C2 2853   4.094   2.744  10.424 -0.1300  0.2840 -0.2194
  184MPD1    C3 2854   4.212   2.796  10.384 -0.9324 -0.0903 -0.6174
  184MPD1    C4 2855   4.329   2.743  10.444  0.0543 -0.1391  0.2509
  184MPD1    C5 2856   4.325   2.648  10.542  0.4546 -0.1678 -0.0933
  184MPD1     H 2857   4.007   2.784  10.374 -0.8156  0.2465  0.9490
  184MPD1    H1 2858   4.430   2.773  10.415 -0.3638 -0.2180 -1.3107
  184MPD1    H2 2859   4.195   2.493  10.625  3.9931 -0.4311  0.2173
  184MPD1    H3 2860   4.417   2.614  10.587 -0.4114 -0.0593  1.7600
  184MPD1     N 2861   4.218   2.892  10.274 -0.0336  0.2473  0.4209
  184MPD1    H5 2862   4.126   2.926  10.251 -0.7236 -2.2718 -0.6223
  184MPD1    N1 2863   3.970   2.572  10.547 -0.2197  0.0469  0.6343
  184MPD1    H6 2864   3.896   2.587  10.479 -0.5589 -0.4374  0.8909
  184MPD1    H7 2865   3.980   2.473  10.570 -2.0348 -0.1563  0.5180
  185MPD1     C 2866   3.755   3.165   9.468 -0.0753 -0.1918  0.1086
  185MPD1    C1 2867   3.708   3.156   9.601 -0.9968  0.2823  0.0442
  185MPD1    C2 2868   3.800   3.137   9.704  1.0464  0.3076 -0.5641
  185MPD1    C3 2869   3.937   3.139   9.673  0.2936  0.2293  0.3750
  185MPD1    C4 2870   3.974   3.151   9.545  0.0592 -0.8084 -0.1842
  185MPD1    C5 2871   3.886   3.157   9.445  0.5234  0.0079  0.0047
  185MPD1     H 2872   3.760   3.161   9.802 -0.5985  1.8507 -1.6145
  185MPD1    H1 2873   4.079   3.154   9.522 -0.1553  3.0575 -0.6027
  185MPD1    H2 2874   3.683   3.189   9.391 -0.3355  0.8777  0.6884
  185MPD1    H3 2875   3.920   3.155   9.342  0.6954  2.0246  0.0060
  185MPD1     N 2876   4.045   3.156   9.769  0.4793  0.1389 -0.5435
  185MPD1    H5 2877   4.137   3.166   9.729  0.6164 -2.5729 -0.9056
  185MPD1    N1 2878   3.578   3.197   9.631  0.2408 -0.7653  0.2027
  185MPD1    H6 2879   3.516   3.167   9.556 -0.0664 -0.5625  0.3737
  185MPD1    H7 2880   3.538   3.162   9.719  2.0446 -1.7948  0.6228
  186MPD1     C 2881   3.158   1.931  16.129 -1.0362 -0.1976 -0.6649
  186MPD1    C1 2882   3.246   2.040  16.110  0.2334  0.4714 -0.5059
  186MPD1    C2 2883   3.202   2.162  16.161  0.2702  0.3834 -0.7416
  186MPD1    C3 2884   3.087   2.175  16.239 -0.4194 -0.3912 -0.8654
  186MPD1    C4 2885   3.007   2.064  16.260  0.4892  0.8585  0.2200
  186MPD1    C5 2886   3.043   1.942  16.202  0.1783  0.3465  0.6028
  186MPD1     H 2887   3.271   2.245  16.158 -0.8023  1.2993  0.3393
  186MPD1    H1 2888   2.910   2.066  16.309  1.3597 -1.4105  2.0321
  186MPD1    H2 2889   3.170   1.831  16.087 -3.9343  0.3174 -2.7961
  186MPD1    H3 2890   2.975   1.858  16.210 -0.8696  1.2359  0.9250
  186MPD1     N 2891   3.045   2.303  16.301  0.4868 -0.1817  0.8413
  186MPD1    H5 2892   2.960   2.304  16.356 -1.5181  3.4000 -2.2706
  186MPD1    N1 2893   3.389   2.020  16.073  0.7616 -0.0145 -0.4661
  186MPD1    H6 2894   3.426   2.106  16.032  0.5668  0.8303  1.1280
  186MPD1    H7 2895   3.407   1.944  16.008  0.2294 -0.8332  0.3571
  187MPD1     C 2896   2.305   4.068   0.758 -0.1046 -0.4007 -0.1472
  187MPD1    C1 2897   2.374   4.186   0.766 -0.3787  0.2365  0.5423
  187MPD1    C2 2898   2.331   4.308   0.710 -0.6532  0.2565 -0.1970
  187MPD1    C3 2899   2.210   4.305   0.642  0.8853  0.7731  0.1736
  187MPD1    C4 2900   2.145   4.183   0.626 -0.3020  0.3634 -0.6406
  187MPD1    C5 2901   2.196   4.065   0.679  0.3192  0.8707  0.5331
  187MPD1     H 2902   2.385   4.400   0.727  2.1828 -1.1837 -1.3546
  187MPD1    H1 2903   2.062   4.175   0.556  0.4360  2.3868 -1.7452
  187MPD1    H2 2904   2.352   3.978   0.799  2.1191  1.3540  1.1662
  187MPD1    H3 2905   2.147   3.970   0.659 -0.4353  1.0396  1.5996
  187MPD1     N 2906   2.153   4.418   0.570  0.0129 -0.0519 -0.0374
  187MPD1    H5 2907   2.075   4.411   0.505 -1.0248 -1.4997  1.3479
  187MPD1    N1 2908   2.496   4.193   0.832 -0.3755 -0.0371  0.0147
  187MPD1    H6 2909   2.499   4.286   0.873 -2.1278 -0.5195  1.2491
  187MPD1    H7 2910   2.501   4.137   0.917  0.9936 -0.8438 -0.6020
  188MPD1     C 2911   2.029   4.546  10.029  0.2563  0.5287  0.2388
  188MPD1    C1 2912   1.919   4.522   9.951 -0.3336 -1.0425  0.2239
  188MPD1    C2 2913   1.908   4.398   9.891 -0.0745 -0.0209 -0.3108
  188MPD1    C3 2914   1.988   4.290   9.933  0.1370 -0.0876  0.1262
  188MPD1    C4 2915   2.093   4.314  10.025 -0.2207  0.1304  0.2127
  188MPD1    C5 2916   2.116   4.449  10.064 -0.0989 -0.2328  0.0255
  188MPD1     H 2917   1.828   4.376   9.820 -0.2942 -1.1157  0.2720
  188MPD1    H1 2918   2.164   4.239  10.059  0.1296  0.5273  0.3503
  188MPD1    H2 2919   2.043   4.639  10.083  2.5646  0.3976 -0.1361
  188MPD1    H3 2920   2.199   4.469  10.131  1.7735 -1.6606 -1.8878
  188MPD1     N 2921   1.964   4.150   9.889 -0.3669 -0.2775  0.4376
  188MPD1    H5 2922   2.018   4.083   9.942 -0.7314  0.4375  1.7070
  188MPD1    N1 2923   1.837   4.627   9.909 -0.2938  0.4667 -0.0230
  188MPD1    H6 2924   1.840   4.708   9.971  2.5614 -1.4849  2.4075
  188MPD1    H7 2925   1.743   4.588   9.903  0.0873 -0.5453  0.5941
  189MPD1     C 2926   3.943   0.548   0.452 -0.3125 -0.1145 -0.7382
  189MPD1    C1 2927   3.894   0.518   0.327 -0.0408 -0.4102 -0.1910
  189MPD1    C2 2928   3.773   0.579   0.295 -0.7967 -0.0880  0.2979
  189MPD1    C3 2929   3.724   0.683   0.366 -0.2807  0.4320  0.0070
  189MPD1    C4 2930   3.785   0.726   0.481 -0.1422  0.1478  0.8033
  189MPD1    C5 2931   3.887   0.646   0.524  0.7766  0.5503  0.0706
  189MPD1     H 2932   3.722   0.554   0.202  1.5106 -0.8523 -0.7872
  189MPD1    H1 2933   3.738   0.798   0.549  2.1853  1.0626  1.4320
  189MPD1    H2 2934   4.031   0.496   0.489 -2.0871 -1.5962  1.3735
  189MPD1    H3 2935   3.923   0.667   0.624  2.9742  1.4976 -0.9296
  189MPD1     N 2936   3.608   0.745   0.311 -0.0772  0.0356  0.0953
  189MPD1    H5 2937   3.551   0.701   0.239 -0.3128  0.1145  0.2331
  189MPD1    N1 2938   3.934   0.404   0.253 -0.1282 -0.0736  0.0863
  189MPD1    H6 2939   4.035   0.401   0.243 -0.2851 -0.4863 -1.3767
  189MPD1    H7 2940   3.905   0.425   0.157  0.2027  0.8525  0.1880
  190MPD1     C 2941   1.999   4.249  15.915 -0.3671 -0.5449 -0.4984
  190MPD1    C1 2942   2.001   4.161  16.019 -0.0052  0.4545  0.4159
  190MPD1    C2 2943   2.094   4.059  16.021 -0.5825  0.3060 -0.5758
  190MPD1    C3 2944   2.186   4.039  15.917 -0.3277  0.2758  0.0315
  190MPD1    C4 2945   2.182   4.132  15.808  0.2298  0.4639  0.6432
  190MPD1    C5 2946   2.091   4.237  15.815  0.7657 -0.0284  0.3210
  190MPD1     H 2947   2.081   4.005  16.115 -1.6501 -0.1120 -0.9581
  190MPD1    H1 2948   2.250   4.120  15.725  2.0351  0.7933  2.0592
  190MPD1    H2 2949   1.931   4.333  15.912  0.4162  0.0256 -2.1933
  190MPD1    H3 2950   2.086   4.312  15.737  1.8363  0.6242  0.8799
  190MPD1     N 2951   2.282   3.933  15.933  0.2549  0.0871  0.4556
  190MPD1    H5 2952   2.280   3.886  16.023  1.0129  2.0732  1.5251
  190MPD1    N1 2953   1.916   4.183  16.123 -0.5198 -0.3617  0.4405
  190MPD1    H6 2954   1.885   4.091  16.152 -0.2032 -0.5420  0.2067
  190MPD1    H7 2955   1.827   4.225  16.095  0.3979  3.6679  3.5052
  191MPD1     C 2956   1.754   0.942  12.222  0.2220  0.1678 -0.2190
  191MPD1    C1 2957   1.690   1.062  12.203  0.4023  0.3164  0.1547
  191MPD1    C2 2958   1.757   1.176  12.242  0.1335 -0.6334 -0.6341
  191MPD1    C3 2959   1.889   1.169  12.290 -0.6140  0.3185 -0.1717
  191MPD1    C4 2960   1.951   1.046  12.302 -0.4533 -0.2078 -0.3999
  191MPD1    C5 2961   1.879   0.933  12.273  0.4015 -0.0306  0.5374
  191MPD1     H 2962   1.707   1.272  12.235 -0.7624 -0.8639  2.5789
  191MPD1    H1 2963   2.052   1.036  12.342  0.1222  2.4386 -1.1574
  191MPD1    H2 2964   1.699   0.850  12.205  0.9698  0.3232 -3.6011
  191MPD1    H3 2965   1.927   0.837  12.291 -0.7861 -0.6456  0.4064
  191MPD1     N 2966   1.963   1.290  12.311 -0.2090  0.0364 -0.1342
  191MPD1    H5 2967   1.918   1.379  12.290  2.5251  1.0393 -1.8700
  191MPD1    N1 2968   1.566   1.069  12.144 -0.3790 -0.4093  0.3042
  191MPD1    H6 2969   1.526   0.977  12.131  1.1206 -0.8562 -1.1775
  191MPD1    H7 2970   1.492   1.130  12.178  1.1700  0.5643  1.9590
  192MPD1     C 2971   1.929   1.845  11.652  0.4677 -0.7182  0.4005
  192MPD1    C1 2972   2.022   1.905  11.732 -0.9447 -0.6005  0.0336
  192MPD1    C2 2973   2.039   1.853  11.856 -0.3347 -0.3541  0.1788
  192MPD1    C3 2974   1.972   1.739  11.905 -0.1806  0.3098  0.0444
  192MPD1    C4 2975   1.891   1.674  11.820  0.0104 -0.1318  0.3189
  192MPD1    C5 2976   1.870   1.733  11.698 -0.0403 -0.3941 -0.3961
  192MPD1     H 2977   2.107   1.906  11.922  1.0988 -0.6428 -1.0634
  192MPD1    H1 2978   1.860   1.576  11.853  2.4640 -0.1031  2.6428
  192MPD1    H2 2979   1.890   1.885  11.559  3.0279 -2.2482 -1.3479
  192MPD1    H3 2980   1.806   1.675  11.633  1.2724 -0.0896 -1.9478
  192MPD1     N 2981   1.977   1.688  12.042 -0.5206  0.2455 -0.3972
  192MPD1    H5 2982   1.908   1.617  12.062  0.3695 -0.9741 -1.6857
  192MPD1    N1 2983   2.081   2.030  11.699  0.3025  0.5874 -0.2846
  192MPD1    H6 2984   2.168   2.045  11.748 -0.4188 -0.5677  1.3463
  192MPD1    H7 2985   2.090   2.043  11.598  1.8395  1.0659 -0.0793
  193MPD1     C 2986   1.185   1.137  16.088 -0.7232 -0.5216  0.2807
  193MPD1    C1 2987   1.140   1.260  16.110 -0.4936  0.3218 -0.0644
  193MPD1    C2 2988   1.234   1.345  16.170  1.1289 -0.4145  0.2291
  193MPD1    C3 2989   1.351   1.305  16.229 -0.1565 -0.2735 -0.2897
  193MPD1    C4 2990   1.391   1.175  16.208  0.1932  0.1948  0.3511
  193MPD1    C5 2991   1.306   1.091  16.134  0.3804  0.1842  0.0255
  193MPD1     H 2992   1.211   1.451  16.176  0.2036 -0.7177  2.1075
  193MPD1    H1 2993   1.487   1.130  16.231  0.0943 -0.3657 -0.3449
  193MPD1    H2 2994   1.129   1.077  16.016 -0.1951 -0.5716 -0.0921
  193MPD1    H3 2995   1.340   0.995  16.096  0.1613 -0.5391  1.6591
  193MPD1     N 2996   1.440   1.384  16.305 -0.0423  0.6027 -0.2095
  193MPD1    H5 2997   1.527   1.339  16.332  0.8049  2.6439  0.5117
  193MPD1    N1 2998   1.024   1.309  16.043 -0.0335 -0.1776 -0.4707
  193MPD1    H6 2999   0.972   1.365  16.110 -0.5732 -1.8356  0.4908
  193MPD1    H7 3000   0.955   1.235  16.033  0.7375 -0.7361 -1.7313
  194MPD1     C 3001   4.191   3.417  17.171  1.2920  0.8899 -0.0901
  194MPD1    C1 3002   4.300   3.332  17.167 -0.0457 -0.0531  0.7871
  194MPD1    C2 3003   4.267   3.198  17.162  0.3735  0.6081  0.1466
  194MPD1    C3 3004   4.138   3.145  17.167 -0.2045 -0.4916  0.0568
  194MPD1    C4 3005   4.032   3.233  17.170  0.4575  0.1964 -0.9051
  194MPD1    C5 3006   4.068   3.369  17.182  0.3028 -0.3711 -0.1450
  194MPD1     H 3007   4.355   3.135  17.151  0.0398 -0.0396  1.1744
  194MPD1    H1 3008   3.931   3.196  17.182  0.2000 -0.1280 -4.1660
  194MPD1    H2 3009   4.196   3.525  17.178 -1.0075  0.9096  1.1807
  194MPD1    H3 3010   3.988   3.439  17.203  0.1323 -0.0684 -1.8126
  194MPD1     N 3011   4.117   3.004  17.148  0.3424 -0.4707 -0.6944
  194MPD1    H5 3012   4.021   2.973  17.164  0.6526 -0.8916  0.3308
  194MPD1    N1 3013   4.425   3.388  17.143 -0.0564  0.5214  0.3452
  194MPD1    H6 3014   4.441   3.484  17.173 -0.3544  0.3329  1.1086
  194MPD1    H7 3015   4.497   3.324  17.177  0.4378 -0.3026 -2.3032
  195MPD1     C 3016   1.743   0.178   0.580  0.0502 -0.7006 -0.2497
  195MPD1    C1 3017   1.662   0.193   0.473 -0.2771  0.0984  0.2204
  195MPD1    C2 3018   1.617   0.078   0.409 -0.5702 -0.0429 -0.3570
  195MPD1    C3 3019   1.643   4.686   0.460 -0.4409  0.4990  0.4445
  195MPD1    C4 3020   1.716   4.679   0.573 -0.2490  0.0475 -0.1526
  195MPD1    C5 3021   1.765   0.055   0.636 -0.3187 -0.4397 -0.3155
  195MPD1     H 3022   1.566   0.081   0.313 -0.7184  0.5070 -0.2561
  195MPD1    H1 3023   1.747   4.582   0.609 -2.6344 -1.3916 -1.9864
  195MPD1    H2 3024   1.779   0.267   0.631 -1.2649  0.2663 -1.0195
  195MPD1    H3 3025   1.833   0.047   0.720 -2.5543 -3.6515  1.2161
  195MPD1     N 3026   1.576   4.572   0.415  0.6638  0.5510  0.0154
  195MPD1    H5 3027   1.595   4.487   0.466  0.2526  3.2351  4.6291
  195MPD1    N1 3028   1.656   0.313   0.404 -0.4703  0.5085 -0.4180
  195MPD1    H6 3029   1.658   0.398   0.460  0.6239  0.2294 -0.0515
  195MPD1    H7 3030   1.569   0.306   0.351 -0.6262 -0.0736 -0.0884
  196MPD1     C 3031   0.673   4.201  17.083 -0.2141 -0.0541  0.2285
  196MPD1    C1 3032   0.592   4.108  17.144  0.0738 -0.0608 -0.1167
  196MPD1    C2 3033   0.610   4.089  17.277 -0.0308 -0.0131 -0.0118
  196MPD1    C3 3034   0.699   4.167  17.351  0.8662  0.4300  0.1499
  196MPD1    C4 3035   0.786   4.253  17.288  0.3265 -0.2993 -0.2787
  196MPD1    C5 3036   0.772   4.260  17.152 -0.3168  0.8109  0.1774
  196MPD1     H 3037   0.555   4.012  17.331 -1.1887  1.1244  0.4281
  196MPD1    H1 3038   0.867   4.297  17.345  3.3767 -3.3262 -2.2793
  196MPD1    H2 3039   0.668   4.221  16.977 -2.4779 -1.0457  0.1574
  196MPD1    H3 3040   0.844   4.319  17.095 -1.7423  1.7204 -0.6742
  196MPD1     N 3041   0.726   4.154  17.491 -0.0873  0.2781  0.0124
  196MPD1    H5 3042   0.806   4.209  17.520 -0.8201  1.8154 -0.8645
  196MPD1    N1 3043   0.505   4.025  17.069 -0.0313  0.1416 -0.5556
  196MPD1    H6 3044   0.486   4.064  16.977  1.0167 -2.4544 -1.8796
  196MPD1    H7 3045   0.419   3.998  17.115  0.8334 -2.1333 -0.2353
  197MPD1     C 3046   4.597   1.104  17.229  0.9207 -0.3180  0.3656
  197MPD1    C1 3047   4.727   1.134  17.262  0.3181  0.3951 -0.2417
  197MPD1    C2 3048   0.056   1.230  17.185  0.4943 -0.3604 -0.3498
  197MPD1    C3 3049   4.734   1.283  17.069  0.7117 -0.2869 -0.5313
  197MPD1    C4 3050   4.609   1.233  17.036  0.3838  0.7630  0.7013
  197MPD1    C5 3051   4.538   1.143  17.115 -0.2261 -0.2367 -0.2049
  197MPD1     H 3052   0.159   1.252  17.212  0.6770  0.6881 -1.8563
  197MPD1    H1 3053   4.561   1.254  16.941 -2.2039 -1.6436  1.4775
  197MPD1    H2 3054   4.543   1.025  17.282 -0.2503  1.9218  2.5052
  197MPD1    H3 3055   4.438   1.111  17.088 -0.0032  0.1234 -1.4651
  197MPD1     N 3056   0.067   1.368  16.973 -0.6051 -0.2544  0.0980
  197MPD1    H5 3057   0.015   1.388  16.889  0.8200  0.3831 -0.6260
  197MPD1    N1 3058   0.047   1.098  17.380 -0.1635  0.4866 -0.2315
  197MPD1    H6 3059   0.148   1.103  17.383 -0.1314  0.0180 -0.5074
  197MPD1    H7 3060   0.021   1.005  17.411 -1.2940  0.8322 -0.1124
  198MPD1     C 3061   1.971   0.359  15.757 -0.6643  0.1585 -0.1060
  198MPD1    C1 3062   2.019   0.374  15.886  0.5496  0.3200  0.1962
  198MPD1    C2 3063   2.156   0.332  15.903  0.1712 -0.1849 -0.1747
  198MPD1    C3 3064   2.230   0.265  15.805 -0.3445 -0.4604  0.3964
  198MPD1    C4 3065   2.175   0.248  15.684 -0.3594  0.4776 -0.6822
  198MPD1    C5 3066   2.041   0.285  15.669  0.7598  0.2853  0.1851
  198MPD1     H 3067   2.199   0.339  16.002  0.5095 -1.0244 -0.2631
  198MPD1    H1 3068   2.223   0.192  15.605 -1.4863 -0.4672 -0.6796
  198MPD1    H2 3069   1.878   0.403  15.723 -0.9074 -0.2817 -0.0026
  198MPD1    H3 3070   2.006   0.272  15.567  1.5822  0.4576 -0.1249
  198MPD1     N 3071   2.367   0.235  15.829  0.0624 -0.4551 -0.6247
  198MPD1    H5 3072   2.383   0.251  15.928 -1.3588  1.2067 -0.6808
  198MPD1    N1 3073   1.957   0.455  15.980  0.5543 -0.2019  0.0187
  198MPD1    H6 3074   1.988   0.549  15.957  0.9511 -0.6900 -1.4769
  198MPD1    H7 3075   1.858   0.467  15.960  0.3418  0.1208  1.3149
  199MPD1     C 3076   0.535   1.546  10.338 -0.1585 -0.2946  0.1116
  199MPD1    C1 3077   0.497   1.674  10.339  0.2343 -0.4051 -0.6760
  199MPD1    C2 3078   0.365   1.698  10.294  0.9208 -0.8678 -0.0704
  199MPD1    C3 3079   0.278   1.591  10.276 -0.1459  0.0407  0.6902
  199MPD1    C4 3080   0.320   1.464  10.292  0.0835  0.0461  0.5481
  199MPD1    C5 3081   0.450   1.442  10.315  0.2508 -0.7466 -0.1451
  199MPD1     H 3082   0.340   1.802  10.279  0.7780 -0.7731  0.8325
  199MPD1    H1 3083   0.248   1.384  10.278  0.8814 -0.4931 -0.4588
  199MPD1    H2 3084   0.640   1.537  10.363  0.0867  0.5553 -0.6437
  199MPD1    H3 3085   0.488   1.341  10.304  2.3604  0.1448 -1.1011
  199MPD1     N 3086   0.145   1.613  10.241 -0.5814  0.7533 -0.6888
  199MPD1    H5 3087   0.088   1.529  10.248  1.7692 -0.7260  0.9022
  199MPD1    N1 3088   0.596   1.771  10.339 -0.0706  0.0689 -0.2900
  199MPD1    H6 3089   0.555   1.854  10.382 -1.2118 -1.2665  1.1664
  199MPD1    H7 3090   0.672   1.735  10.396  1.6544  3.8092 -0.2162
  200MPD1     C 3091   3.041   1.231  14.578 -0.1398  0.1327  0.4713
  200MPD1    C1 3092   3.127   1.239  14.473 -0.1666  0.2018  0.3844
  200MPD1    C2 3093   3.266   1.257  14.500 -0.7721 -0.0276 -0.0103
  200MPD1    C3 3094   3.306   1.271  14.631 -0.0574  0.2610  0.6428
  200MPD1    C4 3095   3.212   1.279  14.735 -0.0847 -0.7877 -0.3311
  200MPD1    C5 3096   3.076   1.256  14.707 -0.0140 -0.0021 -0.0063
  200MPD1     H 3097   3.331   1.252  14.413 -3.2678 -0.6048 -1.8370
  200MPD1    H1 3098   3.228   1.282  14.842 -1.2769 -1.7065 -0.1332
  200MPD1    H2 3099   2.935   1.207  14.577 -0.4005  1.3566 -2.3960
  200MPD1    H3 3100   3.003   1.237  14.785  0.6180  1.3013  0.8955
  200MPD1     N 3101   3.444   1.289  14.653 -0.0603  0.1369 -0.0499
  200MPD1    H5 3102   3.512   1.283  14.578 -0.5420 -1.2437 -0.3789
  200MPD1    N1 3103   3.080   1.217  14.345  0.2998 -0.1849 -0.1380
  200MPD1    H6 3104   3.124   1.280  14.279  0.1061  1.6246  1.4591
  200MPD1    H7 3105   2.980   1.233  14.335  0.3047 -0.8309 -1.1852
  201MPD1     C 3106   0.580   0.596  13.509 -0.4228 -0.3207 -0.0227
  201MPD1    C1 3107   0.571   0.466  13.468 -0.3556  0.3980  1.0108
  201MPD1    C2 3108   0.691   0.387  13.447 -0.2138  0.4939  0.3298
  201MPD1    C3 3109   0.812   0.439  13.480  0.4054 -0.2556  0.2914
  201MPD1    C4 3110   0.824   0.566  13.528 -0.5848  0.2775  0.0083
  201MPD1    C5 3111   0.706   0.643  13.537 -0.2883 -1.0625  0.4905
  201MPD1     H 3112   0.687   0.286  13.408 -0.1751 -0.1149  1.8712
  201MPD1    H1 3113   0.915   0.619  13.555 -2.3133  1.0626  4.2993
  201MPD1    H2 3114   0.492   0.656  13.529 -0.2792 -0.1996  0.2534
  201MPD1    H3 3115   0.710   0.747  13.566 -2.3546 -0.9692  0.4848
  201MPD1     N 3116   0.924   0.367  13.439 -0.0161 -1.0310 -0.2213
  201MPD1    H5 3117   0.917   0.285  13.381  2.0614 -0.4866 -1.2621
  201MPD1    N1 3118   0.454   0.410  13.425  0.0154  0.2959 -0.0150
  201MPD1    H6 3119   0.370   0.443  13.473 -0.9353  0.5385 -1.8371
  201MPD1    H7 3120   0.462   0.309  13.429  0.1712  0.2512 -1.5406
  202MPD1     C 3121   1.887   1.198  10.099 -0.3802  0.6459 -0.4402
  202MPD1    C1 3122   1.983   1.141  10.185 -0.0690  0.1522 -0.2422
  202MPD1    C2 3123   1.944   1.010  10.232  0.9463  0.0560  0.1884
  202MPD1    C3 3124   1.810   0.982  10.250  0.2852 -0.0555  0.6393
  202MPD1    C4 3125   1.714   1.064  10.197  0.4141 -0.4259  0.1526
  202MPD1    C5 3126   1.754   1.160  10.104  0.4921  0.1774  0.1895
  202MPD1     H 3127   2.019   0.956  10.288  1.3837  1.5706  1.0580
  202MPD1    H1 3128   1.610   1.040  10.214  0.5066 -0.6342  0.4225
  202MPD1    H2 3129   1.911   1.272  10.024  0.8661 -0.5753 -1.2625
  202MPD1    H3 3130   1.686   1.203  10.032  0.1514 -2.1479 -0.8896
  202MPD1     N 3131   1.749   0.873  10.317  0.3431 -0.0143  0.5467
  202MPD1    H5 3132   1.649   0.859  10.305  0.5346 -0.5625 -0.4140
  202MPD1    N1 3133   2.117   1.164  10.159 -0.1043 -0.7309  0.2570
  202MPD1    H6 3134   2.188   1.127  10.222 -0.5887 -0.4192  0.9786
  202MPD1    H7 3135   2.134   1.264  10.154  1.2859 -0.9598  0.4598
  203MPD1     C 3136   4.501   1.207  12.313 -0.8255  0.0767 -0.8971
  203MPD1    C1 3137   4.554   1.103  12.235 -0.6835 -0.8585 -0.0434
  203MPD1    C2 3138   4.588   0.990  12.300 -0.1044  0.0646  0.2709
  203MPD1    C3 3139   4.575   0.967  12.435 -0.1464 -0.2697  0.0754
  203MPD1    C4 3140   4.523   1.068  12.511  0.2879 -0.0220  1.3551
  203MPD1    C5 3141   4.488   1.188  12.446 -0.0856 -0.4556 -0.7826
  203MPD1     H 3142   4.616   0.917  12.225 -1.0755  1.5048 -1.5013
  203MPD1    H1 3143   4.506   1.063  12.618 -0.4921 -3.2096  1.0607
  203MPD1    H2 3144   4.476   1.307  12.279  0.8595  0.3628 -1.3239
  203MPD1    H3 3145   4.450   1.272  12.504  4.1074  0.8341  0.0600
  203MPD1     N 3146   4.625   0.847  12.490 -0.0286  0.0682  0.1237
  203MPD1    H5 3147   4.649   0.778  12.420 -0.5256  0.6211 -0.5875
  203MPD1    N1 3148   4.598   1.140  12.103 -0.3454  0.1087  0.4084
  203MPD1    H6 3149   4.536   1.199  12.047 -1.2586 -1.5754 -0.3498
  203MPD1    H7 3150   4.596   1.056  12.045 -1.1194 -1.7918  3.2264
  204MPD1     C 3151   3.433   2.065  17.574  0.5031 -0.3193 -0.6602
  204MPD1    C1 3152   3.526   2.091  17.476 -0.3106 -0.4790  0.0063
  204MPD1    C2 3153   3.596   1.988  17.422 -0.5240 -0.0887 -0.2835
  204MPD1    C3 3154   3.568   1.859  17.466 -0.5734  0.0595 -0.0634
  204MPD1    C4 3155   3.458   1.830  17.548  0.0486  0.1356  0.3404
  204MPD1    C5 3156   3.396   1.933  17.604  0.4087  0.0424  0.2581
  204MPD1     H 3157   3.664   2.002  17.338  1.3492  0.7614  1.3937
  204MPD1    H1 3158   3.429   1.728  17.572  0.5021  0.1176  0.8246
  204MPD1    H2 3159   3.394   2.146  17.634 -1.8367 -1.0379 -1.2050
  204MPD1    H3 3160   3.322   1.912  17.680 -0.8907 -0.3579 -1.1151
  204MPD1     N 3161   3.659   1.758  17.426 -0.6280  0.0660  0.2737
  204MPD1    H5 3162   3.745   1.794  17.387 -1.5769  1.2272 -0.7466
  204MPD1    N1 3163   3.551   2.224  17.439 -0.0183 -0.7463 -0.6401
  204MPD1    H6 3164   3.581   2.235  17.343  1.2304  1.4792 -0.0038
  204MPD1    H7 3165   3.469   2.283  17.450  1.7991  1.6912 -0.1317
  205MPD1     C 3166   0.104   0.665  17.221 -0.2313  0.6959 -0.5168
  205MPD1    C1 3167   0.081   0.535  17.258  0.1679 -0.1985  0.0143
  205MPD1    C2 3168   4.686   0.488  17.279  0.1185 -0.4740 -0.4705
  205MPD1    C3 3169   4.586   0.585  17.276  0.1256  0.0475  0.9540
  205MPD1    C4 3170   4.612   0.717  17.246  0.3272 -0.1596 -0.8663
  205MPD1    C5 3171   4.736   0.751  17.214 -0.2150  0.3208 -0.1097
  205MPD1     H 3172   4.663   0.384  17.298  2.1981 -1.1688 -1.6241
  205MPD1    H1 3173   4.540   0.799  17.240  1.7452  1.2995  2.2778
  205MPD1    H2 3174   0.199   0.704  17.185 -0.7551  0.4159 -2.1897
  205MPD1    H3 3175   0.022   0.854  17.189  2.2388 -0.2086 -0.0205
  205MPD1     N 3176   4.449   0.564  17.298 -0.2909 -0.6689  0.1286
  205MPD1    H5 3177   4.392   0.648  17.300 -2.0345 -1.8184 -0.9311
  205MPD1    N1 3178   0.185   0.441  17.252  0.2224 -0.0223 -0.3713
  205MPD1    H6 3179   0.175   0.362  17.315 -0.1978  0.9766  0.8119
  205MPD1    H7 3180   0.276   0.480  17.273  0.9083 -1.0048 -1.4983
  206MPD1     C 3181   4.438   2.882  16.734 -0.0852  0.3888  0.5407
  206MPD1    C1 3182   4.415   3.021  16.745 -0.2370 -0.6074  0.2970
  206MPD1    C2 3183   4.401   3.091  16.630  0.1142  0.2361 -0.2528
  206MPD1    C3 3184   4.376   3.023  16.511  0.5120  0.3420 -0.3722
  206MPD1    C4 3185   4.390   2.886  16.504  0.2027 -0.1115 -0.4478
  206MPD1    C5 3186   4.427   2.819  16.618  0.8884 -0.2584 -0.4341
  206MPD1     H 3187   4.394   3.199  16.636 -1.2463  0.2795 -2.5545
  206MPD1    H1 3188   4.379   2.827  16.414  0.0681 -1.3722  0.4060
  206MPD1    H2 3189   4.464   2.820  16.819 -0.6272 -1.1321 -0.4141
  206MPD1    H3 3190   4.449   2.713  16.616 -0.9431 -0.6058 -2.8332
  206MPD1     N 3191   4.338   3.092  16.388  0.5320  0.0546 -0.4372
  206MPD1    H5 3192   4.333   3.032  16.306  1.9275  1.3635 -1.4853
  206MPD1    N1 3193   4.436   3.090  16.866 -0.0587 -0.1531 -0.3175
  206MPD1    H6 3194   4.412   3.031  16.946 -1.8551  1.2701  0.1899
  206MPD1    H7 3195   4.387   3.179  16.865 -1.9579 -1.1851 -0.8775
  207MPD1     C 3196   1.362   1.186  10.451 -0.1892  0.5496 -0.2440
  207MPD1    C1 3197   1.441   1.293  10.404  0.6850  0.5023  0.0737
  207MPD1    C2 3198   1.576   1.296  10.415  0.3076  0.3829 -0.8039
  207MPD1    C3 3199   1.645   1.192  10.487 -0.1057 -0.0622 -0.1995
  207MPD1    C4 3200   1.569   1.082  10.519 -0.0611  0.3646  0.0159
  207MPD1    C5 3201   1.428   1.078  10.503  0.7159 -0.1527 -0.4178
  207MPD1     H 3202   1.637   1.375  10.371  0.9331 -0.2004 -0.9760
  207MPD1    H1 3203   1.613   1.000  10.576 -0.2430  0.4096  0.2235
  207MPD1    H2 3204   1.254   1.185  10.450 -0.1670 -2.2545 -0.7727
  207MPD1    H3 3205   1.368   0.993  10.533 -3.0291  2.7125  0.1888
  207MPD1     N 3206   1.779   1.206  10.515  0.1917 -0.0251 -0.3000
  207MPD1    H5 3207   1.829   1.285  10.476  0.7865 -0.2184  0.0679
  207MPD1    N1 3208   1.371   1.405  10.351  0.1313 -0.2018  0.5148
  207MPD1    H6 3209   1.431   1.450  10.282  0.8175  1.1829  2.0468
  207MPD1    H7 3210   1.278   1.378  10.318 -0.0474 -1.3573  2.0031
  208MPD1     C 3211   4.261   4.034  16.670 -0.0635 -0.7212  0.4387
  208MPD1    C1 3212   4.156   4.021  16.766 -0.2555 -0.4943  0.0746
  208MPD1    C2 3213   4.187   4.069  16.896  0.2649  0.2383 -0.0221
  208MPD1    C3 3214   4.320   4.086  16.931 -0.5324 -0.5632 -0.2747
  208MPD1    C4 3215   4.427   4.072  16.844  0.3807  0.4532 -0.1939
  208MPD1    C5 3216   4.390   4.059  16.709  0.0652  0.6493 -0.0725
  208MPD1     H 3217   4.113   4.081  16.974  0.2898 -2.2960  0.4015
  208MPD1    H1 3218   4.531   4.101  16.857  0.6865 -1.4376  1.4636
  208MPD1    H2 3219   4.243   4.017  16.565  0.2545  0.5993  0.1689
  208MPD1    H3 3220   4.476   4.056  16.644  0.8200  0.2909  0.9339
  208MPD1     N 3221   4.346   4.114  17.068  0.1665 -0.4836 -0.0218
  208MPD1    H5 3222   4.269   4.146  17.126  2.4112 -0.0854  2.7439
  208MPD1    N1 3223   4.019   4.001  16.725  0.6046 -0.3313  0.0212
  208MPD1    H6 3224   3.999   3.936  16.649 -0.2662  2.4984 -2.1457
  208MPD1    H7 3225   3.966   3.991  16.811 -0.3641  3.0475 -0.1918
  209MPD1     C 3226   2.914   0.600  11.693 -0.0653 -0.7111  0.4975
  209MPD1    C1 3227   2.930   0.726  11.656 -0.1776  0.0640 -0.5895
  209MPD1    C2 3228   2.828   0.812  11.661  0.0090  0.4441 -0.2212
  209MPD1    C3 3229   2.700   0.767  11.700 -0.9926  1.3055  0.0674
  209MPD1    C4 3230   2.678   0.635  11.732  0.1587 -0.0464  0.6427
  209MPD1    C5 3231   2.792   0.555  11.734  0.2662  0.2245  0.0178
  209MPD1     H 3232   2.841   0.918  11.640 -2.1586  0.3970 -1.8227
  209MPD1    H1 3233   2.593   0.592  11.783 -0.8069  1.6829  0.4973
  209MPD1    H2 3234   2.988   0.522  11.708  0.4584  0.0620  1.9769
  209MPD1    H3 3235   2.798   0.451  11.763  0.5857 -0.1015 -1.2500
  209MPD1     N 3236   2.602   0.863  11.697  0.1690 -0.1159 -0.7490
  209MPD1    H5 3237   2.640   0.956  11.682 -2.1860  0.2571 -4.3213
  209MPD1    N1 3238   3.056   0.773  11.623 -0.0653 -0.0752 -0.2707
  209MPD1    H6 3239   3.109   0.704  11.572  2.4478 -0.0595  2.3165
  209MPD1    H7 3240   3.043   0.856  11.566  2.4368 -1.5380 -2.9710
  210MPD1     C 3241   2.442   1.568  12.201 -0.6701 -0.1602  0.6995
  210MPD1    C1 3242   2.389   1.605  12.078 -0.0175  0.0362 -0.1458
  210MPD1    C2 3243   2.377   1.515  11.984 -0.6748  0.4509 -0.7215
  210MPD1    C3 3244   2.398   1.373  12.003 -0.0939 -0.6229 -0.2451
  210MPD1    C4 3245   2.423   1.341  12.131 -0.0728 -0.3019  0.0704
  210MPD1    C5 3246   2.445   1.432  12.230 -0.0750 -0.0247  0.2208
  210MPD1     H 3247   2.346   1.559  11.890 -2.2516 -0.2835 -0.5480
  210MPD1    H1 3248   2.434   1.237  12.160  0.5578  0.3768  2.3053
  210MPD1    H2 3249   2.467   1.641  12.276 -0.5351  2.3654 -1.8195
  210MPD1    H3 3250   2.484   1.403  12.327  0.6632 -1.3254 -0.4581
  210MPD1     N 3251   2.383   1.273  11.909 -0.3319 -0.2547 -0.5043
  210MPD1    H5 3252   2.390   1.175  11.934  0.4946 -0.2092 -0.5557
  210MPD1    N1 3253   2.382   1.744  12.052  0.0073 -0.1774  0.3111
  210MPD1    H6 3254   2.313   1.766  11.981  0.4502 -2.0009 -0.7132
  210MPD1    H7 3255   2.373   1.799  12.137  0.4520  0.9621 -0.3857
  211MPD1     C 3256   0.448   0.731  16.848 -0.3740 -0.2063  0.9217
  211MPD1    C1 3257   0.379   0.778  16.741 -0.1571  0.4658  0.2630
  211MPD1    C2 3258   0.250   0.736  16.713  0.1547  0.1388  0.5355
  211MPD1    C3 3259   0.186   0.657  16.811 -0.3385 -0.4721 -0.6574
  211MPD1    C4 3260   0.257   0.610  16.916  0.4772 -0.3395 -0.5047
  211MPD1    C5 3261   0.390   0.643  16.941 -0.0423  0.3090  0.1259
  211MPD1     H 3262   0.194   0.773  16.627  0.6106 -0.4968 -0.0316
  211MPD1    H1 3263   0.212   0.547  16.991  0.6162  1.3568  0.9967
  211MPD1    H2 3264   0.554   0.751  16.860 -0.3518  0.7569 -0.8257
  211MPD1    H3 3265   0.456   0.603  17.017  0.7779  0.2468 -0.6166
  211MPD1     N 3266   0.048   0.628  16.788  0.3717  0.2307 -0.4465
  211MPD1    H5 3267   0.011   0.676  16.707  1.0116 -2.0549 -2.1067
  211MPD1    N1 3268   0.445   0.830  16.631  0.2604 -0.2323  0.3928
  211MPD1    H6 3269   0.387   0.893  16.575 -0.2774  0.2901  1.5336
  211MPD1    H7 3270   0.530   0.878  16.659 -0.6202  0.6559  1.5316
  212MPD1     C 3271   3.431   3.733  17.003 -0.0743  0.1642  1.1700
  212MPD1    C1 3272   3.423   3.642  16.903  0.2227  0.5438  0.0660
  212MPD1    C2 3273   3.394   3.509  16.927 -0.0938  0.3749 -0.1244
  212MPD1    C3 3274   3.392   3.466  17.059 -0.1412 -0.0117 -0.3418
  212MPD1    C4 3275   3.401   3.558  17.163 -0.3375  0.0562 -0.5770
  212MPD1    C5 3276   3.412   3.692  17.133 -0.4585  0.1945 -0.0649
  212MPD1     H 3277   3.375   3.440  16.846  1.6858  1.4468 -1.4459
  212MPD1    H1 3278   3.398   3.533  17.268  1.1772 -1.4335 -0.8809
  212MPD1    H2 3279   3.435   3.840  16.982  0.1502  0.0654  0.6956
  212MPD1    H3 3280   3.417   3.759  17.217  0.5306  2.3262 -1.8159
  212MPD1     N 3281   3.371   3.338  17.101 -0.0456  0.2874 -0.1896
  212MPD1    H5 3282   3.350   3.323  17.199  0.1523 -1.2744 -0.3847
  212MPD1    N1 3283   3.408   3.692  16.775 -0.1699 -0.5123 -0.1324
  212MPD1    H6 3284   3.451   3.620  16.718 -0.1852 -1.1636  0.6720
  212MPD1    H7 3285   3.461   3.777  16.757  0.0840 -0.7539 -0.5149
  213MPD1     C 3286   1.615   4.075  15.962 -0.0131  0.3728 -0.1264
  213MPD1    C1 3287   1.614   3.951  15.902  0.3417 -0.0247 -0.5722
  213MPD1    C2 3288   1.677   3.958  15.777  0.1765  0.1390  0.4926
  213MPD1    C3 3289   1.687   4.076  15.701  0.1441  1.1346  0.1392
  213MPD1    C4 3290   1.645   4.192  15.759  0.4464  0.1937  0.3270
  213MPD1    C5 3291   1.609   4.186  15.888  0.1266 -0.3545 -0.0097
  213MPD1     H 3292   1.719   3.869  15.732  1.8870 -0.3294  3.0380
  213MPD1    H1 3293   1.644   4.287  15.705  0.7524 -0.2082 -0.3960
  213MPD1    H2 3294   1.592   4.090  16.067 -1.7908 -1.5289 -0.2606
  213MPD1    H3 3295   1.601   4.281  15.940  0.2545 -0.5145  0.3038
  213MPD1     N 3296   1.719   4.065  15.560 -0.1535  0.2969  0.1375
  213MPD1    H5 3297   1.732   3.968  15.535 -1.0506  0.1834  0.1291
  213MPD1    N1 3298   1.636   3.839  15.982 -0.2974 -0.3804  0.2030
  213MPD1    H6 3299   1.582   3.854  16.067  0.5337 -1.3105  0.8922
  213MPD1    H7 3300   1.629   3.746  15.942 -1.1942  0.3568 -1.3364
  214MPD1     C 3301   1.379   3.703  14.722 -0.1437  1.1267  0.5692
  214MPD1    C1 3302   1.389   3.639  14.847 -0.3136 -0.0331 -0.3772
  214MPD1    C2 3303   1.460   3.708  14.944  0.1551  0.4859 -0.8088
  214MPD1    C3 3304   1.501   3.834  14.919  0.6575  0.5466 -0.6200
  214MPD1    C4 3305   1.481   3.896  14.797  0.0404 -0.0784 -0.2468
  214MPD1    C5 3306   1.409   3.831  14.700 -0.0419  0.4616 -0.1200
  214MPD1     H 3307   1.475   3.658  15.039 -1.6135 -1.6473 -1.6652
  214MPD1    H1 3308   1.524   3.995  14.782 -0.7503  0.2840 -0.1080
  214MPD1    H2 3309   1.335   3.647  14.641 -1.4526  0.0252  2.0412
  214MPD1    H3 3310   1.395   3.871  14.601 -0.6027  1.9221  0.5487
  214MPD1     N 3311   1.590   3.904  15.008  0.4177  0.3113  0.4618
  214MPD1    H5 3312   1.624   3.995  14.979 -3.7088  1.6643 -0.1652
  214MPD1    N1 3313   1.351   3.505  14.863 -0.3701  0.3521  0.7703
  214MPD1    H6 3314   1.278   3.481  14.796  0.4845  0.2884 -0.1562
  214MPD1    H7 3315   1.314   3.493  14.956 -0.5987 -0.6033  0.5540
  215MPD1     C 3316   1.372   0.639  10.955  0.2754  0.0746  0.2633
  215MPD1    C1 3317   1.448   0.636  11.066  0.2047 -1.3378  0.4737
  215MPD1    C2 3318   1.521   0.747  11.100  0.1529 -0.0101  0.6098
  215MPD1    C3 3319   1.513   0.870  11.036 -0.0553  0.0559  0.0893
  215MPD1    C4 3320   1.430   0.874  10.925 -0.4266 -0.9458 -0.5058
  215MPD1    C5 3321   1.357   0.763  10.889 -0.2528 -0.5493 -0.1417
  215MPD1     H 3322   1.583   0.734  11.188  0.7193  0.5403  0.2913
  215MPD1    H1 3323   1.419   0.965  10.867  0.5810 -2.3543 -2.9447
  215MPD1    H2 3324   1.326   0.545  10.929  0.5870  0.4489 -1.6677
  215MPD1    H3 3325   1.287   0.768  10.807  0.8054  1.3488 -0.9393
  215MPD1     N 3326   1.573   0.979  11.103  0.5062  0.5128  0.6688
  215MPD1    H5 3327   1.602   0.961  11.198  0.6426  0.2051  0.5719
  215MPD1    N1 3328   1.476   0.515  11.123 -0.3855 -0.2737  0.2033
  215MPD1    H6 3329   1.527   0.542  11.207  0.3951  2.5345 -1.1780
  215MPD1    H7 3330   1.393   0.466  11.156  1.0559 -1.7416  1.6810
  216MPD1     C 3331   3.620   3.217  17.508 -0.1234 -0.2497  0.3268
  216MPD1    C1 3332   3.636   3.112  17.411  0.5002  0.5280 -0.4280
  216MPD1    C2 3333   3.568   2.996  17.431  0.3184 -0.0670  0.9229
  216MPD1    C3 3334   3.489   2.979  17.539  0.8143  0.5837  0.0889
  216MPD1    C4 3335   3.468   3.074  17.632 -0.4715 -0.1439  0.1040
  216MPD1    C5 3336   3.537   3.190  17.613  0.2310  1.0189  0.7152
  216MPD1     H 3337   3.581   2.908  17.368 -1.0984 -1.3628  2.4249
  216MPD1    H1 3338   3.405   3.071  17.720  0.5759 -1.7875  0.8082
  216MPD1    H2 3339   3.671   3.312  17.502 -1.8558  0.6142 -0.7718
  216MPD1    H3 3340   3.519   3.266  17.689 -0.9315  0.9359  0.5231
  216MPD1     N 3341   3.430   2.851  17.552 -0.1235  0.7387  0.2350
  216MPD1    H5 3342   3.443   2.777  17.484 -1.1028  0.5567  0.2474
  216MPD1    N1 3343   3.735   3.132  17.317  0.0548 -0.2374  0.0475
  216MPD1    H6 3344   3.746   3.229  17.291 -0.7129  0.0465  0.7883
  216MPD1    H7 3345   3.719   3.071  17.237 -0.8655  0.4683 -0.3092
  217MPD1     C 3346   0.146   0.850   9.722  0.1178 -0.3755  0.0352
  217MPD1    C1 3347   0.011   0.825   9.730 -0.0934  0.8612 -0.1082
  217MPD1    C2 3348   4.689   0.764   9.621  0.2029  0.0909 -0.1950
  217MPD1    C3 3349   0.024   0.706   9.522  0.0320  0.1408 -0.6914
  217MPD1    C4 3350   0.160   0.718   9.524 -0.3888  0.1873 -0.3304
  217MPD1    C5 3351   0.224   0.795   9.630  0.3060 -0.5237  0.2368
  217MPD1     H 3352   4.580   0.762   9.617  0.1493  3.1220 -0.3561
  217MPD1    H1 3353   0.214   0.655   9.455 -0.3679 -1.1331  0.9056
  217MPD1    H2 3354   0.199   0.902   9.801 -0.8277  1.1674 -0.3490
  217MPD1    H3 3355   0.329   0.821   9.629  0.4032 -0.8367  3.4118
  217MPD1     N 3356   4.709   0.639   9.407 -1.1125  0.5503  0.1976
  217MPD1    H5 3357   0.046   0.610   9.344  0.5048  1.9088  1.4359
  217MPD1    N1 3358   4.673   0.882   9.828 -0.0922 -0.7023 -0.3921
  217MPD1    H6 3359   4.579   0.843   9.836 -0.5989  0.8857  1.4552
  217MPD1    H7 3360   4.715   0.883   9.921 -0.0664 -1.3342 -0.3971
  218MPD1     C 3361   2.106   1.645  12.771  0.0224 -0.8430  0.3694
  218MPD1    C1 3362   1.972   1.650  12.746 -0.4622 -0.5477 -0.8186
  218MPD1    C2 3363   1.908   1.531  12.720  0.4087  0.3571 -0.0574
  218MPD1    C3 3364   1.970   1.411  12.741 -0.1931  0.3419  0.4992
  218MPD1    C4 3365   2.107   1.409  12.784 -0.2703  0.5002 -0.7983
  218MPD1    C5 3366   2.166   1.528  12.800  0.9274  0.2895 -0.2328
  218MPD1     H 3367   1.805   1.541  12.687  0.8737 -0.0543 -1.6081
  218MPD1    H1 3368   2.156   1.321  12.824  0.7281  0.5889 -1.8350
  218MPD1    H2 3369   2.167   1.734  12.769 -2.8457  1.0504 -0.8429
  218MPD1    H3 3370   2.271   1.518  12.825  0.9711 -0.2347 -0.6188
  218MPD1     N 3371   1.903   1.287  12.716  0.9698  0.1050 -0.3075
  218MPD1    H5 3372   1.805   1.297  12.694  1.0533 -1.3403 -1.3319
  218MPD1    N1 3373   1.912   1.775  12.728 -0.2661  1.0921 -0.3084
  218MPD1    H6 3374   1.815   1.791  12.752 -0.0633  1.8510  0.0342
  218MPD1    H7 3375   1.953   1.842  12.793  0.7581  1.6457 -1.5124
  219MPD1     C 3376   1.088   0.953  12.236 -0.0533 -0.4849  0.2758
  219MPD1    C1 3377   1.168   1.066  12.244 -0.1975 -0.0317 -0.0199
  219MPD1    C2 3378   1.282   1.066  12.320  0.4582  0.5164  0.3925
  219MPD1    C3 3379   1.319   0.952  12.393 -0.1598 -0.5140  0.8055
  219MPD1    C4 3380   1.232   0.839  12.387  0.9730 -0.4009  0.7714
  219MPD1    C5 3381   1.117   0.844  12.310 -0.5175 -0.4185  0.2503
  219MPD1     H 3382   1.345   1.154  12.318  1.0829  0.0683  0.0596
  219MPD1    H1 3383   1.262   0.748  12.438 -2.0284 -2.1014 -0.4946
  219MPD1    H2 3384   1.000   0.956  12.173 -0.0550 -0.0728  0.3004
  219MPD1    H3 3385   1.047   0.762  12.301 -2.0952  0.8952  0.5512
  219MPD1     N 3386   1.441   0.948  12.467 -0.5016 -0.6238 -0.0257
  219MPD1    H5 3387   1.466   0.858  12.507 -0.7275 -1.5061 -1.9118
  219MPD1    N1 3388   1.138   1.176  12.165 -0.2489 -0.8341  0.5593
  219MPD1    H6 3389   1.169   1.270  12.187 -2.4509  0.2998 -1.2308
  219MPD1    H7 3390   1.043   1.183  12.131  0.3325  0.2538 -0.8120
  220MPD1     C 3391   0.890   2.531  10.181 -0.1454 -0.1161  0.4206
  220MPD1    C1 3392   1.016   2.531  10.234 -0.3202  0.3310 -0.1610
  220MPD1    C2 3393   1.046   2.423  10.314 -0.2012  0.7582  0.0462
  220MPD1    C3 3394   0.946   2.330  10.357  0.2111  0.2770  0.4085
  220MPD1    C4 3395   0.821   2.343  10.301 -0.1419  0.2594 -0.0833
  220MPD1    C5 3396   0.796   2.442  10.211  0.3553 -0.3240  0.0466
  220MPD1     H 3397   1.144   2.417  10.361 -0.1762 -0.1104 -0.1130
  220MPD1    H1 3398   0.737   2.282  10.331  1.1621 -0.7688  1.4782
  220MPD1    H2 3399   0.853   2.600  10.107 -0.0365 -0.7543 -0.2311
  220MPD1    H3 3400   0.696   2.456  10.173 -0.1653 -0.8432  1.2057
  220MPD1     N 3401   0.984   2.230  10.448  0.4776 -0.0445 -0.4406
  220MPD1    H5 3402   1.081   2.225  10.478  1.0675  1.4483 -2.0779
  220MPD1    N1 3403   1.114   2.616  10.193  1.0760 -0.2184 -0.3277
  220MPD1    H6 3404   1.190   2.609  10.260  0.7827 -0.0424  0.0270
  220MPD1    H7 3405   1.086   2.714  10.183  2.4012 -0.1925 -3.7361
  221MPD1     C 3406   3.960   0.335  16.572 -0.7766 -0.8050 -0.0358
  221MPD1    C1 3407   4.045   0.423  16.501 -0.3212  0.0322  0.2666
  221MPD1    C2 3408   4.174   0.378  16.470 -0.6277 -0.1394 -0.6602
  221MPD1    C3 3409   4.202   0.245  16.497 -0.2319  0.7464 -0.2718
  221MPD1    C4 3410   4.107   0.160  16.550 -0.3040  0.7029 -0.0655
  221MPD1    C5 3411   3.991   0.204  16.591  0.3047 -0.3121  0.2752
  221MPD1     H 3412   4.247   0.439  16.418 -0.1962 -0.3820 -0.3310
  221MPD1    H1 3413   4.139   0.059  16.573 -1.5498  0.2958 -0.1079
  221MPD1    H2 3414   3.867   0.371  16.614 -0.9349  1.3636 -2.2116
  221MPD1    H3 3415   3.911   0.137  16.621  0.4577 -1.4088 -1.7835
  221MPD1     N 3416   4.323   0.188  16.457 -0.5982  0.0949  0.0138
  221MPD1    H5 3417   4.329   0.093  16.492  2.5177 -0.5309 -2.1821
  221MPD1    N1 3418   4.008   0.553  16.469 -0.1472  0.3509  0.1659
  221MPD1    H6 3419   4.054   0.599  16.390 -0.7350 -1.6128 -1.3087
  221MPD1    H7 3420   3.911   0.584  16.470  0.0583  1.0033 -0.4903
  222MPD1     C 3421   2.911   2.486   0.700 -0.7738 -0.0065 -0.6521
  222MPD1    C1 3422   2.975   2.564   0.609  0.7236  0.1325  0.2862
  222MPD1    C2 3423   2.962   2.701   0.621  0.1248 -0.3690  0.2000
  222MPD1    C3 3424   2.878   2.756   0.716  0.4467  0.7462  0.4587
  222MPD1    C4 3425   2.814   2.675   0.803  0.0685  0.4874  1.1205
  222MPD1    C5 3426   2.830   2.541   0.798 -0.0118 -0.6652 -0.5063
  222MPD1     H 3427   3.009   2.762   0.545 -3.5686  1.4791 -0.6051
  222MPD1    H1 3428   2.742   2.717   0.872 -0.0239  2.0126  0.0976
  222MPD1    H2 3429   2.922   2.379   0.695 -1.8876 -0.0493 -2.4526
  222MPD1    H3 3430   2.785   2.474   0.871  0.1514  1.2401  1.3420
  222MPD1     N 3431   2.849   2.893   0.727  0.0257  0.4404  0.1154
  222MPD1    H5 3432   2.782   2.929   0.794 -1.8335 -0.7458 -1.0772
  222MPD1    N1 3433   3.063   2.502   0.514 -0.3646 -0.4472  0.1189
  222MPD1    H6 3434   3.079   2.558   0.430 -0.6884 -2.4567 -1.2709
  222MPD1    H7 3435   3.018   2.418   0.480 -1.1479 -0.2427  0.6274
  223MPD1     C 3436   2.581   3.362   1.390  0.2068  0.4347 -0.0645
  223MPD1    C1 3437   2.690   3.281   1.362 -0.3704  0.0920 -0.3972
  223MPD1    C2 3438   2.723   3.262   1.231 -0.2404  0.2647 -1.0426
  223MPD1    C3 3439   2.643   3.315   1.135 -0.8149 -0.6505 -0.1642
  223MPD1    C4 3440   2.529   3.393   1.163  0.1312 -0.0291 -0.1381
  223MPD1    C5 3441   2.502   3.414   1.294  0.4454 -0.2349 -0.2156
  223MPD1     H 3442   2.805   3.193   1.214  1.0357  1.8695 -1.4649
  223MPD1    H1 3443   2.462   3.435   1.088  0.1512 -1.4354 -0.9563
  223MPD1    H2 3444   2.557   3.394   1.491 -1.8490 -0.8481 -0.1548
  223MPD1    H3 3445   2.433   3.493   1.321  0.4081  0.4910 -2.4536
  223MPD1     N 3446   2.672   3.271   1.004  0.4626 -0.1326  0.2491
  223MPD1    H5 3447   2.754   3.212   0.998 -0.6512 -1.4458 -2.4880
  223MPD1    N1 3448   2.782   3.258   1.463  0.2534  0.3506 -0.4191
  223MPD1    H6 3449   2.835   3.172   1.445 -1.7623 -0.9963  0.0690
  223MPD1    H7 3450   2.732   3.247   1.551 -0.6491 -0.9786 -1.0946
  224MPD1     C 3451   0.981   1.106   9.846 -0.5032 -1.0764 -0.0486
  224MPD1    C1 3452   0.853   1.147   9.812  1.0087  0.0961 -0.0424
  224MPD1    C2 3453   0.748   1.063   9.836  0.2977  0.1176 -0.2615
  224MPD1    C3 3454   0.776   0.946   9.897  0.3324  0.1839 -0.3931
  224MPD1    C4 3455   0.901   0.910   9.932 -0.2702  0.0003  1.0688
  224MPD1    C5 3456   1.007   0.991   9.917  0.1810  0.3813  0.3148
  224MPD1     H 3457   0.646   1.086   9.806  1.0563  1.7801 -1.6064
  224MPD1    H1 3458   0.911   0.815   9.984 -1.0442 -0.1255  0.9889
  224MPD1    H2 3459   1.071   1.150   9.804 -1.3214  0.1743 -0.5031
  224MPD1    H3 3460   1.108   0.957   9.937  0.2607 -1.2961 -2.8411
  224MPD1     N 3461   0.665   0.849   9.916 -0.9055  0.3407 -0.3288
  224MPD1    H5 3462   0.691   0.752   9.930 -0.1296  0.5256 -0.4925
  224MPD1    N1 3463   0.835   1.254   9.726 -0.7224 -0.6067 -0.4771
  224MPD1    H6 3464   0.896   1.330   9.759 -0.2690 -1.0384 -0.3211
  224MPD1    H7 3465   0.740   1.288   9.712 -0.7904 -0.2552  0.8889
  225MPD1     C 3466   1.950   1.016  13.235  0.3147  0.8931 -0.3933
  225MPD1    C1 3467   1.938   1.085  13.118  0.5523 -0.5288  0.2243
  225MPD1    C2 3468   1.824   1.167  13.096 -0.2854 -0.1063  0.1182
  225MPD1    C3 3469   1.713   1.153  13.181 -0.6119 -0.0022  0.0095
  225MPD1    C4 3470   1.721   1.064  13.287 -0.2659  0.1566 -0.6291
  225MPD1    C5 3471   1.839   1.000  13.313  0.8114 -0.2333 -0.9970
  225MPD1     H 3472   1.839   1.247  13.024 -1.0709 -0.6228 -0.6110
  225MPD1    H1 3473   1.634   1.047  13.349  1.6498  1.3205  2.3460
  225MPD1    H2 3474   2.043   0.967  13.262 -0.5825 -0.4500  0.2242
  225MPD1    H3 3475   1.852   0.943  13.404 -2.8688 -0.1547 -0.4337
  225MPD1     N 3476   1.585   1.215  13.156  0.0086  0.8498  0.1401
  225MPD1    H5 3477   1.501   1.190  13.207 -0.0065 -2.0263 -1.3095
  225MPD1    N1 3478   2.054   1.118  13.038  0.1942 -0.2852  0.7417
  225MPD1    H6 3479   2.035   1.135  12.940  2.2702  0.7734  0.5305
  225MPD1    H7 3480   2.136   1.060  13.049  0.7566  0.7232  1.8746
  226MPD1     C 3481   0.459   2.219  10.293 -0.4690  0.6388 -0.1601
  226MPD1    C1 3482   0.499   2.116  10.211  0.1828  0.4443  0.2460
  226MPD1    C2 3483   0.413   2.066  10.114 -0.0971  0.1174  0.1413
  226MPD1    C3 3484   0.286   2.118  10.113 -0.1024 -0.2737  0.9887
  226MPD1    C4 3485   0.243   2.213  10.201 -0.3028 -0.2366 -0.0894
  226MPD1    C5 3486   0.328   2.262  10.296  0.5947  0.1721  0.0499
  226MPD1     H 3487   0.447   1.984  10.052  0.5170 -0.5852  1.3959
  226MPD1    H1 3488   0.136   2.228  10.208  0.0007  1.5206  0.5838
  226MPD1    H2 3489   0.524   2.254  10.372 -0.8945 -0.9496  0.8860
  226MPD1    H3 3490   0.306   2.344  10.362 -1.7563  0.0788 -0.6139
  226MPD1     N 3491   0.207   2.068  10.003  0.2659 -0.2946  0.1477
  226MPD1    H5 3492   0.253   2.004   9.940 -0.4934 -0.2376 -0.4551
  226MPD1    N1 3493   0.634   2.073  10.219  0.4264  0.0154 -0.5075
  226MPD1    H6 3494   0.681   2.093  10.307  0.9840 -0.5321 -0.6732
  226MPD1    H7 3495   0.651   1.972  10.212  0.7064 -0.1774  3.3136
  227MPD1     C 3496   4.183   2.271   9.324 -0.2629  0.1569  0.0925
  227MPD1    C1 3497   4.309   2.320   9.325 -1.1077 -0.2303  0.2782
  227MPD1    C2 3498   4.410   2.269   9.407  0.0350  0.3550 -0.4184
  227MPD1    C3 3499   4.382   2.169   9.497 -1.1226  0.0863  0.2723
  227MPD1    C4 3500   4.257   2.113   9.494 -0.0166 -0.3191  0.5903
  227MPD1    C5 3501   4.159   2.175   9.417  0.0808  0.0760 -0.6831
  227MPD1     H 3502   4.513   2.304   9.413  0.3103 -0.5645  0.4033
  227MPD1    H1 3503   4.222   2.024   9.545  1.2667 -1.2598 -0.1559
  227MPD1    H2 3504   4.099   2.304   9.264  0.4758  1.0284 -0.4689
  227MPD1    H3 3505   4.054   2.149   9.427  0.2364 -0.5134 -0.5948
  227MPD1     N 3506   4.480   2.121   9.585  0.1740 -0.0423 -0.0110
  227MPD1    H5 3507   4.567   2.174   9.592  0.6998 -1.0797  1.3241
  227MPD1    N1 3508   4.343   2.409   9.219  0.4877 -0.2606 -0.1071
  227MPD1    H6 3509   4.258   2.454   9.186 -0.3848 -1.0043  1.1521
  227MPD1    H7 3510   4.422   2.468   9.244  2.3981 -2.3326 -1.2772
  228MPD1     C 3511   2.853   4.031  13.293  0.1012 -0.4003 -0.0632
  228MPD1    C1 3512   2.792   4.048  13.170 -0.2184 -0.2022 -0.5595
  228MPD1    C2 3513   2.663   3.997  13.160 -0.5569 -0.1313 -0.2599
  228MPD1    C3 3514   2.604   3.916  13.255  0.1125 -0.5945 -0.2824
  228MPD1    C4 3515   2.670   3.901  13.372 -0.0910 -0.1380  0.1739
  228MPD1    C5 3516   2.798   3.954  13.393  0.2198  0.3324  0.1762
  228MPD1     H 3517   2.611   4.015  13.066 -1.1757 -1.7284 -0.2321
  228MPD1    H1 3518   2.617   3.853  13.454 -2.0231 -1.0118 -1.5605
  228MPD1    H2 3519   2.952   4.075  13.308  0.1340  0.1754 -1.9968
  228MPD1    H3 3520   2.862   3.940  13.479  0.3902  0.3941  0.0596
  228MPD1     N 3521   2.475   3.864  13.224  0.4204  0.1919 -0.3444
  228MPD1    H5 3522   2.441   3.886  13.130  1.2519  1.5807 -0.3062
  228MPD1    N1 3523   2.841   4.151  13.084  0.2613 -0.3063 -0.4240
  228MPD1    H6 3524   2.815   4.142  12.986 -1.2887 -0.9510  0.0444
  228MPD1    H7 3525   2.942   4.158  13.086  0.1298  1.9537 -2.5033
  229MPD1     C 3526   2.818   2.432  13.840  0.0263 -0.3309 -0.0295
  229MPD1    C1 3527   2.709   2.440  13.925  0.5679 -0.2520 -0.5160
  229MPD1    C2 3528   2.733   2.436  14.063 -0.6483  0.0845 -0.1181
  229MPD1    C3 3529   2.864   2.449  14.108  0.0787 -1.1129 -0.3371
  229MPD1    C4 3530   2.971   2.447  14.018 -0.4074  0.6285 -0.5187
  229MPD1    C5 3531   2.946   2.431  13.887 -0.1712 -0.0113 -0.1504
  229MPD1     H 3532   2.653   2.441  14.137 -0.7759 -2.3004 -0.1052
  229MPD1    H1 3533   3.073   2.455  14.051  0.1721 -0.0826 -2.1220
  229MPD1    H2 3534   2.810   2.410  13.734 -0.7347 -1.2046  0.2139
  229MPD1    H3 3535   3.021   2.423  13.810  1.1184  0.6215  1.0499
  229MPD1     N 3536   2.921   2.447  14.241  0.2774 -0.3227  0.6437
  229MPD1    H5 3537   3.021   2.439  14.254  0.0761  0.2390  2.5395
  229MPD1    N1 3538   2.582   2.410  13.870 -0.4715  0.5163 -0.5898
  229MPD1    H6 3539   2.575   2.429  13.770  1.7958 -1.4813 -1.1360
  229MPD1    H7 3540   2.508   2.443  13.931 -0.5477  2.6025 -1.8360
  230MPD1     C 3541   2.669   2.145  15.278 -0.0736  0.5545  0.2188
  230MPD1    C1 3542   2.756   2.052  15.229 -0.0998  0.6448  0.5381
  230MPD1    C2 3543   2.798   2.077  15.097  0.0766 -0.2864  0.2150
  230MPD1    C3 3544   2.779   2.198  15.028 -0.8522 -0.3039  0.6422
  230MPD1    C4 3545   2.706   2.296  15.090 -0.1930 -0.4186 -0.1388
  230MPD1    C5 3546   2.650   2.265  15.211  0.1447 -0.8071 -0.3457
  230MPD1     H 3547   2.858   2.001  15.049 -1.2689 -0.3100 -1.4249
  230MPD1    H1 3548   2.698   2.394  15.046 -0.7581  0.8925  2.9130
  230MPD1    H2 3549   2.612   2.125  15.367 -0.6578 -0.8346 -0.4629
  230MPD1    H3 3550   2.594   2.341  15.263  0.3830 -1.0795  0.3228
  230MPD1     N 3551   2.827   2.212  14.889  0.0709  0.2160 -0.4541
  230MPD1    H5 3552   2.875   2.130  14.855  1.8095  1.1004 -0.1039
  230MPD1    N1 3553   2.762   1.934  15.297  0.5647 -0.0429  0.7475
  230MPD1    H6 3554   2.781   1.944  15.396 -1.5196 -1.2908  1.2669
  230MPD1    H7 3555   2.838   1.877  15.260 -0.9773 -0.7468 -1.3290
  231MPD1     C 3556   1.597   4.573  15.387 -0.2286  0.4038  0.7363
  231MPD1    C1 3557   1.538   4.488  15.296 -0.2485  0.3086  0.8874
  231MPD1    C2 3558   1.523   4.534  15.164 -0.0850  0.0430  0.7133
  231MPD1    C3 3559   1.574   4.660  15.124  0.5216 -0.0430 -0.2106
  231MPD1    C4 3560   1.641   0.007  15.217  0.1180  0.7933  0.1942
  231MPD1    C5 3561   1.643   4.695  15.347  0.2880  0.1622 -0.4431
  231MPD1     H 3562   1.469   4.481  15.087  1.9625 -0.5004 -0.3118
  231MPD1    H1 3563   1.695   0.097  15.190  0.2791  0.4602 -0.6068
  231MPD1    H2 3564   1.612   4.552  15.492  3.3693  1.0277  0.3691
  231MPD1    H3 3565   1.700   0.016  15.420 -0.2367 -0.8159  0.7437
  231MPD1     N 3566   1.571   4.698  14.983  0.0420  0.0876  0.6955
  231MPD1    H5 3567   1.535   4.629  14.918  1.2444 -1.7547  1.9763
  231MPD1    N1 3568   1.476   4.368  15.338  0.0223  0.0027  0.4851
  231MPD1    H6 3569   1.533   4.326  15.411  0.9700 -0.5476 -0.5776
  231MPD1    H7 3570   1.476   4.304  15.259 -0.6194  2.8807 -1.8314
  232MPD1     C 3571   2.687   2.039   0.504  0.4609  0.5617  0.4142
  232MPD1    C1 3572   2.632   2.161   0.462  0.4297  0.4721  0.2309
  232MPD1    C2 3573   2.502   2.157   0.409 -0.7193  0.6849  0.3138
  232MPD1    C3 3574   2.429   2.046   0.373  0.5896 -0.1975 -0.2986
  232MPD1    C4 3575   2.490   1.928   0.411  0.0504  0.7122  0.2087
  232MPD1    C5 3576   2.614   1.929   0.471  0.7845  0.2362 -0.2481
  232MPD1     H 3577   2.452   2.247   0.375 -2.0983 -0.5309 -0.8937
  232MPD1    H1 3578   2.448   1.830   0.388  1.0098  0.5450 -0.8428
  232MPD1    H2 3579   2.782   2.022   0.554 -0.2146  1.4152  1.9874
  232MPD1    H3 3580   2.653   1.829   0.486  0.0455  0.2299  1.5873
  232MPD1     N 3581   2.313   2.056   0.297 -0.4572  0.6067 -0.0141
  232MPD1    H5 3582   2.269   2.147   0.283  1.0026  1.3827  0.4284
  232MPD1    N1 3583   2.700   2.282   0.488 -0.1571  0.8402  0.8779
  232MPD1    H6 3584   2.675   2.354   0.420  0.2976 -0.7977 -1.0215
  232MPD1    H7 3585   2.799   2.266   0.499  0.0134  1.2052 -0.0835
  233MPD1     C 3586   3.107   0.095   0.516  0.5332  0.4067 -0.1925
  233MPD1    C1 3587   3.216   0.113   0.430 -0.2824 -0.3431  0.8328
  233MPD1    C2 3588   3.342   0.080   0.477 -0.4374  0.3185  0.2521
  233MPD1    C3 3589   3.364   0.037   0.608  0.2605  0.8416  0.6348
  233MPD1    C4 3590   3.255   0.042   0.696  0.2926 -0.9436  0.3470
  233MPD1    C5 3591   3.128   0.060   0.645 -0.7751 -0.1573 -1.0316
  233MPD1     H 3592   3.427   0.071   0.410 -1.8724  0.2187 -1.5582
  233MPD1    H1 3593   3.260   0.018   0.802  0.4378 -0.8924  0.3527
  233MPD1    H2 3594   3.008   0.096   0.471  0.5233  0.8906 -0.1572
  233MPD1    H3 3595   3.047   0.031   0.710 -1.4661  0.6813 -1.5220
  233MPD1     N 3596   3.483   0.005   0.675  0.0074  0.5423  0.2118
  233MPD1    H5 3597   3.478   4.710   0.771 -2.1914 -0.9108 -0.3784
  233MPD1    N1 3598   3.192   0.121   0.292  0.0065 -0.7459 -0.7034
  233MPD1    H6 3599   3.111   0.182   0.275  0.8557  1.0774  1.6922
  233MPD1    H7 3600   3.269   0.152   0.233  1.9968  0.6441  2.6061
  234MPD1     C 3601   1.101   3.877   9.285 -0.2057 -0.1872 -0.8580
  234MPD1    C1 3602   1.104   3.925   9.408  0.3576 -0.5645 -0.8432
  234MPD1    C2 3603   1.036   4.034   9.446 -0.1061 -0.3111  0.3307
  234MPD1    C3 3604   0.968   4.111   9.351  0.1925  0.1281  0.4953
  234MPD1    C4 3605   0.968   4.062   9.218  0.5661 -0.1947  0.3072
  234MPD1    C5 3606   1.029   3.946   9.187 -0.3109  0.2213  0.6545
  234MPD1     H 3607   1.033   4.067   9.549 -0.2522  1.7678 -0.3520
  234MPD1    H1 3608   0.936   4.126   9.136  0.8716 -0.9471 -0.4020
  234MPD1    H2 3609   1.160   3.789   9.261 -1.5884 -1.2612 -0.3599
  234MPD1    H3 3610   1.034   3.910   9.085  0.6838  1.4920  0.2608
  234MPD1     N 3611   0.893   4.223   9.399 -0.5001 -0.1833  0.1573
  234MPD1    H5 3612   0.919   4.250   9.494  1.6715 -0.0637 -0.4786
  234MPD1    N1 3613   1.173   3.854   9.501  0.1538  0.4566  0.0667
  234MPD1    H6 3614   1.218   3.914   9.570  3.1996 -0.7722 -0.8730
  234MPD1    H7 3615   1.246   3.796   9.460 -0.4160 -2.1575  2.7986
  235MPD1     C 3616   1.790   1.336  10.876  0.6163 -0.0488  0.1593
  235MPD1    C1 3617   1.894   1.349  10.969 -0.0645  0.5474  0.5675
  235MPD1    C2 3618   1.942   1.474  10.987 -0.7871  0.1633  0.5475
  235MPD1    C3 3619   1.895   1.582  10.921  0.3943 -0.2877 -0.4379
  235MPD1    C4 3620   1.789   1.564  10.836  0.4416 -0.0310 -0.2013
  235MPD1    C5 3621   1.735   1.442  10.815  0.3653 -0.4897 -0.1164
  235MPD1     H 3622   2.026   1.484  11.055 -1.0089  1.8904  0.5757
  235MPD1    H1 3623   1.751   1.640  10.768  3.3330  1.8263  0.2397
  235MPD1    H2 3624   1.750   1.237  10.856 -1.1711  1.2022 -2.3924
  235MPD1    H3 3625   1.663   1.437  10.734 -1.1119  0.5631  1.1292
  235MPD1     N 3626   1.941   1.719  10.942 -0.4033 -0.4794 -0.8586
  235MPD1    H5 3627   1.904   1.790  10.879 -0.7524 -1.9894 -2.3520
  235MPD1    N1 3628   1.966   1.242  11.025 -0.0152 -0.2813 -0.2536
  235MPD1    H6 3629   1.914   1.154  11.028  0.3645 -0.4739  0.7712
  235MPD1    H7 3630   2.007   1.257  11.117  1.9448 -0.3773 -1.1242
  236MPD1     C 3631   0.745   3.632   9.926 -0.0890 -0.0711  0.1703
  236MPD1    C1 3632   0.741   3.497   9.902 -0.7215 -0.9966 -0.1163
  236MPD1    C2 3633   0.843   3.415   9.950 -0.3706 -1.1080 -0.3911
  236MPD1    C3 3634   0.962   3.475  10.001 -0.1204  0.1828  0.3827
  236MPD1    C4 3635   0.962   3.611  10.016 -0.1901  0.0648 -0.0124
  236MPD1    C5 3636   0.857   3.690   9.980  0.5443  0.2618 -0.7252
  236MPD1     H 3637   0.836   3.308   9.936 -0.9922 -1.3637  1.8427
  236MPD1    H1 3638   1.051   3.664  10.047 -0.0197 -1.3981  2.0002
  236MPD1    H2 3639   0.669   3.707   9.907 -0.5270 -0.5603 -0.0276
  236MPD1    H3 3640   0.862   3.798   9.993  1.3971  0.2400 -0.8679
  236MPD1     N 3641   1.075   3.402  10.044 -0.1518  0.2672 -0.6327
  236MPD1    H5 3642   1.161   3.450  10.067  0.1550  0.4126 -2.0933
  236MPD1    N1 3643   0.613   3.442   9.863 -0.6863 -0.1422  0.3923
  236MPD1    H6 3644   0.634   3.367   9.796 -1.5085  0.2769 -0.3255
  236MPD1    H7 3645   0.548   3.509   9.824 -1.6213 -0.1726  1.8781
  237MPD1     C 3646   1.827   1.149  14.963  0.4391  0.1842  0.3138
  237MPD1    C1 3647   1.826   1.032  15.032 -0.1979 -0.4539  0.4191
  237MPD1    C2 3648   1.709   0.988  15.090 -0.1029  0.8121 -0.4421
  237MPD1    C3 3649   1.593   1.061  15.076  0.1527  0.2038  0.2096
  237MPD1    C4 3650   1.592   1.182  15.002  0.2596  0.0807  0.1033
  237MPD1    C5 3651   1.717   1.225  14.953 -0.5628 -0.1671 -0.5017
  237MPD1     H 3652   1.701   0.902  15.155  0.5079  2.3791  1.7063
  237MPD1    H1 3653   1.503   1.242  14.987  2.0033  2.6667  0.1571
  237MPD1    H2 3654   1.921   1.171  14.914  0.4629  1.5011  0.9431
  237MPD1    H3 3655   1.720   1.318  14.898 -2.6706 -0.5641 -1.3078
  237MPD1     N 3656   1.471   1.014  15.120  0.5090 -0.1470  0.0273
  237MPD1    H5 3657   1.391   1.063  15.083 -1.6046 -2.1500  1.9837
  237MPD1    N1 3658   1.944   0.952  15.031  0.2590 -0.1321 -0.2488
  237MPD1    H6 3659   1.939   0.898  15.117  0.8852  0.7925  0.3594
  237MPD1    H7 3660   2.027   1.009  15.014  0.9058 -0.3251  2.2511
  238MPD1     C 3661   3.454   0.131  14.905 -1.0379  0.4267  0.2728
  238MPD1    C1 3662   3.410   0.082  15.031 -0.3022  0.4494  1.1305
  238MPD1    C2 3663   3.314   4.717  15.025 -0.4913 -0.8912  0.1360
  238MPD1    C3 3664   3.255   4.674  14.906  0.0434  0.0859  0.2745
  238MPD1    C4 3665   3.307   4.723  14.786  0.7008  0.4433 -0.8408
  238MPD1    C5 3666   3.406   0.078  14.791 -0.3522 -0.2809 -0.0098
  238MPD1     H 3667   3.268   4.682  15.116  0.1414 -1.1909  0.3386
  238MPD1    H1 3668   3.290   4.678  14.689 -1.8098  3.5056 -1.8039
  238MPD1    H2 3669   3.528   0.210  14.899 -0.8566  0.1845 -0.6443
  238MPD1    H3 3670   3.453   0.119  14.702 -1.6113  0.6236 -0.2560
  238MPD1     N 3671   3.158   4.574  14.897  0.5429 -0.2619  0.5538
  238MPD1    H5 3672   3.125   4.543  14.806 -0.3161  1.9177  0.0958
  238MPD1    N1 3673   3.486   0.108  15.147  0.2268 -0.3161 -0.5165
  238MPD1    H6 3674   3.541   0.194  15.145  1.2939 -0.9142  2.9756
  238MPD1    H7 3675   3.441   0.099  15.238  1.2251 -2.0252 -0.1960
  239MPD1     C 3676   3.043   0.676  15.370  0.4506  0.0935 -0.4888
  239MPD1    C1 3677   3.032   0.812  15.343  0.0994 -0.0486 -0.5002
  239MPD1    C2 3678   3.008   0.844  15.211  0.3821 -0.4502  0.3782
  239MPD1    C3 3679   2.980   0.750  15.109  0.1043 -0.7499 -0.0846
  239MPD1    C4 3680   2.975   0.617  15.143  1.1123  1.0492  0.2581
  239MPD1    C5 3681   3.012   0.582  15.272 -0.5098  0.1733  0.0089
  239MPD1     H 3682   3.013   0.949  15.181  2.6961 -0.4789  0.6199
  239MPD1    H1 3683   2.949   0.538  15.073  0.2571  1.2614  0.3405
  239MPD1    H2 3684   3.052   0.637  15.470 -1.4519  0.8749 -0.0063
  239MPD1    H3 3685   3.013   0.478  15.304  0.7861  0.6271  1.4594
  239MPD1     N 3686   2.969   0.785  14.971 -0.2063 -0.0927 -0.1774
  239MPD1    H5 3687   2.980   0.708  14.907 -2.3247 -0.1731 -0.4374
  239MPD1    N1 3688   3.073   0.903  15.440  0.3232 -0.7371 -0.1923
  239MPD1    H6 3689   3.033   0.996  15.424  2.2756 -0.0567 -1.1301
  239MPD1    H7 3690   3.031   0.877  15.529 -1.5847  3.6302  0.2139
  240MPD1     C 3691   2.780   0.417  14.024  0.6839  0.0730 -0.0279
  240MPD1    C1 3692   2.645   0.432  14.008  0.5623  0.7107 -0.0450
  240MPD1    C2 3693   2.557   0.353  14.085 -0.5912 -0.4414 -0.0133
  240MPD1    C3 3694   2.607   0.277  14.191  0.0160 -0.6670  0.8025
  240MPD1    C4 3695   2.745   0.278  14.207 -0.5139  0.3163  0.2039
  240MPD1    C5 3696   2.831   0.347  14.129  0.2494  0.4755  0.2323
  240MPD1     H 3697   2.450   0.356  14.068 -0.9667  1.6520  2.6898
  240MPD1    H1 3698   2.791   0.217  14.285  1.7204  0.6676 -0.8225
  240MPD1    H2 3699   2.837   0.455  13.940 -1.7591  1.0091 -1.2364
  240MPD1    H3 3700   2.939   0.340  14.128  0.1788 -0.6611  0.0101
  240MPD1     N 3701   2.520   0.219  14.285 -0.1776 -0.1187  0.6017
  240MPD1    H5 3702   2.426   0.248  14.262  1.0311  1.3345 -2.4689
  240MPD1    N1 3703   2.600   0.503  13.898  0.1540 -0.1822  0.6106
  240MPD1    H6 3704   2.672   0.569  13.868 -0.7914 -0.0332 -1.3539
  240MPD1    H7 3705   2.508   0.546  13.895  0.1006 -0.4603 -1.7740
  241MPD1     C 3706   2.247   0.040  15.338  0.1592  0.2090 -0.4179
  241MPD1    C1 3707   2.242   0.162  15.264  0.0800 -0.2406 -0.3377
  241MPD1    C2 3708   2.254   0.147  15.121 -0.1782  0.4094  0.2332
  241MPD1    C3 3709   2.273   0.027  15.061 -0.2647 -0.2761  0.0939
  241MPD1    C4 3710   2.287   4.652  15.148 -0.7734 -0.5557  0.2828
  241MPD1    C5 3711   2.283   4.658  15.285  0.2997  0.5400  0.0536
  241MPD1     H 3712   2.244   0.242  15.070  0.3753 -0.0502 -0.7333
  241MPD1    H1 3713   2.281   4.552  15.106 -1.1922 -0.4397  0.0583
  241MPD1    H2 3714   2.222   0.041  15.443  1.3067  1.1285 -0.1522
  241MPD1    H3 3715   2.287   4.567  15.345 -0.9956  0.1928 -0.3856
  241MPD1     N 3716   2.287   0.014  14.921 -0.4772  0.2671 -0.8632
  241MPD1    H5 3717   2.256   4.657  14.892  0.0049 -0.2962  0.4402
  241MPD1    N1 3718   2.199   0.284  15.318  0.0513  0.0029  0.3691
  241MPD1    H6 3719   2.265   0.353  15.282  0.5666 -1.7278 -1.9880
  241MPD1    H7 3720   2.212   0.296  15.419 -0.7331  0.9562  0.3608
  242MPD1     C 3721   1.993   3.634  15.959 -0.3615  0.7507 -0.3911
  242MPD1    C1 3722   2.048   3.512  15.944 -0.2219 -0.9365 -0.7630
  242MPD1    C2 3723   2.147   3.502  15.846 -0.0748 -0.1993 -0.9431
  242MPD1    C3 3724   2.173   3.608  15.755  0.0696  0.0643 -0.1536
  242MPD1    C4 3725   2.103   3.722  15.757  0.1763  0.0558  0.1942
  242MPD1    C5 3726   2.010   3.730  15.859  0.0145 -0.0854 -0.2202
  242MPD1     H 3727   2.193   3.404  15.838  0.7740 -0.0457  2.0576
  242MPD1    H1 3728   2.103   3.806  15.689  1.7207  0.5823  0.8764
  242MPD1    H2 3729   1.921   3.651  16.038 -1.5827  1.4115 -1.6607
  242MPD1    H3 3730   1.946   3.816  15.873  0.9861  0.6960 -0.5758
  242MPD1     N 3731   2.268   3.593  15.649 -0.4078  0.4165  0.3527
  242MPD1    H5 3732   2.267   3.653  15.566 -0.9807 -0.1204 -0.0244
  242MPD1    N1 3733   2.013   3.405  16.033 -0.3052 -0.4519  0.8352
  242MPD1    H6 3734   2.021   3.314  15.988  0.9766  0.3421 -0.5246
  242MPD1    H7 3735   1.921   3.415  16.076 -0.4111  0.5279  0.3878
  243MPD1     C 3736   2.808   1.878  17.633 -0.3883 -0.1327  0.4862
  243MPD1    C1 3737   2.767   1.744  17.635  0.0768 -0.9171  0.3342
  243MPD1    C2 3738   2.858   1.643  17.600  0.4582  0.0584  0.4124
  243MPD1    C3 3739   2.988   1.675  17.570 -0.6223 -0.8438 -0.3190
  243MPD1    C4 3740   3.027   1.806  17.575 -0.2967 -0.5035  0.2832
  243MPD1    C5 3741   2.939   1.905  17.610  0.0958  0.4170 -0.0934
  243MPD1     H 3742   2.824   1.543  17.622  0.9491 -0.7878 -2.7288
  243MPD1    H1 3743   3.131   1.832  17.560  0.1578 -1.8812  1.0209
  243MPD1    H2 3744   2.746   1.955  17.677 -0.3144 -0.2787  0.8468
  243MPD1    H3 3745   2.964   2.011  17.606 -0.0934  0.3784 -2.2236
  243MPD1     N 3746   3.084   1.572  17.551 -0.1418 -0.2915 -0.3595
  243MPD1    H5 3747   3.049   1.478  17.564 -0.1494  0.0332  1.8440
  243MPD1    N1 3748   2.645   1.713  17.703  0.4430  0.4096 -0.1869
  243MPD1    H6 3749   2.575   1.784  17.685  0.8440  0.7983 -0.2237
  243MPD1    H7 3750   2.606   1.627  17.666  0.6626 -0.0392  0.6010
  244MPD1     C 3751   3.842   1.371   0.290 -0.4864 -0.6169 -0.1008
  244MPD1    C1 3752   3.853   1.458   0.182 -0.3036 -0.2751 -0.1866
  244MPD1    C2 3753   3.765   1.460   0.078  0.5739  0.2246  0.0194
  244MPD1    C3 3754   3.653   1.375   0.086 -0.0781 -0.3855  0.0795
  244MPD1    C4 3755   3.640   1.297   0.197 -0.4907  0.0950  0.4479
  244MPD1    C5 3756   3.735   1.285   0.293 -0.4682 -0.3260  0.5671
  244MPD1     H 3757   3.793   1.516  17.734 -1.0526 -0.9097 -1.2427
  244MPD1    H1 3758   3.553   1.234   0.208  0.4597 -1.6852 -2.0214
  244MPD1    H2 3759   3.922   1.356   0.361 -0.5458 -0.6847 -0.0483
  244MPD1    H3 3760   3.732   1.217   0.377  0.5294 -0.2355  0.6773
  244MPD1     N 3761   3.551   1.375  17.731 -0.3261  0.5072 -0.5802
  244MPD1    H5 3762   3.546   1.449  17.662 -0.4213  1.0614  0.0211
  244MPD1    N1 3763   3.970   1.537   0.169  0.1719 -0.8478  0.3351
  244MPD1    H6 3764   4.025   1.537   0.256  0.8667  0.4912 -0.0976
  244MPD1    H7 3765   4.033   1.496   0.101  1.0087 -1.6879  1.6066
  245MPD1     C 3766   0.521   2.052  13.658 -0.2711 -0.2665  0.0164
  245MPD1    C1 3767   0.573   2.075  13.784  0.3919  0.1023 -0.3603
  245MPD1    C2 3768   0.632   2.201  13.808  0.2087  0.5865 -0.4028
  245MPD1    C3 3769   0.621   2.311  13.727  0.0271 -0.2243  0.3097
  245MPD1    C4 3770   0.557   2.286  13.607 -0.7034 -0.5121  0.4043
  245MPD1    C5 3771   0.515   2.158  13.574 -0.2239  0.6662 -0.4050
  245MPD1     H 3772   0.683   2.218  13.902  0.4783 -0.8964 -0.2752
  245MPD1    H1 3773   0.551   2.362  13.530 -0.2141 -1.7663 -0.8544
  245MPD1    H2 3774   0.487   1.955  13.622 -0.4707  0.7544 -2.5784
  245MPD1    H3 3775   0.482   2.146  13.472 -0.6633  2.4013 -0.4676
  245MPD1     N 3776   0.664   2.437  13.771  0.2376 -0.0861 -0.3364
  245MPD1    H5 3777   0.682   2.443  13.871  0.3998 -0.4913 -0.3417
  245MPD1    N1 3778   0.604   1.964  13.866  0.4464  0.2407 -0.5885
  245MPD1    H6 3779   0.623   1.983  13.964  1.3310  0.6039 -0.8262
  245MPD1    H7 3780   0.523   1.903  13.867  1.7834 -1.5152  1.2219
  246MPD1     C 3781   0.043   4.275   8.359 -0.0876 -0.6416 -0.0864
  246MPD1    C1 3782   0.122   4.366   8.417  0.0991  0.0302 -0.0614
  246MPD1    C2 3783   0.258   4.340   8.421 -1.1455 -0.8751 -0.1561
  246MPD1    C3 3784   0.294   4.205   8.399  0.8270  0.4235 -0.2791
  246MPD1    C4 3785   0.207   4.102   8.374  0.5268 -0.0535 -0.3980
  246MPD1    C5 3786   0.088   4.149   8.329 -1.0103 -0.5668 -0.0822
  246MPD1     H 3787   0.336   4.411   8.444 -1.4249 -0.0124 -1.8952
  246MPD1    H1 3788   0.245   4.003   8.353  0.7651 -0.0560  0.0396
  246MPD1    H2 3789   4.677   4.304   8.336 -0.8590 -2.2259  1.3480
  246MPD1    H3 3790   0.019   4.080   8.284 -1.3935  0.4512 -1.0407
  246MPD1     N 3791   0.439   4.187   8.403  0.4539  0.2687 -0.1758
  246MPD1    H5 3792   0.487   4.270   8.436 -2.7946  2.6783 -1.4798
  246MPD1    N1 3793   0.069   4.486   8.455  0.0257 -0.2032 -0.1480
  246MPD1    H6 3794   0.124   4.530   8.529  0.6027  1.6047 -1.6587
  246MPD1    H7 3795   4.712   4.481   8.495  0.0633 -2.8418 -0.4436
  247MPD1     C 3796   0.457   2.710  16.944  0.2896 -0.1136  0.6395
  247MPD1    C1 3797   0.490   2.762  16.820  0.0457 -0.4780 -1.1666
  247MPD1    C2 3798   0.466   2.681  16.712  0.2476 -0.8210  1.0481
  247MPD1    C3 3799   0.437   2.549  16.726  0.3956  0.1061 -0.3031
  247MPD1    C4 3800   0.430   2.490  16.849 -0.3348  0.2063 -0.0492
  247MPD1    C5 3801   0.438   2.572  16.964 -0.3577 -0.6282 -1.1702
  247MPD1     H 3802   0.472   2.730  16.615  0.8111  0.5080  1.7549
  247MPD1    H1 3803   0.403   2.387  16.871 -1.4665  0.6658  0.6958
  247MPD1    H2 3804   0.473   2.771  17.032 -1.4361 -0.4504  1.1820
  247MPD1    H3 3805   0.437   2.539  17.067 -1.7554 -1.8843 -1.6001
  247MPD1     N 3806   0.419   2.463  16.618  0.1908  0.0435 -0.3828
  247MPD1    H5 3807   0.411   2.366  16.646  1.1188  0.1211  0.1180
  247MPD1    N1 3808   0.518   2.900  16.812 -0.3179  0.3303 -0.4074
  247MPD1    H6 3809   0.573   2.917  16.896 -1.4157  0.2428  0.3274
  247MPD1    H7 3810   0.580   2.915  16.732 -0.6728  1.1601 -0.5276
  248MPD1     C 3811   4.614   2.099  16.951  0.2838  0.1326 -0.4319
  248MPD1    C1 3812   4.588   2.164  17.071 -0.7948  0.0843  0.3901
  248MPD1    C2 3813   4.650   2.121  17.187  0.0218  0.8316  0.9456
  248MPD1    C3 3814   4.734   2.012  17.193 -0.4475  0.4776 -0.0050
  248MPD1    C4 3815   0.015   1.939  17.072 -0.2955  0.3898 -0.3198
  248MPD1    C5 3816   4.689   1.982  16.955 -1.1198  0.2542 -0.8132
  248MPD1     H 3817   4.639   2.179  17.279 -0.4298  1.1513  0.6882
  248MPD1    H1 3818   0.045   1.836  17.060 -0.9416 -0.2585  3.7197
  248MPD1    H2 3819   4.569   2.123  16.856 -0.6865  0.0233 -0.0005
  248MPD1    H3 3820   4.702   1.925  16.864 -0.4053 -2.4638  0.9821
  248MPD1     N 3821   0.055   1.967  17.318 -0.0083 -0.1981  0.5651
  248MPD1    H5 3822   0.031   2.018  17.402  1.1290  3.2418 -1.2036
  248MPD1    N1 3823   4.519   2.286  17.065  0.1765  0.2667 -0.1380
  248MPD1    H6 3824   4.488   2.305  17.160  0.4945  0.4106 -0.0645
  248MPD1    H7 3825   4.439   2.281  17.002  0.1162  1.9082 -0.2010
  249MPD1     C 3826   4.008   2.438  10.981 -0.3127  0.5903 -0.5620
  249MPD1    C1 3827   4.039   2.304  10.956 -0.6205 -0.1796 -0.0754
  249MPD1    C2 3828   3.962   2.223  10.877  0.1099  0.1736  0.4305
  249MPD1    C3 3829   3.854   2.279  10.813 -0.3866  0.0670  0.3633
  249MPD1    C4 3830   3.834   2.415  10.817  0.1245  0.4781 -0.5302
  249MPD1    C5 3831   3.909   2.492  10.910  0.2460 -0.0439 -0.0119
  249MPD1     H 3832   3.982   2.117  10.867  0.4154  0.7101 -4.6216
  249MPD1    H1 3833   3.764   2.475  10.760 -0.4085 -0.8175 -1.2361
  249MPD1    H2 3834   4.054   2.501  11.057 -1.4923  1.9286 -0.9651
  249MPD1    H3 3835   3.892   2.599  10.904  1.0120  0.0785 -0.0942
  249MPD1     N 3836   3.778   2.188  10.732 -0.3166 -0.1470  0.1015
  249MPD1    H5 3837   3.806   2.091  10.746  0.4322 -0.0262 -0.5774
  249MPD1    N1 3838   4.142   2.254  11.037 -0.3127 -0.3325  0.3668
  249MPD1    H6 3839   4.205   2.324  11.076 -0.3196 -0.4603  0.6102
  249MPD1    H7 3840   4.193   2.175  10.995  1.8118  1.0449  0.3473
  250MPD2     C 3841   4.450   1.423  12.907 -0.4590 -0.5195 -0.1337
  250MPD2    C1 3842   4.356   1.423  13.009  0.2250 -0.9924 -0.1452
  250MPD2    C2 3843   4.279   1.306  13.029  0.6734 -0.5487  0.0984
  250MPD2    C3 3844   4.304   1.192  12.957 -0.0381 -0.2153 -0.0301
  250MPD2    C4 3845   4.392   1.198  12.844 -0.5784  0.5029  0.5415
  250MPD2    C5 3846   4.463   1.314  12.824  0.6570  0.0169 -0.1354
  250MPD2     H 3847   4.212   1.311  13.114  1.7062  0.8207  0.8339
  250MPD2    H1 3848   4.390   1.124  12.765 -1.2206  2.9963 -1.7997
  250MPD2    H2 3849   4.500   1.513  12.875  0.0733 -0.7460  0.0721
  250MPD2    H3 3850   4.523   1.312  12.734 -1.2302 -0.2220 -1.3976
  250MPD2     N 3851   4.232   1.071  12.987 -0.2092 -0.1033 -0.6962
  250MPD2    H5 3852   4.243   0.995  12.920  0.8667  0.6708 -1.3955
  250MPD2    N1 3853   4.333   1.545  13.069 -0.4335 -0.1170 -0.1712
  250MPD2    H7 3854   4.397   1.623  13.055  0.2310  0.2928  4.9911
  251TMC3    C1 3855   4.251   1.700  13.226  0.3079 -0.8814 -0.2507
  251TMC3    C2 3856   4.140   1.741  13.291  0.3498  0.3508 -0.6557
  251TMC3    C3 3857   4.158   1.768  13.420 -0.7592 -0.3873  0.1446
  251TMC3    C4 3858   4.376   1.691  13.282  0.3055 -0.6781  0.2271
  251TMC3    C5 3859   4.396   1.727  13.409 -0.3995  0.6973  0.6714
  251TMC3    C6 3860   4.282   1.763  13.488 -0.7271  0.1387 -0.2627
  251TMC3     C 3861   4.223   1.584  13.141  0.2524  0.1938  0.2940
  251TMC3     O 3862   4.114   1.532  13.163  0.7943  0.5987 -0.0419
  251TMC3     H 3863   4.044   1.738  13.241  1.0705  1.4337 -2.0940
  251TMC3    H1 3864   4.460   1.632  13.246  0.5265 -0.6329  0.6674
  251TMC3    H2 3865   4.283   1.770  13.596  3.0288  0.4221 -0.3257
  251TMC3    C7 3866   4.522   1.696  13.457  0.5549  0.0006 -0.6050
  251TMC3    C8 3867   4.060   1.852  13.492 -0.1444 -0.1036  0.3372
  251TMC3    O1 3868   4.531   1.666  13.577  0.2806  0.1268 -0.4275
  251TMC3    O2 3869   4.094   1.928  13.586  0.4426 -0.4183  0.0000
  252TMC3    C1 3870   4.175   2.628   9.445  0.6772 -0.4717  1.1229
  252TMC3    C2 3871   4.313   2.651   9.461  0.1241  0.9205  0.4255
  252TMC3    C3 3872   4.381   2.590   9.568 -0.6142  0.0396  0.3644
  252TMC3    C4 3873   4.114   2.541   9.530  0.1401  0.6134 -0.1525
  252TMC3    C5 3874   4.192   2.467   9.620 -0.0965  0.1994 -0.5198
  252TMC3    C6 3875   4.321   2.497   9.652  0.3172  0.2371  0.4682
  252TMC3     C 3876   4.100   2.698   9.336 -0.0175 -0.3656  0.1925
  252TMC3     O 3877   4.164   2.760   9.251  0.1522 -0.3517  0.6142
  252TMC3     H 3878   4.354   2.728   9.397 -0.5781  1.4531  0.6089
  252TMC3    H1 3879   4.009   2.520   9.517  0.5879 -1.9495  0.3009
  252TMC3    H2 3880   4.381   2.429   9.711  0.6426 -0.4094 -0.6016
  252TMC3    C7 3881   4.110   2.383   9.712 -0.4045 -0.2516 -0.3738
  252TMC3    C8 3882   4.524   2.619   9.576  0.4291 -0.9981 -0.4474
  252TMC3    O1 3883   3.987   2.396   9.712  0.2869  0.3363 -0.2293
  252TMC3    O2 3884   4.575   2.687   9.485 -0.2670 -0.4303  0.6403
  253MPD2     C 3885   0.613   0.912  15.068 -0.4470  0.5935 -0.5103
  253MPD2    C1 3886   0.477   0.924  15.089  0.1430 -0.3706 -0.6748
  253MPD2    C2 3887   0.429   0.977  15.205 -0.3359  0.4900 -0.2149
  253MPD2    C3 3888   0.513   1.037  15.301  0.3715 -0.2313 -0.1738
  253MPD2    C4 3889   0.648   1.032  15.274  0.3097  0.3138  0.0518
  253MPD2    C5 3890   0.695   0.976  15.155 -0.2241 -0.1006 -0.3745
  253MPD2     H 3891   0.321   0.986  15.215 -0.4296  0.2697 -1.0845
  253MPD2    H1 3892   0.720   1.072  15.344 -0.9162  0.2405  1.3626
  253MPD2    H2 3893   0.650   0.881  14.971  0.1117  1.5010 -0.5840
  253MPD2    H3 3894   0.802   0.984  15.143 -0.1668 -1.4757 -0.6893
  253MPD2     N 3895   0.468   1.119  15.403  0.3473  0.0639 -0.5941
  253MPD2    H5 3896   0.534   1.173  15.458 -2.0617  0.4010  1.9858
  253MPD2    N1 3897   0.378   0.886  14.994  0.5938 -0.5981  0.3124
  253MPD2    H7 3898   0.282   0.900  15.024  0.2682 -0.8607 -0.6125
  254TMC3    C1 3899   0.323   1.229  15.548 -0.1702  0.1193 -0.8393
  254TMC3    C2 3900   0.249   1.345  15.518 -0.3517  0.1529 -0.4957
  254TMC3    C3 3901   0.258   1.444  15.609 -0.1873  0.2678 -0.5394
  254TMC3    C4 3902   0.394   1.210  15.667  0.9461 -0.2604 -0.1017
  254TMC3    C5 3903   0.392   1.309  15.759 -0.7906 -0.0851  0.7645
  254TMC3    C6 3904   0.319   1.422  15.733  1.3389  0.2263  0.6378
  254TMC3     C 3905   0.337   1.123  15.454  0.1458  0.0505 -0.5416
  254TMC3     O 3906   0.238   1.071  15.404  0.2659  0.4949 -0.1490
  254TMC3     H 3907   0.199   1.363  15.423  3.3868 -0.5232 -2.5790
  254TMC3    H1 3908   0.465   1.128  15.678  0.2150 -0.4174  3.6659
  254TMC3    H2 3909   0.317   1.500  15.809  2.1754 -0.0960  0.9886
  254TMC3    C7 3910   0.444   1.288  15.891  0.3663 -0.1387  0.8637
  254TMC3    C8 3911   0.133   1.509  15.621 -0.8133  0.2298 -0.8030
  254TMC3    O1 3912   0.480   1.385  15.953 -0.5780 -0.4790  0.2705
  254TMC3    O2 3913   0.092   1.558  15.517  0.2651  0.0768  0.2649
  255MPD2     C 3914   3.537   3.526   9.423 -0.4595 -0.0236  0.2382
  255MPD2    C1 3915   3.670   3.560   9.451  0.1004  0.2211 -0.2321
  255MPD2    C2 3916   3.732   3.665   9.384  0.7208  0.1013  0.2381
  255MPD2    C3 3917   3.660   3.743   9.301  0.8312 -0.4941  0.0483
  255MPD2    C4 3918   3.525   3.710   9.276  0.1946 -0.7830 -0.6947
  255MPD2    C5 3919   3.468   3.601   9.336  0.1099 -0.2517  0.1085
  255MPD2     H 3920   3.837   3.689   9.395  0.6269  0.4902  0.2858
  255MPD2    H1 3921   3.467   3.769   9.206  1.4194  0.0774 -0.9914
  255MPD2    H2 3922   3.496   3.437   9.469  1.6788 -0.5758  1.1196
  255MPD2    H3 3923   3.367   3.576   9.308  0.8814 -3.2847  0.0590
  255MPD2     N 3924   3.728   3.846   9.229 -0.2065  0.8994  0.6139
  255MPD2    H5 3925   3.826   3.856   9.251  0.2071 -1.0970 -0.3910
  255MPD2    N1 3926   3.736   3.495   9.555 -0.0659 -0.5879 -0.4256
  255MPD2    H7 3927   3.694   3.410   9.591 -0.1313  0.0962  1.1533
  256TMC3    C1 3928   3.882   3.469   9.735 -0.2448 -0.5610  0.3157
  256TMC3    C2 3929   4.000   3.516   9.783  0.0703 -0.1937  0.0569
  256TMC3    C3 3930   4.009   3.558   9.913  0.5165 -0.2534 -0.4479
  256TMC3    C4 3931   3.779   3.455   9.818 -0.3908  0.0601  0.5850
  256TMC3    C5 3932   3.789   3.489   9.951 -0.0119  0.1195 -0.7375
  256TMC3    C6 3933   3.902   3.554   9.991  0.3659  0.2451  0.0857
  256TMC3     C 3934   3.850   3.536   9.613 -0.5373 -0.2924  0.0918
  256TMC3     O 3935   3.922   3.636   9.595 -0.5922  0.3829  0.2658
  256TMC3     H 3936   4.091   3.529   9.725 -0.4452 -1.1676 -0.9797
  256TMC3    H1 3937   3.678   3.432   9.787 -0.0293  1.4426 -1.6378
  256TMC3    H2 3938   3.909   3.594  10.092  5.1289  1.4144 -0.6858
  256TMC3    C7 3939   3.669   3.525  10.019 -0.7530 -0.8211  0.0470
  256TMC3    C8 3940   4.099   3.666   9.930  0.6211  0.9838  0.5320
  256TMC3    O1 3941   3.575   3.566   9.954 -0.6321 -0.7431 -0.2350
  256TMC3    O2 3942   4.211   3.633   9.891 -0.1388 -0.1548  0.2666
  257MPD2     C 3943   2.887   1.077  13.479 -0.8501  0.0053 -0.0128
  257MPD2    C1 3944   2.889   0.992  13.373  0.1596 -0.4795  0.0028
  257MPD2    C2 3945   2.853   0.859  13.384  1.4148  0.2769 -0.2985
  257MPD2    C3 3946   2.811   0.806  13.501  0.6298 -0.2397  0.1846
  257MPD2    C4 3947   2.813   0.893  13.610  0.5034 -0.1317  0.5990
  257MPD2    C5 3948   2.842   1.022  13.593 -0.0851  0.1199  1.1139
  257MPD2     H 3949   2.850   0.801  13.292  0.4225 -1.4318  0.8063
  257MPD2    H1 3950   2.787   0.861  13.711  1.5427 -0.9282  0.6101
  257MPD2    H2 3951   2.922   1.178  13.460  1.2101 -0.9214 -1.1819
  257MPD2    H3 3952   2.833   1.089  13.677 -3.8768  0.2715  0.5826
  257MPD2     N 3953   2.776   0.671  13.510 -0.1277  0.3585 -0.3228
  257MPD2    H5 3954   2.760   0.619  13.425 -0.6333 -0.5051  0.3044
  257MPD2    N1 3955   2.927   1.055  13.255  0.1810  0.0712 -0.0061
  257MPD2    H7 3956   2.932   1.156  13.244 -1.1950 -0.0331 -1.7187
  258TMC3    C1 3957   2.751   0.467  13.607 -0.6639 -0.3524 -0.0785
  258TMC3    C2 3958   2.656   0.453  13.512  0.4218 -0.3215 -0.0744
  258TMC3    C3 3959   2.667   0.334  13.442  0.0327 -0.1230 -0.0488
  258TMC3    C4 3960   2.847   0.382  13.641 -0.5133 -0.0105  0.0562
  258TMC3    C5 3961   2.863   0.269  13.563 -0.2780  0.4403 -0.5573
  258TMC3    C6 3962   2.771   0.245  13.464 -0.1629  0.0252 -0.2045
  258TMC3     C 3963   2.775   0.602  13.626  0.4388  0.2774  1.1012
  258TMC3     O 3964   2.816   0.635  13.738  0.5921 -0.2541  0.1750
  258TMC3     H 3965   2.579   0.526  13.490  0.4459 -0.2554  0.0601
  258TMC3    H1 3966   2.906   0.397  13.730  1.1073 -2.6285 -0.5855
  258TMC3    H2 3967   2.787   0.150  13.414  0.3874  0.0116 -0.0010
  258TMC3    C7 3968   2.924   0.145  13.621 -0.1798  0.5214  0.0401
  258TMC3    C8 3969   2.572   0.314  13.342  0.2167 -0.4589  0.4095
  258TMC3    O1 3970   2.899   0.032  13.566 -0.1541 -0.6753 -0.2368
  258TMC3    O2 3971   2.530   0.416  13.289  0.2512  0.1643  0.0583
  259MPD2     C 3972   1.836   2.567   0.908  0.4778 -0.1800 -0.1706
  259MPD2    C1 3973   1.822   2.465   0.814 -0.7095  0.0754  0.5302
  259MPD2    C2 3974   1.747   2.488   0.696 -0.2477 -0.4289  0.3592
  259MPD2    C3 3975   1.698   2.612   0.674 -1.0338 -0.2141  0.4308
  259MPD2    C4 3976   1.709   2.714   0.764 -0.0762  0.1378 -0.1427
  259MPD2    C5 3977   1.776   2.689   0.879 -0.7067 -1.2303  0.4235
  259MPD2     H 3978   1.732   2.407   0.625  2.2769 -0.0103 -0.6508
  259MPD2    H1 3979   1.646   2.803   0.760 -0.1924  0.1056  0.7728
  259MPD2    H2 3980   1.894   2.556   0.998  1.3890 -0.1270 -0.7585
  259MPD2    H3 3981   1.789   2.772   0.948  1.1794 -0.3232 -0.9946
  259MPD2     N 3982   1.611   2.622   0.565 -0.0076  0.5123  0.1793
  259MPD2    H5 3983   1.585   2.535   0.521 -1.3308  0.5804  0.8163
  259MPD2    N1 3984   1.864   2.336   0.857  0.1991  0.8509  0.4272
  259MPD2    H7 3985   1.917   2.336   0.944  1.4248  1.7941 -0.3157
  260TMC3    C1 3986   1.495   2.711   0.379 -0.2559 -0.6045 -0.1871
  260TMC3    C2 3987   1.520   2.812   0.290  0.0367 -0.2318  0.2916
  260TMC3    C3 3988   1.518   2.797   0.154 -0.4654  0.0562  0.0554
  260TMC3    C4 3989   1.461   2.589   0.332 -0.1512 -0.2165 -0.1041
  260TMC3    C5 3990   1.457   2.578   0.197 -0.2869  0.6993  0.0919
  260TMC3    C6 3991   1.484   2.676   0.110  0.2981 -0.2298  0.3268
  260TMC3     C 3992   1.567   2.734   0.499  0.1783  0.8808 -0.1851
  260TMC3     O 3993   1.601   2.848   0.522  0.0430  0.1528 -0.0050
  260TMC3     H 3994   1.524   2.910   0.336  0.6099 -0.6027  1.0235
  260TMC3    H1 3995   1.438   2.506   0.397  0.3283  0.3383  0.7616
  260TMC3    H2 3996   1.471   2.665   0.003  1.1920  0.6371  0.1273
  260TMC3    C7 3997   1.439   2.450   0.129 -0.0024  0.0134  0.5679
  260TMC3    C8 3998   1.651   2.830   0.101 -0.2517 -0.1399 -0.8364
  260TMC3    O1 3999   1.502   2.444   0.023 -0.3910  0.5872  0.2761
  260TMC3    O2 4000   1.705   2.919   0.167  0.1847  0.2345 -0.1132
  261MPD2     C 4001   3.560   0.632  12.767  0.4021  0.0242 -0.2258
  261MPD2    C1 4002   3.609   0.757  12.802 -0.3542 -0.4131  0.4441
  261MPD2    C2 4003   3.581   0.867  12.722  0.2877 -0.5303 -0.5998
  261MPD2    C3 4004   3.520   0.848  12.610  0.2589 -0.1190  0.0004
  261MPD2    C4 4005   3.473   0.727  12.567 -0.4134  0.2368 -0.3599
  261MPD2    C5 4006   3.488   0.626  12.652 -0.2020 -0.2908 -0.1161
  261MPD2     H 4007   3.608   0.967  12.753 -0.2134 -1.8599  4.1538
  261MPD2    H1 4008   3.435   0.705  12.468 -0.8948  1.1656 -0.3795
  261MPD2    H2 4009   3.558   0.546  12.833 -0.5865  0.8173  0.7733
  261MPD2    H3 4010   3.455   0.525  12.629 -0.6682  0.0913 -1.1360
  261MPD2     N 4011   3.517   0.963  12.527  0.2035 -0.1612  0.1301
  261MPD2    H5 4012   3.551   1.053  12.560  0.7455 -0.2810 -0.0983
  261MPD2    N1 4013   3.688   0.755  12.918 -0.6795 -0.7736 -0.1640
  261MPD2    H7 4014   3.700   0.667  12.968 -2.7947 -0.2394  1.3135
  262TMC3    C1 4015   3.503   1.091  12.332 -0.1212  0.5426  0.1332
  262TMC3    C2 4016   3.525   1.201  12.409  0.4451  0.2634  0.5989
  262TMC3    C3 4017   3.598   1.296  12.350 -0.2895  0.2624  0.1793
  262TMC3    C4 4018   3.557   1.073  12.208 -0.7083 -0.2564  0.3297
  262TMC3    C5 4019   3.642   1.166  12.150 -0.0348  0.1807 -0.2662
  262TMC3    C6 4020   3.649   1.283  12.221 -0.1965 -0.4652  0.6920
  262TMC3     C 4021   3.469   0.965  12.402 -0.0338 -0.4007  0.4861
  262TMC3     O 4022   3.416   0.880  12.334 -0.3155 -0.2150 -0.1248
  262TMC3     H 4023   3.485   1.213  12.509  0.6852 -1.1904  0.8711
  262TMC3    H1 4024   3.537   0.977  12.161  0.2181  0.2541 -1.1156
  262TMC3    H2 4025   3.716   1.359  12.182 -0.1195 -1.5043 -1.2275
  262TMC3    C7 4026   3.660   1.159  12.010  0.8985 -0.1720 -0.4095
  262TMC3    C8 4027   3.567   1.435  12.382  0.1834  0.2113  0.0399
  262TMC3    O1 4028   3.586   1.076  11.956  0.4087  0.2457 -0.7453
  262TMC3    O2 4029   3.643   1.521  12.353 -0.1812  0.3128  0.6774
  263MPD2     C 4030   4.644   0.107  11.133  0.0981 -0.1180  0.1581
  263MPD2    C1 4031   4.625   0.211  11.216 -0.5448 -0.2522  0.6111
  263MPD2    C2 4032   4.555   0.326  11.172 -0.1530  0.3875 -0.1278
  263MPD2    C3 4033   4.491   0.317  11.046 -0.1572  0.1657 -0.2251
  263MPD2    C4 4034   4.494   0.204  10.967 -0.1627  0.3962  0.3226
  263MPD2    C5 4035   4.583   0.106  11.010 -0.1700 -0.5670  0.3010
  263MPD2     H 4036   4.551   0.423  11.221 -1.2869 -0.1781  0.8825
  263MPD2    H1 4037   4.442   0.190  10.873  0.1431 -0.0196  0.2120
  263MPD2    H2 4038   4.704   0.020  11.157 -0.6727 -0.9775 -1.0008
  263MPD2    H3 4039   4.579   0.017  10.948  1.3146 -2.8614  3.4814
  263MPD2     N 4040   4.424   0.438  11.002 -0.4146  0.6457 -0.3465
  263MPD2    H5 4041   4.437   0.520  11.060  0.2451  0.9496 -0.9138
  263MPD2    N1 4042   4.696   0.225  11.337  0.2892  0.0282  0.3592
  263MPD2    H7 4043   0.032   0.158  11.357  0.2569  0.0166  0.4381
  264TMC3    C1 4044   4.304   0.578  10.855 -0.1687  0.2660 -0.2440
  264TMC3    C2 4045   4.210   0.626  10.949 -0.0047  0.2318 -0.2071
  264TMC3    C3 4046   4.130   0.722  10.897  0.6301  0.3815  0.6817
  264TMC3    C4 4047   4.304   0.609  10.723 -0.1747 -0.3242  0.0464
  264TMC3    C5 4048   4.230   0.711  10.677 -0.5717  0.4752 -0.5599
  264TMC3    C6 4049   4.140   0.769  10.772  0.2110  0.3355  0.0275
  264TMC3     C 4050   4.356   0.443  10.883 -0.3452 -0.3994  0.0089
  264TMC3     O 4051   4.344   0.366  10.792 -0.0427 -0.8527 -0.3091
  264TMC3     H 4052   4.211   0.593  11.053  1.2941  1.4869  0.1728
  264TMC3    H1 4053   4.364   0.552  10.652 -1.0267  1.7727 -2.3683
  264TMC3    H2 4054   4.086   0.860  10.746 -0.2598 -0.5112 -1.9066
  264TMC3    C7 4055   4.324   0.819  10.625 -0.3538  0.1361  0.0487
  264TMC3    C8 4056   4.060   0.802  10.990 -0.5566 -0.2742 -0.9037
  264TMC3    O1 4057   4.433   0.782  10.586  0.0069  0.2507  0.2033
  264TMC3    O2 4058   3.962   0.860  10.953  0.6674 -0.0349 -0.8426
  265MPD2     C 4059   1.618   0.554  15.634  0.5140 -0.5946 -0.3928
  265MPD2    C1 4060   1.641   0.655  15.541 -0.3412 -0.3273 -0.3284
  265MPD2    C2 4061   1.685   0.629  15.410  0.1766 -0.4129 -0.7657
  265MPD2    C3 4062   1.726   0.494  15.382 -0.1353  0.1137  0.1808
  265MPD2    C4 4063   1.702   0.396  15.475 -0.2667  0.6319 -0.3613
  265MPD2    C5 4064   1.651   0.426  15.600  0.1181 -0.2681  0.1793
  265MPD2     H 4065   1.701   0.714  15.345 -0.6782  0.1971 -0.1739
  265MPD2    H1 4066   1.727   0.292  15.458  0.7114  0.7698  0.2333
  265MPD2    H2 4067   1.568   0.562  15.729 -2.8419  0.6904 -2.2558
  265MPD2    H3 4068   1.652   0.353  15.680  2.2130  2.1408  2.3790
  265MPD2     N 4069   1.786   0.456  15.257 -0.1627 -0.1062  0.7584
  265MPD2    H5 4070   1.836   0.369  15.247 -0.9119 -0.3239 -1.0178
  265MPD2    N1 4071   1.604   0.782  15.572  0.7456  0.4491  0.3782
  265MPD2    H7 4072   1.628   0.849  15.500  0.8770  2.9537  2.7931
  266TMC3    C1 4073   1.541   0.969  15.710 -0.3431  1.0568  1.0963
  266TMC3    C2 4074   1.561   1.022  15.835  0.6760  0.0866 -0.4025
  266TMC3    C3 4075   1.576   1.158  15.849 -0.1255  0.2182  0.4090
  266TMC3    C4 4076   1.534   1.052  15.603  0.2683 -0.4316 -0.3026
  266TMC3    C5 4077   1.556   1.189  15.620 -0.1810 -0.1482  0.2460
  266TMC3    C6 4078   1.578   1.247  15.739  1.0121 -0.4450  0.4236
  266TMC3     C 4079   1.543   0.825  15.689  0.6608 -0.1799 -0.0355
  266TMC3     O 4080   1.507   0.763  15.792  0.3339  0.0744 -0.0458
  266TMC3     H 4081   1.575   0.952  15.916 -1.7971  1.1243  0.9237
  266TMC3    H1 4082   1.532   1.012  15.502  1.6740  2.6735 -1.5517
  266TMC3    H2 4083   1.592   1.354  15.750 -1.1842 -0.2509  1.2602
  266TMC3    C7 4084   1.544   1.270  15.496  0.8625  0.4401  0.7966
  266TMC3    C8 4085   1.638   1.201  15.976  0.1750 -0.4028 -0.7408
  266TMC3    O1 4086   1.488   1.222  15.399  0.4659  0.2142 -0.0039
  266TMC3    O2 4087   1.682   1.112  16.046 -0.0926 -0.1405  0.0859
  267MPD2     C 4088   3.001   2.115   0.148  0.0824  0.3149  0.0895
  267MPD2    C1 4089   3.093   2.216   0.136 -0.3239 -0.2998 -0.2267
  267MPD2    C2 4090   3.049   2.338   0.096  0.7775  0.0434  0.7882
  267MPD2    C3 4091   2.916   2.364   0.068 -0.2849  0.1572 -0.6345
  267MPD2    C4 4092   2.827   2.263   0.089  0.0466  0.6806  0.0734
  267MPD2    C5 4093   2.866   2.140   0.135  0.3833  0.5287 -0.3391
  267MPD2     H 4094   3.112   2.425   0.106 -0.2440  0.6622  1.8172
  267MPD2    H1 4095   2.722   2.286   0.078 -0.5404 -1.8075  0.6186
  267MPD2    H2 4096   3.027   2.019   0.193 -2.4794  0.0961  1.0984
  267MPD2    H3 4097   2.792   2.062   0.149  0.2169  0.6949 -0.2982
  267MPD2     N 4098   2.860   2.484   0.019 -0.3212 -0.1667  0.5998
  267MPD2    H5 4099   2.759   2.480   0.027 -0.3360 -0.9833 -0.0657
  267MPD2    N1 4100   3.221   2.182   0.175 -0.5753 -0.5247 -0.8778
  267MPD2    H7 4101   3.234   2.093   0.222  0.3389 -0.3962 -0.8880
  268TMC3    C1 4102   3.439   2.238   0.242  0.8780  0.8748 -0.0466
  268TMC3    C2 4103   3.548   2.312   0.204  0.3641  0.8547 -0.2124
  268TMC3    C3 4104   3.659   2.304   0.285  0.4339 -0.0734  0.0723
  268TMC3    C4 4105   3.436   2.160   0.357  0.1252 -0.0426  0.6872
  268TMC3    C5 4106   3.542   2.179   0.446  0.5899 -0.0887  0.8033
  268TMC3    C6 4107   3.653   2.251   0.412  0.3920 -0.4838  0.1769
  268TMC3     C 4108   3.321   2.268   0.157  0.1015 -0.9139 -0.4221
  268TMC3     O 4109   3.331   2.354   0.072 -0.3196 -0.2382 -0.2648
  268TMC3     H 4110   3.550   2.368   0.112 -0.8630  2.9534  1.0356
  268TMC3    H1 4111   3.343   2.112   0.384 -0.0616  0.6943  1.3665
  268TMC3    H2 4112   3.742   2.239   0.473 -0.3742  0.7903  1.5129
  268TMC3    C7 4113   3.578   2.062   0.526 -0.4486 -0.1312 -0.1652
  268TMC3    C8 4114   3.764   2.405   0.258 -0.2614 -0.0309  0.1051
  268TMC3    O1 4115   3.696   2.041   0.555  0.2710  0.0228  0.0569
  268TMC3    O2 4116   3.807   2.471   0.356  0.1081 -0.1912  0.4559
  269MPD2     C 4117   4.340   1.659  15.226 -0.3737 -0.0840  0.2659
  269MPD2    C1 4118   4.284   1.710  15.339 -0.4211 -0.1111  0.4940
  269MPD2    C2 4119   4.234   1.837  15.343 -0.7986 -0.2228 -0.4120
  269MPD2    C3 4120   4.230   1.914  15.226 -0.2161  0.3915  0.4511
  269MPD2    C4 4121   4.277   1.854  15.110 -0.2994  0.4949 -0.1082
  269MPD2    C5 4122   4.334   1.734  15.110 -0.1352 -0.0260  0.0843
  269MPD2     H 4123   4.194   1.881  15.434  0.7423 -2.0023  1.1362
  269MPD2    H1 4124   4.269   1.904  15.014 -0.7176 -0.9389 -0.8075
  269MPD2    H2 4125   4.368   1.554  15.218  2.0627  0.5913 -0.2357
  269MPD2    H3 4126   4.361   1.687  15.017 -2.0656  1.0245 -0.9889
  269MPD2     N 4127   4.172   2.045  15.234  0.2926 -0.3615 -0.0805
  269MPD2    H5 4128   4.118   2.060  15.318 -1.3564 -2.2363 -0.8108
  269MPD2    N1 4129   4.263   1.629  15.459 -0.5170 -0.1340  0.1413
  269MPD2    H7 4130   4.309   1.539  15.464  0.1378  0.1484 -0.7277
  270TMC3    C1 4131   4.135   1.544  15.633 -0.1810  0.4289  0.4493
  270TMC3    C2 4132   4.000   1.509  15.648  0.6831 -0.1552  0.2170
  270TMC3    C3 4133   3.975   1.383  15.678  0.0722  0.3353 -0.0050
  270TMC3    C4 4134   4.233   1.451  15.644  0.3112 -0.0265  0.0046
  270TMC3    C5 4135   4.202   1.326  15.688  0.3992  0.4781 -0.2128
  270TMC3    C6 4136   4.072   1.286  15.704 -0.2639  0.3754  1.2997
  270TMC3     C 4137   4.167   1.655  15.554  0.3278 -0.2368 -0.1273
  270TMC3     O 4138   4.091   1.752  15.563 -0.8421  0.4110 -0.2318
  270TMC3     H 4139   3.921   1.583  15.643  0.2051 -0.8708 -2.7846
  270TMC3    H1 4140   4.335   1.486  15.630  0.5609  0.7399  3.6807
  270TMC3    H2 4141   4.044   1.183  15.723  0.1117  0.2201  1.0108
  270TMC3    C7 4142   4.307   1.228  15.718 -0.1247  0.1654  0.6393
  270TMC3    C8 4143   3.844   1.338  15.629  0.5689 -0.5281  0.5707
  270TMC3    O1 4144   4.423   1.256  15.672  0.2127 -0.1778 -0.5051
  270TMC3    O2 4145   3.743   1.403  15.656  0.4926  0.6722 -0.0139
  271MPD2     C 4146   3.164   0.992  13.893  0.5123 -0.2649 -0.0986
  271MPD2    C1 4147   3.198   1.070  14.001  0.1457 -0.2073 -0.1294
  271MPD2    C2 4148   3.165   1.203  14.005  0.0336  0.3958  0.1925
  271MPD2    C3 4149   3.094   1.260  13.896  0.4687  0.2100 -0.0082
  271MPD2    C4 4150   3.088   1.191  13.781  0.1449  0.4104 -0.1125
  271MPD2    C5 4151   3.121   1.056  13.782 -0.3780 -0.3155  0.5475
  271MPD2     H 4152   3.189   1.257  14.095 -0.6232  0.3870  0.3729
  271MPD2    H1 4153   3.039   1.233  13.694  0.2127 -1.9799 -1.2900
  271MPD2    H2 4154   3.184   0.886  13.884  1.3371 -0.2258  1.1927
  271MPD2    H3 4155   3.099   0.997  13.694 -4.3322  2.5059 -0.3537
  271MPD2     N 4156   3.039   1.389  13.895 -0.7270 -0.2957  0.0068
  271MPD2    H5 4157   3.004   1.432  13.810 -0.5504 -1.5132 -0.6827
  271MPD2    N1 4158   3.263   1.006  14.110  0.2103 -0.4438 -0.1984
  271MPD2    H7 4159   3.285   1.066  14.189  0.0375 -0.7821  0.1056
  272TMC3    C1 4160   3.400   0.852  14.223  0.1176 -0.5272 -0.1422
  272TMC3    C2 4161   3.511   0.774  14.215  0.0823 -0.4659  0.3144
  272TMC3    C3 4162   3.586   0.761  14.334 -1.1719  0.5674  0.4741
  272TMC3    C4 4163   3.362   0.915  14.347  0.0258 -0.0633  0.7251
  272TMC3    C5 4164   3.443   0.885  14.460 -0.1410 -1.2369 -0.6048
  272TMC3    C6 4165   3.553   0.817  14.452 -0.1827  0.0807 -0.2158
  272TMC3     C 4166   3.336   0.888  14.097  1.3077  0.0749 -0.8300
  272TMC3     O 4167   3.368   0.825  13.995 -0.0976 -0.1925 -0.4881
  272TMC3     H 4168   3.547   0.729  14.123  1.2257 -2.5650  1.7673
  272TMC3    H1 4169   3.274   0.976  14.363  0.5318  1.0839 -0.7927
  272TMC3    H2 4170   3.608   0.790  14.540  2.0431  1.3239 -1.2422
  272TMC3    C7 4171   3.392   0.910  14.592  0.0216 -0.7263  0.0111
  272TMC3    C8 4172   3.719   0.696  14.314 -0.3454 -0.6130  0.1869
  272TMC3    O1 4173   3.268   0.894  14.598  0.0899 -0.0644  0.0170
  272TMC3    O2 4174   3.758   0.700  14.198  0.3295 -0.7997 -0.3006
  273MPD2     C 4175   4.680   3.855  11.492 -0.6341  0.1759  0.4454
  273MPD2    C1 4176   0.080   3.883  11.508  0.5170 -0.2257 -1.0142
  273MPD2    C2 4177   0.136   3.958  11.402  0.7326  0.2951 -0.8160
  273MPD2    C3 4178   0.076   3.976  11.278 -0.1993 -0.2435 -0.5102
  273MPD2    C4 4179   4.686   3.928  11.270 -0.0526 -0.1041 -0.1232
  273MPD2    C5 4180   4.615   3.881  11.375  0.1935 -0.6857 -0.4253
  273MPD2     H 4181   0.242   3.975  11.417  1.1278 -2.5002 -0.3918
  273MPD2    H1 4182   4.625   3.944  11.181  2.0171 -1.8484 -1.8795
  273MPD2    H2 4183   4.622   3.808  11.570 -1.6787  2.6492  1.1512
  273MPD2    H3 4184   4.511   3.855  11.360  0.2707 -0.4898 -1.3365
  273MPD2     N 4185   0.140   4.048  11.167 -0.2315  0.0044  0.1911
  273MPD2    H5 4186   0.086   4.035  11.082  1.1412 -0.2312 -0.6481
  273MPD2    N1 4187   0.147   3.855  11.630  0.1918  0.4829  0.6166
  273MPD2    H7 4188   0.083   3.830  11.704 -0.6039  0.3212 -0.1244
  274TMC3    C1 4189   0.281   4.205  11.064  0.4243  0.2297  0.0968
  274TMC3    C2 4190   0.204   4.207  10.951 -0.3601 -0.0115 -0.0913
  274TMC3    C3 4191   0.235   4.306  10.859 -0.3682 -0.2354  0.2292
  274TMC3    C4 4192   0.369   4.307  11.089 -0.0047  0.6602 -0.0489
  274TMC3    C5 4193   0.393   4.403  10.995  0.6925  0.4962 -0.9833
  274TMC3    C6 4194   0.333   4.400  10.873 -0.0100  0.0545 -0.0585
  274TMC3     C 4195   0.253   4.127  11.185 -0.0031  0.2140  0.2294
  274TMC3     O 4196   0.315   4.148  11.290  0.4429  0.3916  0.1581
  274TMC3     H 4197   0.137   4.124  10.932 -1.1193  0.5375  0.1636
  274TMC3    H1 4198   0.424   4.307  11.182  0.7032  1.1164 -0.4648
  274TMC3    H2 4199   0.335   4.487  10.808  1.0697  1.1972  1.5195
  274TMC3    C7 4200   0.462   4.528  11.025  0.4870 -0.6731 -0.4568
  274TMC3    C8 4201   0.148   4.303  10.738  0.2155 -0.0063  0.0196
  274TMC3    O1 4202   0.489   4.596  10.926  0.4489  0.0435  0.0839
  274TMC3    O2 4203   0.038   4.255  10.753  0.0635 -0.5564  0.8274
  275MPD2     C 4204   0.025   2.071  14.984  0.1352 -0.0747  0.6230
  275MPD2    C1 4205   0.098   1.986  14.897 -0.1679 -0.4092  0.0076
  275MPD2    C2 4206   0.015   1.913  14.816  0.3580 -0.5782 -0.1825
  275MPD2    C3 4207   4.610   1.916  14.818 -0.2085  0.4181  0.0520
  275MPD2    C4 4208   4.544   1.994  14.900 -0.3940 -0.0333 -0.4258
  275MPD2    C5 4209   4.624   2.071  14.984  0.5232  0.0132  0.1767
  275MPD2     H 4210   0.062   1.850  14.741  0.2932 -0.6033 -0.2030
  275MPD2    H1 4211   4.438   2.013  14.906  0.0159  1.6962  1.5190
  275MPD2    H2 4212   0.075   2.141  15.050 -0.9139 -0.4749  1.8384
  275MPD2    H3 4213   4.560   2.133  15.046 -1.7699 -0.8986 -1.2475
  275MPD2     N 4214   4.528   1.842  14.732 -0.4439  0.0102  0.0174
  275MPD2    H5 4215   4.433   1.879  14.732  0.4085  2.2126 -0.6195
  275MPD2    N1 4216   0.242   1.978  14.888  0.1895 -0.1975 -0.6872
  275MPD2    H7 4217   0.276   1.906  14.825 -0.3752  0.2941 -1.5586
  276TMC3    C1 4218   0.464   2.024  14.938  0.6788 -0.6626  0.3358
  276TMC3    C2 4219   0.493   1.903  14.889 -0.6079 -0.6427 -0.5903
  276TMC3    C3 4220   0.626   1.888  14.864 -0.7490 -0.2451 -0.0716
  276TMC3    C4 4221   0.559   2.119  14.959 -0.2858 -0.5372  0.6039
  276TMC3    C5 4222   0.690   2.104  14.934  0.1858 -0.3144 -0.4105
  276TMC3    C6 4223   0.728   1.980  14.888 -0.1887 -0.0001 -0.5264
  276TMC3     C 4224   0.328   2.065  14.948  0.2775  0.2474  0.6319
  276TMC3     O 4225   0.305   2.168  15.005 -0.1197 -0.1085  0.2331
  276TMC3     H 4226   0.423   1.820  14.891 -0.2602 -0.9329 -0.4854
  276TMC3    H1 4227   0.530   2.211  15.008  0.7743  0.1541 -0.0845
  276TMC3    H2 4228   0.833   1.964  14.864 -0.4431 -0.5247 -1.3062
  276TMC3    C7 4229   0.784   2.184  15.007 -0.1804 -0.3540 -0.5106
  276TMC3    C8 4230   0.674   1.752  14.867  1.6750 -0.7880 -0.2027
  276TMC3    O1 4231   0.736   2.226  15.113  0.6139  0.4035 -0.4674
  276TMC3    O2 4232   0.786   1.731  14.909 -0.6735 -0.1565  0.6519
  277MPD2     C 4233   2.400   0.958  13.413 -0.0632 -0.1730 -0.9380
  277MPD2    C1 4234   2.281   1.011  13.458 -0.2129 -0.0400 -0.6530
  277MPD2    C2 4235   2.220   0.957  13.576 -0.6256  0.7545 -0.2140
  277MPD2    C3 4236   2.276   0.858  13.649  0.2487 -0.3301  0.0886
  277MPD2    C4 4237   2.396   0.816  13.611 -0.2845  0.0866  0.5908
  277MPD2    C5 4238   2.456   0.867  13.497  0.9170  0.0503  0.7921
  277MPD2     H 4239   2.128   0.998  13.616 -0.1850  0.4671  1.1055
  277MPD2    H1 4240   2.452   0.735  13.655 -1.1822  0.7425  2.9540
  277MPD2    H2 4241   2.442   0.999  13.321  0.0706 -0.2347 -0.9052
  277MPD2    H3 4242   2.548   0.818  13.466  1.0445  0.0699  1.1320
  277MPD2     N 4243   2.214   0.818  13.769 -0.0888 -0.6316 -0.1947
  277MPD2    H5 4244   2.119   0.850  13.789  0.2809  0.5681 -0.3758
  277MPD2    N1 4245   2.226   1.123  13.394  0.2811  0.4051  0.2692
  277MPD2    H7 4246   2.271   1.147  13.306  0.2853  1.1214  0.4636
  278TMC3    C1 4247   2.168   0.695  13.960 -0.0555  0.2547 -0.0274
  278TMC3    C2 4248   2.133   0.566  13.973 -0.5068  0.0877 -0.3939
  278TMC3    C3 4249   2.005   0.542  14.012 -0.1419  0.3874 -0.7590
  278TMC3    C4 4250   2.081   0.799  13.985 -0.2886 -0.0486  0.3061
  278TMC3    C5 4251   1.953   0.761  14.022  0.1991 -0.7161 -0.4938
  278TMC3    C6 4252   1.907   0.634  14.030 -0.3417 -0.3752 -0.1744
  278TMC3     C 4253   2.265   0.725  13.859  0.1599  0.3024  0.2023
  278TMC3     O 4254   2.374   0.669  13.858 -0.3599 -0.0280 -0.1994
  278TMC3     H 4255   2.206   0.487  13.962  0.8121  1.3795 -1.1137
  278TMC3    H1 4256   2.118   0.900  13.973 -1.0939  0.2419  0.2010
  278TMC3    H2 4257   1.810   0.607  14.070  0.2367  0.4852  1.8039
  278TMC3    C7 4258   1.866   0.874  14.069  0.4959 -0.1055 -0.4432
  278TMC3    C8 4259   1.962   0.400  13.989 -0.6298  0.2960  0.1421
  278TMC3    O1 4260   1.915   0.969  14.125 -0.4842  0.1025 -0.7254
  278TMC3    O2 4261   2.048   0.316  13.970 -0.2101 -0.1404 -0.4151
  279MPD2     C 4262   1.404   0.991   0.066 -0.2377 -0.6230  0.1968
  279MPD2    C1 4263   1.349   0.878   0.012 -0.6795 -0.6195  0.0996
  279MPD2    C2 4264   1.334   0.870  17.620  0.4380 -0.0528  0.0639
  279MPD2    C3 4265   1.388   0.965  17.537 -0.1677 -1.0004 -0.2671
  279MPD2    C4 4266   1.430   1.084  17.594  0.1276  0.6450  0.2753
  279MPD2    C5 4267   1.437   1.096  17.733  0.5804  0.2239 -0.8426
  279MPD2     H 4268   1.287   0.778  17.586 -0.4740 -0.3595  2.1721
  279MPD2    H1 4269   1.465   1.164  17.530 -0.5808  0.2433 -0.6155
  279MPD2    H2 4270   1.417   1.007   0.173 -0.7450  3.0689 -0.2869
  279MPD2    H3 4271   1.460   1.192   0.034  1.2616  0.5532 -1.9017
  279MPD2     N 4272   1.386   0.957  17.398  0.3158 -0.7891 -0.0765
  279MPD2    H5 4273   1.417   1.043  17.355 -0.7488 -0.5482 -0.3409
  279MPD2    N1 4274   1.291   0.784   0.108  0.0697 -0.3824 -0.2674
  279MPD2    H7 4275   1.292   0.810   0.206 -0.9615 -3.3603  0.5152
  280TMC3    C1 4276   1.129   0.634   0.180  0.7332  0.6294  0.3741
  280TMC3    C2 4277   1.071   0.513   0.163  1.0854  0.0938 -0.5690
  280TMC3    C3 4278   0.950   0.481   0.208 -0.6047  0.5162 -0.0001
  280TMC3    C4 4279   1.066   0.729   0.256 -0.3918  0.1537 -0.4573
  280TMC3    C5 4280   0.944   0.695   0.304 -0.6552 -0.6525 -0.0971
  280TMC3    C6 4281   0.880   0.581   0.272 -0.0649 -0.6008  0.5066
  280TMC3     C 4282   1.230   0.662   0.081  0.1567  0.2202 -0.1600
  280TMC3     O 4283   1.224   0.594  17.724 -0.1627 -0.2024 -0.1058
  280TMC3     H 4284   1.133   0.437   0.117  0.8203  0.8848 -2.2549
  280TMC3    H1 4285   1.091   0.834   0.259  2.0773 -0.4902  1.7626
  280TMC3    H2 4286   0.791   0.559   0.330 -1.0797  1.4608 -0.2520
  280TMC3    C7 4287   0.877   0.791   0.401  0.2611 -0.3872 -0.3931
  280TMC3    C8 4288   0.888   0.361   0.153  0.0536  0.1735  0.1855
  280TMC3    O1 4289   0.951   0.833   0.486  0.0498  0.3924 -0.3224
  280TMC3    O2 4290   0.962   0.310   0.070  0.3192 -0.1963 -0.4508
  281TMC3    C1 4291   4.708   1.621  13.850  0.5634 -1.1464 -0.1262
  281TMC3    C2 4292   0.095   1.575  13.805  0.2508  0.0452 -0.2385
  281TMC3    C3 4293   0.097   1.466  13.730 -0.2442 -0.0902  0.9053
  281TMC3    C4 4294   4.588   1.552  13.834  0.5862  0.5821  0.1707
  281TMC3    C5 4295   4.603   1.439  13.757  0.6998 -0.1605 -0.5005
  281TMC3    C6 4296   4.725   1.383  13.709 -0.6389  0.3178 -0.6833
  281TMC3     C 4297   4.685   1.757  13.889 -0.0468 -0.3859 -0.3055
  281TMC3     O 4298   0.026   1.812  13.967  0.1747 -0.1212  0.1564
  281TMC3     H 4299   0.182   1.633  13.832 -0.8193  1.6254 -0.2340
  281TMC3    H1 4300   4.494   1.601  13.856 -0.2503 -1.0856  0.2683
  281TMC3    H2 4301   4.734   1.287  13.659  0.4504 -0.5306  1.1389
  281TMC3    C7 4302   4.486   1.356  13.742  0.6904  0.0517 -0.0060
  281TMC3    C8 4303   0.214   1.430  13.656 -0.5413  0.3350 -0.0822
  281TMC3    O1 4304   4.378   1.409  13.765 -0.1386 -0.3104  0.6723
  281TMC3    O2 4305   0.258   1.323  13.699 -0.7748 -0.4449  0.1342
  282MPD2     C 4306   2.064   2.608  15.301 -0.6824  0.2053 -0.1176
  282MPD2    C1 4307   1.935   2.641  15.304  0.1546  0.0442 -1.0126
  282MPD2    C2 4308   1.853   2.626  15.198  0.3825 -0.0127  1.0145
  282MPD2    C3 4309   1.908   2.581  15.076  0.0071  0.7500  0.3114
  282MPD2    C4 4310   2.040   2.532  15.070 -0.4198 -0.2415  0.4710
  282MPD2    C5 4311   2.117   2.552  15.186 -0.0542  0.0451  0.4761
  282MPD2     H 4312   1.755   2.673  15.206  1.0477  1.9642 -2.7495
  282MPD2    H1 4313   2.089   2.487  14.984 -0.5494  0.9995 -0.2487
  282MPD2    H2 4314   2.125   2.608  15.391 -1.4560 -1.5261  0.4062
  282MPD2    H3 4315   2.219   2.516  15.194 -0.1210 -0.4293 -0.7389
  282MPD2     N 4316   1.829   2.578  14.963 -0.2387 -0.2448  0.2930
  282MPD2    H5 4317   1.730   2.599  14.967  0.6719  3.9161  1.0942
  282MPD2    N1 4318   1.869   2.677  15.421 -0.6852  0.1897  0.3208
  282MPD2    H7 4319   1.767   2.677  15.416 -0.6787  1.3692  0.3061
  283TMC3    C1 4320   1.818   2.728  15.638  0.4894 -0.1806  1.2634
  283TMC3    C2 4321   1.795   2.852  15.682 -0.3683 -0.3448 -0.3370
  283TMC3    C3 4322   1.690   2.882  15.758  0.3100 -0.2286  1.0187
  283TMC3    C4 4323   1.727   2.626  15.647 -0.2891 -0.3172  0.1993
  283TMC3    C5 4324   1.610   2.659  15.723  0.3852  0.0528 -0.0101
  283TMC3    C6 4325   1.594   2.784  15.782  0.6673  0.2530  0.1613
  283TMC3     C 4326   1.923   2.719  15.541  0.1576 -0.0251 -0.2049
  283TMC3     O 4327   2.037   2.755  15.568 -0.2139 -0.5614 -0.5312
  283TMC3     H 4328   1.870   2.927  15.663 -0.6954 -0.6103 -2.7488
  283TMC3    H1 4329   1.751   2.526  15.615  2.9281  0.7654 -0.7674
  283TMC3    H2 4330   1.498   2.807  15.828  1.1691  1.2263  0.7213
  283TMC3    C7 4331   1.525   2.551  15.761 -0.0879 -0.2068 -0.2514
  283TMC3    C8 4332   1.667   3.021  15.795  0.2064  0.5347 -0.4823
  283TMC3    O1 4333   1.461   2.574  15.862  0.5527 -0.2975 -0.6999
  283TMC3    O2 4334   1.618   3.052  15.905  0.6271  0.0799  0.2457
  284MPD2     C 4335   4.368   1.789  12.334  0.4505  0.5518 -0.6877
  284MPD2    C1 4336   4.467   1.881  12.286 -0.8073  0.6665 -0.0875
  284MPD2    C2 4337   4.581   1.899  12.362  0.3056 -0.1840  0.1835
  284MPD2    C3 4338   4.613   1.808  12.457  0.2907  0.2539 -0.5822
  284MPD2    C4 4339   4.512   1.720  12.505 -0.0545  0.0968  0.2206
  284MPD2    C5 4340   4.395   1.709  12.442  0.5736  0.1578  0.7058
  284MPD2     H 4341   4.659   1.970  12.337 -0.6170  0.0499 -2.0418
  284MPD2    H1 4342   4.535   1.658  12.591  0.8334  1.2341  0.8020
  284MPD2    H2 4343   4.266   1.785  12.298  0.0441 -2.3654  0.8175
  284MPD2    H3 4344   4.318   1.645  12.484  0.2762 -0.0136 -0.1044
  284MPD2     N 4345   0.004   1.801  12.522 -0.3349 -0.9444  0.2044
  284MPD2    H5 4346   0.003   1.758  12.614  0.1391 -1.7520 -0.1604
  284MPD2    N1 4347   4.447   1.969  12.185  0.6245 -0.1452  0.6272
  284MPD2    H7 4348   4.528   2.027  12.163 -0.1940  1.2514  1.2958
  285TMC3    C1 4349   4.355   2.042  11.983  0.3796  0.4147  0.3153
  285TMC3    C2 4350   4.270   2.023  11.880 -0.7490  0.1166 -0.0387
  285TMC3    C3 4351   4.291   2.098  11.768  0.4870  0.5074  0.4349
  285TMC3    C4 4352   4.428   2.161  11.999 -0.3260  0.0518  0.0845
  285TMC3    C5 4353   4.436   2.245  11.887 -0.3680  0.6884  0.1084
  285TMC3    C6 4354   4.365   2.214  11.770  0.5689  0.3672  0.1382
  285TMC3     C 4355   4.349   1.948  12.090 -0.9269  0.4786 -0.2421
  285TMC3     O 4356   4.264   1.863  12.076 -0.5046 -0.0012 -0.1147
  285TMC3     H 4357   4.202   1.939  11.873 -0.9643  0.3880 -1.3425
  285TMC3    H1 4358   4.468   2.194  12.094 -0.1316 -0.2417  0.1072
  285TMC3    H2 4359   4.390   2.272  11.682  2.5355 -0.1586  0.3580
  285TMC3    C7 4360   4.521   2.363  11.882  0.1860 -0.3308 -0.2620
  285TMC3    C8 4361   4.286   2.022  11.653 -0.1229  0.2080  0.6706
  285TMC3    O1 4362   4.493   2.450  11.799 -0.0835  0.1092 -0.3037
  285TMC3    O2 4363   4.252   1.906  11.672 -0.0926 -0.2783  0.5805
  286MPD2     C 4364   0.456   0.648   1.027  0.3795 -0.0687 -0.5871
  286MPD2    C1 4365   0.361   0.577   0.970 -0.2654 -0.2851  0.1598
  286MPD2    C2 4366   0.383   0.445   0.940 -0.3231  0.3594 -0.0168
  286MPD2    C3 4367   0.510   0.397   0.961  0.2765  0.1649  0.6910
  286MPD2    C4 4368   0.615   0.475   1.011  0.1650  0.3787 -0.3131
  286MPD2    C5 4369   0.587   0.605   1.037  0.5380 -0.0926  0.1607
  286MPD2     H 4370   0.310   0.371   0.910 -1.2977  1.1282  0.4541
  286MPD2    H1 4371   0.716   0.439   1.026 -0.1881 -0.4308  0.1258
  286MPD2    H2 4372   0.444   0.750   1.061  2.3449 -0.0611  0.0701
  286MPD2    H3 4373   0.669   0.662   1.079  0.1079  1.6490 -1.3416
  286MPD2     N 4374   0.545   0.262   0.938 -0.5845 -0.0815 -0.4143
  286MPD2    H5 4375   0.641   0.241   0.963 -0.8038  1.0553  1.3727
  286MPD2    N1 4376   0.226   0.614   0.952 -0.1307 -0.5107  0.4300
  286MPD2    H7 4377   0.168   0.544   0.906 -0.1031 -0.3746  0.1857
  287TMC3    C1 4378   0.519   0.037   0.887  0.3114  0.4481  0.4689
  287TMC3    C2 4379   0.516   4.694   0.778 -0.4084  0.1824 -0.9341
  287TMC3    C3 4380   0.547   4.560   0.798  0.8800  0.6113 -0.1671
  287TMC3    C4 4381   0.568   4.735   1.003  0.6969 -0.2656 -0.1151
  287TMC3    C5 4382   0.600   4.599   1.023  0.2410  0.0758 -0.0232
  287TMC3    C6 4383   0.581   4.506   0.922 -0.0322 -0.0157 -0.1604
  287TMC3     C 4384   0.474   0.164   0.865  0.3146  0.7240 -0.6107
  287TMC3     O 4385   0.376   0.182   0.791  0.2809 -0.1300  0.0556
  287TMC3     H 4386   0.503   0.004   0.681  0.2669  1.6738 -0.3060
  287TMC3    H1 4387   0.575   0.064   1.089  3.5976 -0.3987 -0.2397
  287TMC3    H2 4388   0.582   4.399   0.940  0.2953 -0.0597 -0.4504
  287TMC3    C7 4389   0.673   4.546   1.139  0.1142 -0.0653  0.5769
  287TMC3    C8 4390   0.530   4.462   0.689 -0.9557 -0.3277  0.1696
  287TMC3    O1 4391   0.736   4.444   1.123 -0.3546  0.1232  0.2637
  287TMC3    O2 4392   0.588   4.350   0.695  0.0357  0.1080 -0.0456
  288TMC3    C1 4393   2.609   0.593  14.420  0.5029  0.1204 -0.4255
  288TMC3    C2 4394   2.480   0.619  14.441 -0.1926  0.4608 -0.0890
  288TMC3    C3 4395   2.409   0.673  14.335 -0.2349  0.4061 -0.2934
  288TMC3    C4 4396   2.674   0.633  14.304 -0.1413 -1.0438  0.0083
  288TMC3    C5 4397   2.604   0.698  14.206  0.8197 -0.3390  0.4321
  288TMC3    C6 4398   2.470   0.717  14.219 -0.3691 -0.5747 -0.1431
  288TMC3     C 4399   2.671   0.511  14.521 -0.5447 -0.7171 -0.4593
  288TMC3     O 4400   2.618   0.504  14.631  0.4134 -0.3083  0.6129
  288TMC3     H 4401   2.425   0.573  14.522  0.4373  1.1290  0.7196
  288TMC3    H1 4402   2.781   0.632  14.290  0.0935 -0.1120  1.6817
  288TMC3    H2 4403   2.412   0.775  14.149  2.0856  1.3967 -0.5596
  288TMC3    C7 4404   2.676   0.795  14.129  0.7811 -0.3803 -0.1653
  288TMC3    C8 4405   2.268   0.711  14.344 -0.5607  0.6203 -0.3616
  288TMC3    O1 4406   2.780   0.831  14.181  0.1686 -0.1205  0.3596
  288TMC3    O2 4407   2.237   0.799  14.264  0.1377  0.9193  0.1943
  289MPD2     C 4408   2.050   4.302  14.604  1.0941  0.3761 -0.2285
  289MPD2    C1 4409   2.040   4.411  14.516 -0.0821  0.1336  0.3799
  289MPD2    C2 4410   1.930   4.412  14.428 -0.1138 -0.1196 -0.2888
  289MPD2    C3 4411   1.831   4.317  14.426  0.2137 -0.1569 -0.1070
  289MPD2    C4 4412   1.846   4.210  14.508 -0.2492 -1.1917 -0.2737
  289MPD2    C5 4413   1.954   4.203  14.595 -0.5396 -0.5822  0.0091
  289MPD2     H 4414   1.923   4.496  14.359 -2.1247 -0.5270 -0.5709
  289MPD2    H1 4415   1.774   4.130  14.516  0.2282 -1.5444  0.5260
  289MPD2    H2 4416   2.126   4.295  14.681  1.7582  0.8558 -0.8449
  289MPD2    H3 4417   1.961   4.121  14.665 -2.5499 -0.4795  0.3059
  289MPD2     N 4418   1.713   4.324  14.344 -0.0588 -0.4765 -0.2164
  289MPD2    H5 4419   1.661   4.236  14.347  1.3145 -1.3695 -3.3511
  289MPD2    N1 4420   2.137   4.510  14.525  0.5703  0.2735  0.7221
  289MPD2    H7 4421   2.209   4.477  14.589 -0.2983 -1.7159  0.6661
  290TMC3    C1 4422   1.558   4.405  14.179 -0.0972 -0.4728 -0.3418
  290TMC3    C2 4423   1.504   4.516  14.124  0.1139  0.8684 -0.1281
  290TMC3    C3 4424   1.391   4.493  14.048  0.1861 -0.7000  0.5487
  290TMC3    C4 4425   1.504   4.281  14.173  0.8738  0.2947  0.0199
  290TMC3    C5 4426   1.389   4.264  14.093 -0.2712 -0.6163  0.1383
  290TMC3    C6 4427   1.335   4.372  14.027  0.2422 -0.3859 -0.2524
  290TMC3     C 4428   1.671   4.431  14.271  0.2556 -0.1999 -0.3634
  290TMC3     O 4429   1.709   4.548  14.292 -0.2188 -0.3603  0.1619
  290TMC3     H 4430   1.550   4.614  14.131 -1.5892  1.6482  0.1571
  290TMC3    H1 4431   1.550   4.192  14.215 -0.3848 -1.4506 -2.3509
  290TMC3    H2 4432   1.239   4.380  13.977  0.5184 -0.0474 -0.7247
  290TMC3    C7 4433   1.292   4.157  14.122  1.3173  0.0371 -0.1253
  290TMC3    C8 4434   1.338   4.612  13.986 -0.4929  0.3154 -0.2657
  290TMC3    O1 4435   1.181   4.170  14.070  0.2851  0.4314 -0.6273
  290TMC3    O2 4436   1.310   4.613  13.868 -0.1737 -0.2431 -0.4164
  291MPD2     C 4437   1.213   3.949   0.883 -0.4432  0.4574  0.3099
  291MPD2    C1 4438   1.301   3.873   0.806  0.6179  0.6025  0.9398
  291MPD2    C2 4439   1.361   3.945   0.705  0.0989  0.1709 -0.5931
  291MPD2    C3 4440   1.336   4.078   0.674  0.6946  0.4773 -0.3405
  291MPD2    C4 4441   1.255   4.152   0.756  0.2429 -0.7782  0.5229
  291MPD2    C5 4442   1.191   4.085   0.861  0.0177  0.4131  0.0899
  291MPD2     H 4443   1.441   3.900   0.646  1.2295 -0.3136  1.3258
  291MPD2    H1 4444   1.242   4.258   0.735  1.8517 -0.3282  1.7356
  291MPD2    H2 4445   1.158   3.909   0.968  1.0428 -0.7647  0.6963
  291MPD2    H3 4446   1.122   4.131   0.931 -0.5600  0.2467 -0.3697
  291MPD2     N 4447   1.390   4.141   0.560  0.9754 -0.3102  0.3024
  291MPD2    H5 4448   1.379   4.242   0.564 -0.9777 -0.4592 -1.5387
  291MPD2    N1 4449   1.337   3.743   0.835  0.1238  0.1281 -0.5911
  291MPD2    H7 4450   1.413   3.699   0.783  0.2052  1.2435 -1.4164
  292TMC3    C1 4451   1.354   3.545   0.970 -0.7045 -0.4399 -0.6484
  292TMC3    C2 4452   1.344   3.504   1.102 -0.5920 -0.0120 -1.0253
  292TMC3    C3 4453   1.384   3.378   1.131 -0.2102  0.5699  0.5335
  292TMC3    C4 4454   1.400   3.466   0.869 -0.3639 -0.1801  0.4123
  292TMC3    C5 4455   1.436   3.335   0.898 -0.1747  0.2245 -0.7713
  292TMC3    C6 4456   1.432   3.294   1.028  0.1543  0.2638 -0.5610
  292TMC3     C 4457   1.287   3.678   0.946 -0.4776 -0.7418 -0.4512
  292TMC3     O 4458   1.204   3.711   1.030  0.3708  0.3104 -0.0355
  292TMC3     H 4459   1.288   3.568   1.169 -0.3169 -0.0578 -0.7535
  292TMC3    H1 4460   1.403   3.493   0.764  0.6208  1.7987  0.9463
  292TMC3    H2 4461   1.448   3.189   1.051  0.4716 -0.2915 -3.3213
  292TMC3    C7 4462   1.428   3.237   0.787  0.1444  0.2126  0.1356
  292TMC3    C8 4463   1.422   3.332   1.261 -0.5385  0.0093 -0.0509
  292TMC3    O1 4464   1.452   3.281   0.675  0.4693  0.1914  0.4810
  292TMC3    O2 4465   1.533   3.274   1.264  0.5275  0.1416 -0.0440
  293MPD2     C 4466   2.758   0.491  12.873 -0.2368  0.4060  0.5374
  293MPD2    C1 4467   2.800   0.623  12.886 -0.3589  0.0673 -0.1311
  293MPD2    C2 4468   2.869   0.667  13.003  0.0421  0.6732 -0.9258
  293MPD2    C3 4469   2.909   0.568  13.097  0.6901 -0.2808  0.9920
  293MPD2    C4 4470   2.853   0.435  13.090 -0.4586 -0.4315 -0.4196
  293MPD2    C5 4471   2.780   0.402  12.977  0.7331  0.1701  0.7147
  293MPD2     H 4472   2.901   0.768  13.025  0.9566  0.5042 -1.4793
  293MPD2    H1 4473   2.876   0.357  13.162 -0.3424 -0.8694 -0.9308
  293MPD2    H2 4474   2.712   0.446  12.786  2.4510 -1.5475  0.1044
  293MPD2    H3 4475   2.734   0.305  12.971 -2.1448  1.6620 -1.4684
  293MPD2     N 4476   2.997   0.599  13.206  0.0669  0.2924 -0.8617
  293MPD2    H5 4477   3.034   0.693  13.201  2.0762 -0.4170  1.1684
  293MPD2    N1 4478   2.779   0.707  12.778  0.6244  0.0348 -0.1004
  293MPD2    H7 4479   2.702   0.681  12.716 -0.7467 -0.6073  1.8862
  294TMC3    C1 4480   2.782   0.904  12.655 -0.5276 -0.4514  0.2320
  294TMC3    C2 4481   2.681   0.861  12.581 -0.3059  0.0769  0.0939
  294TMC3    C3 4482   2.625   0.941  12.489  0.4191  0.4418  0.0168
  294TMC3    C4 4483   2.839   1.030  12.632 -0.0070 -0.3149 -0.0001
  294TMC3    C5 4484   2.783   1.108  12.534  0.0953 -0.0409  0.1520
  294TMC3    C6 4485   2.668   1.070  12.471 -0.5500 -0.5595 -0.4174
  294TMC3     C 4486   2.850   0.826  12.758 -0.2053  0.0982 -0.4786
  294TMC3     O 4487   2.954   0.866  12.807 -0.1336  0.2004 -0.4275
  294TMC3     H 4488   2.641   0.761  12.589 -1.9467  0.7476  0.1507
  294TMC3    H1 4489   2.930   1.065  12.679 -1.7617  0.8472  2.5081
  294TMC3    H2 4490   2.622   1.134  12.397  1.4078  0.7707 -0.4847
  294TMC3    C7 4491   2.851   1.238  12.508  0.3668 -0.4902 -0.1050
  294TMC3    C8 4492   2.498   0.903  12.434 -0.6021  0.6662 -0.1918
  294TMC3    O1 4493   2.945   1.269  12.578  0.1266  0.6912 -0.0421
  294TMC3    O2 4494   2.407   0.976  12.466  0.4659 -0.3678  0.3747
  295MPD2     C 4495   3.363   3.979   1.281 -0.1226 -0.0905  0.7066
  295MPD2    C1 4496   3.256   4.020   1.205 -0.0140 -0.0269  0.5604
  295MPD2    C2 4497   3.129   4.012   1.257  0.2867  0.4942 -0.2661
  295MPD2    C3 4498   3.098   3.981   1.388 -0.6076  0.2524 -0.0205
  295MPD2    C4 4499   3.211   3.951   1.463  0.1273  0.3065  1.1036
  295MPD2    C5 4500   3.337   3.948   1.412  0.3860 -0.4117  0.0308
  295MPD2     H 4501   3.049   4.017   1.184 -0.8853  0.4123  1.0083
  295MPD2    H1 4502   3.195   3.922   1.566  0.6752  3.1933  1.9949
  295MPD2    H2 4503   3.465   3.966   1.247 -1.4409 -1.7571 -2.5980
  295MPD2    H3 4504   3.423   3.922   1.474  0.6807  0.7989  0.1215
  295MPD2     N 4505   2.972   3.968   1.446  0.3523 -0.0756 -0.0362
  295MPD2    H5 4506   2.972   3.933   1.541 -1.3129  0.9024  0.3179
  295MPD2    N1 4507   3.278   4.056   1.066  0.1678  0.1630  0.3367
  295MPD2    H7 4508   3.192   4.075   1.016 -0.8828  0.0232  2.0833
  296TMC3    C1 4509   2.748   4.011   1.491  0.2362  0.3378  0.3833
  296TMC3    C2 4510   2.674   4.128   1.498 -0.3254  0.1766 -0.6334
  296TMC3    C3 4511   2.591   4.146   1.603 -0.1449  0.3136  0.1907
  296TMC3    C4 4512   2.742   3.914   1.589 -0.1015  0.3420  0.0394
  296TMC3    C5 4513   2.652   3.934   1.688 -0.1593 -0.7961  0.1060
  296TMC3    C6 4514   2.570   4.047   1.699 -0.4926 -0.7651  0.9301
  296TMC3     C 4515   2.856   4.019   1.393 -0.0914 -0.1355  0.4201
  296TMC3     O 4516   2.837   4.082   1.294  0.1527 -0.5430 -0.0942
  296TMC3     H 4517   2.706   4.207   1.431  1.6017  2.4597  3.0027
  296TMC3    H1 4518   2.795   3.820   1.574  0.1166  0.3221  0.9512
  296TMC3    H2 4519   2.504   4.061   1.784  0.7759 -0.7747  1.9170
  296TMC3    C7 4520   2.608   3.820   1.757 -0.1518 -0.2054 -0.1818
  296TMC3    C8 4521   2.493   4.249   1.602 -0.4604  0.5689  0.3497
  296TMC3    O1 4522   2.499   3.839   1.811  0.3643  0.0350 -0.2526
  296TMC3    O2 4523   2.398   4.244   1.679 -0.0527  0.6305 -0.0932
  297MPD2     C 4524   0.511   1.710  15.619  0.8289 -0.8571 -0.2207
  297MPD2    C1 4525   0.507   1.761  15.751  0.8524  1.1302  0.0536
  297MPD2    C2 4526   0.617   1.740  15.835 -0.4327  0.1890  0.0227
  297MPD2    C3 4527   0.727   1.667  15.788  0.0477 -0.3130 -0.1277
  297MPD2    C4 4528   0.728   1.616  15.655 -0.0424  0.4578 -0.7375
  297MPD2    C5 4529   0.616   1.642  15.571 -0.1679  0.2760  0.5594
  297MPD2     H 4530   0.624   1.802  15.923  3.2841 -2.1722  1.3900
  297MPD2    H1 4531   0.805   1.553  15.612  1.6946  1.9136  0.2230
  297MPD2    H2 4532   0.427   1.728  15.554  0.9475  0.9210  0.1101
  297MPD2    H3 4533   0.609   1.587  15.478  1.5046 -0.3342  0.7824
  297MPD2     N 4534   0.835   1.666  15.873 -0.1247  0.6122 -0.2443
  297MPD2    H5 4535   0.833   1.730  15.952 -2.0313  0.6440 -0.3139
  297MPD2    N1 4536   0.380   1.808  15.793  0.3306  0.1109 -0.4662
  297MPD2    H7 4537   0.310   1.811  15.720  0.5051 -2.5247 -0.7446
  298TMC3    C1 4538   0.214   1.888  15.944  0.4676 -0.5391  0.2960
  298TMC3    C2 4539   0.138   1.918  15.834  0.0298 -0.2305  0.8586
  298TMC3    C3 4540   0.003   1.898  15.841  0.8273  0.4869  0.0656
  298TMC3    C4 4541   0.157   1.825  16.054 -0.0023  0.3801  0.2077
  298TMC3    C5 4542   0.024   1.834  16.059  0.9095  0.4466  0.4478
  298TMC3    C6 4543   4.677   1.866  15.957  0.1605 -0.0593 -0.6463
  298TMC3     C 4544   0.351   1.862  15.924  0.5424 -0.2959 -0.5808
  298TMC3     O 4545   0.428   1.895  16.012 -0.0004 -0.4724 -0.0489
  298TMC3     H 4546   0.190   1.942  15.742 -2.4184  2.4443  0.1597
  298TMC3    H1 4547   0.216   1.800  16.141 -1.8988 -0.8332  1.1424
  298TMC3    H2 4548   4.574   1.833  15.965 -0.2646  1.2182 -0.8081
  298TMC3    C7 4549   4.698   1.781  16.175  0.1482  0.1577  0.2455
  298TMC3    C8 4550   4.670   1.954  15.731  1.0235 -0.2175  0.1089
  298TMC3    O1 4551   4.595   1.834  16.213  0.2928  0.1518 -0.0719
  298TMC3    O2 4552   0.006   1.967  15.633  0.2807 -0.2750  0.3362
  299MPD2     C 4553   1.378   1.267  11.445  0.3275  0.0779  0.8004
  299MPD2    C1 4554   1.346   1.396  11.403  0.2271  0.4283 -0.0728
  299MPD2    C2 4555   1.257   1.406  11.297 -0.4983  1.1175  0.1940
  299MPD2    C3 4556   1.229   1.296  11.220 -0.0366  0.0436 -0.2816
  299MPD2    C4 4557   1.272   1.171  11.251 -0.1751  0.5257 -0.1365
  299MPD2    C5 4558   1.342   1.158  11.367 -0.3291 -0.0263 -0.1124
  299MPD2     H 4559   1.210   1.502  11.277  1.0800  1.7299 -0.5598
  299MPD2    H1 4560   1.258   1.088  11.184  0.2780  1.2553 -1.1414
  299MPD2    H2 4561   1.434   1.251  11.536 -1.2774 -1.3993  1.5397
  299MPD2    H3 4562   1.387   1.063  11.397 -0.0610 -0.4436 -1.8395
  299MPD2     N 4563   1.140   1.306  11.107 -0.4494 -0.3286  0.4775
  299MPD2    H5 4564   1.100   1.227  11.058 -0.7405  0.1860 -0.1033
  299MPD2    N1 4565   1.393   1.511  11.481  0.4342  0.2903  0.6388
  299MPD2    H7 4566   1.454   1.492  11.560  0.6918 -0.2465  0.3135
  300TMC3    C1 4567   0.987   1.430  10.977  0.7692  0.8761 -0.0680
  300TMC3    C2 4568   0.950   1.553  10.936  0.7766  0.5587 -0.0556
  300TMC3    C3 4569   0.823   1.565  10.886  0.7601 -0.7128  0.0587
  300TMC3    C4 4570   0.890   1.330  10.980 -0.0830 -0.0211  0.0512
  300TMC3    C5 4571   0.764   1.351  10.941  0.9545 -1.0630 -0.0545
  300TMC3    C6 4572   0.724   1.476  10.904 -0.2329 -0.0127  0.0131
  300TMC3     C 4573   1.110   1.430  11.054 -0.4287 -0.3615 -0.1473
  300TMC3     O 4574   1.167   1.536  11.048  0.6885  0.6284 -0.5889
  300TMC3     H 4575   1.018   1.637  10.932  3.8267 -1.9248 -0.1897
  300TMC3    H1 4576   0.906   1.230  11.019 -1.7417  0.0648  0.9548
  300TMC3    H2 4577   0.620   1.489  10.875  0.6091  1.6132 -2.2316
  300TMC3    C7 4578   0.671   1.250  10.956  0.2749  0.9045  0.4259
  300TMC3    C8 4579   0.777   1.702  10.832  0.5068 -0.3417 -0.3823
  300TMC3    O1 4580   0.710   1.141  10.917 -0.6804 -0.6988 -1.2268
  300TMC3    O2 4581   0.853   1.796  10.846 -0.2216 -0.4524 -0.4550
  301MPD2     C 4582   3.442   1.936   1.588 -0.1691  0.2132 -0.3558
  301MPD2    C1 4583   3.339   1.919   1.498 -0.2303  0.3909  0.1090
  301MPD2    C2 4584   3.352   1.823   1.400  0.2809  0.1727  0.4149
  301MPD2    C3 4585   3.467   1.744   1.387  0.0455 -0.1655 -0.1059
  301MPD2    C4 4586   3.569   1.766   1.474 -0.1860  0.4826  0.8999
  301MPD2    C5 4587   3.557   1.865   1.568  0.5213  0.1314 -0.1424
  301MPD2     H 4588   3.265   1.804   1.337  1.5692 -0.6759 -1.1340
  301MPD2    H1 4589   3.656   1.701   1.472 -1.1847 -0.8483 -0.1979
  301MPD2    H2 4590   3.431   2.004   1.672  0.9917 -1.6819  1.3339
  301MPD2    H3 4591   3.629   1.869   1.649  0.5098 -1.9992 -0.0266
  301MPD2     N 4592   3.471   1.636   1.295 -0.1344  0.1767  0.8557
  301MPD2    H5 4593   3.554   1.576   1.300 -0.1371  0.1621  0.7172
  301MPD2    N1 4594   3.210   1.983   1.510 -0.1834 -0.5029 -0.2993
  301MPD2    H7 4595   3.140   1.947   1.446 -2.9731  0.1753  2.3867
  302TMC3    C1 4596   3.381   1.484   1.123 -0.0675 -0.5927 -0.0091
  302TMC3    C2 4597   3.434   1.363   1.172 -0.3275 -0.3450 -0.4309
  302TMC3    C3 4598   3.394   1.252   1.102 -0.1749 -0.0978 -0.1215
  302TMC3    C4 4599   3.309   1.493   1.007  0.6238  0.2024 -0.1558
  302TMC3    C5 4600   3.273   1.376   0.940  0.2491  0.4615 -0.5923
  302TMC3    C6 4601   3.316   1.258   0.992  0.0896  0.5362 -0.2997
  302TMC3     C 4602   3.371   1.605   1.205  0.1079  0.0969  0.4481
  302TMC3     O 4603   3.264   1.661   1.192 -0.2396 -0.1560  0.2295
  302TMC3     H 4604   3.467   1.358   1.275 -0.7081 -4.6261 -0.5160
  302TMC3    H1 4605   3.276   1.590   0.972  0.3264 -0.8664 -2.7814
  302TMC3    H2 4606   3.312   1.176   0.922 -0.0237  0.3315 -0.0534
  302TMC3    C7 4607   3.199   1.390   0.821 -0.3935 -0.3335 -0.3689
  302TMC3    C8 4608   3.461   1.129   1.130 -0.5269 -0.4025  0.6413
  302TMC3    O1 4609   3.208   1.294   0.749  0.0828  0.0582  0.3039
  302TMC3    O2 4610   3.576   1.125   1.170  0.3161 -0.3442  0.0172
  303MPD2     C 4611   3.216   0.571  10.514 -0.3744  0.3849 -0.1948
  303MPD2    C1 4612   3.150   0.696  10.523  0.5291 -0.0558  0.2458
  303MPD2    C2 4613   3.199   0.803  10.444  0.7018 -0.4237 -0.3260
  303MPD2    C3 4614   3.312   0.780  10.363  0.3709  0.4577  0.1054
  303MPD2    C4 4615   3.367   0.654  10.351 -0.8761  0.2811 -0.1128
  303MPD2    C5 4616   3.321   0.553  10.431 -0.4976  0.3054  0.5415
  303MPD2     H 4617   3.160   0.904  10.453 -1.9756 -1.5968  1.0700
  303MPD2    H1 4618   3.442   0.643  10.273 -0.9237  1.2357 -0.2911
  303MPD2    H2 4619   3.173   0.488  10.570  0.8269 -1.9004 -2.6804
  303MPD2    H3 4620   3.389   0.468  10.430 -0.2877  0.4965 -1.9430
  303MPD2     N 4621   3.372   0.884  10.281  0.5709  0.4920  0.1147
  303MPD2    H5 4622   3.447   0.864  10.215  0.4434  0.0084  0.1138
  303MPD2    N1 4623   3.033   0.715  10.602  0.8046 -0.0214  0.3787
  303MPD2    H7 4624   3.010   0.637  10.663 -1.3278  0.9903  0.8575
  304TMC3    C1 4625   2.864   0.819  10.720  0.8639 -0.0469  0.3481
  304TMC3    C2 4626   2.925   0.836  10.841  0.2869 -0.3506 -0.5761
  304TMC3    C3 4627   2.857   0.900  10.946 -0.2164  0.1270  0.7296
  304TMC3    C4 4628   2.742   0.877  10.691 -0.3425  0.4892  0.3061
  304TMC3    C5 4629   2.677   0.944  10.799  0.2159  0.4519  0.0623
  304TMC3    C6 4630   2.731   0.940  10.927 -0.4461 -0.7983 -0.2880
  304TMC3     C 4631   2.950   0.829  10.612 -0.0965 -0.5009 -0.2524
  304TMC3     O 4632   2.942   0.923  10.528 -0.0784  0.3986  0.2147
  304TMC3     H 4633   3.028   0.808  10.858  0.0860 -0.1690  0.9790
  304TMC3    H1 4634   2.727   0.904  10.587  2.7775 -2.9872 -1.0702
  304TMC3    H2 4635   2.698   1.020  10.992 -0.0577  0.7160 -1.9537
  304TMC3    C7 4636   2.620   1.072  10.760  0.1691 -0.2890 -0.4571
  304TMC3    C8 4637   2.949   0.998  11.020 -0.3392 -0.5746 -0.1110
  304TMC3    O1 4638   2.643   1.170  10.831  0.2900 -0.4295 -0.1884
  304TMC3    O2 4639   3.055   0.956  11.067 -0.3237 -0.2965  0.0055
  305MPD2     C 4640   2.258   3.038  13.945  0.6264  0.5369  0.0391
  305MPD2    C1 4641   2.140   3.004  14.004 -0.4528 -0.1590  0.3016
  305MPD2    C2 4642   2.034   2.987  13.920  0.1817 -0.6644  0.3175
  305MPD2    C3 4643   2.043   3.020  13.790 -0.0838  0.1770  0.1213
  305MPD2    C4 4644   2.163   3.040  13.730  0.2036 -0.0204  0.4871
  305MPD2    C5 4645   2.271   3.055  13.808  0.0398 -0.0925  0.2389
  305MPD2     H 4646   1.940   2.960  13.966  0.6950 -1.2748  0.9989
  305MPD2    H1 4647   2.169   3.059  13.624 -1.7293 -2.1068  0.0142
  305MPD2    H2 4648   2.351   3.054  13.999  0.5400 -1.8237  0.8813
  305MPD2    H3 4649   2.367   3.086  13.768 -0.1689  0.5445  0.2218
  305MPD2     N 4650   1.934   3.031  13.703  0.0978  0.8690 -0.4162
  305MPD2    H5 4651   1.947   3.040  13.603 -3.7116  1.2519 -0.8683
  305MPD2    N1 4652   2.147   2.979  14.143  0.2499 -0.4085  0.7993
  305MPD2    H7 4653   2.241   2.985  14.180  0.4107  0.4156  0.2669
  306TMC3    C1 4654   2.087   2.968  14.353 -0.1265 -0.1848 -0.3302
  306TMC3    C2 4655   2.207   2.907  14.384  0.0140  0.2456  0.2355
  306TMC3    C3 4656   2.258   2.920  14.512 -0.6409 -0.6706 -1.2274
  306TMC3    C4 4657   2.021   3.043  14.445  0.0095  0.2615  0.2003
  306TMC3    C5 4658   2.084   3.063  14.564  1.2208 -0.2008  0.4439
  306TMC3    C6 4659   2.202   3.008  14.601 -0.2562 -0.2546  0.3167
  306TMC3     C 4660   2.037   2.955  14.219  0.2648  0.0961  0.7853
  306TMC3     O 4661   1.921   2.980  14.202  0.9868  0.2575 -0.2023
  306TMC3     H 4662   2.268   2.850  14.316  0.6270  0.3692  0.6793
  306TMC3    H1 4663   1.925   3.091  14.433 -0.0767 -0.5052 -2.2466
  306TMC3    H2 4664   2.230   3.015  14.706 -0.9327  2.1618  0.3140
  306TMC3    C7 4665   2.003   3.096  14.672  0.4300 -0.2660  0.6517
  306TMC3    C8 4666   2.280   2.784  14.558 -0.1167  0.4565 -0.3568
  306TMC3    O1 4667   1.883   3.070  14.668  0.1473  0.6221  0.0210
  306TMC3    O2 4668   2.254   2.687  14.488 -0.3777  0.0778 -0.2470
  307MPD2     C 4669   4.279   0.717   0.228  0.5345 -0.3994  0.1513
  307MPD2    C1 4670   4.213   0.836   0.222 -0.2660 -0.0740 -0.6826
  307MPD2    C2 4671   4.167   0.895   0.342  0.2664 -0.2897  0.5445
  307MPD2    C3 4672   4.181   0.834   0.469  0.0373  0.2173 -0.2347
  307MPD2    C4 4673   4.251   0.716   0.472  0.2664  0.5279  0.2923
  307MPD2    C5 4674   4.306   0.661   0.354  0.5544 -0.0507  0.0061
  307MPD2     H 4675   4.113   0.988   0.330  0.3209 -0.3729 -0.3224
  307MPD2    H1 4676   4.276   0.660   0.562  0.0973 -1.4261 -0.8738
  307MPD2    H2 4677   4.300   0.660   0.137 -0.2734  2.1668 -1.6467
  307MPD2    H3 4678   4.347   0.560   0.359 -1.2738 -0.8377 -0.9362
  307MPD2     N 4679   4.128   0.899   0.579  0.3785  0.2668  0.3977
  307MPD2    H5 4680   4.056   0.969   0.561 -0.3199 -0.8680 -1.2916
  307MPD2    N1 4681   4.191   0.906   0.102  0.2205  0.2336  0.3595
  307MPD2    H7 4682   4.139   0.992   0.113  2.0715  1.3569  0.3886
  308TMC3    C1 4683   3.829   0.950   0.859 -0.0781  0.0936  0.5379
  308TMC3    C2 4684   3.837   1.091   0.859  0.3761 -0.1946 -0.7233
  308TMC3    C3 4685   3.949   1.152   0.819  0.3054 -0.1387 -0.7720
  308TMC3    C4 4686   3.948   0.876   0.844  0.6354 -0.6933  0.3338
  308TMC3    C5 4687   4.054   0.939   0.796 -0.3916 -0.1163  0.2371
  308TMC3    C6 4688   4.055   1.079   0.775 -0.0813 -0.2763 -0.4616
  308TMC3     C 4689   3.712   0.875   0.819  0.2563 -0.0906  0.8673
  308TMC3     O 4690   3.743   0.756   0.803 -0.4622  0.8079 -0.1935
  308TMC3     H 4691   3.753   1.156   0.881  0.7254  0.0860 -0.2353
  308TMC3    H1 4692   3.959   0.768   0.834  0.8391 -0.7954  1.7416
  308TMC3    H2 4693   4.150   1.124   0.748 -0.6683 -0.4378 -2.8639
  308TMC3    C7 4694   4.138   0.865   0.708 -0.7460  0.0254 -0.2946
  308TMC3    C8 4695   3.937   1.284   0.758  0.1955 -0.6738 -0.3787
  308TMC3    O1 4696   4.212   0.777   0.753 -0.4559  0.1356 -0.6155
  308TMC3    O2 4697   3.834   1.307   0.701 -0.4815  0.5508 -0.1512
  309MPD2     C 4698   3.265   1.048  17.219  0.2389  0.2658  0.2453
  309MPD2    C1 4699   3.210   1.104  17.107 -0.4846 -0.3736 -0.0207
  309MPD2    C2 4700   3.076   1.146  17.108  0.7992  0.5976 -0.8085
  309MPD2    C3 4701   3.008   1.137  17.228  0.4267 -0.4419  0.3862
  309MPD2    C4 4702   3.065   1.081  17.341  0.6969 -0.5454 -0.2087
  309MPD2    C5 4703   3.191   1.030  17.333  0.3955  0.8495  0.8964
  309MPD2     H 4704   3.036   1.187  17.016 -3.7857  1.7710  1.6869
  309MPD2    H1 4705   2.998   1.066  17.425  0.8511  0.4580  0.0945
  309MPD2    H2 4706   3.364   1.005  17.230  0.0789 -0.0457  0.4583
  309MPD2    H3 4707   3.226   0.982  17.423  2.0843  1.0653  0.3551
  309MPD2     N 4708   2.875   1.187  17.239  0.4985 -0.2876  0.2518
  309MPD2    H5 4709   2.838   1.162  17.330 -0.0128 -2.0479 -0.4348
  309MPD2    N1 4710   3.286   1.118  16.987  0.0887  0.4031  0.1458
  309MPD2    H7 4711   3.253   1.182  16.915  0.9021 -0.7568 -1.2729
  310TMC3    C1 4712   3.470   1.097  16.839  0.0892 -0.0034  0.0117
  310TMC3    C2 4713   3.420   1.194  16.761  0.1466 -0.6663 -0.2010
  310TMC3    C3 4714   3.486   1.237  16.647 -0.0975 -0.9853  0.2993
  310TMC3    C4 4715   3.597   1.049  16.811  0.4335 -0.2621 -0.0101
  310TMC3    C5 4716   3.659   1.092  16.698  0.1104  0.1935  0.0307
  310TMC3    C6 4717   3.610   1.178  16.608  0.1022  1.0337 -0.0793
  310TMC3     C 4718   3.402   1.057  16.963 -0.9085 -0.6614 -0.1596
  310TMC3     O 4719   3.458   0.970  17.027  0.4670  0.1508  0.0024
  310TMC3     H 4720   3.327   1.244  16.786 -0.4436 -0.7477 -2.2756
  310TMC3    H1 4721   3.650   0.989  16.885 -0.0183 -1.3629 -0.5811
  310TMC3    H2 4722   3.671   1.216  16.527 -1.9052  1.2554 -1.4880
  310TMC3    C7 4723   3.786   1.020  16.667  0.1058 -0.0936  0.2627
  310TMC3    C8 4724   3.422   1.324  16.553 -1.0377  0.0277 -0.2755
  310TMC3    O1 4725   3.815   0.933  16.742 -0.1111 -0.6423 -0.2979
  310TMC3    O2 4726   3.298   1.328  16.560 -0.0599  0.2071  1.1060
  311MPD2     C 4727   1.056   2.916  13.202 -0.5974 -0.2028  0.0141
  311MPD2    C1 4728   0.989   2.879  13.097  0.0679 -0.6011  0.7515
  311MPD2    C2 4729   0.879   2.801  13.114  0.1667  0.5190 -0.3006
  311MPD2    C3 4730   0.831   2.773  13.242  0.2538 -0.2102 -0.2274
  311MPD2    C4 4731   0.896   2.821  13.346  0.0390  0.1349  0.2596
  311MPD2    C5 4732   1.019   2.888  13.330 -0.2934  0.2972  0.4892
  311MPD2     H 4733   0.815   2.779  13.029 -1.4645 -1.2882  1.3916
  311MPD2    H1 4734   0.859   2.789  13.443  0.5458  0.9114  0.7057
  311MPD2    H2 4735   1.137   2.987  13.190 -1.9786  0.9594 -2.3319
  311MPD2    H3 4736   1.076   2.937  13.409 -1.3208 -1.0942  2.0863
  311MPD2     N 4737   0.703   2.708  13.264 -0.2306 -0.0558 -0.4905
  311MPD2    H5 4738   0.672   2.702  13.360  1.1976 -0.5728 -0.0603
  311MPD2    N1 4739   1.029   2.924  12.971  0.6534  0.2025 -0.1385
  311MPD2    H7 4740   1.092   3.003  12.964  0.0558  0.6579 -0.4204
  312TMC3    C1 4741   0.483   2.634  13.214  0.8732 -0.1835 -0.5663
  312TMC3    C2 4742   0.400   2.574  13.123 -0.2932  0.5977  0.2243
  312TMC3    C3 4743   0.311   2.489  13.161  0.5173 -0.2071  0.5250
  312TMC3    C4 4744   0.467   2.614  13.349 -0.5899  0.0930 -0.1047
  312TMC3    C5 4745   0.377   2.521  13.387 -0.3496  0.1372 -0.3079
  312TMC3    C6 4746   0.300   2.461  13.298  0.2171 -0.4287 -0.4606
  312TMC3     C 4747   0.614   2.671  13.166 -0.5451  0.4316  0.6588
  312TMC3     O 4748   0.627   2.658  13.044 -0.0391  0.5938 -0.4809
  312TMC3     H 4749   0.416   2.605  13.020 -2.2719  0.3130 -0.1865
  312TMC3    H1 4750   0.519   2.662  13.431  1.5026  1.2919 -2.1321
  312TMC3    H2 4751   0.212   2.405  13.329  1.3948 -1.8003  0.3576
  312TMC3    C7 4752   0.303   2.566  13.505 -0.8955  0.5956 -0.1761
  312TMC3    C8 4753   0.194   2.461  13.074 -0.1130  0.1775 -0.0538
  312TMC3    O1 4754   0.183   2.595  13.483 -0.5162 -0.3710  0.6620
  312TMC3    O2 4755   0.130   2.362  13.103 -0.0064 -0.1795 -0.8845
  313MPD2     C 4756   0.182   1.990  11.621  0.4964 -0.5080 -0.4363
  313MPD2    C1 4757   0.129   2.038  11.503 -0.4732  0.0004 -0.0510
  313MPD2    C2 4758   0.157   1.974  11.380  0.7505 -0.3877 -0.8153
  313MPD2    C3 4759   0.245   1.869  11.377  0.2635  0.6161  0.3342
  313MPD2    C4 4760   0.303   1.830  11.494  0.3607 -0.2691 -0.0190
  313MPD2    C5 4761   0.268   1.887  11.610  0.9730 -0.0822 -0.7710
  313MPD2     H 4762   0.103   2.002  11.290 -0.0106  2.0792  0.4105
  313MPD2    H1 4763   0.369   1.744  11.493 -2.1728 -2.2265  1.6820
  313MPD2    H2 4764   0.168   2.028  11.722 -0.2671 -0.6067 -0.5095
  313MPD2    H3 4765   0.311   1.855  11.704 -1.6591 -0.3182  0.3715
  313MPD2     N 4766   0.264   1.797  11.259 -0.0342 -0.0558 -0.0194
  313MPD2    H5 4767   0.317   1.711  11.268 -1.7005 -1.0826  0.1862
  313MPD2    N1 4768   0.050   2.159  11.503  0.3889  0.5242  0.6229
  313MPD2    H7 4769   0.007   2.184  11.415 -0.5018  0.5668  1.0685
  314TMC3    C1 4770   4.696   2.367  11.567  0.3266  0.7635 -0.2749
  314TMC3    C2 4771   0.042   2.474  11.587 -0.6857  0.5949 -0.4520
  314TMC3    C3 4772   0.052   2.559  11.481  0.4076 -0.0504  0.1567
  314TMC3    C4 4773   4.627   2.350  11.450  0.1539  0.8056  0.1904
  314TMC3    C5 4774   4.624   2.459  11.362 -0.1118 -0.3484 -0.0817
  314TMC3    C6 4775   4.719   2.556  11.371  0.4937 -1.1365 -0.2519
  314TMC3     C 4776   0.032   2.246  11.609  0.3180 -0.2271 -0.0557
  314TMC3     O 4777   0.090   2.251  11.714  0.1991 -0.1159  0.4454
  314TMC3     H 4778   0.094   2.487  11.680 -0.0961 -0.9461 -0.5578
  314TMC3    H1 4779   4.552   2.272  11.452  1.7364 -0.7353 -0.4162
  314TMC3    H2 4780   4.719   2.636  11.298 -0.4635  0.8532  1.9344
  314TMC3    C7 4781   4.554   2.441  11.243  0.4150  0.4151 -0.7061
  314TMC3    C8 4782   0.156   2.663  11.474  0.1804 -0.0032  0.8275
  314TMC3    O1 4783   4.438   2.394  11.254  0.2226 -0.5582 -0.0561
  314TMC3    O2 4784   0.157   2.750  11.385 -0.2216 -0.0328 -0.3977
  315MPD2     C 4785   4.673   0.557  17.625  0.1019 -0.5933  0.1212
  315MPD2    C1 4786   0.064   0.607  17.653  0.3939 -0.3164  0.4579
  315MPD2    C2 4787   0.083   0.733  17.696  0.4391  0.0913 -0.5513
  315MPD2    C3 4788   4.716   0.822  17.712 -0.4726  0.2067 -0.7005
  315MPD2    C4 4789   4.591   0.786  17.671 -0.2421 -0.1236 -0.6302
  315MPD2    C5 4790   4.572   0.656  17.623  0.7258 -0.8227 -0.1125
  315MPD2     H 4791   0.183   0.766  17.724  0.5726 -2.2438  1.6612
  315MPD2    H1 4792   4.512   0.860  17.680 -1.2274 -1.3594  1.0487
  315MPD2    H2 4793   4.649   0.456  17.593  2.4938 -1.2865  0.4431
  315MPD2    H3 4794   4.471   0.627  17.595  0.5453  0.2874 -0.6030
  315MPD2     N 4795   0.009   0.948   0.020 -0.0696  0.4673  0.0883
  315MPD2    H5 4796   0.101   0.959   0.061  0.1761 -1.1528 -0.0273
  315MPD2    N1 4797   0.181   0.531  17.653 -0.2933 -0.4660  0.0034
  315MPD2    H7 4798   0.266   0.579  17.681  0.0177  0.7504 -3.0469
  316TMC3    C1 4799   0.006   1.147   0.116  0.1261 -0.5167  0.1944
  316TMC3    C2 4800   0.085   1.111   0.221  0.4632  0.3613  0.4260
  316TMC3    C3 4801   0.142   1.209   0.295  1.0162 -0.4041  0.1183
  316TMC3    C4 4802   4.713   1.275   0.091 -0.1180 -0.1069  0.2101
  316TMC3    C5 4803   0.032   1.377   0.167 -0.2613  0.2218 -0.3215
  316TMC3    C6 4804   0.116   1.342   0.269 -0.0356 -0.0644 -0.1370
  316TMC3     C 4805   4.657   1.050   0.048  0.0827  0.0240 -0.1694
  316TMC3     O 4806   4.548   1.075   0.006  0.2966 -0.7772 -0.1646
  316TMC3     H 4807   0.096   1.007   0.248  0.8936 -0.0862 -1.4191
  316TMC3    H1 4808   4.646   1.302   0.010 -0.4295  2.2959  1.2699
  316TMC3    H2 4809   0.153   1.426   0.327 -1.4729  0.0985  0.5350
  316TMC3    C7 4810   0.019   1.517   0.128 -0.4056  0.2183  0.9620
  316TMC3    C8 4811   0.241   1.185   0.394 -0.2552  0.4757  0.3400
  316TMC3    O1 4812   0.063   1.598   0.208 -0.2826 -0.3473 -0.0083
  316TMC3    O2 4813   0.251   1.267   0.485 -0.9640 -0.1409  0.5185
  317MPD2     C 4814   1.764   0.121  13.286 -0.3294  0.2306  0.9466
  317MPD2    C1 4815   1.807   0.011  13.210  0.7014 -0.2635 -0.0173
  317MPD2    C2 4816   1.881   4.649  13.273  0.7941  0.7396  0.9088
  317MPD2    C3 4817   1.909   4.660  13.410  0.1851 -1.1281 -0.4387
  317MPD2    C4 4818   1.877   0.038  13.477 -0.0540  1.0011  0.6687
  317MPD2    C5 4819   1.807   0.137  13.415 -0.8364 -0.3825  0.4351
  317MPD2     H 4820   1.915   4.562  13.219  1.7745  3.1039 -2.3325
  317MPD2    H1 4821   1.922   0.066  13.571  1.0468 -2.9351  1.3309
  317MPD2    H2 4822   1.717   0.212  13.249  0.3608  0.4632  0.6451
  317MPD2    H3 4823   1.783   0.225  13.473 -0.8570  0.2343 -0.4992
  317MPD2     N 4824   1.982   4.554  13.453  0.6135  0.4365  0.1636
  317MPD2    H5 4825   2.000   4.485  13.381 -0.7140 -0.3824  0.6137
  317MPD2    N1 4826   1.777   4.729  13.075  0.1368 -0.0563  0.1222
  317MPD2    H7 4827   1.819   4.652  13.024 -2.3716 -2.3142  1.4508
  318TMC3    C1 4828   2.098   4.419  13.596 -0.0259 -0.1072 -1.0251
  318TMC3    C2 4829   2.015   4.315  13.578 -1.0135 -0.0786  0.2519
  318TMC3    C3 4830   2.044   4.204  13.646  0.0531  0.0620  0.0127
  318TMC3    C4 4831   2.212   4.420  13.674 -0.0402 -0.1320  0.3260
  318TMC3    C5 4832   2.239   4.299  13.727  0.6000 -0.0078 -0.1492
  318TMC3    C6 4833   2.162   4.185  13.712  0.8333 -0.2302  0.9270
  318TMC3     C 4834   2.030   4.540  13.578  0.0719 -0.1425  0.3183
  318TMC3     O 4835   2.013   4.603  13.680 -0.5190  0.2322  0.2493
  318TMC3     H 4836   1.916   4.335  13.539 -0.3050 -2.0178 -2.5760
  318TMC3    H1 4837   2.273   4.507  13.695 -2.5274  1.7044 -0.0487
  318TMC3    H2 4838   2.179   4.084  13.747 -1.6098 -1.6569 -1.9171
  318TMC3    C7 4839   2.362   4.286  13.805  0.3183 -0.5598  0.5854
  318TMC3    C8 4840   1.958   4.082  13.643  0.2035 -0.3575 -0.6151
  318TMC3    O1 4841   2.408   4.391  13.852 -0.1722 -0.2081  0.4935
  318TMC3    O2 4842   1.982   3.990  13.721 -0.3406 -0.5323  0.3551
  319MPD2     C 4843   2.612   0.923  17.035  0.4666  0.0510  0.2718
  319MPD2    C1 4844   2.609   0.786  17.067  0.0174 -0.7946 -0.3303
  319MPD2    C2 4845   2.552   0.703  16.974  0.1736 -0.3012  0.6397
  319MPD2    C3 4846   2.502   0.752  16.851  0.2761 -0.1927 -0.6125
  319MPD2    C4 4847   2.509   0.886  16.820 -0.2767  0.5535  0.2155
  319MPD2    C5 4848   2.562   0.973  16.913  1.0443 -0.8485  0.4441
  319MPD2     H 4849   2.542   0.601  17.009 -3.4262  0.3221  1.4606
  319MPD2    H1 4850   2.472   0.927  16.727 -1.0540  1.7935  1.0721
  319MPD2    H2 4851   2.667   0.993  17.098  0.1921  0.2612  0.2768
  319MPD2    H3 4852   2.560   1.080  16.892 -0.1782 -1.0302 -0.3204
  319MPD2     N 4853   2.459   0.678  16.748 -0.0192 -0.0717 -0.2373
  319MPD2    H5 4854   2.419   0.731  16.671  0.7013  1.0425  0.1610
  319MPD2    N1 4855   2.656   0.730  17.196  0.4790  0.4596  0.2054
  319MPD2    H7 4856   2.647   0.629  17.190 -0.1559  0.5177  0.1617
  320TMC3    C1 4857   2.412   0.484  16.616  0.0242 -1.1189 -0.1306
  320TMC3    C2 4858   2.343   0.572  16.531 -0.6571 -0.1413 -0.3291
  320TMC3    C3 4859   2.288   0.500  16.422  0.3149 -0.7815  0.3184
  320TMC3    C4 4860   2.415   0.343  16.605 -0.6656 -0.3816  0.0630
  320TMC3    C5 4861   2.354   0.279  16.498  0.8016  0.2723 -0.1902
  320TMC3    C6 4862   2.293   0.359  16.403  1.2057 -0.1495 -0.3471
  320TMC3     C 4863   2.476   0.543  16.731 -0.2985  0.8923  0.2105
  320TMC3     O 4864   2.539   0.458  16.795 -0.1978  0.3264 -0.0342
  320TMC3     H 4865   2.332   0.680  16.534  1.4334 -0.0288  3.1984
  320TMC3    H1 4866   2.465   0.291  16.686 -1.4617  0.2896  0.9803
  320TMC3    H2 4867   2.253   0.324  16.309 -2.0833  1.2738  0.5481
  320TMC3    C7 4868   2.391   0.145  16.459 -0.4061  0.0195 -0.4079
  320TMC3    C8 4869   2.226   0.570  16.315 -0.2533  0.1995  0.2028
  320TMC3    O1 4870   2.392   0.122  16.336  0.2543 -1.1153  0.1493
  320TMC3    O2 4871   2.127   0.630  16.344  0.2234 -0.0756  0.3024
  321TMC3    C1 4872   2.782   0.709  17.400 -0.6964  0.0785 -0.7119
  321TMC3    C2 4873   2.700   0.602  17.437  0.9574 -0.3967 -0.5661
  321TMC3    C3 4874   2.724   0.551  17.563 -0.4251  0.2845 -0.0476
  321TMC3    C4 4875   2.879   0.763  17.475  0.1416  0.0937 -0.1623
  321TMC3    C5 4876   2.906   0.708  17.599 -0.0531 -0.0503  0.2370
  321TMC3    C6 4877   2.828   0.600  17.636  0.3698  0.1972  0.9097
  321TMC3     C 4878   2.738   0.799  17.289  0.5572 -0.2106 -0.1794
  321TMC3     O 4879   2.761   0.919  17.302  0.5213 -0.3481 -0.3865
  321TMC3     H 4880   2.613   0.568  17.381  0.0627  0.8635  0.0747
  321TMC3    H1 4881   2.936   0.847  17.437  1.4035  0.3907  2.4144
  321TMC3    H2 4882   2.844   0.560  17.735  0.2914 -1.1814  0.3613
  321TMC3    C7 4883   3.042   0.665  17.619  0.3021 -0.3094 -0.2352
  321TMC3    C8 4884   2.722   0.408  17.577  0.5698  0.7383 -0.2116
  321TMC3    O1 4885   3.055   0.546  17.611  0.3682  0.1572 -0.9453
  321TMC3    O2 4886   2.630   0.350  17.518  0.4595 -0.5633  0.2670
  322MPD2     C 4887   1.441   2.433  13.616  0.5692  0.0537 -0.0996
  322MPD2    C1 4888   1.467   2.365  13.728 -0.2956  0.5601  0.4785
  322MPD2    C2 4889   1.503   2.235  13.719 -0.4617 -0.3487 -0.1128
  322MPD2    C3 4890   1.530   2.185  13.595  0.0154 -0.4948  0.2175
  322MPD2    C4 4891   1.483   2.247  13.482 -0.2176 -0.2897 -0.2973
  322MPD2    C5 4892   1.434   2.369  13.495 -0.0646 -0.8588  0.0279
  322MPD2     H 4893   1.532   2.181  13.808 -1.8313  0.0415  0.5716
  322MPD2    H1 4894   1.487   2.214  13.379 -0.0693  0.5626 -0.5586
  322MPD2    H2 4895   1.414   2.538  13.618 -0.6907 -0.3303  2.2475
  322MPD2    H3 4896   1.397   2.416  13.404  0.1406  1.6645  1.2569
  322MPD2     N 4897   1.612   2.068  13.596  0.2657  0.0220 -0.0556
  322MPD2    H5 4898   1.628   2.022  13.684 -1.2787 -0.8629 -0.2373
  322MPD2    N1 4899   1.501   2.429  13.853 -1.0906 -0.3107 -0.0686
  322MPD2    H7 4900   1.516   2.529  13.859 -0.5306 -0.2583 -2.3964
  323TMC3    C1 4901   1.622   2.430  14.060  0.0226  0.0973  0.4431
  323TMC3    C2 4902   1.735   2.493  14.015 -0.8918  0.0413 -0.4987
  323TMC3    C3 4903   1.848   2.504  14.092  0.4211  0.6516  0.0991
  323TMC3    C4 4904   1.623   2.385  14.193 -0.9821 -0.5741  0.5185
  323TMC3    C5 4905   1.739   2.401  14.269 -0.2815  0.1941 -0.5740
  323TMC3    C6 4906   1.854   2.457  14.222  0.1480 -0.2876 -0.4615
  323TMC3     C 4907   1.523   2.364  13.977  0.0472 -0.7558 -0.4434
  323TMC3     O 4908   1.451   2.269  14.009 -0.5056  0.0254 -0.3795
  323TMC3     H 4909   1.724   2.525  13.912 -1.0712  0.6389 -0.2931
  323TMC3    H1 4910   1.530   2.340  14.227 -0.2097 -0.6340  2.5270
  323TMC3    H2 4911   1.953   2.443  14.265 -0.3191  2.8869  1.6526
  323TMC3    C7 4912   1.750   2.319  14.381  0.0277  0.4062 -0.6629
  323TMC3    C8 4913   1.972   2.569  14.048 -0.1563  0.0030 -0.7735
  323TMC3    O1 4914   1.678   2.220  14.384 -0.3833 -0.2451 -0.3454
  323TMC3    O2 4915   2.037   2.622  14.140  0.0674 -0.2535  0.1627
  324MPD2     C 4916   3.256   3.004  14.667  0.3809 -0.0708  0.0946
  324MPD2    C1 4917   3.343   3.067  14.579  0.4359  0.7750 -0.4589
  324MPD2    C2 4918   3.292   3.132  14.465  0.2311 -0.3477 -0.5478
  324MPD2    C3 4919   3.149   3.132  14.441  0.1831 -0.6256  0.0598
  324MPD2    C4 4920   3.073   3.052  14.523 -0.4137  0.4396  0.5459
  324MPD2    C5 4921   3.124   2.986  14.631 -0.2481  0.3565  0.1853
  324MPD2     H 4922   3.359   3.179  14.394  0.8582 -1.7196 -0.8732
  324MPD2    H1 4923   2.972   3.027  14.492  0.6726 -2.1952 -0.8544
  324MPD2    H2 4924   3.284   2.940  14.750 -0.6422  1.9328  1.9689
  324MPD2    H3 4925   3.066   2.914  14.687  0.1402  0.1984  0.3874
  324MPD2     N 4926   3.094   3.195  14.326  0.0571 -0.2934  0.1146
  324MPD2    H5 4927   2.994   3.185  14.318  0.2043  1.6045 -4.2431
  324MPD2    N1 4928   3.485   3.078  14.602  0.2931  0.2810 -0.2758
  324MPD2    H7 4929   3.540   3.126  14.531 -1.4381  2.1646 -0.3614
  325TMC3    C1 4930   3.053   3.375  14.180  0.1286 -0.4246 -0.5638
  325TMC3    C2 4931   2.981   3.301  14.089 -0.3815 -0.6455  0.1873
  325TMC3    C3 4932   2.893   3.370  14.008  0.2704  0.1790  0.1160
  325TMC3    C4 4933   3.076   3.509  14.176 -0.2534  0.0492  0.0861
  325TMC3    C5 4934   2.981   3.576  14.099 -0.0994 -0.0274  0.5661
  325TMC3    C6 4935   2.889   3.508  14.019 -0.3532 -0.8842 -0.2806
  325TMC3     C 4936   3.151   3.301  14.261 -0.4330 -0.1097 -0.4849
  325TMC3     O 4937   3.253   3.357  14.293  0.5049  0.0567 -0.1084
  325TMC3     H 4938   2.982   3.192  14.087 -0.1818 -0.6501  0.6964
  325TMC3    H1 4939   3.140   3.559  14.248 -0.0556  0.4151 -0.3451
  325TMC3    H2 4940   2.824   3.574  13.961 -2.5150 -3.1156 -0.3841
  325TMC3    C7 4941   2.955   3.717  14.130  0.3617  0.3364  0.7741
  325TMC3    C8 4942   2.818   3.305  13.907  0.2831 -0.3142  0.5413
  325TMC3    O1 4943   2.962   3.807  14.047  0.2136 -0.0070 -0.2658
  325TMC3    O2 4944   2.871   3.203  13.864  0.1398 -0.5264  0.1657
  326MPD2     C 4945   4.357   4.394  10.775 -0.4844 -0.5971  0.1731
  326MPD2    C1 4946   4.415   4.424  10.649  0.3112 -0.0464  0.0959
  326MPD2    C2 4947   4.530   4.499  10.644  0.1244  0.0310  0.0438
  326MPD2    C3 4948   4.600   4.537  10.761 -0.4101  0.0642  0.0870
  326MPD2    C4 4949   4.537   4.507  10.884  0.4369 -0.2533 -0.2234
  326MPD2    C5 4950   4.419   4.436  10.887  0.0517 -0.2994  0.5902
  326MPD2     H 4951   4.578   4.515  10.548  1.2721 -1.0535  0.4330
  326MPD2    H1 4952   4.584   4.535  10.978  2.5139  1.7965 -1.8873
  326MPD2    H2 4953   4.263   4.342  10.785 -0.3163 -1.5836 -3.1533
  326MPD2    H3 4954   4.381   4.400  10.982 -1.8728 -2.7999 -1.1374
  326MPD2     N 4955   4.720   4.621  10.765 -0.1756  0.0369  0.0535
  326MPD2    H5 4956   0.018   4.630  10.860  0.3668  0.6240 -0.2045
  326MPD2    N1 4957   4.356   4.372  10.530  0.0337  0.2946 -0.2505
  326MPD2    H7 4958   4.398   4.408  10.445  0.3795  1.7672  0.5460
  327TMC3    C1 4959   4.230   4.241  10.382  0.1110 -0.0194 -0.3443
  327TMC3    C2 4960   4.142   4.296  10.299 -0.2507 -0.0344  0.0251
  327TMC3    C3 4961   4.175   4.287  10.162 -0.2239 -0.2510 -0.2117
  327TMC3    C4 4962   4.351   4.198  10.334 -0.3014 -0.5056 -0.1896
  327TMC3    C5 4963   4.393   4.207  10.202 -0.1106  0.5292  0.2275
  327TMC3    C6 4964   4.301   4.251  10.110  0.2890 -0.4444 -0.2384
  327TMC3     C 4965   4.236   4.298  10.515 -0.2379  0.0010  0.0137
  327TMC3     O 4966   4.169   4.245  10.602 -0.6442 -0.4876 -0.0060
  327TMC3     H 4967   4.041   4.319  10.329 -0.5154  0.5921 -1.3429
  327TMC3    H1 4968   4.410   4.155  10.415 -0.3600 -0.5981 -0.1961
  327TMC3    H2 4969   4.319   4.251  10.003  1.1151  1.9460 -0.1095
  327TMC3    C7 4970   4.531   4.244  10.185  0.2123  0.6161  0.3253
  327TMC3    C8 4971   4.097   4.374  10.083 -0.1633 -0.7555  0.4787
  327TMC3    O1 4972   4.564   4.298  10.082  0.3442  0.5250  0.2742
  327TMC3    O2 4973   4.162   4.421   9.993  0.0600 -0.4296 -0.1776
  328MPD2     C 4974   2.429   4.118  17.266  0.1104 -0.0875  0.4670
  328MPD2    C1 4975   2.289   4.116  17.265 -0.1268  0.1116 -0.3575
  328MPD2    C2 4976   2.229   4.235  17.228  0.4798 -0.4905 -0.0390
  328MPD2    C3 4977   2.305   4.346  17.213 -1.1909  0.1806 -0.3844
  328MPD2    C4 4978   2.440   4.348  17.249  0.9043  0.0200  0.0979
  328MPD2    C5 4979   2.507   4.237  17.272  0.6651 -0.2261  0.1437
  328MPD2     H 4980   2.121   4.236  17.221  0.6420 -0.2627 -2.4824
  328MPD2    H1 4981   2.489   4.442  17.228  1.1643  0.1315  1.1698
  328MPD2    H2 4982   2.486   4.028  17.290 -2.3338 -1.7387  0.0724
  328MPD2    H3 4983   2.615   4.233  17.278  0.4904 -3.0180  1.4960
  328MPD2     N 4984   2.261   4.464  17.152  0.1846 -0.0906 -0.2086
  328MPD2    H5 4985   2.324   4.544  17.148  0.5366 -0.5438 -3.3939
  328MPD2    N1 4986   2.206   3.999  17.284 -0.0675 -0.2643  0.4704
  328MPD2    H7 4987   2.106   4.015  17.280  0.2298  2.0250  2.1551
  329TMC3    C1 4988   2.159   3.774  17.329  0.1357  1.0262  0.1862
  329TMC3    C2 4989   2.024   3.794  17.294 -0.3630  0.3288  1.0196
  329TMC3    C3 4990   1.945   3.683  17.294  0.3313  0.1227  0.3192
  329TMC3    C4 4991   2.201   3.654  17.379  0.9037 -0.1592  0.7094
  329TMC3    C5 4992   2.111   3.549  17.371  0.6779  0.1101 -0.2928
  329TMC3    C6 4993   1.981   3.560  17.329 -0.3480  0.5590  0.1151
  329TMC3     C 4994   2.261   3.876  17.308 -0.2229 -0.3675 -0.6347
  329TMC3     O 4995   2.375   3.841  17.331 -0.1265 -0.0372 -0.5318
  329TMC3     H 4996   1.979   3.886  17.259  0.6922  1.4715  2.6436
  329TMC3    H1 4997   2.295   3.643  17.433 -0.4035 -1.4502  2.7072
  329TMC3    H2 4998   1.917   3.476  17.304 -0.6761  0.1665  2.3344
  329TMC3    C7 4999   2.148   3.428  17.437  0.0539  0.3001  0.1137
  329TMC3    C8 5000   1.805   3.720  17.301 -0.5393 -0.4390 -0.2841
  329TMC3    O1 5001   2.222   3.453  17.532  0.1727  0.1398  0.0968
  329TMC3    O2 5002   1.728   3.640  17.250 -1.0313  0.4157 -0.2817
  330TMC3    C1 5003   0.669   3.884   9.195 -0.7074 -0.2616  0.2490
  330TMC3    C2 5004   0.685   3.751   9.217  0.0641 -0.8682 -0.2038
  330TMC3    C3 5005   0.663   3.701   9.344  0.2959 -0.3579  0.0248
  330TMC3    C4 5006   0.636   3.968   9.294 -0.1248  0.0670 -0.4387
  330TMC3    C5 5007   0.614   3.919   9.416  0.6655 -0.4489 -0.1854
  330TMC3    C6 5008   0.629   3.784   9.447  0.3630 -0.3785  0.2156
  330TMC3     C 5009   0.634   3.923   9.059 -0.8226  0.3568  0.0324
  330TMC3     O 5010   0.637   3.836   8.971  0.2281 -1.6176  1.0064
  330TMC3     H 5011   0.704   3.698   9.124  0.6373 -1.9980  0.5593
  330TMC3    H1 5012   0.634   4.076   9.284  0.4254  0.1651  0.4085
  330TMC3    H2 5013   0.630   3.756   9.552 -4.0248  0.5073  0.4892
  330TMC3    C7 5014   0.610   4.015   9.523 -0.0095  0.1352 -0.5557
  330TMC3    C8 5015   0.694   3.562   9.360 -0.0155  0.5066 -0.5214
  330TMC3    O1 5016   0.556   4.122   9.490  0.3182  0.4546  0.1147
  330TMC3    O2 5017   0.792   3.515   9.300  0.0789 -0.0711 -0.8289
  331MPD2     C 5018   3.548   3.317  12.577  0.0812 -0.2953  0.3996
  331MPD2    C1 5019   3.410   3.318  12.579  0.0759  0.2458  0.2257
  331MPD2    C2 5020   3.346   3.198  12.622  0.2426 -0.2396 -0.1178
  331MPD2    C3 5021   3.416   3.089  12.661  0.0078 -0.5670  0.1841
  331MPD2    C4 5022   3.551   3.093  12.665  0.9142 -0.0104  0.1362
  331MPD2    C5 5023   3.624   3.206  12.619  0.4540  0.0460  0.3938
  331MPD2     H 5024   3.239   3.179  12.613  0.4071 -1.7920  1.1855
  331MPD2    H1 5025   3.611   3.008  12.697  2.1694  0.2658 -1.5092
  331MPD2    H2 5026   3.602   3.400  12.534 -1.0884  0.6150  0.6729
  331MPD2    H3 5027   3.730   3.220  12.635  0.2648 -1.1117  2.7582
  331MPD2     N 5028   3.353   2.960  12.676  0.0529 -0.0435 -0.1282
  331MPD2    H5 5029   3.253   2.961  12.658 -0.4239 -2.0421  2.6401
  331MPD2    N1 5030   3.342   3.439  12.546  0.3650 -0.3204 -0.7590
  331MPD2    H7 5031   3.402   3.511  12.509  1.5979 -1.5263 -1.0858
  332TMC3    C1 5032   3.326   2.726  12.710  0.5388  0.2246  0.4614
  332TMC3    C2 5033   3.192   2.750  12.703  0.1362  0.5041 -0.3799
  332TMC3    C3 5034   3.104   2.644  12.739  0.0191 -0.4363 -0.9937
  332TMC3    C4 5035   3.377   2.598  12.741  0.0908 -0.1707  0.2220
  332TMC3    C5 5036   3.293   2.499  12.767  0.1989  0.5929 -0.2318
  332TMC3    C6 5037   3.152   2.522  12.770 -0.2980 -0.0515 -0.0791
  332TMC3     C 5038   3.414   2.837  12.693 -0.1058  0.5889 -1.0469
  332TMC3     O 5039   3.534   2.804  12.714  0.0192  0.3380 -0.4964
  332TMC3     H 5040   3.155   2.850  12.724  1.9518  0.8256  1.1677
  332TMC3    H1 5041   3.480   2.572  12.719  0.4900  1.3896  0.2588
  332TMC3    H2 5042   3.087   2.435  12.768 -0.2141 -0.0956 -0.7337
  332TMC3    C7 5043   3.342   2.361  12.775  0.3675 -0.1870  0.3827
  332TMC3    C8 5044   2.966   2.674  12.739 -0.8551 -0.4458 -0.0027
  332TMC3    O1 5045   3.258   2.273  12.795  0.7246  0.2146  0.4082
  332TMC3    O2 5046   2.939   2.786  12.702  0.4471  0.1834  0.2239
  333MPD2     C 5047   3.153   2.989  11.516 -0.1677 -0.2004  0.0574
  333MPD2    C1 5048   3.279   2.927  11.523  0.4617 -0.1348 -0.5545
  333MPD2    C2 5049   3.311   2.840  11.627  0.1676  0.1600  0.7294
  333MPD2    C3 5050   3.207   2.793  11.704 -0.3910 -0.7645 -0.0611
  333MPD2    C4 5051   3.074   2.841  11.696 -0.0607  0.4470  1.0105
  333MPD2    C5 5052   3.053   2.951  11.605 -0.2219  0.4206 -0.2759
  333MPD2     H 5053   3.414   2.816  11.650  0.2395 -0.1221  0.1202
  333MPD2    H1 5054   2.992   2.798  11.751 -0.1926 -0.4735  0.0893
  333MPD2    H2 5055   3.131   3.063  11.440 -1.0537 -0.9611 -0.4265
  333MPD2    H3 5056   2.950   2.981  11.591  0.3929  2.0879 -1.3367
  333MPD2     N 5057   3.237   2.677  11.780 -0.1696 -0.3987  0.3925
  333MPD2    H5 5058   3.334   2.650  11.772 -0.0062 -0.0151  1.0629
  333MPD2    N1 5059   3.370   2.963  11.421 -0.1121 -0.3971  0.3609
  333MPD2    H7 5060   3.351   3.048  11.368 -2.4059 -0.5273  0.9690
  334TMC3    C1 5061   3.585   2.951  11.310 -0.3211  0.3750  0.5537
  334TMC3    C2 5062   3.694   2.874  11.285  0.4012  0.3366  0.1557
  334TMC3    C3 5063   3.779   2.921  11.192 -0.5946  0.1929 -0.4333
  334TMC3    C4 5064   3.568   3.082  11.271 -0.1644  0.6514 -0.7200
  334TMC3    C5 5065   3.662   3.130  11.185  0.1343  0.5631  0.4635
  334TMC3    C6 5066   3.774   3.055  11.153 -0.0974  0.5595 -0.2272
  334TMC3     C 5067   3.485   2.892  11.403 -0.5751  0.1662  0.1077
  334TMC3     O 5068   3.501   2.775  11.436 -0.0176 -0.4478 -0.0185
  334TMC3     H 5069   3.698   2.769  11.314  0.7075 -0.5524 -3.1772
  334TMC3    H1 5070   3.484   3.140  11.309 -1.2686 -0.3051 -1.7090
  334TMC3    H2 5071   3.857   3.100  11.100  1.3904  0.3221  1.9065
  334TMC3    C7 5072   3.650   3.256  11.106  0.0625  0.3314 -0.4118
  334TMC3    C8 5073   3.895   2.839  11.156  0.1092 -0.0164 -0.6599
  334TMC3    O1 5074   3.757   3.305  11.071  0.2735 -0.3119 -0.4777
  334TMC3    O2 5075   3.892   2.733  11.216  0.8289 -0.0670  0.6280
  335TMC3    C1 5076   2.835   4.046  17.694 -0.1203 -0.4141 -0.5581
  335TMC3    C2 5077   2.776   3.986  17.584  0.3236 -0.5645 -0.2360
  335TMC3    C3 5078   2.860   3.940  17.485 -0.3047  0.3288  0.1530
  335TMC3    C4 5079   2.970   4.060  17.704 -0.1597  0.4898 -0.0031
  335TMC3    C5 5080   3.049   4.019  17.604  0.2079  0.2690 -0.0099
  335TMC3    C6 5081   2.991   3.978  17.483 -0.2385 -0.0474  0.1881
  335TMC3     C 5082   2.756   4.098   0.051 -0.5336  0.4650 -0.0565
  335TMC3     O 5083   2.801   4.186   0.126 -0.4553  0.4122  0.2656
  335TMC3     H 5084   2.671   3.966  17.568  0.3411 -0.6959 -0.1867
  335TMC3    H1 5085   3.002   4.113   0.049  0.0793 -2.7466  1.8728
  335TMC3    H2 5086   3.050   3.937  17.401 -0.8701 -1.9328  0.6815
  335TMC3    C7 5087   3.187   3.994  17.621 -0.4134  0.7733  0.4665
  335TMC3    C8 5088   2.808   3.857  17.377  0.7072  0.6875  0.1279
  335TMC3    O1 5089   3.247   3.947  17.524  0.0622  0.6359 -0.7303
  335TMC3    O2 5090   2.871   3.837  17.277 -0.4742 -0.0662 -0.1118
  336MPD2     C 5091   2.705   1.761  16.385 -0.2550  0.9068 -0.3538
  336MPD2    C1 5092   2.672   1.737  16.255 -0.5042 -0.3284  0.3874
  336MPD2    C2 5093   2.669   1.603  16.221 -0.0081 -0.3924  0.6972
  336MPD2    C3 5094   2.686   1.501  16.312  0.2992 -0.6578 -0.5971
  336MPD2    C4 5095   2.728   1.531  16.439 -0.1376  0.0007  0.2589
  336MPD2    C5 5096   2.723   1.660  16.482 -0.8155  0.1663 -0.3440
  336MPD2     H 5097   2.653   1.578  16.116  0.7559 -0.9745  0.7190
  336MPD2    H1 5098   2.738   1.454  16.515 -1.3430 -0.6338 -0.2113
  336MPD2    H2 5099   2.718   1.862  16.423  1.6267  0.1299  1.0879
  336MPD2    H3 5100   2.745   1.678  16.586 -0.4268  0.7327 -0.5212
  336MPD2     N 5101   2.653   1.368  16.286  0.5533  0.0612  0.0438
  336MPD2    H5 5102   2.646   1.310  16.369  0.6354 -0.4385 -0.3013
  336MPD2    N1 5103   2.662   1.837  16.153  0.8266  0.0188 -0.4665
  336MPD2    H7 5104   2.679   1.806  16.058  0.3485  1.2870 -0.9589
  337TMC3    C1 5105   2.641   2.049  16.050  0.0867  0.1284 -0.1790
  337TMC3    C2 5106   2.520   2.114  16.043  0.0265  0.3867 -0.3126
  337TMC3    C3 5107   2.471   2.132  15.916 -0.2014  0.0615 -0.5184
  337TMC3    C4 5108   2.704   1.997  15.944 -0.4558 -0.4789 -0.0982
  337TMC3    C5 5109   2.653   2.021  15.822 -0.0130 -0.3426  0.1085
  337TMC3    C6 5110   2.537   2.092  15.802 -0.1878 -0.0146 -0.2157
  337TMC3     C 5111   2.655   1.973  16.175  0.2496 -0.2381  0.0226
  337TMC3     O 5112   2.650   2.045  16.272  0.2130 -0.1726  0.4739
  337TMC3     H 5113   2.460   2.135  16.131  0.4888  1.4898 -0.2619
  337TMC3    H1 5114   2.797   1.946  15.967  0.9495  1.3254 -1.8002
  337TMC3    H2 5115   2.499   2.119  15.704 -0.6949 -2.6907 -0.7560
  337TMC3    C7 5116   2.702   1.958  15.706 -0.1202 -0.3663 -0.7354
  337TMC3    C8 5117   2.335   2.194  15.918 -0.6549 -0.5533  0.5294
  337TMC3    O1 5118   2.624   1.944  15.615  0.3817  0.3577 -0.0926
  337TMC3    O2 5119   2.282   2.232  16.025  0.3093 -0.1300 -0.9461
  338MPD2     C 5120   2.588   1.353   1.038  0.9881  0.1691 -0.1436
  338MPD2    C1 5121   2.533   1.342   0.907  0.0467  0.3106  0.1431
  338MPD2    C2 5122   2.394   1.352   0.885 -0.6488 -0.0592  0.1270
  338MPD2    C3 5123   2.305   1.352   0.992 -0.5091  0.4736  0.4164
  338MPD2    C4 5124   2.355   1.364   1.120  0.3902 -0.6015  0.3182
  338MPD2    C5 5125   2.497   1.368   1.137 -0.6606  0.3424  0.1445
  338MPD2     H 5126   2.356   1.362   0.784 -3.5804 -0.8553  1.1351
  338MPD2    H1 5127   2.293   1.384   1.206  0.6312 -0.6096  0.4942
  338MPD2    H2 5128   2.695   1.345   1.058  1.4437 -3.0056 -3.7634
  338MPD2    H3 5129   2.536   1.380   1.238  1.7176 -2.5948 -0.4325
  338MPD2     N 5130   2.168   1.377   0.973 -0.6431  0.3836  0.3278
  338MPD2    H5 5131   2.141   1.384   0.876 -1.1293  0.3618  0.4642
  338MPD2    N1 5132   2.612   1.332   0.791 -0.0577 -0.7474 -0.3494
  338MPD2    H7 5133   2.564   1.334   0.701 -1.7064  2.6853  0.5971
  339TMC3    C1 5134   1.937   1.354   1.011 -0.2815 -0.1568 -0.4205
  339TMC3    C2 5135   1.861   1.245   1.043 -0.8269  0.4307 -0.3405
  339TMC3    C3 5136   1.761   1.211   0.953 -0.2233  1.4405 -0.1970
  339TMC3    C4 5137   1.914   1.429   0.902  0.2848 -0.6520  0.5848
  339TMC3    C5 5138   1.808   1.402   0.817  0.0019  0.4598  0.6089
  339TMC3    C6 5139   1.728   1.289   0.846  0.7995 -0.8289  0.2425
  339TMC3     C 5140   2.066   1.349   1.061  0.5781  0.4439  0.4177
  339TMC3     O 5141   2.078   1.283   1.161 -0.0479 -0.3087  0.9195
  339TMC3     H 5142   1.872   1.191   1.137  3.5389  0.0499 -1.0855
  339TMC3    H1 5143   1.980   1.514   0.885 -1.3825  1.1431  3.0659
  339TMC3    H2 5144   1.632   1.275   0.797  1.9407 -0.5400 -2.0604
  339TMC3    C7 5145   1.797   1.475   0.693  0.3006 -0.2341  0.5194
  339TMC3    C8 5146   1.669   1.116   1.004  0.7933 -0.6984  0.6103
  339TMC3    O1 5147   1.904   1.527   0.658  0.1569  0.6074 -0.5107
  339TMC3    O2 5148   1.550   1.128   0.965  0.4225 -0.5081 -0.2547
  340MPD2     C 5149   3.427   3.629  10.468 -0.0062  0.0983 -0.0570
  340MPD2    C1 5150   3.391   3.655  10.338  0.0298  0.3849  0.8027
  340MPD2    C2 5151   3.467   3.618  10.226  0.3330  0.1376 -0.0139
  340MPD2    C3 5152   3.595   3.557  10.251 -0.3226  0.3676 -0.2716
  340MPD2    C4 5153   3.630   3.540  10.377 -0.6915 -0.3876  0.4733
  340MPD2    C5 5154   3.549   3.577  10.486  0.0194 -0.6585 -0.1136
  340MPD2     H 5155   3.427   3.627  10.126  1.0667  0.6939 -0.2517
  340MPD2    H1 5156   3.729   3.504  10.403  0.7220  2.0232 -1.6572
  340MPD2    H2 5157   3.365   3.660  10.551  1.2578  0.6109  0.6969
  340MPD2    H3 5158   3.586   3.567  10.588 -0.5611  2.1800  0.4004
  340MPD2     N 5159   3.688   3.511  10.152  0.2253 -0.1229 -0.5462
  340MPD2    H5 5160   3.771   3.459  10.180  0.6432  0.0797 -1.3958
  340MPD2    N1 5161   3.259   3.707  10.324 -0.5670  0.3296  0.0955
  340MPD2    H7 5162   3.196   3.708  10.403  0.7853  0.7073  1.1574
  341TMC3    C1 5163   3.069   3.805  10.201  0.0146 -0.2287 -0.1740
  341TMC3    C2 5164   2.981   3.712  10.256  0.2740 -0.2501 -0.4686
  341TMC3    C3 5165   2.856   3.724  10.198  0.4862 -0.5793 -0.5510
  341TMC3    C4 5166   3.038   3.895  10.104  0.6218 -0.7694  0.6178
  341TMC3    C5 5167   2.918   3.900  10.058 -0.6530 -0.6514 -0.0105
  341TMC3    C6 5168   2.823   3.813  10.103 -0.0106 -0.2632  1.0440
  341TMC3     C 5169   3.215   3.769  10.204 -0.4581  0.8039  0.0898
  341TMC3     O 5170   3.283   3.804  10.108  0.5669  0.2234 -0.3788
  341TMC3     H 5171   3.014   3.621  10.306 -3.4551 -0.0138  2.4159
  341TMC3    H1 5172   3.110   3.947  10.041 -2.4062  0.7146 -1.6136
  341TMC3    H2 5173   2.720   3.819  10.070  0.3342  0.0342  0.0177
  341TMC3    C7 5174   2.901   4.006   9.959  0.4943 -0.3653  0.2814
  341TMC3    C8 5175   2.780   3.600  10.202  0.3586  0.8089  0.2255
  341TMC3    O1 5176   2.985   4.093   9.968 -0.3146 -0.0149 -0.3895
  341TMC3    O2 5177   2.811   3.525  10.290  0.0707  0.0735 -0.0145
  342MPD2     C 5178   0.674   2.332  17.601  0.0586 -0.0517 -0.4912
  342MPD2    C1 5179   0.787   2.367  17.527  0.1011  0.0311  1.1786
  342MPD2    C2 5180   0.849   2.485  17.555  0.5065 -0.3825 -0.0902
  342MPD2    C3 5181   0.819   2.553  17.672 -0.8161  0.5189  0.2367
  342MPD2    C4 5182   0.717   2.509   0.010  0.4084 -0.5294  0.2050
  342MPD2    C5 5183   0.648   2.392  17.721  0.0038 -0.7808 -0.3498
  342MPD2     H 5184   0.932   2.518  17.494 -0.5200 -1.4449 -2.0766
  342MPD2    H1 5185   0.683   2.566   0.095  0.3069 -0.7590  0.3190
  342MPD2    H2 5186   0.606   2.260  17.558 -0.5387  0.4169 -0.3310
  342MPD2    H3 5187   0.557   2.364   0.028  0.9874 -0.6355  1.5075
  342MPD2     N 5188   0.875   2.677  17.709  0.0714  0.3308 -0.0439
  342MPD2    H5 5189   0.839   2.710   0.055  0.9216  1.7326 -0.2173
  342MPD2    N1 5190   0.832   2.290  17.418  0.3115 -0.1184 -0.3037
  342MPD2    H7 5191   0.906   2.332  17.361 -0.7239  2.9915  0.6235
  343TMC3    C1 5192   0.854   2.099  17.274  0.0136 -0.7109 -0.4009
  343TMC3    C2 5193   0.955   2.169  17.209  1.0281  0.3766 -0.4136
  343TMC3    C3 5194   0.979   2.128  17.084  0.4079 -0.0398  0.6034
  343TMC3    C4 5195   0.808   1.978  17.232 -0.3677 -0.3474  0.1428
  343TMC3    C5 5196   0.829   1.950  17.104 -0.3700 -0.1091 -0.5249
  343TMC3    C6 5197   0.917   2.020  17.024 -0.6253 -0.3894 -0.4839
  343TMC3     C 5198   0.793   2.158  17.394  0.0826 -0.5606 -0.2770
  343TMC3     O 5199   0.713   2.091  17.460 -0.6724 -0.2646 -0.0661
  343TMC3     H 5200   1.002   2.256  17.254 -0.1037  1.2427 -0.9136
  343TMC3    H1 5201   0.741   1.923  17.296 -1.0191 -2.2197 -2.1296
  343TMC3    H2 5202   0.928   2.013  16.917  0.0613 -0.9807 -0.3781
  343TMC3    C7 5203   0.770   1.840  17.046 -0.4715  0.4683 -0.2838
  343TMC3    C8 5204   1.087   2.183  17.005 -0.4091  0.1917 -0.0160
  343TMC3    O1 5205   0.734   1.747  17.114  0.6251 -0.5331  0.0351
  343TMC3    O2 5206   1.102   2.306  17.018 -0.2041 -0.2556  0.6934
  344MPD2     C 5207   1.398   2.247  11.240  0.4453  0.2033  0.0858
  344MPD2    C1 5208   1.534   2.219  11.261 -0.6881 -0.6557 -0.1534
  344MPD2    C2 5209   1.629   2.280  11.176  0.1599  0.1047  0.7094
  344MPD2    C3 5210   1.589   2.364  11.075  0.3668  0.4001 -0.3850
  344MPD2    C4 5211   1.455   2.388  11.061 -0.0222 -1.0308 -0.3376
  344MPD2    C5 5212   1.366   2.328  11.138  0.2602 -0.0764  0.3234
  344MPD2     H 5213   1.733   2.255  11.195  0.0257 -0.8089  0.2460
  344MPD2    H1 5214   1.427   2.452  10.978 -2.1273  0.8030  1.7779
  344MPD2    H2 5215   1.318   2.214  11.305  1.7335 -2.4198  0.3501
  344MPD2    H3 5216   1.267   2.368  11.119  0.6926  1.0362  0.4007
  344MPD2     N 5217   1.676   2.428  10.982  0.6465 -0.1838  0.2743
  344MPD2    H5 5218   1.623   2.487  10.918  0.2731 -1.8508 -0.9592
  344MPD2    N1 5219   1.573   2.121  11.357  0.2517 -0.1101  0.7473
  344MPD2    H7 5220   1.672   2.099  11.352 -0.1942 -1.9533  0.3179
  345TMC3    C1 5221   1.872   2.506  10.873 -0.3417  0.1722 -0.1950
  345TMC3    C2 5222   2.002   2.558  10.897 -0.2833 -0.3610 -0.2820
  345TMC3    C3 5223   2.063   2.621  10.794  0.0942  0.8233 -0.5175
  345TMC3    C4 5224   1.808   2.519  10.755  0.1100 -0.0287  0.8104
  345TMC3    C5 5225   1.872   2.589  10.656  0.5453 -0.1243  0.1563
  345TMC3    C6 5226   1.994   2.644  10.675 -0.3396 -0.0962 -0.4252
  345TMC3     C 5227   1.815   2.430  10.988 -0.2358  0.5327 -0.4653
  345TMC3     O 5228   1.889   2.381  11.072 -0.4504  0.1535  0.5845
  345TMC3     H 5229   2.040   2.553  10.999 -0.5147  0.1703 -0.1692
  345TMC3    H1 5230   1.706   2.487  10.736  0.7928 -0.3994 -2.2842
  345TMC3    H2 5231   2.041   2.702  10.596  1.1209  0.6500  1.0081
  345TMC3    C7 5232   1.802   2.632  10.535 -0.3401  0.6163  0.5935
  345TMC3    C8 5233   2.188   2.701  10.819 -0.1235  0.1459 -0.3056
  345TMC3    O1 5234   1.837   2.739  10.482  0.2276  0.0539 -0.2903
  345TMC3    O2 5235   2.261   2.665  10.913 -0.4380  0.0380 -0.0782
  346MPD2     C 5236   1.724   3.723  14.544 -1.1027 -0.2553  0.7410
  346MPD2    C1 5237   1.814   3.770  14.453 -0.4506 -0.5227  0.3228
  346MPD2    C2 5238   1.933   3.827  14.496 -0.9714  0.4665  0.5728
  346MPD2    C3 5239   1.961   3.846  14.631  0.0540  0.0196  0.1116
  346MPD2    C4 5240   1.870   3.797  14.720  0.2824  0.0840  0.1788
  346MPD2    C5 5241   1.754   3.747  14.674  0.0063  0.3472 -0.6066
  346MPD2     H 5242   2.006   3.855  14.421 -0.3306 -1.2803  0.5435
  346MPD2    H1 5243   1.887   3.809  14.827  0.3087 -0.2071  0.2082
  346MPD2    H2 5244   1.631   3.670  14.527  0.1135 -2.5393  1.1974
  346MPD2    H3 5245   1.682   3.708  14.745  0.7429 -0.1950 -0.1627
  346MPD2     N 5246   2.088   3.898  14.665 -0.1002 -0.5146  0.2115
  346MPD2    H5 5247   2.139   3.926  14.582  0.5243 -0.2767  0.6680
  346MPD2    N1 5248   1.802   3.759  14.316 -0.5386 -0.2002 -0.2326
  346MPD2    H7 5249   1.876   3.812  14.270 -0.6935 -0.1184 -0.3867
  347TMC3    C1 5250   2.258   3.989  14.788  0.1214 -0.1886  0.0344
  347TMC3    C2 5251   2.344   3.947  14.695 -0.6409  0.3115  0.2902
  347TMC3    C3 5252   2.454   4.021  14.658 -1.1652 -0.5778  0.3438
  347TMC3    C4 5253   2.276   4.107  14.844 -0.0075 -0.2642 -0.2312
  347TMC3    C5 5254   2.393   4.182  14.810  0.3014  0.5778  0.1980
  347TMC3    C6 5255   2.484   4.144  14.719 -0.4451 -0.3661  0.0247
  347TMC3     C 5256   2.124   3.932  14.789  0.4171 -0.4483 -0.2578
  347TMC3     O 5257   2.047   3.951  14.883 -0.2208  0.1637  0.3610
  347TMC3     H 5258   2.339   3.850  14.646 -0.7775  1.3047 -1.6776
  347TMC3    H1 5259   2.196   4.153  14.901  1.8477  0.8196  1.4855
  347TMC3    H2 5260   2.580   4.196  14.716 -1.3463  1.3083  0.2231
  347TMC3    C7 5261   2.419   4.301  14.886  0.6437  1.1514 -0.7351
  347TMC3    C8 5262   2.559   3.956  14.591  0.2190  0.8668  0.3710
  347TMC3    O1 5263   2.357   4.317  14.989  0.2353  0.2807 -0.1137
  347TMC3    O2 5264   2.559   3.836  14.595  0.2011 -0.0752 -0.5878
  348MPD2     C 5265   0.726   3.399  12.207  0.2769 -0.2168 -0.1041
  348MPD2    C1 5266   0.755   3.308  12.113 -0.5153  0.3202  0.1040
  348MPD2    C2 5267   0.717   3.330  11.984  0.0125  0.3065 -0.2187
  348MPD2    C3 5268   0.677   3.450  11.940 -0.8534 -0.3357 -0.7931
  348MPD2    C4 5269   0.654   3.551  12.030  0.0825  0.3394 -0.6079
  348MPD2    C5 5270   0.675   3.520  12.162  0.2457  0.1714  0.1779
  348MPD2     H 5271   0.738   3.254  11.910 -1.9421 -0.2862 -0.1762
  348MPD2    H1 5272   0.622   3.651  12.005  0.1171  0.5422  0.1809
  348MPD2    H2 5273   0.742   3.391  12.314  1.8437 -0.4683 -0.3626
  348MPD2    H3 5274   0.632   3.583  12.239  0.0565 -0.4629  0.5961
  348MPD2     N 5275   0.652   3.461  11.802 -0.5396  0.6129 -0.1301
  348MPD2    H5 5276   0.674   3.380  11.745  2.8034  0.7923  0.9166
  348MPD2    N1 5277   0.832   3.197  12.140 -0.5449  0.4454  0.0749
  348MPD2    H7 5278   0.848   3.136  12.060  1.3730  1.7481 -0.5472
  349TMC3    C1 5279   0.935   3.031  12.270  0.2569 -0.3002 -0.4972
  349TMC3    C2 5280   0.885   2.946  12.366  0.2332  0.8018 -0.7237
  349TMC3    C3 5281   0.877   2.813  12.333  0.4378 -0.2332 -0.1086
  349TMC3    C4 5282   0.987   2.982  12.152 -0.0618 -0.3044  0.0476
  349TMC3    C5 5283   0.963   2.849  12.119  0.1842 -0.0056 -0.2213
  349TMC3    C6 5284   0.902   2.769  12.209  0.2245  0.1156  0.5364
  349TMC3     C 5285   0.888   3.165  12.264  0.3013  0.8683 -0.2231
  349TMC3     O 5286   0.880   3.227  12.371  0.2657  0.2626  0.7400
  349TMC3     H 5287   0.846   2.987  12.458  0.2843 -0.8465  0.0412
  349TMC3    H1 5288   1.054   3.052  12.103 -1.1398  0.0694 -0.8958
  349TMC3    H2 5289   0.862   2.673  12.177  0.5865  0.9811 -2.5690
  349TMC3    C7 5290   0.901   2.840  11.986 -0.2091  0.2524  0.2100
  349TMC3    C8 5291   0.895   2.716  12.438 -0.4231 -0.0525  0.3624
  349TMC3    O1 5292   0.815   2.758  11.963 -0.0763  0.2649  0.0134
  349TMC3    O2 5293   0.849   2.742  12.544  0.2597 -0.3049  0.2907
  350MPD2     C 5294   4.417   1.683  10.448 -0.3123 -0.4923 -0.2873
  350MPD2    C1 5295   4.487   1.567  10.450  0.2153 -0.6314 -0.2967
  350MPD2    C2 5296   4.614   1.565  10.501 -0.6595  0.1856  0.1020
  350MPD2    C3 5297   4.674   1.678  10.557 -0.4516 -0.1182  0.0254
  350MPD2    C4 5298   4.599   1.796  10.551  0.1133  0.3383  0.6384
  350MPD2    C5 5299   4.478   1.797  10.487 -0.1201 -0.3580  0.6485
  350MPD2     H 5300   4.666   1.470  10.514 -1.9372 -0.1452  2.7578
  350MPD2    H1 5301   4.638   1.888  10.594 -1.3738  1.5478 -0.5880
  350MPD2    H2 5302   4.320   1.698  10.403 -0.4696  0.4063  0.3571
  350MPD2    H3 5303   4.426   1.892  10.478 -0.6205 -0.9000 -2.2439
  350MPD2     N 5304   0.056   1.668  10.622 -0.4827 -0.2537 -0.2157
  350MPD2    H5 5305   0.096   1.574  10.624  0.5601  0.1800 -0.7797
  350MPD2    N1 5306   4.428   1.442  10.423 -0.4220  0.1287  0.0318
  350MPD2    H7 5307   4.479   1.357  10.442  0.4270  1.0727  1.9535
  351TMC3    C1 5308   4.261   1.285  10.382  0.4108 -0.3106  0.0610
  351TMC3    C2 5309   4.354   1.187  10.354  0.1455  0.2310 -0.4932
  351TMC3    C3 5310   4.317   1.056  10.346 -0.2493  0.0954  0.2959
  351TMC3    C4 5311   4.132   1.255  10.400 -0.0032  0.3505 -0.3839
  351TMC3    C5 5312   4.096   1.122  10.386 -0.4472 -0.0503  0.3568
  351TMC3    C6 5313   4.185   1.024  10.356 -0.0254 -0.3742  0.2863
  351TMC3     C 5314   4.294   1.426  10.401 -0.5758 -0.4164 -0.1633
  351TMC3     O 5315   4.202   1.506  10.395  0.1066 -0.5234 -0.6231
  351TMC3     H 5316   4.457   1.217  10.342  0.4034 -0.7614 -0.7338
  351TMC3    H1 5317   4.068   1.333  10.440 -0.8852 -0.8590  0.5524
  351TMC3    H2 5318   4.162   0.918  10.358  0.3498 -0.4608 -0.0585
  351TMC3    C7 5319   3.969   1.081  10.461  1.0083 -0.3852  0.1226
  351TMC3    C8 5320   4.414   0.966  10.292 -0.4451  0.4100  0.1987
  351TMC3    O1 5321   3.982   0.979  10.527 -0.1682  0.0215  0.1387
  351TMC3    O2 5322   4.524   1.011  10.259 -0.4488  0.4099  0.9101
  352MPD2     C 5323   2.761   2.912   1.724  0.4015  0.2907  0.1361
  352MPD2    C1 5324   2.704   2.850   1.614  0.4768 -0.7521 -0.2356
  352MPD2    C2 5325   2.748   2.724   1.574  1.4995 -0.4648  0.1413
  352MPD2    C3 5326   2.856   2.660   1.642 -0.6092  1.0056  0.0829
  352MPD2    C4 5327   2.920   2.738   1.736  0.0839 -0.7118  0.0208
  352MPD2    C5 5328   2.871   2.854   1.782 -0.2097 -0.4934  0.8374
  352MPD2     H 5329   2.700   2.675   1.489  0.3875 -0.6809  0.8927
  352MPD2    H1 5330   3.007   2.706   1.791  2.1775  1.3516 -2.1111
  352MPD2    H2 5331   2.739   3.013   1.757 -2.5776 -0.4750  0.4794
  352MPD2    H3 5332   2.916   2.906   1.866  2.1706  0.8744 -1.2811
  352MPD2     N 5333   2.904   2.531   1.605  0.0718  0.1045 -0.2003
  352MPD2    H5 5334   2.987   2.508   1.659 -0.2046  0.6296  0.4453
  352MPD2    N1 5335   2.606   2.925   1.551  0.4154 -0.3432 -0.6193
  352MPD2    H7 5336   2.586   3.009   1.603 -1.6639 -1.0061 -0.3339
  353TMC3    C1 5337   2.884   2.310   1.523 -0.3350 -0.0085  0.6331
  353TMC3    C2 5338   3.015   2.278   1.545  0.3513 -0.5873 -0.1226
  353TMC3    C3 5339   3.047   2.139   1.560 -0.6226 -0.5299 -0.1779
  353TMC3    C4 5340   2.788   2.217   1.515 -0.6732 -0.1842 -0.0760
  353TMC3    C5 5341   2.826   2.082   1.514  0.2361  0.1270  0.2298
  353TMC3    C6 5342   2.957   2.045   1.536 -0.0206  0.2941 -0.3766
  353TMC3     C 5343   2.838   2.446   1.518 -0.3557 -0.2479 -0.5401
  353TMC3     O 5344   2.734   2.457   1.450 -0.3523 -0.4289 -0.7591
  353TMC3     H 5345   3.089   2.358   1.545 -0.2203 -0.0600 -1.1957
  353TMC3    H1 5346   2.686   2.237   1.484  0.7587  3.5671 -2.5185
  353TMC3    H2 5347   2.977   1.939   1.538  1.0625  0.5399  2.4997
  353TMC3    C7 5348   2.720   1.979   1.518 -0.0937 -0.1594 -0.1811
  353TMC3    C8 5349   3.187   2.105   1.567 -0.0603  0.1571 -0.3131
  353TMC3    O1 5350   2.736   1.888   1.596  0.5126 -0.3360 -0.4935
  353TMC3    O2 5351   3.263   2.192   1.605  0.4284  0.2194 -0.0286
  354TMC3    C1 5352   4.677   4.541  13.491  0.2726  0.4738 -0.2480
  354TMC3    C2 5353   4.715   4.672  13.500 -0.0684 -0.4090 -0.4130
  354TMC3    C3 5354   0.006   0.005  13.391  0.6702 -0.0247  0.4886
  354TMC3    C4 5355   4.655   4.473  13.373  0.0583  0.1005 -0.6220
  354TMC3    C5 5356   4.719   4.533  13.275 -0.6206 -0.3526 -0.0181
  354TMC3    C6 5357   0.012   4.669  13.268  0.3283 -0.7084  0.6752
  354TMC3     C 5358   4.675   4.470  13.618  0.1944  0.4180  0.3855
  354TMC3     O 5359   4.613   4.363  13.612 -0.2667  0.5548 -0.3783
  354TMC3     H 5360   4.703   4.731  13.590  0.6124  0.8836 -1.1840
  354TMC3    H1 5361   4.642   4.366  13.375 -2.0001  0.3819  1.4692
  354TMC3    H2 5362   0.045   4.716  13.176  1.0895 -0.3298  1.1341
  354TMC3    C7 5363   0.040   4.457  13.171  0.3712  0.0166 -0.2749
  354TMC3    C8 5364   0.043   0.144  13.402  0.7722  0.7455 -0.2529
  354TMC3    O1 5365   4.734   4.343  13.151  0.2594 -0.0486 -0.3872
  354TMC3    O2 5366   0.055   0.194  13.513 -0.0993  0.1896 -0.9919
  355MPD2     C 5367   0.046   0.693  11.910  0.0947  0.3881 -0.3074
  355MPD2    C1 5368   0.052   0.828  11.893  0.2242 -1.2910 -0.2731
  355MPD2    C2 5369   0.101   0.903  11.998 -0.0976 -0.1020  0.1296
  355MPD2    C3 5370   0.124   0.852  12.121 -1.2170  0.3205  0.5541
  355MPD2    C4 5371   0.119   0.712  12.139  0.5510  0.1351  0.3535
  355MPD2    C5 5372   0.079   0.638  12.031 -0.3991 -0.4898  0.2774
  355MPD2     H 5373   0.102   1.011  11.992  0.4173 -0.0737  0.6532
  355MPD2    H1 5374   0.141   0.655  12.229  1.0706  1.0378  0.7957
  355MPD2    H2 5375   4.736   0.619  11.845  2.1263 -0.8339 -0.3865
  355MPD2    H3 5376   0.071   0.530  12.039 -0.2939 -0.5524 -0.4373
  355MPD2     N 5377   0.171   0.938  12.218  0.3376 -0.4415 -0.3841
  355MPD2    H5 5378   0.189   1.033  12.188 -1.8163 -0.4201 -1.5906
  355MPD2    N1 5379   0.033   0.882  11.761  0.6098 -0.1211  0.4129
  355MPD2    H7 5380   4.726   0.818  11.695  1.6949 -1.2032  0.7362
  356TMC3    C1 5381   0.248   1.013  12.425  0.2314  0.4120  0.0032
  356TMC3    C2 5382   0.265   1.135  12.362 -0.0970 -0.2808  0.6746
  356TMC3    C3 5383   0.381   1.206  12.392  0.7620  0.2551  0.7513
  356TMC3    C4 5384   0.321   0.975  12.536 -0.6448  0.2561  0.2498
  356TMC3    C5 5385   0.437   1.048  12.554 -0.4022 -0.5194  0.7847
  356TMC3    C6 5386   0.473   1.157  12.481 -0.0469  0.2347  0.3047
  356TMC3     C 5387   0.186   0.906  12.351  1.1917  0.2964 -0.1257
  356TMC3     O 5388   0.159   0.803  12.411 -0.0174 -0.1899 -0.4635
  356TMC3     H 5389   0.197   1.167  12.284  0.5357 -1.1311 -0.2202
  356TMC3    H1 5390   0.307   0.878  12.582  1.3857  0.4306  1.2155
  356TMC3    H2 5391   0.574   1.197  12.485 -0.5593  1.5882 -0.3541
  356TMC3    C7 5392   0.527   0.986  12.657  0.6685  0.2858  0.2756
  356TMC3    C8 5393   0.437   1.260  12.268  0.0694 -0.8528  0.2509
  356TMC3    O1 5394   0.510   0.868  12.688 -0.0560 -0.9585  0.3304
  356TMC3    O2 5395   0.383   1.217  12.170  0.0581 -0.2131 -0.2880
  357MPD2     C 5396   4.489   0.103   0.396  0.1520 -0.6569  0.0804
  357MPD2    C1 5397   4.470   4.724   0.468  0.5624 -0.2940 -0.4545
  357MPD2    C2 5398   4.352   4.703   0.538  0.3055 -0.0222  0.1380
  357MPD2    C3 5399   4.240   0.046   0.522 -0.1559 -0.0655  0.0911
  357MPD2    C4 5400   4.259   0.154   0.441 -0.0627  0.1884  0.0799
  357MPD2    C5 5401   4.378   0.186   0.386  0.0552 -0.0851 -0.8765
  357MPD2     H 5402   4.337   4.622   0.609  0.2107  0.0351  0.1846
  357MPD2    H1 5403   4.172   0.216   0.420 -0.6953 -0.1553  1.6649
  357MPD2    H2 5404   4.581   0.131   0.345  0.6907  1.0554  2.0193
  357MPD2    H3 5405   4.384   0.268   0.316 -0.7533 -1.6343 -2.7656
  357MPD2     N 5406   4.114   0.026   0.586 -0.0085  0.6254 -0.0208
  357MPD2    H5 5407   4.040   0.088   0.556 -0.1203  0.0350 -0.9458
  357MPD2    N1 5408   4.574   4.631   0.477  0.5196  0.1889  0.2455
  357MPD2    H7 5409   4.659   4.641   0.423  1.0613 -1.1343  0.8679
  358TMC3    C1 5410   4.692   4.445   0.541  0.4319 -0.0652 -0.1426
  358TMC3    C2 5411   4.708   4.381   0.415  0.3537  0.3802 -0.7169
  358TMC3    C3 5412   0.069   4.282   0.407 -0.1369  0.1360  0.3446
  358TMC3    C4 5413   0.025   4.402   0.652  0.2977  0.5345  0.2143
  358TMC3    C5 5414   0.124   4.304   0.636 -0.8826  0.5057 -0.2861
  358TMC3    C6 5415   0.127   4.234   0.519 -0.2898  0.5683 -0.5812
  358TMC3     C 5416   4.577   4.527   0.564 -0.3166 -0.4271 -0.4153
  358TMC3     O 5417   4.525   4.522   0.674 -0.4634 -0.1750 -0.1350
  358TMC3     H 5418   4.660   4.415   0.324 -1.3698 -2.4247 -0.8754
  358TMC3    H1 5419   4.728   4.435   0.750 -0.9602 -0.0505 -0.0152
  358TMC3    H2 5420   0.212   4.169   0.503 -0.6020  0.1297 -0.4450
  358TMC3    C7 5421   0.212   4.262   0.744  0.1266  0.0555  0.4682
  358TMC3    C8 5422   0.054   4.192   0.293 -0.2185 -0.4071  0.2790
  358TMC3    O1 5423   0.269   4.155   0.728  0.0973  0.4798  0.5212
  358TMC3    O2 5424   0.003   4.243   0.197  0.2316 -0.5083  0.2769
  359MPD2     C 5425   4.691   3.509  12.254  0.2122  0.1231 -0.3120
  359MPD2    C1 5426   4.681   3.548  12.120  0.5118  0.1196  0.9269
  359MPD2    C2 5427   4.567   3.513  12.054 -0.4692 -0.8683 -0.2527
  359MPD2    C3 5428   4.454   3.463  12.120 -0.0574  0.7965  0.1842
  359MPD2    C4 5429   4.467   3.449  12.253  0.7081 -0.5253 -0.3476
  359MPD2    C5 5430   4.582   3.465  12.319 -0.6494 -0.0504  0.3570
  359MPD2     H 5431   4.554   3.542  11.951 -0.0280 -0.6377 -0.2424
  359MPD2    H1 5432   4.385   3.399  12.304  0.5040  0.1598 -0.0156
  359MPD2    H2 5433   0.044   3.526  12.313  1.1457 -0.0693 -1.6602
  359MPD2    H3 5434   4.578   3.468  12.428 -0.3458 -1.0098  0.3937
  359MPD2     N 5435   4.339   3.437  12.056 -0.4508 -0.1163  0.4706
  359MPD2    H5 5436   4.255   3.420  12.110 -0.3686 -1.0666  0.3058
  359MPD2    N1 5437   0.045   3.623  12.049  0.5470  0.5484 -0.1411
  359MPD2    H7 5438   0.016   3.676  11.967 -0.8183 -1.0630 -0.6988
  360TMC3    C1 5439   0.236   3.744  12.010  0.1211 -0.0855  0.2901
  360TMC3    C2 5440   0.348   3.812  12.065 -0.3785 -0.3866  0.2026
  360TMC3    C3 5441   0.425   3.889  11.985  0.4212  0.3560 -0.4736
  360TMC3    C4 5442   0.220   3.746  11.872  0.2121 -0.0765 -0.9198
  360TMC3    C5 5443   0.306   3.824  11.800  0.6102 -0.7548 -0.4860
  360TMC3    C6 5444   0.407   3.894  11.854  0.3641 -0.0108 -0.4562
  360TMC3     C 5445   0.164   3.654  12.097 -0.2528  0.4376  0.2179
  360TMC3     O 5446   0.230   3.609  12.192  0.6175  0.0815 -0.1385
  360TMC3     H 5447   0.358   3.816  12.173  3.1509 -0.6472 -0.1142
  360TMC3    H1 5448   0.145   3.687  11.822 -0.0254 -0.8357  0.3351
  360TMC3    H2 5449   0.474   3.944  11.784 -0.3637  1.1990 -0.2783
  360TMC3    C7 5450   0.281   3.863  11.663  0.0288 -0.3045  0.3681
  360TMC3    C8 5451   0.545   3.941  12.041  0.3269  0.0502  1.0191
  360TMC3    O1 5452   0.377   3.883  11.586 -0.0426  0.2808 -0.6137
  360TMC3    O2 5453   0.556   3.997  12.149 -0.4565  0.0733 -0.1974
  361MPD2     C 5454   1.887   2.842  16.596 -0.1398  0.0349  0.5227
  361MPD2    C1 5455   1.855   2.840  16.727  0.0227 -0.3369 -0.5358
  361MPD2    C2 5456   1.935   2.764  16.808  0.5052 -0.2353 -0.1472
  361MPD2    C3 5457   2.052   2.702  16.757 -0.6940  0.3007 -0.1311
  361MPD2    C4 5458   2.091   2.712  16.625  1.0913  0.3401 -0.3583
  361MPD2    C5 5459   2.002   2.785  16.543 -0.5119  0.1387 -0.6309
  361MPD2     H 5460   1.923   2.753  16.915  0.6190 -0.6893 -0.1795
  361MPD2    H1 5461   2.176   2.661  16.581  0.2041 -1.1093 -0.3861
  361MPD2    H2 5462   1.831   2.903  16.525  2.1041 -0.7648 -1.9293
  361MPD2    H3 5463   2.016   2.787  16.436 -0.2602  0.7886 -0.5878
  361MPD2     N 5464   2.137   2.616  16.837  0.1331 -0.2281 -0.4960
  361MPD2    H5 5465   2.214   2.582  16.781 -0.2472  1.5779 -2.1280
  361MPD2    N1 5466   1.730   2.900  16.766  0.9492  0.1348 -1.1001
  361MPD2    H7 5467   1.687   2.961  16.698  3.0238  0.6577 -1.9506
  362TMC3    C1 5468   1.555   2.952  16.909  0.1357  0.1905  0.7719
  362TMC3    C2 5469   1.475   2.923  17.012  0.2197  0.4993  0.3531
  362TMC3    C3 5470   1.370   3.007  17.048 -0.3012 -0.4436  0.2718
  362TMC3    C4 5471   1.535   3.072  16.838  0.3066 -0.1748 -0.1344
  362TMC3    C5 5472   1.429   3.155  16.879 -0.0046  0.3906 -0.3318
  362TMC3    C6 5473   1.339   3.116  16.979  0.0097  0.4292 -0.1495
  362TMC3     C 5474   1.664   2.859  16.885  0.0234  0.0107  0.1739
  362TMC3     O 5475   1.678   2.763  16.961 -0.0537 -0.3680  0.2632
  362TMC3     H 5476   1.498   2.840  17.077 -1.4547 -0.0369  0.2775
  362TMC3    H1 5477   1.626   3.113  16.795 -0.8022  0.7070 -1.6338
  362TMC3    H2 5478   1.259   3.185  17.004 -0.7776  0.5080 -2.9143
  362TMC3    C7 5479   1.425   3.296  16.830 -0.2735  0.0855 -0.1793
  362TMC3    C8 5480   1.264   2.968  17.146  1.0053  0.3251 -0.5901
  362TMC3    O1 5481   1.340   3.373  16.867 -0.1450  0.1275 -0.3993
  362TMC3    O2 5482   1.217   2.853  17.134  0.5043 -0.0596  0.0482
  363TMC3    C1 5483   0.911   1.377  10.159  0.7522 -0.1158 -0.5054
  363TMC3    C2 5484   0.920   1.263  10.229 -0.0315  0.4013  0.0309
  363TMC3    C3 5485   0.822   1.164  10.212  0.5328  0.4960 -0.8354
  363TMC3    C4 5486   0.808   1.401  10.075 -0.6725 -0.6120 -0.4019
  363TMC3    C5 5487   0.706   1.302  10.069 -0.3756 -0.2719  0.1061
  363TMC3    C6 5488   0.708   1.184  10.137  0.0660  0.2994  0.1731
  363TMC3     C 5489   1.007   1.475  10.187  0.3486 -0.1121 -0.3135
  363TMC3     O 5490   1.118   1.433  10.200  0.1480 -0.3387 -0.1040
  363TMC3     H 5491   1.005   1.242  10.293 -0.4807  1.2480  0.9066
  363TMC3    H1 5492   0.804   1.492  10.015  0.5219  0.2261  0.8017
  363TMC3    H2 5493   0.632   1.108  10.123  2.6145 -2.5294  1.6042
  363TMC3    C7 5494   0.587   1.355  10.001 -0.4140  0.6984  0.0705
  363TMC3    C8 5495   0.830   1.038  10.286  0.0300  0.7069 -0.8653
  363TMC3    O1 5496   0.594   1.461   9.943 -0.3864  0.2501 -0.2526
  363TMC3    O2 5497   0.729   0.974  10.306 -0.5649  0.1290  0.6656
  364MPD2     C 5498   3.679   4.663   9.987 -0.2479  1.2346  0.1103
  364MPD2    C1 5499   3.813   4.673   9.952  0.3409 -0.7854  0.4113
  364MPD2    C2 5500   3.907   4.572   9.985 -1.3397 -0.5000  0.1556
  364MPD2    C3 5501   3.867   4.460  10.053  0.5590 -0.4608 -0.1564
  364MPD2    C4 5502   3.731   4.447  10.094  1.0503 -0.0377  0.3468
  364MPD2    C5 5503   3.639   4.546  10.052  0.6329  0.2223 -0.5226
  364MPD2     H 5504   4.011   4.596   9.965 -0.4391 -2.1897  2.7878
  364MPD2    H1 5505   3.690   4.365  10.152  1.7270  1.6869  3.2490
  364MPD2    H2 5506   3.612   0.007   9.959 -0.6174  0.6933 -0.5661
  364MPD2    H3 5507   3.536   4.538  10.084  0.2205 -1.0978 -2.1463
  364MPD2     N 5508   3.960   4.370  10.108  0.5597  0.3576  0.1034
  364MPD2    H5 5509   3.924   4.294  10.165  0.1835  0.0235 -0.5863
  364MPD2    N1 5510   3.864   0.059   9.903  0.3850 -0.5945 -0.2593
  364MPD2    H7 5511   3.792   0.130   9.897 -0.0142 -1.0313 -0.6192
  365TMC3    C1 5512   4.012   0.242   9.841 -0.4018 -0.0484  0.2447
  365TMC3    C2 5513   4.124   0.277   9.759 -0.1750 -0.5299 -0.1001
  365TMC3    C3 5514   4.187   0.401   9.774  0.4009  0.7285 -0.3986
  365TMC3    C4 5515   3.953   0.332   9.921  0.3433  0.2788 -0.2257
  365TMC3    C5 5516   4.012   0.461   9.934 -0.1960 -0.1933  0.4922
  365TMC3    C6 5517   4.125   0.495   9.856  0.2807 -0.3197 -0.1336
  365TMC3     C 5518   3.993   0.100   9.864 -0.1302  0.6929 -0.1077
  365TMC3     O 5519   4.091   0.030   9.841 -0.3595  0.2668  0.0044
  365TMC3     H 5520   4.162   0.208   9.684  0.9084  1.1229 -1.0833
  365TMC3    H1 5521   3.872   0.300   9.985  0.3106  0.3145 -0.2494
  365TMC3    H2 5522   4.157   0.599   9.859 -2.5214  0.5647 -0.5656
  365TMC3    C7 5523   3.960   0.549  10.027 -0.0364  0.2113  0.7223
  365TMC3    C8 5524   4.327   0.428   9.750 -0.3683 -0.6726 -0.0786
  365TMC3    O1 5525   4.002   0.663  10.009  0.5026 -0.0130 -0.0759
  365TMC3    O2 5526   4.374   0.540   9.773  0.0136 -0.1347  0.0988
  366MPD2     C 5527   1.996   0.811  15.442  0.2123  0.1694  0.2647
  366MPD2    C1 5528   2.045   0.897  15.344  0.4668  0.0239 -0.1886
  366MPD2    C2 5529   2.148   0.860  15.265 -0.1084  0.0039 -0.5155
  366MPD2    C3 5530   2.204   0.736  15.278  0.0829 -0.4730 -0.4267
  366MPD2    C4 5531   2.159   0.648  15.376 -0.1974 -0.1199  0.4966
  366MPD2    C5 5532   2.050   0.683  15.446  0.9555  0.1587  0.3722
  366MPD2     H 5533   2.196   0.931  15.197 -1.4608  1.7517  0.3454
  366MPD2    H1 5534   2.201   0.551  15.402  2.1188  0.4897 -0.9818
  366MPD2    H2 5535   1.908   0.824  15.503 -0.0158 -1.1260  0.2055
  366MPD2    H3 5536   2.002   0.605  15.504  0.2583 -1.4708 -2.4327
  366MPD2     N 5537   2.312   0.716  15.194 -0.0677 -0.5789 -0.3633
  366MPD2    H5 5538   2.335   0.795  15.135 -0.6320  0.7967  1.2738
  366MPD2    N1 5539   1.987   1.021  15.311  0.5527 -0.0570 -0.0227
  366MPD2    H7 5540   2.042   1.073  15.242 -1.5101  0.3232 -1.3905
  367TMC3    C1 5541   1.919   1.226  15.381 -0.1356 -0.7499 -0.0227
  367TMC3    C2 5542   2.023   1.257  15.463  0.1743  0.1110  0.2043
  367TMC3    C3 5543   2.095   1.369  15.427  0.2306  0.1357 -0.2031
  367TMC3    C4 5544   1.908   1.291  15.264 -0.3386  0.2030 -0.2138
  367TMC3    C5 5545   1.981   1.403  15.233 -0.3440 -0.7592  0.1562
  367TMC3    C6 5546   2.080   1.450  15.315  0.7197 -0.5289 -0.2433
  367TMC3     C 5547   1.889   1.086  15.384 -0.3227 -0.0630 -0.3359
  367TMC3     O 5548   1.821   1.053  15.481  0.6924  0.1538 -0.3824
  367TMC3     H 5549   2.042   1.212  15.560  0.8469 -1.6692 -0.7362
  367TMC3    H1 5550   1.837   1.263  15.187  0.4439 -0.6525 -0.6311
  367TMC3    H2 5551   2.139   1.539  15.295  1.5843 -0.4393  2.7354
  367TMC3    C7 5552   1.952   1.498  15.128 -0.0884  0.9653 -1.2425
  367TMC3    C8 5553   2.206   1.393  15.518  0.0168 -0.4975  0.4228
  367TMC3    O1 5554   2.045   1.569  15.091  0.0242 -0.7657 -0.8074
  367TMC3    O2 5555   2.263   1.301  15.580 -0.0348 -0.5801 -0.1261
  368MPD2     C 5556   3.657   2.738  13.140  0.0186 -0.1392 -0.0155
  368MPD2    C1 5557   3.673   2.869  13.107  0.2057  0.0729  0.7301
  368MPD2    C2 5558   3.801   2.906  13.074  0.3688  1.0188  0.5162
  368MPD2    C3 5559   3.907   2.812  13.069  1.1755 -0.6308 -0.4751
  368MPD2    C4 5560   3.886   2.683  13.111 -0.6313  0.0220  0.8544
  368MPD2    C5 5561   3.758   2.647  13.143 -0.1426 -0.3959  0.3351
  368MPD2     H 5562   3.820   3.009  13.046  3.4090 -0.1694 -1.7922
  368MPD2    H1 5563   3.968   2.612  13.110 -1.2410 -0.6478 -1.0148
  368MPD2    H2 5564   3.561   2.699  13.169 -1.5628  0.6101 -4.2721
  368MPD2    H3 5565   3.733   2.550  13.183  1.4907 -1.1476 -0.4877
  368MPD2     N 5566   4.038   2.843  13.017  0.5725 -0.3861  0.0579
  368MPD2    H5 5567   4.100   2.766  12.993  2.6456  1.4917 -0.6523
  368MPD2    N1 5568   3.569   2.963  13.111  0.3257  0.2539  0.0830
  368MPD2    H7 5569   3.476   2.925  13.122  0.4320  0.2247  0.9002
  369TMC3    C1 5570   3.453   3.174  13.091  0.5304 -1.0195 -0.0225
  369TMC3    C2 5571   3.460   3.311  13.075  0.1633  0.0865 -0.5483
  369TMC3    C3 5572   3.375   3.381  12.990  0.4953  0.1727 -0.3473
  369TMC3    C4 5573   3.346   3.118  13.024 -0.4364  0.3692  0.4499
  369TMC3    C5 5574   3.264   3.191  12.939  0.1608  0.4782 -0.2005
  369TMC3    C6 5575   3.280   3.328  12.915 -0.3618  0.7065  0.0525
  369TMC3     C 5576   3.579   3.100  13.101 -0.5076 -0.0381 -0.0529
  369TMC3     O 5577   3.674   3.178  13.108 -0.3623  0.1940 -0.1705
  369TMC3     H 5578   3.529   3.366  13.138 -0.4297  0.2639 -0.0497
  369TMC3    H1 5579   3.328   3.012  13.032 -0.2489  0.0468 -3.4226
  369TMC3    H2 5580   3.223   3.392  12.848 -4.1969 -2.5511  0.1916
  369TMC3    C7 5581   3.139   3.125  12.901 -0.2966  0.2547  0.1738
  369TMC3    C8 5582   3.448   3.472  12.911  1.2011  0.2292  0.1016
  369TMC3    O1 5583   3.121   3.006  12.932 -0.4770  0.4181 -0.6210
  369TMC3    O2 5584   3.385   3.559  12.848  0.1240  0.2196 -0.2836
  370TMC3    C1 5585   2.804   3.581  16.437 -0.4418  0.4967 -0.5105
  370TMC3    C2 5586   2.798   3.505  16.556  0.4769 -0.2769 -0.5146
  370TMC3    C3 5587   2.842   3.378  16.544  0.1450 -0.1389 -0.0417
  370TMC3    C4 5588   2.842   3.527  16.316  0.2204 -0.0561  0.3555
  370TMC3    C5 5589   2.883   3.394  16.315 -0.6011  0.9379  0.3468
  370TMC3    C6 5590   2.886   3.318  16.426 -0.0583  0.7883  0.2941
  370TMC3     C 5591   2.751   3.715  16.448 -0.7698  0.2701 -0.1636
  370TMC3     O 5592   2.729   3.759  16.562 -0.1629 -0.4872 -0.2006
  370TMC3     H 5593   2.761   3.546  16.649  4.2961  1.5868  0.1885
  370TMC3    H1 5594   2.835   3.580  16.222  1.1726  1.3251  1.0688
  370TMC3    H2 5595   2.919   3.214  16.432 -0.1475  0.6023 -2.4665
  370TMC3    C7 5596   2.944   3.348  16.188  0.0385 -0.0958  1.1951
  370TMC3    C8 5597   2.833   3.288  16.659 -0.4766  1.1814  0.4211
  370TMC3    O1 5598   2.881   3.382  16.089  0.6092 -0.6618 -0.2560
  370TMC3    O2 5599   2.820   3.166  16.638 -0.1876  0.0770  0.4440
  371TMC3    C1 5600   4.108   2.255  15.166  0.0306 -0.0873 -0.1299
  371TMC3    C2 5601   4.007   2.223  15.249 -0.3348  0.3440 -0.2849
  371TMC3    C3 5602   3.967   2.310  15.341  0.3725 -0.0195  0.1669
  371TMC3    C4 5603   4.167   2.375  15.159 -0.4793  0.7230 -0.5201
  371TMC3    C5 5604   4.107   2.466  15.244 -0.0042 -0.3736 -0.1508
  371TMC3    C6 5605   4.019   2.446  15.342  0.4565 -0.0736  0.2163
  371TMC3     C 5606   4.191   2.144  15.138  1.2839  0.2541 -0.1477
  371TMC3     O 5607   4.278   2.150  15.051 -0.2565  0.7662  0.8875
  371TMC3     H 5608   3.941   2.140  15.228 -0.4151  0.2786  0.2069
  371TMC3    H1 5609   4.228   2.410  15.076  1.0121 -0.1630  0.2021
  371TMC3    H2 5610   3.988   2.521  15.415 -3.1351 -0.5818 -0.7753
  371TMC3    C7 5611   4.167   2.601  15.248 -0.1320 -0.0071 -0.4915
  371TMC3    C8 5612   3.947   2.244  15.472 -0.1832  0.5475  0.5684
  371TMC3    O1 5613   4.094   2.678  15.304  0.4385 -0.0515  0.1751
  371TMC3    O2 5614   3.976   2.128  15.468 -0.2301 -0.1357 -0.3617
  372MPD2     C 5615   3.853   3.653  13.181  0.0301 -0.5839 -0.3894
  372MPD2    C1 5616   3.936   3.554  13.232 -0.2171 -0.4034 -0.0822
  372MPD2    C2 5617   3.874   3.448  13.297  0.0960 -0.4222 -0.2704
  372MPD2    C3 5618   3.741   3.443  13.326 -0.3937  0.3264 -0.4987
  372MPD2    C4 5619   3.665   3.544  13.272 -0.3810 -0.0453  0.0503
  372MPD2    C5 5620   3.718   3.655  13.203  0.0699 -0.6798 -0.8798
  372MPD2     H 5621   3.933   3.366  13.338  1.1475  0.9615  0.9630
  372MPD2    H1 5622   3.557   3.543  13.287 -0.3719 -0.2164  0.1014
  372MPD2    H2 5623   3.890   3.740  13.127 -1.3957  1.7134  2.3756
  372MPD2    H3 5624   3.658   3.734  13.158  0.7279 -0.3521 -1.1814
  372MPD2     N 5625   3.690   3.333  13.398  0.0316  0.1591  0.2588
  372MPD2    H5 5626   3.754   3.258  13.423  2.5527  2.1548 -0.2368
  372MPD2    N1 5627   4.074   3.554  13.215 -0.3683 -0.5737  0.6375
  372MPD2    H7 5628   4.127   3.494  13.278 -1.7035 -0.9137  1.4430
  373TMC3    C1 5629   3.544   3.189  13.492 -0.3703 -0.0800  0.8305
  373TMC3    C2 5630   3.443   3.175  13.585  0.5410 -0.3782  0.0627
  373TMC3    C3 5631   3.432   3.050  13.638  0.5676  0.2932 -0.5919
  373TMC3    C4 5632   3.610   3.086  13.428 -0.0694 -0.4333  0.3654
  373TMC3    C5 5633   3.585   2.963  13.482  0.1140  0.1736 -0.5002
  373TMC3    C6 5634   3.496   2.944  13.585  0.3732 -0.4908  0.6967
  373TMC3     C 5635   3.560   3.316  13.439  0.6733  0.2627  0.0412
  373TMC3     O 5636   3.465   3.394  13.448  0.6641  0.6713 -0.4311
  373TMC3     H 5637   3.401   3.258  13.640  1.8433  1.1106 -1.2091
  373TMC3    H1 5638   3.668   3.092  13.337  1.5644 -2.1354  1.2679
  373TMC3    H2 5639   3.464   2.847  13.620  2.0360 -0.0144  3.5300
  373TMC3    C7 5640   3.680   2.856  13.466  0.4639  0.4563  0.6681
  373TMC3    C8 5641   3.423   3.051  13.784  0.4693  0.4769 -0.3552
  373TMC3    O1 5642   3.632   2.748  13.497  0.0686  0.2412  0.5420
  373TMC3    O2 5643   3.336   3.125  13.833 -0.0997  0.6201  0.2739
  374TMC3    C1 5644   4.315   3.056  10.128  0.2156  0.1089 -0.5933
  374TMC3    C2 5645   4.421   3.127  10.075 -0.0285  0.2663 -0.4083
  374TMC3    C3 5646   4.392   3.211   9.972  0.0768 -0.1679  0.0724
  374TMC3    C4 5647   4.191   3.083  10.081 -0.1829 -0.2058  0.1555
  374TMC3    C5 5648   4.170   3.156   9.969 -0.1386 -0.2477 -0.6494
  374TMC3    C6 5649   4.271   3.232   9.912  0.4422 -0.0275 -0.1918
  374TMC3     C 5650   4.336   2.951  10.227  0.1135  0.0948 -0.1666
  374TMC3     O 5651   4.447   2.908  10.242  0.1787 -0.3009 -0.1638
  374TMC3     H 5652   4.524   3.105  10.099 -0.2210 -1.4991 -1.2147
  374TMC3    H1 5653   4.107   3.020  10.106 -1.2104  0.9323 -0.4559
  374TMC3    H2 5654   4.253   3.302   9.832  2.3292  1.6675  0.8601
  374TMC3    C7 5655   4.039   3.148   9.905  0.4123  0.2049  0.1155
  374TMC3    C8 5656   4.509   3.279   9.911  0.3459  0.4993  0.1543
  374TMC3    O1 5657   3.946   3.138   9.974  0.1262 -0.4971 -0.0351
  374TMC3    O2 5658   4.487   3.324   9.798  0.7101  0.2856 -0.4757
  375MPD2     C 5659   4.486   3.642  17.410  0.8642  0.6664  0.0635
  375MPD2    C1 5660   4.413   3.699  17.313 -0.2407 -0.1956  0.1863
  375MPD2    C2 5661   4.466   3.724  17.186  0.3081 -0.0928  0.3879
  375MPD2    C3 5662   4.592   3.672  17.156 -0.2271 -0.3926 -0.2904
  375MPD2    C4 5663   4.655   3.604  17.252  0.1034 -0.5330 -0.2533
  375MPD2    C5 5664   4.607   3.594  17.380  0.0213  0.0193  0.6866
  375MPD2     H 5665   4.411   3.776  17.108  1.8687  1.2770  0.1842
  375MPD2    H1 5666   0.015   3.564  17.223  1.3272  2.6354 -0.6041
  375MPD2    H2 5667   4.460   3.626  17.515  0.7952  0.1121 -0.0376
  375MPD2    H3 5668   4.654   3.530  17.454  1.8398  1.9999  1.2735
  375MPD2     N 5669   4.643   3.682  17.026  0.1950  0.7164  0.4436
  375MPD2    H5 5670   4.736   3.641  17.021 -0.8331 -1.5399 -0.2403
  375MPD2    N1 5671   4.284   3.758  17.336  0.0456 -0.0184 -0.0328
  375MPD2    H7 5672   4.236   3.799  17.257 -1.2377 -1.8800 -0.2223
  376TMC3    C1 5673   4.668   3.781  16.810 -0.1027  0.6520 -0.1949
  376TMC3    C2 5674   0.066   3.799  16.836 -0.0414  0.3766  0.5780
  376TMC3    C3 5675   0.153   3.788  16.729 -1.0735 -0.0479  0.1304
  376TMC3    C4 5676   4.622   3.759  16.682  0.4603  0.1555  0.1403
  376TMC3    C5 5677   4.712   3.764  16.584  0.0256  1.0184 -0.8488
  376TMC3    C6 5678   0.108   3.785  16.604  0.6008 -0.1446  0.6264
  376TMC3     C 5679   4.582   3.742  16.919 -0.1399 -0.3619 -0.5391
  376TMC3     O 5680   4.462   3.771  16.899 -0.1461 -0.2952  0.2399
  376TMC3     H 5681   0.095   3.820  16.939 -0.1551  0.7556  0.5350
  376TMC3    H1 5682   4.514   3.753  16.669  0.4358 -0.3372  0.5874
  376TMC3    H2 5683   0.177   3.793  16.521  0.0401 -1.6518  0.0120
  376TMC3    C7 5684   4.657   3.805  16.453  0.2160 -0.2184 -0.1331
  376TMC3    C8 5685   0.293   3.806  16.762 -0.5446  0.4711 -0.2106
  376TMC3    O1 5686   0.001   3.847  16.368 -0.2075 -0.7370 -0.4219
  376TMC3    O2 5687   0.312   3.783  16.882 -1.1041  0.1926  0.1092
  377MPD2     C 5688   3.064   3.974  12.880  0.2449  0.9069 -0.3989
  377MPD2    C1 5689   2.958   3.957  12.796  0.1880 -0.1112 -0.2344
  377MPD2    C2 5690   2.860   3.858  12.825  0.2805 -0.4769  0.0442
  377MPD2    C3 5691   2.874   3.782  12.944 -0.0026  0.1138 -0.3690
  377MPD2    C4 5692   2.987   3.800  13.024 -0.9187  0.2460  0.1556
  377MPD2    C5 5693   3.075   3.899  12.988  0.3792 -0.0333  0.0622
  377MPD2     H 5694   2.775   3.846  12.759  0.6581 -0.6508 -0.4093
  377MPD2    H1 5695   3.015   3.755  13.119 -0.6110  1.3912  0.6153
  377MPD2    H2 5696   3.138   4.050  12.857  1.6595 -0.4416 -0.3266
  377MPD2    H3 5697   3.157   3.922  13.055  0.1836 -1.7016  0.8757
  377MPD2     N 5698   2.792   3.677  12.984  0.8968 -0.7749 -0.2392
  377MPD2    H5 5699   2.817   3.622  13.065  3.1849 -2.2411 -1.9545
  377MPD2    N1 5700   2.965   4.023  12.670 -0.0976  0.5041  0.3119
  377MPD2    H7 5701   3.058   4.051  12.639  0.2633  0.7611  1.6097
  378TMC3    C1 5702   2.838   4.088  12.231 -0.0623  0.2153  0.0921
  378TMC3    C2 5703   2.816   4.072  12.360 -0.3132 -0.5346 -0.1551
  378TMC3    C3 5704   2.913   4.034  12.443  0.0050 -0.5393 -0.1274
  378TMC3    C4 5705   2.968   4.064  12.184 -0.3639 -0.8155 -0.2579
  378TMC3    C5 5706   3.071   4.031  12.273 -0.3516 -1.1570 -0.0662
  378TMC3    C6 5707   3.043   4.010  12.411  0.3440 -0.9109  0.3028
  378TMC3     C 5708   2.732   4.129  12.146 -0.1783  0.2263  0.5477
  378TMC3     O 5709   2.626   4.076  12.169  0.4150  0.5692 -0.0930
  378TMC3     H 5710   2.717   4.099  12.394 -0.1302 -0.1701  0.0750
  378TMC3    H1 5711   2.998   4.080  12.082  1.6234  1.6334  0.7294
  378TMC3    H2 5712   3.127   4.003  12.479 -0.3181  0.0500  1.2118
  378TMC3    C7 5713   3.191   3.967  12.225 -0.1053  0.1434  0.1900
  378TMC3    C8 5714   2.866   4.018  12.576 -0.0154  0.0792  0.7234
  378TMC3    O1 5715   3.281   3.941  12.307  0.0641 -0.3570  0.0840
  378TMC3    O2 5716   2.745   4.009  12.595  0.4760  0.3671 -0.2026
  379MPD2     C 5717   3.377   1.619  16.137  0.4434 -0.7902  0.8039
  379MPD2    C1 5718   3.297   1.522  16.184 -0.7946  0.2110  0.7416
  379MPD2    C2 5719   3.334   1.447  16.298  0.2775  0.3120  0.7306
  379MPD2    C3 5720   3.462   1.465  16.348  0.0497 -1.6451 -1.2610
  379MPD2    C4 5721   3.552   1.559  16.286  0.0935  0.3900 -0.3070
  379MPD2    C5 5722   3.508   1.635  16.187 -0.2479  0.0173  0.1614
  379MPD2     H 5723   3.265   1.377  16.343  0.5795 -0.5663 -0.1987
  379MPD2    H1 5724   3.655   1.561  16.319  0.4071 -0.1197 -1.2573
  379MPD2    H2 5725   3.362   1.674  16.045 -1.2078 -0.6601  1.1496
  379MPD2    H3 5726   3.573   1.704  16.134  0.1565 -0.8639 -0.4933
  379MPD2     N 5727   3.506   1.390  16.462 -0.3232 -0.1801 -0.4697
  379MPD2    H5 5728   3.607   1.386  16.476 -0.3972 -1.5896 -0.2773
  379MPD2    N1 5729   3.172   1.503  16.118  0.3287  0.0154  0.2715
  379MPD2    H7 5730   3.145   1.572  16.049 -0.6869 -1.6438 -0.9865
  380TMC3    C1 5731   2.983   1.393  16.028  0.2786 -0.1847  0.9076
  380TMC3    C2 5732   2.973   1.279  15.954  0.5173  0.1341  0.0288
  380TMC3    C3 5733   2.908   1.287  15.835 -0.1924  0.1647  0.0777
  380TMC3    C4 5734   2.921   1.511  15.986  0.2096  0.2126  0.4057
  380TMC3    C5 5735   2.840   1.508  15.877 -0.5701  0.0998  1.4972
  380TMC3    C6 5736   2.838   1.395  15.802  0.4586 -0.5161  0.2891
  380TMC3     C 5737   3.081   1.397  16.135 -0.4069 -0.2303  0.3630
  380TMC3     O 5738   3.094   1.296  16.201  0.2972  0.2184  0.3711
  380TMC3     H 5739   3.043   1.200  15.978  2.0291  1.5780  0.3362
  380TMC3    H1 5740   2.931   1.607  16.036 -2.3609  1.6507 -1.8025
  380TMC3    H2 5741   2.781   1.404  15.711 -0.5863 -1.1156  0.8824
  380TMC3    C7 5742   2.728   1.600  15.871 -0.2186  0.7632  0.1901
  380TMC3    C8 5743   3.001   1.258  15.718 -0.3222 -0.3255 -0.2928
  380TMC3    O1 5744   2.726   1.706  15.931 -0.7462 -0.2012  0.1732
  380TMC3    O2 5745   3.117   1.234  15.738  0.1244 -0.3273  0.0153
  381TMC3    C1 5746   3.075   2.531  16.377 -0.0680  0.3078 -0.4222
  381TMC3    C2 5747   3.131   2.652  16.362  0.0861  0.2307  0.4697
  381TMC3    C3 5748   3.112   2.740  16.464 -0.4633 -0.2690 -0.4776
  381TMC3    C4 5749   2.985   2.503  16.480 -0.6294  0.2320  0.0207
  381TMC3    C5 5750   2.967   2.597  16.575 -0.3611 -0.0293  0.4768
  381TMC3    C6 5751   3.036   2.714  16.578  0.3003  0.0911 -0.2588
  381TMC3     C 5752   3.117   2.419  16.290  0.1011 -0.1916 -0.1250
  381TMC3     O 5753   3.217   2.449  16.229 -0.2991  0.3661 -0.0164
  381TMC3     H 5754   3.201   2.671  16.281  1.4967  1.1066  1.8990
  381TMC3    H1 5755   2.940   2.405  16.491  0.9468 -0.6668 -1.3769
  381TMC3    H2 5756   3.030   2.785  16.660  2.9082 -0.5691  0.5142
  381TMC3    C7 5757   2.917   2.541  16.696  0.2170 -0.5259  0.2245
  381TMC3    C8 5758   3.193   2.860  16.462  0.1993  0.1621  0.4739
  381TMC3    O1 5759   2.969   2.437  16.734 -0.3895  0.1511 -0.0317
  381TMC3    O2 5760   3.268   2.867  16.367  0.1291 -0.2660  0.0421
  382MPD2     C 5761   2.339   0.625   0.074 -0.4714  0.7098  0.1023
  382MPD2    C1 5762   2.258   0.632   0.186  0.0525 -0.2935 -0.0832
  382MPD2    C2 5763   2.221   0.518   0.262 -0.3417  0.4255 -0.4508
  382MPD2    C3 5764   2.261   0.393   0.214  0.5826 -0.8329  0.2334
  382MPD2    C4 5765   2.336   0.385   0.096 -0.1842 -0.0076 -0.6886
  382MPD2    C5 5766   2.373   0.497   0.031  0.1762  0.3920  0.4625
  382MPD2     H 5767   2.158   0.523   0.350  2.8082  1.2982  1.7298
  382MPD2    H1 5768   2.365   0.290   0.052  0.9617 -0.3919  0.8886
  382MPD2    H2 5769   2.382   0.713   0.028 -1.2026  0.7563 -0.4851
  382MPD2    H3 5770   2.433   0.480  17.686  0.8026  0.3389  0.8932
  382MPD2     N 5771   2.226   0.268   0.273 -0.4697  0.1019  0.2790
  382MPD2    H5 5772   2.243   0.183   0.219  2.2343  0.2535  0.8510
  382MPD2    N1 5773   2.233   0.760   0.242  0.0371  0.1714  0.6372
  382MPD2    H7 5774   2.164   0.761   0.317 -1.0984 -0.8064 -0.3829
  383TMC3    C1 5775   2.123   0.131   0.413 -0.1283  0.8042 -0.3952
  383TMC3    C2 5776   2.027   0.103   0.325  0.3210  0.8140 -0.0800
  383TMC3    C3 5777   1.975   4.713   0.325  0.5122  0.1493  0.2555
  383TMC3    C4 5778   2.181   0.035   0.487  0.2301  0.0240  0.2637
  383TMC3    C5 5779   2.137   4.638   0.484  0.5615 -0.0679  0.0504
  383TMC3    C6 5780   2.026   4.608   0.399 -0.0129  0.5623  0.8818
  383TMC3     C 5781   2.182   0.260   0.405 -0.2189 -0.0974 -0.0783
  383TMC3     O 5782   2.181   0.331   0.506  0.0916 -0.7395  0.0569
  383TMC3     H 5783   1.968   0.180   0.277 -1.4293  0.5695  1.7281
  383TMC3    H1 5784   2.250   0.072   0.562 -1.3592  1.8148  0.8466
  383TMC3    H2 5785   1.981   4.510   0.401  0.5648  0.2812 -0.1057
  383TMC3    C7 5786   2.206   4.542   0.570  0.8306  0.2224 -0.7805
  383TMC3    C8 5787   1.886   4.686   0.212  0.1334  0.9822  0.6098
  383TMC3    O1 5788   2.310   4.582   0.620 -0.0901  0.3961  0.0851
  383TMC3    O2 5789   1.847   0.048   0.147  0.1501  0.1127 -0.1001
  384MPD2     C 5790   4.223   1.426  12.244  0.0104  0.6857  0.4152
  384MPD2    C1 5791   4.163   1.306  12.249  0.1720 -0.0655 -0.6870
  384MPD2    C2 5792   4.126   1.235  12.138 -0.0237  0.2763  0.3512
  384MPD2    C3 5793   4.160   1.281  12.016 -0.3325  0.3297  0.0196
  384MPD2    C4 5794   4.216   1.406  12.004  0.4336  0.2599 -0.0312
  384MPD2    C5 5795   4.246   1.475  12.117  0.4254  0.3618  0.2481
  384MPD2     H 5796   4.080   1.138  12.152 -0.2042  0.7701  3.2631
  384MPD2    H1 5797   4.238   1.451  11.908  1.4448 -0.2200 -0.0209
  384MPD2    H2 5798   4.257   1.484  12.329  1.6251  3.3749 -2.0271
  384MPD2    H3 5799   4.279   1.578  12.111  1.4713  0.0191  0.0175
  384MPD2     N 5800   4.142   1.207  11.899 -0.4969 -0.5445 -0.1740
  384MPD2    H5 5801   4.159   1.260  11.814  1.2598  2.7138  2.2045
  384MPD2    N1 5802   4.130   1.241  12.370  0.0593 -0.1981 -0.1773
  384MPD2    H7 5803   4.102   1.144  12.364  2.1288 -0.6154 -3.1352
  385TMC3    C1 5804   4.067   1.028  11.768 -0.3924  0.3456  0.3431
  385TMC3    C2 5805   4.135   0.935  11.690  0.6294 -0.8305  0.1439
  385TMC3    C3 5806   4.060   0.835  11.628  0.1687 -0.5246 -0.1637
  385TMC3    C4 5807   3.931   1.013  11.779 -0.2409  0.0294  0.1454
  385TMC3    C5 5808   3.867   0.905  11.732  0.3069  0.2291  0.8118
  385TMC3    C6 5809   3.928   0.818  11.654  0.3999 -0.2727  0.2800
  385TMC3     C 5810   4.124   1.075  11.895  0.0566  0.1928 -0.1352
  385TMC3     O 5811   4.107   0.995  11.985 -0.4553 -0.3963 -0.0043
  385TMC3     H 5812   4.240   0.951  11.670  0.8087 -0.4564  1.4393
  385TMC3    H1 5813   3.881   1.070  11.857  0.1977 -1.5190  1.5457
  385TMC3    H2 5814   3.873   0.731  11.619 -1.6256  1.3614 -0.6291
  385TMC3    C7 5815   3.778   0.848  11.829 -0.2790 -0.4013 -0.3414
  385TMC3    C8 5816   4.136   0.738  11.551 -0.2615  0.0246 -0.4703
  385TMC3    O1 5817   3.675   0.789  11.790 -0.1106  0.3371  0.2346
  385TMC3    O2 5818   4.254   0.730  11.586 -0.2227 -0.4849  0.1874
  386TMC3    C1 5819   4.516   3.556  11.496 -0.0071  0.6729 -0.2766
  386TMC3    C2 5820   4.486   3.541  11.362  0.1750  1.1224 -1.1494
  386TMC3    C3 5821   4.351   3.513  11.330 -0.4416 -0.3302 -0.3976
  386TMC3    C4 5822   4.416   3.549  11.594 -0.0852  0.2403  0.3266
  386TMC3    C5 5823   4.286   3.538  11.544  0.0102 -0.3797  0.5127
  386TMC3    C6 5824   4.251   3.504  11.422  0.1238 -0.1991 -0.4551
  386TMC3     C 5825   4.655   3.530  11.524  0.2729 -0.8183 -0.3204
  386TMC3     O 5826   0.004   3.553  11.440  0.0681 -1.3367 -0.3045
  386TMC3     H 5827   4.558   3.542  11.281  0.6585  3.5642 -0.6901
  386TMC3    H1 5828   4.441   3.571  11.697 -1.0917 -1.2202  0.8752
  386TMC3    H2 5829   4.149   3.473  11.402 -0.3843  0.5024  1.0599
  386TMC3    C7 5830   4.181   3.606  11.620  0.1631 -0.3833 -0.0066
  386TMC3    C8 5831   4.305   3.557  11.202 -0.0392  0.0829  0.6836
  386TMC3    O1 5832   4.213   3.636  11.734 -0.4760 -0.1148  0.0479
  386TMC3    O2 5833   4.185   3.553  11.192 -0.0138  0.3557  0.1823
  387MPD2     C 5834   1.298   3.628   9.710 -0.7256 -0.4417  0.3853
  387MPD2    C1 5835   1.413   3.579   9.667 -0.3258  0.1322  0.3740
  387MPD2    C2 5836   1.431   3.439   9.665 -0.6440 -0.4224  0.3912
  387MPD2    C3 5837   1.326   3.357   9.692  0.3876  0.1410 -0.3069
  387MPD2    C4 5838   1.209   3.403   9.714  0.4382 -0.6774  0.2777
  387MPD2    C5 5839   1.190   3.541   9.723  0.6304 -0.3901 -0.1030
  387MPD2     H 5840   1.527   3.396   9.639 -1.4308 -0.8240 -1.8509
  387MPD2    H1 5841   1.118   3.348   9.739 -1.0002  1.8260  0.6008
  387MPD2    H2 5842   1.285   3.736   9.712  0.8258 -0.2232 -0.7166
  387MPD2    H3 5843   1.088   3.575   9.733  2.1518  3.3550  2.7506
  387MPD2     N 5844   1.361   3.218   9.691 -0.6002  0.1303 -0.0650
  387MPD2    H5 5845   1.453   3.197   9.652 -0.4022 -0.0393  0.4933
  387MPD2    N1 5846   1.526   3.649   9.645 -0.0091 -0.1867  0.2636
  387MPD2    H7 5847   1.611   3.596   9.630  0.9558  1.7026 -0.9251
  388TMC3    C1 5848   1.678   3.815   9.711  0.2013  0.1359 -0.3512
  388TMC3    C2 5849   1.717   3.948   9.712  0.2276 -0.2642 -0.6186
  388TMC3    C3 5850   1.838   3.970   9.775 -0.3686 -0.1109 -0.8556
  388TMC3    C4 5851   1.760   3.717   9.759 -0.5319  0.6040 -0.2862
  388TMC3    C5 5852   1.894   3.746   9.786 -0.5362  0.4717 -0.2084
  388TMC3    C6 5853   1.924   3.873   9.810  0.3178  0.6740  0.8707
  388TMC3     C 5854   1.541   3.786   9.667 -0.3930 -0.8168  0.7297
  388TMC3     O 5855   1.453   3.875   9.676  0.1181 -0.2434 -0.4828
  388TMC3     H 5856   1.643   4.024   9.690  0.9303  0.1662 -1.4878
  388TMC3    H1 5857   1.720   3.618   9.776 -0.8279  1.0493  1.7050
  388TMC3    H2 5858   2.025   3.895   9.842  0.8612 -2.0804  1.0259
  388TMC3    C7 5859   1.986   3.640   9.825 -0.1200  0.0849  0.1949
  388TMC3    C8 5860   1.874   4.112   9.788 -0.0349  0.1646  0.5489
  388TMC3    O1 5861   2.071   3.669   9.902 -0.5806 -0.0676  0.2148
  388TMC3    O2 5862   1.823   4.184   9.703 -0.5566 -0.3922 -0.4442
  389MPD2     C 5863   1.061   2.455  11.272  0.3560 -0.0947  0.1350
  389MPD2    C1 5864   0.959   2.379  11.216 -0.0171  0.1227  0.3680
  389MPD2    C2 5865   0.925   2.267  11.288 -0.3580 -0.7381  0.2182
  389MPD2    C3 5866   0.999   2.235  11.406  0.3100 -0.2482 -0.0308
  389MPD2    C4 5867   1.104   2.315  11.449  0.6267  0.4597 -0.0341
  389MPD2    C5 5868   1.134   2.429  11.385 -0.7814 -0.3299 -0.3519
  389MPD2     H 5869   0.848   2.200  11.253 -0.1596  0.1228 -1.9392
  389MPD2    H1 5870   1.170   2.293  11.532 -0.2860  0.7306  0.7643
  389MPD2    H2 5871   1.085   2.543  11.212  0.2476 -0.3530 -0.2895
  389MPD2    H3 5872   1.223   2.488  11.402 -0.0270 -0.1876 -4.8769
  389MPD2     N 5873   0.966   2.118  11.482 -0.0284 -0.0472 -0.4426
  389MPD2    H5 5874   1.017   2.105  11.569  1.9251  0.8122 -1.4676
  389MPD2    N1 5875   0.897   2.411  11.091 -0.4791  0.8501  0.7628
  389MPD2    H7 5876   0.941   2.480  11.031  0.7267  1.4190  2.3084
  390TMC3    C1 5877   0.848   1.917  11.535 -0.1704  0.0116  0.1676
  390TMC3    C2 5878   0.793   1.801  11.482 -0.4061 -0.3511  0.0047
  390TMC3    C3 5879   0.719   1.727  11.571  0.0897  0.6508 -0.3226
  390TMC3    C4 5880   0.823   1.965  11.661 -0.2339  0.2452 -0.3630
  390TMC3    C5 5881   0.737   1.894  11.745  0.0212  0.2817 -0.0299
  390TMC3    C6 5882   0.678   1.772  11.697  0.1581 -0.2553 -0.1829
  390TMC3     C 5883   0.886   2.014  11.435 -0.5463 -0.3756 -0.5564
  390TMC3     O 5884   0.836   1.992  11.327  0.1539 -0.1480  0.1733
  390TMC3     H 5885   0.808   1.755  11.385  0.3151  1.1555 -0.6005
  390TMC3    H1 5886   0.847   2.068  11.687  0.2476  0.4398 -1.6000
  390TMC3    H2 5887   0.608   1.714  11.756 -0.0713 -1.1533 -1.3279
  390TMC3    C7 5888   0.682   1.952  11.865  0.3156 -0.4087 -0.0762
  390TMC3    C8 5889   0.659   1.601  11.522 -0.1417  0.2087  0.2182
  390TMC3    O1 5890   0.565   1.931  11.900 -0.3818  0.3914 -0.2007
  390TMC3    O2 5891   0.560   1.557  11.581  0.4790 -0.4808  0.5077
  391MPD2     C 5892   0.364   3.266  11.234  0.1194  0.0921  0.4030
  391MPD2    C1 5893   0.478   3.338  11.201  0.0003 -0.8975 -0.5616
  391MPD2    C2 5894   0.490   3.376  11.068 -0.1186  0.2964 -0.4478
  391MPD2    C3 5895   0.396   3.362  10.974  0.1520 -0.0627  0.2452
  391MPD2    C4 5896   0.279   3.299  11.014  0.0748  0.3585  0.0460
  391MPD2    C5 5897   0.262   3.256  11.144 -0.3808  0.6194  0.0031
  391MPD2     H 5898   0.584   3.418  11.034  0.3970 -2.7112 -2.7719
  391MPD2    H1 5899   0.195   3.279  10.948 -1.4104 -0.0698  2.0511
  391MPD2    H2 5900   0.347   3.219  11.330  3.4272  0.9640  1.4385
  391MPD2    H3 5901   0.178   3.189  11.156 -1.3882  2.2729  2.1733
  391MPD2     N 5902   0.431   3.398  10.841 -0.7945  1.0308 -0.3790
  391MPD2    H5 5903   0.525   3.431  10.820 -1.0297  2.5206  0.8708
  391MPD2    N1 5904   0.574   3.359  11.303 -0.5669 -0.3100 -0.2684
  391MPD2    H7 5905   0.539   3.335  11.396 -0.5445 -1.1104 -0.4725
  392TMC3    C1 5906   0.393   3.433  10.604 -0.1809  0.4959 -0.1681
  392TMC3    C2 5907   0.319   3.393  10.502  0.8045 -0.5326 -0.0404
  392TMC3    C3 5908   0.351   3.456  10.385 -0.4097  0.1771 -0.4083
  392TMC3    C4 5909   0.476   3.539  10.597  0.0289  0.0121  0.4775
  392TMC3    C5 5910   0.497   3.608  10.480 -0.0186  0.6046  0.0654
  392TMC3    C6 5911   0.439   3.562  10.369 -0.1587 -0.1347  0.5677
  392TMC3     C 5912   0.345   3.389  10.737  0.0272 -0.3984  0.3365
  392TMC3     O 5913   0.226   3.355  10.747 -0.3664 -0.1977  0.0481
  392TMC3     H 5914   0.252   3.309  10.522 -1.7511  1.0252 -2.1055
  392TMC3    H1 5915   0.526   3.571  10.688  0.3121  2.7053 -0.6144
  392TMC3    H2 5916   0.466   3.590  10.268 -2.1654  0.5057  0.2138
  392TMC3    C7 5917   0.593   3.717  10.479 -0.1586  0.0633 -0.2331
  392TMC3    C8 5918   0.286   3.398  10.275 -0.9660 -0.1406  0.6775
  392TMC3    O1 5919   0.625   3.754  10.593 -0.0361 -0.7378 -0.6299
  392TMC3    O2 5920   0.239   3.286  10.299  0.6288  0.1844  0.2559
  393TMC3    C1 5921   3.953   1.760  10.935  0.5841 -0.2447 -0.0126
  393TMC3    C2 5922   3.841   1.770  11.007  0.8996  0.0246  0.3942
  393TMC3    C3 5923   3.811   1.664  11.089 -0.1549  0.8265  0.5880
  393TMC3    C4 5924   4.046   1.653  10.943  0.7095 -0.0424 -0.7687
  393TMC3    C5 5925   4.004   1.547  11.019 -0.4573  0.2029  0.3351
  393TMC3    C6 5926   3.884   1.552  11.087 -0.6939  0.3638 -0.1077
  393TMC3     C 5927   3.991   1.867  10.845 -0.7706  0.2511 -0.0785
  393TMC3     O 5928   3.906   1.912  10.775 -0.4628 -0.0336 -0.5728
  393TMC3     H 5929   3.787   1.864  10.999  0.5142 -0.4923 -3.0619
  393TMC3    H1 5930   4.142   1.650  10.893  0.6624  0.6692 -0.8990
  393TMC3    H2 5931   3.868   1.468  11.155  1.1692  0.8787  0.9736
  393TMC3    C7 5932   4.089   1.429  11.038  0.1825  0.1930  0.2748
  393TMC3    C8 5933   3.746   1.690  11.218 -0.9683 -0.6566 -0.2823
  393TMC3    O1 5934   4.041   1.328  11.091  0.3281 -0.6340  0.0240
  393TMC3    O2 5935   3.775   1.606  11.301  0.0639 -0.6292  0.3114
  394TMC3    C1 5936   0.742   2.394  10.916  0.7983  0.5579 -0.2459
  394TMC3    C2 5937   0.618   2.371  10.867 -0.1161 -0.2793 -0.0478
  394TMC3    C3 5938   0.599   2.398  10.736  0.3632 -0.2366  0.1512
  394TMC3    C4 5939   0.848   2.430  10.835  0.2594 -0.0357  0.4682
  394TMC3    C5 5940   0.821   2.447  10.701  0.5657  0.4650  0.0780
  394TMC3    C6 5941   0.694   2.439  10.649 -0.0543 -0.4852  0.5106
  394TMC3     C 5942   0.772   2.364  11.055 -0.3354  0.4086  0.2792
  394TMC3     O 5943   0.689   2.305  11.126 -0.2120 -0.4075 -0.1236
  394TMC3     H 5944   0.542   2.339  10.937  0.7906  0.9533  1.4903
  394TMC3    H1 5945   0.952   2.434  10.863  0.6037 -1.1175 -0.6354
  394TMC3    H2 5946   0.671   2.458  10.544 -1.9175  1.4949  1.2788
  394TMC3    C7 5947   0.909   2.525  10.619 -0.1321 -0.3609  0.1030
  394TMC3    C8 5948   0.517   2.294  10.686  0.9306  0.9077  0.1131
  394TMC3    O1 5949   0.853   2.607  10.549  0.1066 -0.2441 -0.1839
  394TMC3    O2 5950   0.434   2.312  10.598  0.3112  0.3995 -0.2757
  395TMC3    C1 5951   1.137   3.850  15.054  0.0524 -0.2641 -0.4802
  395TMC3    C2 5952   1.100   3.740  14.980  0.3418  0.2006  0.2277
  395TMC3    C3 5953   1.090   3.753  14.841 -0.3219 -0.4833  1.2870
  395TMC3    C4 5954   1.157   3.974  14.994 -0.0153 -0.4111 -0.0068
  395TMC3    C5 5955   1.139   3.983  14.861  1.8196  0.2290 -0.0060
  395TMC3    C6 5956   1.106   3.873  14.780  0.3305  0.9041  0.0882
  395TMC3     C 5957   1.103   3.850  15.193 -0.4472  0.6513  0.7296
  395TMC3     O 5958   1.078   3.965  15.238  0.1063 -0.2213  0.5871
  395TMC3     H 5959   1.060   3.653  15.032 -2.8573  0.1410 -2.3043
  395TMC3    H1 5960   1.172   4.066  15.049  2.9256 -1.8989  1.6594
  395TMC3    H2 5961   1.113   3.878  14.672  0.1901 -1.6892 -0.0393
  395TMC3    C7 5962   1.191   4.105  14.805 -0.2201 -0.3337  0.7991
  395TMC3    C8 5963   1.027   3.647  14.771 -0.0605 -0.4122  0.1462
  395TMC3    O1 5964   1.276   4.164  14.872  0.1742  0.1203  0.3105
  395TMC3    O2 5965   1.041   3.536  14.814 -0.1064  0.1720 -0.3352
  396MPD2     C 5966   4.674   0.055  16.792 -0.1566  0.2770 -0.0352
  396MPD2    C1 5967   0.073   0.042  16.814 -0.6459  0.1259  0.2305
  396MPD2    C2 5968   0.166   0.126  16.754  0.4861  0.8066  0.3232
  396MPD2    C3 5969   0.125   0.211  16.652 -0.6737 -0.4389  0.0384
  396MPD2    C4 5970   4.725   0.225  16.619  0.3736  0.9564 -0.5036
  396MPD2    C5 5971   4.635   0.152  16.694  0.2698 -0.2923  0.2733
  396MPD2     H 5972   0.274   0.122  16.763  0.4067 -1.3855  0.3370
  396MPD2    H1 5973   4.694   0.294  16.542  0.1503  0.3540 -0.9531
  396MPD2    H2 5974   4.597   0.001  16.847  0.8158  0.2247  1.2906
  396MPD2    H3 5975   4.530   0.174  16.684  0.5612  0.8810 -0.2476
  396MPD2     N 5976   0.221   0.286  16.587 -0.1242  0.1550  0.0739
  396MPD2    H5 5977   0.317   0.262  16.610  1.0037  2.9180 -1.7505
  396MPD2    N1 5978   0.103   4.689  16.925 -0.4450  0.5100 -0.1347
  396MPD2    H7 5979   0.025   4.656  16.980 -1.6940  2.7068 -0.6004
  397TMC3    C1 5980   0.227   4.612  17.109 -0.0588 -0.1529 -0.2914
  397TMC3    C2 5981   0.324   4.655  17.197 -0.3737 -0.1792 -1.2672
  397TMC3    C3 5982   0.387   4.558  17.261 -0.3338 -0.4362  0.2190
  397TMC3    C4 5983   0.197   4.485  17.101 -0.6527 -0.4218 -0.3035
  397TMC3    C5 5984   0.258   4.391  17.184  0.3696  0.4246 -0.2334
  397TMC3    C6 5985   0.355   4.426  17.266 -0.6306 -0.6168 -0.4721
  397TMC3     C 5986   0.228   4.684  16.979 -1.3115 -0.6217  0.0828
  397TMC3     O 5987   0.330   0.012  16.954  0.7099  0.1676 -0.1923
  397TMC3     H 5988   0.364   0.019  17.186  1.1615 -0.8785 -2.0281
  397TMC3    H1 5989   0.115   4.460  17.035 -1.0064  1.4745 -0.5707
  397TMC3    H2 5990   0.412   4.363  17.334  0.6678 -0.7623 -1.6955
  397TMC3    C7 5991   0.213   4.256  17.178 -0.4582 -0.3993  0.3076
  397TMC3    C8 5992   0.532   4.581  17.278  0.1804 -0.4585  0.2962
  397TMC3    O1 5993   0.173   4.209  17.071  0.2642  0.0709 -0.2877
  397TMC3    O2 5994   0.577   4.540  17.385  0.2362 -0.5020 -0.1352
  398MPD2     C 5995   3.144   1.448   0.201 -0.3491 -0.0905  0.7108
  398MPD2    C1 5996   3.261   1.402   0.248 -0.8099 -0.2669  0.2511
  398MPD2    C2 5997   3.369   1.491   0.261  0.4151 -0.2493 -0.4019
  398MPD2    C3 5998   3.358   1.619   0.210  0.1165 -0.7549  0.4052
  398MPD2    C4 5999   3.243   1.662   0.158  0.5932  0.6481  0.5895
  398MPD2    C5 6000   3.134   1.578   0.155  0.0746  0.6007 -0.5610
  398MPD2     H 6001   3.459   1.458   0.311 -0.6517 -2.7824 -0.1546
  398MPD2    H1 6002   3.237   1.761   0.115 -2.2133  0.4447  0.4879
  398MPD2    H2 6003   3.050   1.394   0.194  0.2413 -0.8561 -1.5123
  398MPD2    H3 6004   3.036   1.611   0.124 -0.8430 -1.1230  0.5323
  398MPD2     N 6005   3.476   1.694   0.218 -0.2427  0.0465 -0.4855
  398MPD2    H5 6006   3.566   1.655   0.244  0.4903  1.7431 -0.5365
  398MPD2    N1 6007   3.268   1.263   0.286  0.0446  0.3911 -0.2288
  398MPD2    H7 6008   3.347   1.230   0.340 -0.9043 -0.6283  0.5442
  399TMC3    C1 6009   3.241   1.027   0.261 -0.5925  0.4481 -0.2289
  399TMC3    C2 6010   3.372   1.006   0.303 -0.5840  0.0815 -0.0314
  399TMC3    C3 6011   3.408   0.876   0.315  0.1018 -0.6729  0.1052
  399TMC3    C4 6012   3.153   0.923   0.233  0.0674  0.6432 -0.0453
  399TMC3    C5 6013   3.201   0.791   0.251 -0.1396 -0.1285  0.0588
  399TMC3    C6 6014   3.323   0.772   0.300  0.2019 -0.3325 -0.3100
  399TMC3     C 6015   3.189   1.163   0.238 -0.7750 -0.3224  0.4958
  399TMC3     O 6016   3.095   1.169   0.157  0.1849 -0.5851  0.1105
  399TMC3     H 6017   3.447   1.084   0.297 -0.3436 -0.2763 -1.6746
  399TMC3    H1 6018   3.068   0.946   0.170 -1.2647  2.3033  2.3638
  399TMC3    H2 6019   3.353   0.668   0.310  0.5614 -0.3369 -1.4192
  399TMC3    C7 6020   3.100   0.679   0.250 -0.4305  0.1173 -0.0957
  399TMC3    C8 6021   3.552   0.860   0.359 -0.3373 -0.3622  0.1188
  399TMC3    O1 6022   3.138   0.568   0.257 -0.5569  0.1943 -0.0538
  399TMC3    O2 6023   3.602   0.958   0.422 -0.1441  0.0358  0.0015
  400TMC3    C1 6024   2.112   4.618  17.056 -0.9169 -0.3337 -0.8872
  400TMC3    C2 6025   1.981   4.625  17.022  0.8340 -0.3899  0.0493
  400TMC3    C3 6026   1.896   4.729  17.061  0.5363  0.2349  0.0154
  400TMC3    C4 6027   2.171   4.718  17.135  0.6237 -0.1011  0.3962
  400TMC3    C5 6028   2.089   0.084  17.174 -0.1707 -0.5327  0.8261
  400TMC3    C6 6029   1.957   0.094  17.134  0.1433  0.2347  0.1074
  400TMC3     C 6030   2.137   4.480  17.098 -0.2505  0.2652 -0.0992
  400TMC3     O 6031   2.049   4.400  17.078  0.2498 -0.2520 -0.1992
  400TMC3     H 6032   1.942   4.553  16.950 -0.6783 -0.1865  0.6562
  400TMC3    H1 6033   2.273   4.715  17.171  1.0162  1.4311 -0.6157
  400TMC3    H2 6034   1.900   0.184  17.152 -1.5335 -1.2422  2.2387
  400TMC3    C7 6035   2.163   0.201  17.202 -0.1883 -1.0647 -0.3208
  400TMC3    C8 6036   1.767   4.694  17.110  0.3495  0.2773 -0.2020
  400TMC3    O1 6037   2.278   0.206  17.158 -0.0275 -0.0233  0.0629
  400TMC3    O2 6038   1.747   4.727  17.227  0.2720 -0.0878 -0.4583
  401MPD2     C 6039   0.371   3.048   1.222 -1.0249  0.2628 -0.1331
  401MPD2    C1 6040   0.481   2.974   1.182 -0.5188 -0.8895 -0.1837
  401MPD2    C2 6041   0.466   2.881   1.083  0.8447  0.4403  0.1394
  401MPD2    C3 6042   0.348   2.865   1.018 -0.3794 -0.1799 -0.8194
  401MPD2    C4 6043   0.236   2.938   1.060 -0.8540 -0.1548  0.4857
  401MPD2    C5 6044   0.252   3.022   1.165  0.7630  0.2156 -0.2309
  401MPD2     H 6045   0.550   2.826   1.042  1.5615  1.6210  0.0199
  401MPD2    H1 6046   0.136   2.929   1.019 -0.9966  1.5067  0.4634
  401MPD2    H2 6047   0.381   3.120   1.302  0.7522  0.8773 -0.9177
  401MPD2    H3 6048   0.163   3.074   1.197  1.0770 -0.9771  2.5800
  401MPD2     N 6049   0.334   2.768   0.917  0.1513  0.0789 -0.3415
  401MPD2    H5 6050   0.421   2.719   0.894  1.4762  1.9960  0.6139
  401MPD2    N1 6051   0.603   2.969   1.259  0.2019  0.0690  0.0782
  401MPD2    H7 6052   0.678   2.910   1.223 -0.0787 -0.4838  0.4038
  402TMC3    C1 6053   0.254   2.616   0.764 -0.6429 -0.2500 -0.8940
  402TMC3    C2 6054   0.353   2.534   0.794 -0.0770  0.0320  0.3265
  402TMC3    C3 6055   0.386   2.439   0.707  0.3614 -0.7055  0.0880
  402TMC3    C4 6056   0.179   2.600   0.657 -0.4166  0.2292 -0.2003
  402TMC3    C5 6057   0.207   2.497   0.568 -0.8812 -0.1376  0.9154
  402TMC3    C6 6058   0.317   2.411   0.599 -0.1067 -0.4155  0.4070
  402TMC3     C 6059   0.226   2.736   0.842 -0.0183 -0.8730  0.8441
  402TMC3     O 6060   0.108   2.777   0.842 -0.1551  0.1756 -0.0426
  402TMC3     H 6061   0.407   2.536   0.888  1.2990 -2.0123 -0.4284
  402TMC3    H1 6062   0.112   2.675   0.614 -1.4372  0.2421  1.4241
  402TMC3    H2 6063   0.361   2.342   0.528  0.0060 -0.0654  0.1404
  402TMC3    C7 6064   0.095   2.462   0.482  0.3153 -0.1403  0.3134
  402TMC3    C8 6065   0.495   2.347   0.735  0.4034 -1.0575  0.4982
  402TMC3    O1 6066   4.732   2.534   0.461 -0.2422  0.5791 -0.7585
  402TMC3    O2 6067   0.472   2.231   0.694 -0.3069 -0.5090 -0.1305
  403MPD2     C 6068   3.291   1.166  13.247  0.6264  0.7487  0.4952
  403MPD2    C1 6069   3.299   1.104  13.368 -0.6082  0.2156 -0.2545
  403MPD2    C2 6070   3.369   1.173  13.470  0.6039  0.4692 -0.8487
  403MPD2    C3 6071   3.422   1.305  13.445 -0.3149  0.9991 -0.1081
  403MPD2    C4 6072   3.402   1.366  13.327  0.3734 -0.2595 -0.5353
  403MPD2    C5 6073   3.338   1.298  13.228  0.0888 -0.5572  0.3066
  403MPD2     H 6074   3.387   1.139  13.571  0.6651  0.7214 -0.7749
  403MPD2    H1 6075   3.440   1.464  13.300  0.2638  0.1232  0.6760
  403MPD2    H2 6076   3.232   1.120  13.168  1.7941  0.3046 -0.1243
  403MPD2    H3 6077   3.313   1.346  13.134  1.1923 -1.6291 -0.5369
  403MPD2     N 6078   3.495   1.368  13.549  0.0166  0.4809 -0.5639
  403MPD2    H5 6079   3.508   1.317  13.636  0.2960  2.3127  0.4745
  403MPD2    N1 6080   3.239   0.976  13.390 -0.0741 -0.2049 -0.3869
  403MPD2    H7 6081   3.185   0.939  13.312 -0.2698 -2.9831  1.0701
  404TMC3    C1 6082   3.195   0.781  13.506  0.4202  0.1682 -0.6023
  404TMC3    C2 6083   3.168   0.728  13.634 -0.7715  0.7486 -0.1605
  404TMC3    C3 6084   3.114   0.601  13.638  0.3581 -0.5512  0.1484
  404TMC3    C4 6085   3.157   0.711  13.394 -0.1458  0.3525  0.1746
  404TMC3    C5 6086   3.112   0.581  13.409  0.3302 -0.2321  0.3306
  404TMC3    C6 6087   3.093   0.520  13.529 -0.0620  0.3082 -0.2331
  404TMC3     C 6088   3.263   0.902  13.503 -0.1597  0.6952 -0.4013
  404TMC3     O 6089   3.333   0.927  13.600 -0.3809  0.1290 -0.2690
  404TMC3     H 6090   3.214   0.779  13.718  0.6044 -0.7572 -0.0089
  404TMC3    H1 6091   3.173   0.742  13.291  1.4980 -2.2721 -0.3852
  404TMC3    H2 6092   3.069   0.415  13.540 -0.1933  0.2897 -0.6984
  404TMC3    C7 6093   3.039   0.511  13.307  1.2032 -0.8748 -0.3314
  404TMC3    C8 6094   3.135   0.543  13.770 -0.1476  0.0220 -0.3753
  404TMC3    O1 6095   2.986   0.404  13.332 -0.9890 -0.3611 -0.0242
  404TMC3    O2 6096   3.149   0.421  13.775 -0.0542 -0.0620  0.0467
  405MPD2     C 6097   3.630   1.968  14.733  0.2843 -0.3961 -0.5200
  405MPD2    C1 6098   3.637   1.868  14.639 -0.2369  0.2508 -0.8077
  405MPD2    C2 6099   3.572   1.875  14.519 -0.2192  1.1977  0.1170
  405MPD2    C3 6100   3.517   1.992  14.481  0.3671 -0.5490 -0.0096
  405MPD2    C4 6101   3.530   2.103  14.565  0.5227 -0.4192  0.5416
  405MPD2    C5 6102   3.585   2.089  14.691 -0.1111  0.7738 -0.0022
  405MPD2     H 6103   3.575   1.789  14.453  1.6354  0.5682  1.0194
  405MPD2    H1 6104   3.481   2.196  14.540  0.2105 -0.3103  1.5837
  405MPD2    H2 6105   3.675   1.956  14.831 -0.3102  1.1659 -0.0647
  405MPD2    H3 6106   3.587   2.179  14.751 -0.9218  1.2877 -0.7382
  405MPD2     N 6107   3.450   1.991  14.356  0.3231  0.5058 -0.0897
  405MPD2    H5 6108   3.447   1.904  14.304 -0.4459 -0.5117  1.6323
  405MPD2    N1 6109   3.694   1.747  14.685  0.4218  0.1048 -0.3671
  405MPD2    H7 6110   3.712   1.741  14.785 -0.3988  0.3327 -0.2101
  406TMC3    C1 6111   3.144   2.026  14.026  0.3575  0.2744 -0.0179
  406TMC3    C2 6112   3.187   1.909  13.978  0.0365 -0.9137 -0.0381
  406TMC3    C3 6113   3.305   1.859  14.025  0.8024  1.4678  0.5186
  406TMC3    C4 6114   3.212   2.085  14.133  0.4635 -0.3637  0.1398
  406TMC3    C5 6115   3.336   2.039  14.169 -0.5848  0.3271  0.0977
  406TMC3    C6 6116   3.388   1.926  14.113  0.1080 -0.7874 -0.2830
  406TMC3     C 6117   3.007   2.059  14.019 -0.4306 -0.0190  0.8595
  406TMC3     O 6118   2.947   2.043  13.913  0.3208  0.0200 -0.2396
  406TMC3     H 6119   3.133   1.853  13.904  0.5628  1.0163 -1.8867
  406TMC3    H1 6120   3.180   2.184  14.165 -0.0626  0.4789 -3.0592
  406TMC3    H2 6121   3.490   1.902  14.139 -0.2060 -1.6432  0.1327
  406TMC3    C7 6122   3.399   2.092  14.285  0.3662  1.0505 -0.3763
  406TMC3    C8 6123   3.329   1.718  14.004 -0.1132 -0.0022 -0.4639
  406TMC3    O1 6124   3.369   2.201  14.333 -0.9087  0.5080 -0.6291
  406TMC3    O2 6125   3.250   1.650  13.937  0.0871 -0.2508  0.5330
  407MPD2     C 6126   1.214   4.370   9.840 -0.4332 -0.9136 -0.1798
  407MPD2    C1 6127   1.319   4.300   9.787  0.1076  0.1479 -0.4842
  407MPD2    C2 6128   1.416   4.263   9.874  0.4146  0.8465  0.2321
  407MPD2    C3 6129   1.417   4.311  10.009 -0.5555  0.0357  0.8162
  407MPD2    C4 6130   1.319   4.392  10.052 -0.1513  0.3560  0.7457
  407MPD2    C5 6131   1.215   4.413   9.969  1.0753  0.1402  0.5161
  407MPD2     H 6132   1.495   4.200   9.836  0.9510 -0.3099  3.2128
  407MPD2    H1 6133   1.315   4.427  10.154  2.2268  1.1258  0.5762
  407MPD2    H2 6134   1.136   4.408   9.776 -0.7521  0.8132  1.2482
  407MPD2    H3 6135   1.130   4.467  10.009 -1.6821 -2.8387 -1.2908
  407MPD2     N 6136   1.520   4.283  10.099 -0.6458  0.5635  0.5969
  407MPD2    H5 6137   1.534   4.342  10.181 -1.2475 -1.2784  2.0311
  407MPD2    N1 6138   1.327   4.262   9.650  0.1976  0.1398 -0.6485
  407MPD2    H7 6139   1.419   4.229   9.622  0.5578 -0.8442  1.6929
  408TMC3    C1 6140   1.283   4.260   9.418  0.6758  0.1923 -1.1022
  408TMC3    C2 6141   1.387   4.165   9.400 -0.2853 -0.0611 -0.6441
  408TMC3    C3 6142   1.425   4.145   9.270 -0.2979 -0.3264 -0.2873
  408TMC3    C4 6143   1.220   4.317   9.311  0.1977 -0.0130 -0.4214
  408TMC3    C5 6144   1.261   4.278   9.186  0.4929 -0.6838 -0.1870
  408TMC3    C6 6145   1.362   4.189   9.154  0.6164  0.2072 -1.0304
  408TMC3     C 6146   1.242   4.310   9.552  0.0059 -0.7950 -0.5292
  408TMC3     O 6147   1.137   4.372   9.557 -0.1274  0.0807  0.1544
  408TMC3     H 6148   1.428   4.109   9.484 -3.0252  1.2412  1.5460
  408TMC3    H1 6149   1.129   4.375   9.315 -0.9510 -1.7661 -0.8357
  408TMC3    H2 6150   1.392   4.160   9.054  1.4015  0.5974 -0.9044
  408TMC3    C7 6151   1.181   4.315   9.074 -0.7423  0.5926  0.1061
  408TMC3    C8 6152   1.519   4.033   9.258 -0.3281 -0.0634  0.1036
  408TMC3    O1 6153   1.209   4.246   8.976 -0.7624  0.0693 -0.0922
  408TMC3    O2 6154   1.502   3.963   9.161 -0.3210 -0.4799  0.0556
  409MPD2     C 6155   0.994   3.961  17.172  0.9009  0.2030  0.5727
  409MPD2    C1 6156   1.040   4.001  17.295 -0.8382 -0.0740  0.7262
  409MPD2    C2 6157   1.110   4.117  17.308  0.7747  0.2691  0.4779
  409MPD2    C3 6158   1.120   4.195  17.200 -0.2205 -0.1656  0.7058
  409MPD2    C4 6159   1.071   4.149  17.079 -0.5769 -0.3643  0.0339
  409MPD2    C5 6160   1.022   4.028  17.060 -0.6723  0.6884  0.6758
  409MPD2     H 6161   1.164   4.140  17.399  0.2986  1.4959  0.4555
  409MPD2    H1 6162   1.077   4.215  16.994 -0.7545 -0.6400 -0.1922
  409MPD2    H2 6163   0.931   3.873  17.164 -0.9925  1.6695 -0.7598
  409MPD2    H3 6164   0.965   3.993  16.974 -0.1682 -0.0393  0.6436
  409MPD2     N 6165   1.166   4.331  17.204 -0.0895  0.3116 -0.5284
  409MPD2    H5 6166   1.163   4.389  17.121  1.2885 -0.6950 -1.2803
  409MPD2    N1 6167   1.024   3.920  17.412 -0.1581  0.2062 -0.6052
  409MPD2    H7 6168   1.085   3.953  17.486  0.5820  0.0105 -1.1269
  410TMC3    C1 6169   1.267   4.521  17.315  0.3335  0.7879  0.3349
  410TMC3    C2 6170   1.350   4.540  17.417  0.2102 -0.0170 -0.4536
  410TMC3    C3 6171   1.445   4.644  17.403 -0.4093 -0.3237  0.0912
  410TMC3    C4 6172   1.278   4.598  17.202  0.0501  0.0304 -0.1720
  410TMC3    C5 6173   1.368   4.696  17.191  0.6064 -0.9462 -0.1938
  410TMC3    C6 6174   1.456   4.714  17.291 -0.1558 -0.4655  0.0413
  410TMC3     C 6175   1.182   4.400  17.325  0.1071 -0.1847 -0.1811
  410TMC3     O 6176   1.150   4.359  17.435 -0.0115  0.7328  0.3343
  410TMC3     H 6177   1.319   4.490  17.508 -0.4198 -0.2168 -0.7757
  410TMC3    H1 6178   1.197   4.596  17.130  0.8266  0.8957 -1.0831
  410TMC3    H2 6179   1.525   0.061  17.297 -0.9586  0.3627 -2.3304
  410TMC3    C7 6180   1.386   0.019  17.061 -0.1948  0.2804  0.5366
  410TMC3    C8 6181   1.546   4.647  17.508  0.7866  0.4348  0.8297
  410TMC3    O1 6182   1.332   4.697  16.966  0.1352 -0.5769  0.0101
  410TMC3    O2 6183   1.600   0.017  17.547 -0.6377 -0.4534  0.1217
  411MPD2     C 6184   0.977   0.071  14.060  0.5027  0.6819  0.6615
  411MPD2    C1 6185   0.956   0.074  14.195  0.4056  0.2709  0.1293
  411MPD2    C2 6186   0.881   4.704  14.243 -0.0520 -0.5760  0.4180
  411MPD2    C3 6187   0.863   4.581  14.175  0.2584  0.0500  0.1620
  411MPD2    C4 6188   0.890   4.585  14.040 -0.1320 -0.8451 -0.3752
  411MPD2    C5 6189   0.952   4.695  13.985  0.3571  1.4968  0.9143
  411MPD2     H 6190   0.839   4.718  14.342  0.3665  0.2910  0.4668
  411MPD2    H1 6191   0.892   4.494  13.981  0.3484 -0.2733 -1.2427
  411MPD2    H2 6192   1.028   0.149  14.004 -3.7310  0.7135 -3.1872
  411MPD2    H3 6193   0.977   4.680  13.880 -0.6159  0.7595  0.7832
  411MPD2     N 6194   0.803   4.462  14.227  0.4557 -0.1279  0.0941
  411MPD2    H5 6195   0.785   4.389  14.160  3.9388 -2.9358  2.2059
  411MPD2    N1 6196   0.980   0.197  14.263  0.1762 -0.1211 -0.1486
  411MPD2    H7 6197   1.019   0.278  14.215 -0.0467  0.9468  1.4697
  412TMC3    C1 6198   0.645   4.342  14.324 -0.2806 -0.3235  0.1670
  412TMC3    C2 6199   0.579   4.369  14.208  0.0900  0.1662  0.7090
  412TMC3    C3 6200   0.535   4.259  14.142  0.1279 -0.0055  0.2671
  412TMC3    C4 6201   0.680   4.218  14.371  0.4308  0.6300 -0.4164
  412TMC3    C5 6202   0.637   4.114  14.292  0.2677  0.1537  0.2159
  412TMC3    C6 6203   0.555   4.136  14.190 -0.3811  0.2865  0.5999
  412TMC3     C 6204   0.745   4.440  14.351 -1.1111  0.0115 -0.2988
  412TMC3     O 6205   0.747   4.508  14.453 -0.0532 -0.4886  0.6961
  412TMC3     H 6206   0.572   4.473  14.178 -2.6363 -1.2281 -3.5535
  412TMC3    H1 6207   0.773   4.204  14.426  0.1995  0.9846  0.0606
  412TMC3    H2 6208   0.526   4.044  14.140 -1.1727  0.9316 -0.1110
  412TMC3    C7 6209   0.736   4.012  14.274  0.0426  0.4296 -0.7021
  412TMC3    C8 6210   0.563   4.270  14.003 -0.4115 -0.0928 -0.2939
  412TMC3    O1 6211   0.787   3.953  14.366 -0.1220 -0.1158  0.2051
  412TMC3    O2 6212   0.603   4.171  13.949 -0.0183 -0.2342  0.6402
  413MPD2     C 6213   2.834   3.073  15.633  0.0570 -0.2732 -0.2987
  413MPD2    C1 6214   2.782   3.094  15.509  0.4377  0.5818  0.1240
  413MPD2    C2 6215   2.835   3.008  15.413  0.5638 -0.4805  0.1311
  413MPD2    C3 6216   2.922   2.903  15.438 -0.2797 -0.3288  1.0629
  413MPD2    C4 6217   2.968   2.892  15.565  0.2980  0.3480  0.0570
  413MPD2    C5 6218   2.919   2.974  15.664  0.0568 -0.5269  0.1537
  413MPD2     H 6219   2.816   3.024  15.308  0.1757  3.3424  0.7934
  413MPD2    H1 6220   3.041   2.819  15.598  0.4532  1.5557  2.4209
  413MPD2    H2 6221   2.800   3.127  15.721  1.4099 -0.6797  0.4746
  413MPD2    H3 6222   2.957   2.968  15.765  0.4382  2.5044  0.1896
  413MPD2     N 6223   2.950   2.815  15.334 -0.3517  0.1141  0.6417
  413MPD2    H5 6224   2.890   2.819  15.253  1.3073  2.0610 -0.4995
  413MPD2    N1 6225   2.701   3.204  15.487 -0.3494  0.3102 -0.1761
  413MPD2    H7 6226   2.656   3.258  15.561 -0.5987 -1.6309  1.1035
  414TMC3    C1 6227   3.000   2.612  15.241  0.3246  0.2851 -0.3805
  414TMC3    C2 6228   3.005   2.476  15.261  0.4019  0.5386  0.5645
  414TMC3    C3 6229   3.059   2.404  15.158 -0.8193  0.7589  0.3196
  414TMC3    C4 6230   3.071   2.671  15.130 -0.3788  0.2988  0.1418
  414TMC3    C5 6231   3.123   2.592  15.036 -0.1941  0.0405  0.0008
  414TMC3    C6 6232   3.115   2.457  15.044 -0.3711  0.3882 -0.5099
  414TMC3     C 6233   3.010   2.695  15.359  0.1422  0.1545 -0.2419
  414TMC3     O 6234   3.067   2.639  15.451 -0.3157  0.0439 -0.3134
  414TMC3     H 6235   2.949   2.431  15.342  1.2215 -1.0789  0.2486
  414TMC3    H1 6236   3.086   2.777  15.111  2.0865  0.0108  0.4090
  414TMC3    H2 6237   3.148   2.401  14.958 -1.4541 -0.9962 -0.0142
  414TMC3    C7 6238   3.240   2.656  14.983 -0.7040 -0.2909 -1.2527
  414TMC3    C8 6239   3.098   2.265  15.190  0.0324  0.1515  0.1091
  414TMC3    O1 6240   3.279   2.751  15.050  0.1369 -0.1608  0.6310
  414TMC3    O2 6241   3.157   2.203  15.101 -0.0514 -0.5042  0.6627
  415TMC3    C1 6242   3.453   1.104  10.233 -0.4477  0.1601  0.0867
  415TMC3    C2 6243   3.575   1.060  10.195  0.2509 -0.0528 -0.5686
  415TMC3    C3 6244   3.669   1.153  10.153  0.0854 -0.1335 -0.0726
  415TMC3    C4 6245   3.424   1.237  10.225 -0.4670  0.1953 -0.1329
  415TMC3    C5 6246   3.518   1.324  10.185 -0.4156  0.6401  0.1915
  415TMC3    C6 6247   3.644   1.290  10.148  0.1974  0.2587  0.6473
  415TMC3     C 6248   3.345   1.021  10.291 -0.1151 -0.1558 -0.1062
  415TMC3     O 6249   3.253   1.083  10.350  0.2473 -0.2729  0.1501
  415TMC3     H 6250   3.593   0.953  10.186 -1.6788 -0.3596 -0.7199
  415TMC3    H1 6251   3.325   1.271  10.253 -0.6466 -0.1071 -0.3976
  415TMC3    H2 6252   3.714   1.363  10.111  2.5692 -1.6046  1.4818
  415TMC3    C7 6253   3.496   1.465  10.185  0.2516 -0.2088  0.5090
  415TMC3    C8 6254   3.804   1.096  10.125  0.2211  0.0281 -0.4061
  415TMC3    O1 6255   3.574   1.539  10.119 -0.1583  0.0856 -0.1547
  415TMC3    O2 6256   3.807   0.979  10.091 -0.6139 -0.4338  0.0438
  416MPD2     C 6257   0.606   0.185  11.309  0.2247 -0.2292  0.3585
  416MPD2    C1 6258   0.516   0.117  11.379 -0.4271 -0.3736 -0.0149
  416MPD2    C2 6259   0.484   4.718  11.345 -0.4738  0.0196 -0.2512
  416MPD2    C3 6260   0.517   4.683  11.213 -0.2038  0.4267  0.4339
  416MPD2    C4 6261   0.586   0.036  11.132 -0.7185  0.6878  0.2199
  416MPD2    C5 6262   0.647   0.148  11.189  0.0262 -0.3334  0.0608
  416MPD2     H 6263   0.427   4.646  11.402 -0.2008  0.1327  0.1650
  416MPD2    H1 6264   0.629   4.731  11.041  1.2760  2.2381  0.4561
  416MPD2    H2 6265   0.642   0.280  11.347 -0.0372  0.4331 -1.0653
  416MPD2    H3 6266   0.714   0.206  11.126  1.1046  1.2233  2.6194
  416MPD2     N 6267   0.463   4.565  11.161 -0.4827  0.2284 -0.1522
  416MPD2    H5 6268   0.404   4.514  11.227  1.8611 -2.9227 -0.4629
  416MPD2    N1 6269   0.434   0.181  11.476 -0.0330 -0.0679  0.2646
  416MPD2    H7 6270   0.425   0.282  11.470  0.3312 -0.0405  0.1705
  417TMC3    C1 6271   0.238   0.189  11.597  0.5087 -0.3024  0.0354
  417TMC3    C2 6272   0.195   0.184  11.723 -0.3448 -0.3273 -0.0920
  417TMC3    C3 6273   0.071   0.226  11.750 -0.4549 -0.1633 -0.5948
  417TMC3    C4 6274   0.164   0.241  11.495 -0.0075  0.7766 -0.5861
  417TMC3    C5 6275   0.047   0.299  11.535 -0.6665  0.1121 -0.6243
  417TMC3    C6 6276   4.736   0.291  11.663 -0.2154 -0.0449 -0.2686
  417TMC3     C 6277   0.348   0.108  11.555  0.3547 -0.0974  0.1312
  417TMC3     O 6278   0.374   4.736  11.604  0.1651 -0.2941  0.0182
  417TMC3     H 6279   0.259   0.134  11.795  1.2262  2.0690  0.1459
  417TMC3    H1 6280   0.202   0.246  11.394  2.1141  0.0221  0.1717
  417TMC3    H2 6281   4.648   0.345  11.694 -0.4764  0.1387 -1.3328
  417TMC3    C7 6282   4.669   0.303  11.442 -0.2972 -0.2600  0.0785
  417TMC3    C8 6283   0.024   0.234  11.893  0.3027 -0.4179 -0.2295
  417TMC3    O1 6284   4.564   0.360  11.474  0.1941  0.0017 -0.4798
  417TMC3    O2 6285   4.696   0.330  11.933 -0.2467 -1.0471 -0.3727
  418TMC3    C1 6286   3.829   1.909   0.124  0.4139  0.1922 -1.2107
  418TMC3    C2 6287   3.692   1.932   0.126  0.8236 -0.6662  0.1028
  418TMC3    C3 6288   3.618   1.869   0.218  0.1891  0.0691 -0.4149
  418TMC3    C4 6289   3.893   1.829   0.217  0.1422  0.1377  0.2387
  418TMC3    C5 6290   3.815   1.778   0.322  0.2072  0.6418 -0.1700
  418TMC3    C6 6291   3.681   1.799   0.319 -0.5557 -0.0344 -0.1875
  418TMC3     C 6292   3.897   1.906  17.739  0.1999  0.2730 -0.3380
  418TMC3     O 6293   3.861   1.992  17.662  0.0281 -0.7170  0.3714
  418TMC3     H 6294   3.647   1.997   0.051  0.2270  0.0879  1.1190
  418TMC3    H1 6295   4.000   1.813   0.220  0.4271  2.0422  0.6699
  418TMC3    H2 6296   3.624   1.766   0.405  0.3827 -0.0592  0.4227
  418TMC3    C7 6297   3.861   1.698   0.434 -0.0104 -0.1407  0.1426
  418TMC3    C8 6298   3.490   1.826   0.184  0.2317  0.2641  0.3281
  418TMC3    O1 6299   3.771   1.641   0.491  0.7848  0.0657 -0.6401
  418TMC3    O2 6300   3.402   1.908   0.156  0.1622  0.3310 -0.5489
  419MPD2     C 6301   2.473   4.462  12.367  0.4543  0.0528 -0.1555
  419MPD2    C1 6302   2.447   4.598  12.361 -0.5180  0.4513  0.3145
  419MPD2    C2 6303   2.386   4.655  12.468  0.1488  0.2465  0.1528
  419MPD2    C3 6304   2.372   4.587  12.583 -0.1797 -1.0161 -0.4159
  419MPD2    C4 6305   2.407   4.449  12.602 -0.0612 -0.2638 -0.2881
  419MPD2    C5 6306   2.452   4.387  12.484  0.1469 -0.4816 -0.3424
  419MPD2     H 6307   2.354   0.021  12.450  3.4773  0.9202 -1.7497
  419MPD2    H1 6308   2.383   4.393  12.691 -0.7980  0.9467  0.2768
  419MPD2    H2 6309   2.505   4.408  12.278 -2.2968 -0.8015 -0.6308
  419MPD2    H3 6310   2.465   4.280  12.482 -1.8639 -0.7374  0.2151
  419MPD2     N 6311   2.298   4.653  12.679  0.1385 -0.2253  0.3822
  419MPD2    H5 6312   2.249   0.002  12.653  2.5935  1.1544  0.2866
  419MPD2    N1 6313   2.472   4.684  12.250  0.1248 -0.2219  0.7098
  419MPD2    H7 6314   2.450   0.047  12.257 -1.5205 -0.4255 -1.4629
  420TMC3    C1 6315   2.174   4.682  12.879  0.0255  0.4290 -0.1125
  420TMC3    C2 6316   2.115   0.049  12.809 -0.7211  0.3558  0.0352
  420TMC3    C3 6317   2.070   0.152  12.884  0.6185  0.0145 -0.1865
  420TMC3    C4 6318   2.184   4.677  13.017 -0.6014 -0.2277 -0.1891
  420TMC3    C5 6319   2.149   0.052  13.087 -0.3047 -0.2980 -0.2263
  420TMC3    C6 6320   2.088   0.162  13.024 -0.6047 -0.6397 -0.2318
  420TMC3     C 6321   2.266   4.601  12.801  0.5728 -0.0387 -0.3527
  420TMC3     O 6322   2.301   4.497  12.858  0.7006  0.2599  0.2363
  420TMC3     H 6323   2.106   0.050  12.702  0.1314 -0.9482 -0.0584
  420TMC3    H1 6324   2.244   4.596  13.057  1.8336  1.5406 -0.2709
  420TMC3    H2 6325   2.025   0.229  13.081  0.9320 -1.4741  2.4506
  420TMC3    C7 6326   2.198   0.062  13.218  0.5934 -0.1944 -0.4489
  420TMC3    C8 6327   1.972   0.243  12.832 -0.2007 -0.5330  0.3374
  420TMC3    O1 6328   2.226   4.695  13.274  0.0643 -0.1806  0.4885
  420TMC3    O2 6329   1.919   0.323  12.907 -0.4043 -0.5535 -0.4556
  421TMC3    C1 6330   3.603   1.529  13.683  0.4530  0.7487 -0.1356
  421TMC3    C2 6331   3.604   1.661  13.715  0.2085 -0.8806  1.0642
  421TMC3    C3 6332   3.675   1.692  13.826  0.9389 -0.5045 -0.9729
  421TMC3    C4 6333   3.678   1.431  13.747 -0.6527  0.1633  0.8090
  421TMC3    C5 6334   3.742   1.476  13.858 -0.5823 -0.5555  0.2474
  421TMC3    C6 6335   3.746   1.605  13.900  0.5862 -0.7996 -0.6260
  421TMC3     C 6336   3.553   1.494  13.552 -0.0848 -0.0932 -0.0373
  421TMC3     O 6337   3.533   1.587  13.474  0.0057  0.0241 -0.5542
  421TMC3     H 6338   3.559   1.737  13.652  1.6584 -0.3263  0.6991
  421TMC3    H1 6339   3.686   1.330  13.708  0.9529  0.2120  1.0183
  421TMC3    H2 6340   3.801   1.636  13.988 -0.5155 -1.3994  0.2768
  421TMC3    C7 6341   3.853   1.399  13.903 -0.5125  0.5498 -0.2849
  421TMC3    C8 6342   3.678   1.827  13.865  0.2300  0.6897 -0.3868
  421TMC3    O1 6343   3.945   1.462  13.944  0.2903  0.7834  0.5069
  421TMC3    O2 6344   3.754   1.852  13.959 -0.1259 -0.0706 -0.2604
  422TMC3    C1 6345   1.209   2.908  12.557 -0.2657 -0.5007  0.2250
  422TMC3    C2 6346   1.205   3.040  12.530 -0.5736 -0.0703 -0.2097
  422TMC3    C3 6347   1.142   3.117  12.629 -0.8137 -0.3006 -0.7588
  422TMC3    C4 6348   1.150   2.842  12.663  0.9029  0.4485  0.2775
  422TMC3    C5 6349   1.075   2.923  12.745 -0.0115 -0.6630  0.0138
  422TMC3    C6 6350   1.075   3.059  12.736  1.2221  0.7181  0.3142
  422TMC3     C 6351   1.310   2.835  12.486 -0.0170 -0.2370  0.1329
  422TMC3     O 6352   1.351   2.896  12.389 -0.0776  0.4493 -0.2373
  422TMC3     H 6353   1.263   3.092  12.455 -0.2649 -1.3412 -0.8396
  422TMC3    H1 6354   1.136   2.735  12.668  1.1438  0.4207  0.3980
  422TMC3    H2 6355   1.018   3.117  12.807 -0.3378  0.9026 -1.0912
  422TMC3    C7 6356   0.997   2.865  12.847 -0.6022 -0.0911 -0.0475
  422TMC3    C8 6357   1.152   3.258  12.621 -0.0504 -0.1747 -0.4696
  422TMC3    O1 6358   0.967   2.750  12.821 -0.7387 -0.2401 -0.0550
  422TMC3    O2 6359   1.111   3.319  12.720 -0.8848 -0.0539  0.1040
  423MPD2     C 6360   2.276   3.194   0.805  0.3220 -0.1125  0.3388
  423MPD2    C1 6361   2.354   3.094   0.861  0.7213  0.8604  0.0321
  423MPD2    C2 6362   2.431   3.021   0.775  0.1045  0.0317 -0.2314
  423MPD2    C3 6363   2.443   3.050   0.635  0.0214  0.4611  0.0854
  423MPD2    C4 6364   2.381   3.158   0.597  0.0564  1.0815 -0.1470
  423MPD2    C5 6365   2.296   3.231   0.676 -0.2558 -0.2871  0.0955
  423MPD2     H 6366   2.481   2.933   0.815 -0.9132 -1.6231 -2.6524
  423MPD2    H1 6367   2.400   3.198   0.499  0.0650 -1.3330 -1.1229
  423MPD2    H2 6368   2.217   3.264   0.862  1.0419  2.2110 -1.7920
  423MPD2    H3 6369   2.239   3.310   0.629  1.3374  0.7476 -0.0869
  423MPD2     N 6370   2.531   2.976   0.549  0.7693 -0.3233 -0.2726
  423MPD2    H5 6371   2.551   3.013   0.457 -0.5055 -0.1478 -0.4869
  423MPD2    N1 6372   2.358   3.067   1.005 -0.4121  0.5358  0.5582
  423MPD2    H7 6373   2.397   2.978   1.036  0.1709  0.8215  0.6362
  424TMC3    C1 6374   2.318   3.114   1.239  0.1539  0.1963  0.2674
  424TMC3    C2 6375   2.405   3.012   1.269  0.0930 -0.0007  0.6618
  424TMC3    C3 6376   2.431   2.996   1.405 -0.2015 -0.2536  0.2951
  424TMC3    C4 6377   2.272   3.194   1.335 -0.4470  0.1644  0.1361
  424TMC3    C5 6378   2.308   3.182   1.467 -0.9884  0.3563 -0.6266
  424TMC3    C6 6379   2.391   3.079   1.506  0.0926  0.5367 -0.1256
  424TMC3     C 6380   2.288   3.150   1.099  0.3716  0.1013  0.5864
  424TMC3     O 6381   2.214   3.248   1.081  0.0282  0.0245  0.1853
  424TMC3     H 6382   2.454   2.951   1.193  0.1986  1.4763 -0.4380
  424TMC3    H1 6383   2.207   3.274   1.300 -0.9355  0.0836  0.8714
  424TMC3    H2 6384   2.433   3.072   1.605 -1.1664  1.2253  0.4557
  424TMC3    C7 6385   2.287   3.295   1.558  0.0578  0.3834  0.0142
  424TMC3    C8 6386   2.535   2.899   1.434  0.6705 -0.0239 -0.3278
  424TMC3    O1 6387   2.365   3.297   1.654 -0.3702 -0.0723  0.0458
  424TMC3    O2 6388   2.547   2.802   1.357  0.3151 -0.4253 -0.1689
  425MPD2     C 6389   1.717   2.847  17.433  0.4232 -0.2629  0.0407
  425MPD2    C1 6390   1.607   2.783  17.394 -0.0117  0.1268  0.4040
  425MPD2    C2 6391   1.487   2.823  17.449 -0.3201 -0.0934  0.5410
  425MPD2    C3 6392   1.485   2.920  17.542  0.2093  0.5306 -0.3418
  425MPD2    C4 6393   1.601   2.985  17.581 -0.3464 -0.6304  0.4223
  425MPD2    C5 6394   1.719   2.951  17.525 -0.5180  0.2486  0.1051
  425MPD2     H 6395   1.389   2.785  17.425  0.8974 -3.0841  0.3708
  425MPD2    H1 6396   1.598   3.064  17.656 -1.0913 -0.2863  0.0304
  425MPD2    H2 6397   1.812   2.824  17.387  0.8818  2.7684 -0.5609
  425MPD2    H3 6398   1.812   3.004  17.542  0.5523 -0.5752 -3.2029
  425MPD2     N 6399   1.360   2.950  17.599 -0.5566 -0.0395  0.0965
  425MPD2    H5 6400   1.282   2.896  17.564 -1.3982  1.3141 -0.0754
  425MPD2    N1 6401   1.615   2.680  17.295  0.5548  0.2024 -0.0037
  425MPD2    H7 6402   1.710   2.658  17.267  0.7761  0.9464  0.1737
  426TMC3    C1 6403   1.557   2.481  17.182  0.1044  0.6934 -0.2800
  426TMC3    C2 6404   1.676   2.485  17.113  0.5352  0.2287 -0.1273
  426TMC3    C3 6405   1.725   2.369  17.067 -0.3310 -0.1741 -0.2915
  426TMC3    C4 6406   1.489   2.365  17.200 -0.2917 -0.3849  0.0915
  426TMC3    C5 6407   1.549   2.248  17.161  0.0081  0.2236 -0.2893
  426TMC3    C6 6408   1.672   2.244  17.090  0.3652  0.1893  0.2990
  426TMC3     C 6409   1.513   2.589  17.256 -0.4484 -0.0397  0.1541
  426TMC3     O 6410   1.391   2.596  17.278 -0.5493  0.1545 -1.2322
  426TMC3     H 6411   1.727   2.580  17.101 -0.3782  0.7280 -0.0465
  426TMC3    H1 6412   1.385   2.366  17.231 -0.3066 -7.1405  0.2156
  426TMC3    H2 6413   1.704   2.157  17.035  2.1035  0.9645  0.0945
  426TMC3    C7 6414   1.489   2.116  17.185  0.2605 -0.7180  0.1951
  426TMC3    C8 6415   1.778   2.374  16.928  0.8840  0.4100  0.2337
  426TMC3    O1 6416   1.524   2.018  17.123  0.7126  0.6477  0.1982
  426TMC3    O2 6417   1.861   2.295  16.891 -0.0297 -0.9326 -0.1567
  427MPD2     C 6418   0.209   0.060  14.626 -0.5477  0.0024 -0.1018
  427MPD2    C1 6419   0.197   0.073  14.763  0.6084 -0.0052  0.3699
  427MPD2    C2 6420   0.076   0.112  14.817 -0.6817 -0.3912  0.1843
  427MPD2    C3 6421   4.703   0.150  14.733  0.3801 -0.0874 -0.0323
  427MPD2    C4 6422   4.722   0.135  14.596 -0.3330 -0.0365 -0.3937
  427MPD2    C5 6423   0.100   0.080  14.545 -0.1393 -0.1373 -1.0446
  427MPD2     H 6424   0.076   0.131  14.924  1.0210  0.5463  0.0309
  427MPD2    H1 6425   4.651   0.161  14.519 -1.2195  2.7838  1.3988
  427MPD2    H2 6426   0.300   0.024  14.580  0.8314  2.4526  0.7424
  427MPD2    H3 6427   0.118   0.067  14.439  0.9630  1.6979 -1.0773
  427MPD2     N 6428   4.581   0.210  14.785 -0.0561  0.2169 -0.0385
  427MPD2    H5 6429   4.515   0.235  14.712 -1.8694 -0.7167  1.2577
  427MPD2    N1 6430   0.300   0.032  14.852 -0.0869  0.4426 -0.3571
  427MPD2    H7 6431   0.278   0.020  14.950  1.6848 -0.9243 -0.1272
  428TMC3    C1 6432   0.516   4.688  14.923 -0.4441 -0.5107 -0.1253
  428TMC3    C2 6433   0.452   4.592  15.008  0.5845  0.1041 -0.3708
  428TMC3    C3 6434   0.532   4.499  15.068  0.6812  0.4608  0.0074
  428TMC3    C4 6435   0.647   4.677  14.897  0.2430 -0.0019 -0.5501
  428TMC3    C5 6436   0.723   4.589  14.971 -0.2216 -1.1570  0.2546
  428TMC3    C6 6437   0.662   4.495  15.051  0.0909 -0.1275  0.4196
  428TMC3     C 6438   0.430   0.004  14.817 -0.6206  0.4763  0.3969
  428TMC3     O 6439   0.489   0.020  14.710  0.1340  0.4191 -0.1574
  428TMC3     H 6440   0.344   4.581  15.013  0.7400 -1.3979 -0.3469
  428TMC3    H1 6441   0.683   0.032  14.849 -3.6700  2.3060  0.8943
  428TMC3    H2 6442   0.721   4.428  15.112  0.6779 -1.5988 -1.7550
  428TMC3    C7 6443   0.861   4.628  15.011 -0.6681 -0.7006  0.3120
  428TMC3    C8 6444   0.497   4.439  15.194  0.9389 -0.1466 -0.7137
  428TMC3    O1 6445   0.908   4.601  15.121  0.2052 -0.5562  0.4187
  428TMC3    O2 6446   0.539   4.326  15.224  0.0474  0.1464 -0.0136
  429MPD2     C 6447   1.242   0.392   0.456  0.9799 -0.5138 -0.6050
  429MPD2    C1 6448   1.313   0.337   0.346 -0.2416 -0.5165  0.2858
  429MPD2    C2 6449   1.410   0.412   0.281  0.4597 -0.5684  0.4156
  429MPD2    C3 6450   1.435   0.541   0.317 -0.3688 -0.2884 -0.7141
  429MPD2    C4 6451   1.365   0.594   0.423 -0.3253 -0.4087  0.4431
  429MPD2    C5 6452   1.266   0.528   0.488 -0.1927  0.4883  0.1024
  429MPD2     H 6453   1.447   0.372   0.187  1.1619  2.7001 -0.6883
  429MPD2    H1 6454   1.376   0.698   0.450 -0.6717 -0.5974  1.3058
  429MPD2    H2 6455   1.158   0.339   0.500 -0.4526  1.5391 -0.8426
  429MPD2    H3 6456   1.204   0.583   0.558  0.1056  0.0654  0.7041
  429MPD2     N 6457   1.547   0.598   0.246  0.6356 -0.0077  0.8522
  429MPD2    H5 6458   1.591   0.537   0.178  0.3313  1.7925 -0.9632
  429MPD2    N1 6459   1.277   0.213   0.290  0.3666  0.0036 -0.0513
  429MPD2    H7 6460   1.319   0.189   0.201 -0.0075 -0.2905 -0.1515
  430TMC3    C1 6461   1.698   0.750   0.157 -0.3457 -0.1683  0.0806
  430TMC3    C2 6462   1.702   0.881   0.120 -0.0760 -0.0420 -0.5940
  430TMC3    C3 6463   1.798   0.910   0.035  0.0953 -0.6223  0.9736
  430TMC3    C4 6464   1.778   0.647   0.108 -0.3540 -0.1122  0.2495
  430TMC3    C5 6465   1.882   0.682   0.026 -0.1588  0.2331 -0.6009
  430TMC3    C6 6466   1.894   0.817  17.736  1.0132  1.1394  0.4381
  430TMC3     C 6467   1.588   0.728   0.249 -0.6348  0.0942  0.5073
  430TMC3     O 6468   1.528   0.822   0.303 -0.2169  0.3973 -0.2352
  430TMC3     H 6469   1.633   0.961   0.144  0.5615  0.5506 -0.7445
  430TMC3    H1 6470   1.753   0.545   0.132 -0.7248 -0.1069 -0.1147
  430TMC3    H2 6471   1.972   0.849  17.669 -0.0033  3.2904  0.2837
  430TMC3    C7 6472   1.953   0.582  17.688 -1.1267  0.2079 -0.2119
  430TMC3    C8 6473   1.770   1.016  17.688 -0.2681  0.0419 -0.1431
  430TMC3    O1 6474   1.909   0.467  17.710 -0.3911  0.1326  0.1969
  430TMC3    O2 6475   1.767   1.126  17.742 -0.1262  0.0540 -0.1895
  431MPD2     C 6476   2.265   0.727  12.366  0.2662 -0.0836 -0.4867
  431MPD2    C1 6477   2.402   0.701  12.334 -0.4720  0.2936 -0.0774
  431MPD2    C2 6478   2.440   0.587  12.257 -0.5723 -0.0610  0.3597
  431MPD2    C3 6479   2.341   0.506  12.204  0.4834 -0.1294 -0.2767
  431MPD2    C4 6480   2.209   0.524  12.244 -0.5515  0.1019  0.6699
  431MPD2    C5 6481   2.175   0.634  12.322  0.2735  0.7603 -0.7341
  431MPD2     H 6482   2.545   0.560  12.248 -1.5051 -3.3305 -0.7538
  431MPD2    H1 6483   2.123   0.468  12.211  0.0301 -1.9605  2.7133
  431MPD2    H2 6484   2.218   0.812  12.413  1.4264 -0.4800  1.3789
  431MPD2    H3 6485   2.071   0.651  12.344  0.9611  4.5637 -0.5370
  431MPD2     N 6486   2.371   0.408  12.110  0.2790  0.2719  0.0972
  431MPD2    H5 6487   2.302   0.335  12.099  0.6454  0.0395 -0.6903
  431MPD2    N1 6488   2.518   0.779  12.377 -0.2447  0.0106  0.0892
  431MPD2    H7 6489   2.615   0.753  12.367 -0.4741 -1.2086  1.0509
  432TMC3    C1 6490   2.528   0.264  12.007 -0.5028 -0.1118  0.0584
  432TMC3    C2 6491   2.618   0.261  11.907 -0.0257 -0.1026 -0.5281
  432TMC3    C3 6492   2.652   0.132  11.864  0.3747  0.0022  0.2245
  432TMC3    C4 6493   2.483   0.153  12.085  0.6909 -0.0279 -0.0859
  432TMC3    C5 6494   2.533   0.032  12.042 -0.3643  0.0539  0.9426
  432TMC3    C6 6495   2.614   0.016  11.929 -0.1865  1.2067 -0.0423
  432TMC3     C 6496   2.500   0.396  12.052 -0.2846  0.5056  0.4340
  432TMC3     O 6497   2.598   0.467  12.054 -0.3964 -0.9874  0.8943
  432TMC3     H 6498   2.632   0.351  11.848 -0.9081  1.7806  2.1545
  432TMC3    H1 6499   2.435   0.176  12.179 -3.4152 -1.9683 -1.7213
  432TMC3    H2 6500   2.632   4.653  11.890 -1.4015  1.7523 -1.9777
  432TMC3    C7 6501   2.520   4.654  12.128 -0.2713 -0.5053  0.0777
  432TMC3    C8 6502   2.755   0.125  11.766  0.4665 -0.3172  0.2479
  432TMC3    O1 6503   2.568   4.545  12.100  0.6055  0.2260  0.0117
  432TMC3    O2 6504   2.751   0.022  11.701 -0.8586 -0.2237  0.1982
  433MPD2     C 6505   1.509   4.131  10.858  0.6141  0.0657 -0.0510
  433MPD2    C1 6506   1.467   3.997  10.863  0.2924  0.2686 -0.2957
  433MPD2    C2 6507   1.402   3.950  10.978  0.2461  1.2027  0.1732
  433MPD2    C3 6508   1.390   4.025  11.091  0.5838  0.2651  0.1489
  433MPD2    C4 6509   1.445   4.155  11.089 -0.3448 -0.0974  0.1107
  433MPD2    C5 6510   1.498   4.209  10.976 -0.4131 -0.8795  0.0668
  433MPD2     H 6511   1.378   3.845  10.991 -2.0166  1.7253  0.2305
  433MPD2    H1 6512   1.442   4.212  11.181  2.0120 -0.8005  0.6050
  433MPD2    H2 6513   1.560   4.171  10.771  1.9445 -2.4195 -0.4095
  433MPD2    H3 6514   1.524   4.314  10.970  1.7907 -1.5408 -1.7277
  433MPD2     N 6515   1.346   3.955  11.204 -0.3609 -0.2235 -0.0661
  433MPD2    H5 6516   1.318   3.858  11.192 -0.2320 -0.5180  2.0101
  433MPD2    N1 6517   1.493   3.915  10.747  0.3168 -0.6052 -0.2564
  433MPD2    H7 6518   1.540   3.959  10.668 -1.9620 -0.3888 -1.5200
  434TMC3    C1 6519   1.525   3.723  10.619  0.0492  0.0704  0.2192
  434TMC3    C2 6520   1.594   3.613  10.658  0.2144  0.4654 -0.4352
  434TMC3    C3 6521   1.632   3.528  10.567  0.1018 -1.1287  0.1990
  434TMC3    C4 6522   1.478   3.745  10.495 -0.0525 -0.9940 -0.6538
  434TMC3    C5 6523   1.514   3.649  10.403 -0.1560 -0.0781  1.4622
  434TMC3    C6 6524   1.594   3.544  10.437  1.1584  0.7680 -0.1913
  434TMC3     C 6525   1.465   3.782  10.733  0.2663  0.9104  0.3704
  434TMC3     O 6526   1.415   3.701  10.812 -0.0818 -0.0354  0.2598
  434TMC3     H 6527   1.625   3.603  10.762 -1.5113 -0.3377 -0.0044
  434TMC3    H1 6528   1.387   3.801  10.482 -0.6339 -1.7119  0.3057
  434TMC3    H2 6529   1.628   3.473  10.363  1.5202  1.6763 -0.8949
  434TMC3    C7 6530   1.399   3.599  10.336 -0.1755 -0.1254 -1.0319
  434TMC3    C8 6531   1.750   3.456  10.587  0.8351 -0.2365  0.2740
  434TMC3    O1 6532   1.323   3.680  10.286 -0.4621 -0.6070  0.1641
  434TMC3    O2 6533   1.822   3.435  10.493 -0.6029  0.0140  0.1395
  435MPD2     C 6534   2.978   3.466  15.655  0.5419  0.2815 -0.6822
  435MPD2    C1 6535   2.997   3.507  15.786  0.8946  0.6690 -0.9500
  435MPD2    C2 6536   3.115   3.488  15.856 -0.6981  0.4238  0.1781
  435MPD2    C3 6537   3.224   3.427  15.790 -0.4212  0.0979  0.0993
  435MPD2    C4 6538   3.207   3.395  15.659 -0.5749  0.6920  0.0147
  435MPD2    C5 6539   3.086   3.411  15.596 -0.0761 -0.4610  0.0632
  435MPD2     H 6540   3.123   3.510  15.962 -2.0750  2.0646 -0.0547
  435MPD2    H1 6541   3.277   3.336  15.601  0.7914 -0.0596  2.4066
  435MPD2    H2 6542   2.895   3.475  15.587 -1.6589  1.3455  2.1330
  435MPD2    H3 6543   3.070   3.376  15.495 -1.7416 -2.4504  1.0260
  435MPD2     N 6544   3.343   3.395  15.856 -0.0384  0.2128  0.1810
  435MPD2    H5 6545   3.354   3.433  15.950 -2.9789 -3.2284  1.9449
  435MPD2    N1 6546   2.885   3.565  15.855  0.0424 -0.2594 -0.5733
  435MPD2    H7 6547   2.885   3.566  15.956 -1.7864 -0.3490 -0.5773
  436TMC3    C1 6548   2.528   3.621  16.068 -0.4051  0.4268  0.5153
  436TMC3    C2 6549   2.643   3.587  16.004  0.4875 -0.0028  0.4097
  436TMC3    C3 6550   2.665   3.651  15.884 -0.0916 -0.4479  0.4247
  436TMC3    C4 6551   2.445   3.715  16.023  0.3938 -0.3507 -0.2927
  436TMC3    C5 6552   2.476   3.786  15.912 -0.5337 -0.3718  0.1353
  436TMC3    C6 6553   2.579   3.746  15.832  0.1973  0.1348 -0.6559
  436TMC3     C 6554   2.505   3.553  16.196 -0.5638 -0.1913 -0.4706
  436TMC3     O 6555   2.580   3.460  16.227  0.2284 -0.1718  0.1983
  436TMC3     H 6556   2.689   3.490  16.021 -2.2623 -1.2619  0.6937
  436TMC3    H1 6557   2.356   3.741  16.079 -0.2948 -1.1640 -1.0205
  436TMC3    H2 6558   2.614   3.800  15.745  1.0426 -0.9402 -0.9865
  436TMC3    C7 6559   2.386   3.883  15.848  0.1342 -0.3201 -0.0872
  436TMC3    C8 6560   2.766   3.606  15.797  0.0466 -0.2990 -0.2250
  436TMC3    O1 6561   2.411   3.913  15.731  0.4800 -0.0002 -0.3842
  436TMC3    O2 6562   2.737   3.608  15.677 -0.2111  0.2382 -0.3959
  437TMC3    C1 6563   2.141   1.440  12.360  0.4871  0.1464  0.0706
  437TMC3    C2 6564   2.094   1.519  12.254  0.3236  0.1814  0.3881
  437TMC3    C3 6565   2.104   1.660  12.249 -0.4413 -0.5131  0.2910
  437TMC3    C4 6566   2.211   1.491  12.462  0.6033  0.5127  0.4155
  437TMC3    C5 6567   2.228   1.631  12.452  0.4952  0.3893 -0.7918
  437TMC3    C6 6568   2.173   1.717  12.355 -0.2506  0.0422  0.2146
  437TMC3     C 6569   2.089   1.304  12.372 -0.0014  0.3755 -0.1872
  437TMC3     O 6570   2.159   1.226  12.435  0.7602  0.4180  0.5455
  437TMC3     H 6571   2.035   1.471  12.177 -0.3332 -0.9121  1.5840
  437TMC3    H1 6572   2.243   1.428  12.544  2.2430 -0.1055 -0.6904
  437TMC3    H2 6573   2.173   1.825  12.364  1.6011 -0.0016  0.8112
  437TMC3    C7 6574   2.350   1.688  12.512  0.6130 -0.4381  0.1101
  437TMC3    C8 6575   2.076   1.738  12.132 -0.6814 -0.6969  0.5706
  437TMC3    O1 6576   2.380   1.796  12.472 -0.1966  0.3162  0.4383
  437TMC3    O2 6577   2.119   1.854  12.143 -0.1316  0.4323  0.2345
  438MPD2     C 6578   4.086   1.767  16.674 -0.6251  0.0094  0.2806
  438MPD2    C1 6579   4.144   1.654  16.731 -0.1251  0.1910  0.4114
  438MPD2    C2 6580   4.119   1.609  16.859  0.3415 -0.6310  0.4917
  438MPD2    C3 6581   4.033   1.688  16.939  0.0978  0.7309  0.6500
  438MPD2    C4 6582   3.977   1.808  16.887 -0.4108 -0.0307 -0.1188
  438MPD2    C5 6583   4.007   1.840  16.755 -0.0516  0.1686  0.0247
  438MPD2     H 6584   4.162   1.519  16.903  1.5169  0.4422  1.5398
  438MPD2    H1 6585   3.907   1.871  16.941  0.5771  0.1854  0.9068
  438MPD2    H2 6586   4.097   1.807  16.574 -3.0912 -1.5732 -0.6208
  438MPD2    H3 6587   3.956   1.926  16.712 -0.8251 -0.0322  0.5416
  438MPD2     N 6588   3.979   1.640  17.062  0.4464 -0.0610  0.6445
  438MPD2    H5 6589   3.922   1.705  17.115 -0.5614  0.1556 -0.7399
  438MPD2    N1 6590   4.225   1.572  16.655  0.0452  0.2018  0.7740
  438MPD2    H7 6591   4.240   1.475  16.682 -2.7475 -0.7019 -0.9094
  439TMC3    C1 6592   4.339   1.491  16.467 -0.1992 -0.0935  0.2899
  439TMC3    C2 6593   4.366   1.500  16.333  0.1236 -0.3096 -0.0362
  439TMC3    C3 6594   4.420   1.396  16.264 -0.7678  0.5216 -0.5239
  439TMC3    C4 6595   4.361   1.371  16.537  0.1110 -0.3490  0.3244
  439TMC3    C5 6596   4.403   1.261  16.466  0.0396  0.6713 -0.1518
  439TMC3    C6 6597   4.443   1.280  16.340  0.3238  0.1849  0.1226
  439TMC3     C 6598   4.276   1.603  16.530 -0.5161 -0.3249 -0.6389
  439TMC3     O 6599   4.263   1.703  16.460  0.2673  0.2448  0.9359
  439TMC3     H 6600   4.359   1.598  16.288 -0.1703 -0.4716 -0.3512
  439TMC3    H1 6601   4.350   1.356  16.644  0.0744  0.9854  0.5040
  439TMC3    H2 6602   4.478   1.193  16.285  1.0403  0.2791  0.4252
  439TMC3    C7 6603   4.477   1.153  16.524  0.2331  0.0506  0.5131
  439TMC3    C8 6604   4.493   1.406  16.142 -0.0154 -0.0079 -0.2134
  439TMC3    O1 6605   4.584   1.110  16.475  0.0007 -0.2890  0.1986
  439TMC3    O2 6606   4.589   1.331  16.133 -0.2867 -0.3972 -0.1827
  440MPD2     C 6607   3.211   1.807  14.514 -0.8684  0.7480 -0.1275
  440MPD2    C1 6608   3.233   1.896  14.615  0.0380 -0.1864  0.6764
  440MPD2    C2 6609   3.289   1.844  14.737 -0.2618  0.0273  0.0957
  440MPD2    C3 6610   3.335   1.715  14.751  0.3522 -0.2474  0.2783
  440MPD2    C4 6611   3.328   1.638  14.640 -0.1551  0.2500 -0.2672
  440MPD2    C5 6612   3.265   1.681  14.524 -0.7541  0.1309 -1.1625
  440MPD2     H 6613   3.307   1.913  14.819 -3.0614  0.9123 -0.0468
  440MPD2    H1 6614   3.362   1.535  14.637  0.6681  0.5442 -1.1807
  440MPD2    H2 6615   3.169   1.844  14.422 -0.9422 -0.5233 -0.5956
  440MPD2    H3 6616   3.254   1.611  14.442  2.0234 -1.0186 -0.5671
  440MPD2     N 6617   3.382   1.669  14.869  0.6173 -0.3142  0.3007
  440MPD2    H5 6618   3.385   1.568  14.883  0.7325 -0.7092 -2.4996
  440MPD2    N1 6619   3.189   2.025  14.627 -0.8255 -0.7744  0.1630
  440MPD2    H7 6620   3.215   2.077  14.710 -0.5895  0.4574 -0.6889
  441TMC3    C1 6621   3.471   1.673  15.084  0.5328  0.4468  0.0968
  441TMC3    C2 6622   3.551   1.741  15.176  0.0253  0.8680  0.5091
  441TMC3    C3 6623   3.565   1.709  15.309  1.2604 -0.1824  0.9982
  441TMC3    C4 6624   3.408   1.556  15.124 -0.3229  0.5637  0.0216
  441TMC3    C5 6625   3.422   1.527  15.262  0.3195  0.0443  1.1006
  441TMC3    C6 6626   3.501   1.598  15.352 -0.6787 -0.0080  0.1138
  441TMC3     C 6627   3.431   1.750  14.968 -0.3696  0.5661  0.3942
  441TMC3     O 6628   3.460   1.866  14.973  0.1164  0.2805 -0.0247
  441TMC3     H 6629   3.602   1.832  15.146 -0.7979  1.0963 -0.1770
  441TMC3    H1 6630   3.353   1.486  15.063 -0.0488  0.5525 -0.2115
  441TMC3    H2 6631   3.482   1.584  15.458  1.7915 -0.2178  0.5341
  441TMC3    C7 6632   3.339   1.425  15.327  0.8737  0.3444  0.3414
  441TMC3    C8 6633   3.521   1.810  15.402 -0.1308 -0.0065  0.1164
  441TMC3    O1 6634   3.353   1.411  15.449 -0.3822  0.3713  0.3240
  441TMC3    O2 6635   3.552   1.800  15.519  0.3422 -0.4419  0.3866
  442MPD2     C 6636   1.340   2.293  16.443  0.3965  0.2348  0.4092
  442MPD2    C1 6637   1.220   2.226  16.454 -0.0924 -0.1125  0.3211
  442MPD2    C2 6638   1.200   2.113  16.374 -0.8824 -0.5054 -0.0838
  442MPD2    C3 6639   1.287   2.070  16.282 -0.1735 -1.0111  0.1332
  442MPD2    C4 6640   1.405   2.138  16.271 -0.4119 -0.5753 -0.1952
  442MPD2    C5 6641   1.428   2.248  16.343 -0.5649 -0.4393  0.1562
  442MPD2     H 6642   1.112   2.052  16.390 -0.4564 -1.3321 -0.9503
  442MPD2    H1 6643   1.479   2.117  16.194 -1.7030  0.3986 -1.7014
  442MPD2    H2 6644   1.378   2.376  16.501 -0.2657 -0.7161  2.1994
  442MPD2    H3 6645   1.516   2.308  16.323  0.7573 -2.0028  1.3072
  442MPD2     N 6646   1.273   1.965  16.192  0.0430  0.3819  0.1508
  442MPD2    H5 6647   1.337   1.973  16.113 -1.4789  1.0535 -1.0202
  442MPD2    N1 6648   1.119   2.272  16.537  0.3909  0.0265 -0.2235
  442MPD2    H7 6649   1.038   2.214  16.557  0.1901  0.5334  0.4283
  443TMC3    C1 6650   1.024   2.415  16.700 -0.2456 -0.3833  0.6122
  443TMC3    C2 6651   1.022   2.547  16.733  0.1501 -0.1514 -0.0076
  443TMC3    C3 6652   0.911   2.586  16.806 -0.0386  0.6322  0.9966
  443TMC3    C4 6653   0.929   2.331  16.744  1.2809  0.5312 -0.4748
  443TMC3    C5 6654   0.824   2.370  16.820 -0.1859 -0.3096 -0.2301
  443TMC3    C6 6655   0.824   2.499  16.868  0.1690  0.3007 -0.3678
  443TMC3     C 6656   1.127   2.391  16.603 -0.0215  0.1380  0.0034
  443TMC3     O 6657   1.208   2.481  16.586 -0.4897 -0.2036 -0.1626
  443TMC3     H 6658   1.086   2.619  16.683  0.6861 -1.0892 -0.6550
  443TMC3    H1 6659   0.935   2.227  16.714 -0.4340 -0.4372  2.4658
  443TMC3    H2 6660   0.739   2.538  16.923  0.5121  0.1645  0.2592
  443TMC3    C7 6661   0.735   2.267  16.877  0.1960 -0.6935  0.6590
  443TMC3    C8 6662   0.861   2.733  16.804  0.8771  0.2006 -0.3871
  443TMC3    O1 6663   0.736   2.163  16.818 -0.2097  0.2196 -0.1211
  443TMC3    O2 6664   0.810   2.771  16.905  0.1228 -0.3342  0.2026
  444MPD2     C 6665   1.355   2.223  16.866 -0.1493  0.3102 -0.4875
  444MPD2    C1 6666   1.292   2.105  16.872  0.1393 -0.8121 -0.0484
  444MPD2    C2 6667   1.353   1.996  16.802  0.6155  0.3864  0.2603
  444MPD2    C3 6668   1.454   2.013  16.718  0.7234  0.9388  0.2523
  444MPD2    C4 6669   1.502   2.140  16.698  0.1750 -0.2682  0.1592
  444MPD2    C5 6670   1.451   2.241  16.775  0.3443 -0.0027  0.2831
  444MPD2     H 6671   1.310   1.897  16.811 -0.2330  0.7213 -0.1422
  444MPD2    H1 6672   1.578   2.168  16.626 -0.3596 -2.3979 -1.2307
  444MPD2    H2 6673   1.327   2.317  16.913 -0.0575  1.1919 -2.1880
  444MPD2    H3 6674   1.496   2.340  16.769  0.2449  0.0171 -0.1053
  444MPD2     N 6675   1.503   1.899  16.643 -0.3187  0.3314 -0.4560
  444MPD2    H5 6676   1.457   1.812  16.669  0.4228 -0.2135 -0.9974
  444MPD2    N1 6677   1.168   2.089  16.946 -0.5980 -0.2974 -0.3458
  444MPD2    H7 6678   1.136   1.994  16.967  2.6526 -1.0924  0.9916
  445TMC3    C1 6679   1.634   1.768  16.501  0.3031 -0.2675 -0.0078
  445TMC3    C2 6680   1.530   1.714  16.445  0.4429 -0.0303  0.3986
  445TMC3    C3 6681   1.538   1.577  16.412  0.3426 -0.4186  0.1596
  445TMC3    C4 6682   1.757   1.721  16.500 -0.2028 -0.4325  0.7736
  445TMC3    C5 6683   1.764   1.583  16.462  0.5660  0.9322 -0.2161
  445TMC3    C6 6684   1.657   1.513  16.415  0.1339 -0.0634  0.1806
  445TMC3     C 6685   1.614   1.900  16.561  0.1255  0.7905  0.0253
  445TMC3     O 6686   1.689   1.994  16.543 -0.0206 -0.5045 -0.3793
  445TMC3     H 6687   1.436   1.766  16.427  1.6546  1.4759 -1.5648
  445TMC3    H1 6688   1.833   1.777  16.553 -0.2270 -1.1558  1.5704
  445TMC3    H2 6689   1.655   1.407  16.391  1.7666 -0.0485 -0.0439
  445TMC3    C7 6690   1.892   1.511  16.485 -0.3093 -0.1767 -0.4370
  445TMC3    C8 6691   1.428   1.513  16.349 -0.1830  0.1367  0.0482
  445TMC3    O1 6692   2.002   1.564  16.462 -0.0006  0.1589  0.0316
  445TMC3    O2 6693   1.337   1.588  16.320  0.6180 -0.2702  0.1804
  446MPD2     C 6694   1.345   3.019  11.150 -0.0158 -0.5143 -0.5019
  446MPD2    C1 6695   1.275   3.138  11.119 -0.2077  0.7147  0.4227
  446MPD2    C2 6696   1.339   3.256  11.104 -0.3592 -1.0589 -0.9543
  446MPD2    C3 6697   1.478   3.252  11.122 -0.0309 -0.3599  0.2962
  446MPD2    C4 6698   1.545   3.130  11.135  0.1667 -0.4977 -0.5116
  446MPD2    C5 6699   1.478   3.012  11.147 -0.3702  0.7078 -0.1686
  446MPD2     H 6700   1.277   3.344  11.089 -0.0629 -0.6086  0.4605
  446MPD2    H1 6701   1.653   3.125  11.139  0.0683 -2.8171 -0.4281
  446MPD2    H2 6702   1.289   2.930  11.177 -2.2818  1.3008  0.7709
  446MPD2    H3 6703   1.530   2.921  11.176 -0.2706  0.9505  0.4118
  446MPD2     N 6704   1.554   3.369  11.132 -0.7878 -0.6846 -0.8426
  446MPD2    H5 6705   1.503   3.452  11.105  1.3793  0.6975 -0.6481
  446MPD2    N1 6706   1.135   3.149  11.124  0.4426 -0.4639 -0.4407
  446MPD2    H7 6707   1.090   3.232  11.087 -0.8336 -1.4199 -1.0241
  447TMC3    C1 6708   1.726   3.516  11.179  0.5117  0.0957 -0.5158
  447TMC3    C2 6709   1.750   3.555  11.053  0.2867  0.4118  0.1657
  447TMC3    C3 6710   1.876   3.604  11.023 -0.1297  0.3444 -0.0212
  447TMC3    C4 6711   1.811   3.554  11.281 -0.1573 -0.4234  0.3330
  447TMC3    C5 6712   1.921   3.621  11.250  0.1165 -0.5754 -0.1318
  447TMC3    C6 6713   1.961   3.641  11.122  1.0643  0.2360  0.6709
  447TMC3     C 6714   1.670   3.384  11.200 -0.2119 -0.7818 -0.1445
  447TMC3     O 6715   1.730   3.304  11.269 -0.5567 -0.2069  0.0961
  447TMC3     H 6716   1.691   3.531  10.965  1.5253 -2.5017  0.1303
  447TMC3    H1 6717   1.795   3.503  11.375  0.3466  0.8916  1.1339
  447TMC3    H2 6718   2.061   3.677  11.102 -0.0953  3.3215  0.4049
  447TMC3    C7 6719   2.006   3.695  11.346  0.3505  0.5035 -0.1855
  447TMC3    C8 6720   1.883   3.676  10.894 -0.1629  0.6106  0.4288
  447TMC3    O1 6721   2.122   3.718  11.313  0.3260 -0.7236 -0.2370
  447TMC3    O2 6722   1.779   3.733  10.860 -0.4223 -0.2098  0.5140
  448TMC3    C1 6723   4.137   2.785  17.146  0.3754 -0.3885  0.4693
  448TMC3    C2 6724   4.151   2.684  17.057  0.2036 -0.3912  0.6878
  448TMC3    C3 6725   4.071   2.578  17.069  0.6356 -0.0536 -0.3858
  448TMC3    C4 6726   4.044   2.778  17.251 -0.6435 -0.3231 -0.4808
  448TMC3    C5 6727   3.965   2.668  17.253 -0.2121  0.2419  0.5803
  448TMC3    C6 6728   3.980   2.565  17.164 -0.3211  0.4894 -0.1563
  448TMC3     C 6729   4.210   2.908  17.142  0.0588 -0.1886 -0.1437
  448TMC3     O 6730   4.331   2.911  17.107  0.5767 -0.3078  0.3815
  448TMC3     H 6731   4.222   2.681  16.975 -0.6007  0.8059 -0.0512
  448TMC3    H1 6732   4.017   2.856  17.321  4.7999 -0.0169  1.2775
  448TMC3    H2 6733   3.928   2.469  17.166  0.1871  0.1518 -2.9434
  448TMC3    C7 6734   3.922   2.621  17.382  0.6226 -0.4036 -0.4536
  448TMC3    C8 6735   4.100   2.450  17.005  0.2260 -0.6798  0.4131
  448TMC3    O1 6736   3.854   2.518  17.381  0.1334  0.5741  0.5124
  448TMC3    O2 6737   4.076   2.347  17.064 -0.8140  0.3044 -0.1779
  449MPD2     C 6738   1.082   1.340  14.274  0.2677  0.0069 -0.1350
  449MPD2    C1 6739   1.071   1.476  14.263  0.3224  0.3853 -0.3704
  449MPD2    C2 6740   0.943   1.528  14.283  0.7453  0.5076 -0.2689
  449MPD2    C3 6741   0.835   1.453  14.326  0.0381 -0.7334  0.0473
  449MPD2    C4 6742   0.846   1.316  14.336 -0.1057 -0.0339  0.1627
  449MPD2    C5 6743   0.971   1.262  14.312 -0.9199 -0.2907 -0.3082
  449MPD2     H 6744   0.915   1.630  14.256 -3.0194 -0.2537  0.8357
  449MPD2    H1 6745   0.756   1.256  14.339  0.9947 -1.7741 -1.5607
  449MPD2    H2 6746   1.176   1.299  14.239  0.3712 -0.7245  1.0010
  449MPD2    H3 6747   0.982   1.155  14.323 -1.8258 -0.2473  0.9923
  449MPD2     N 6748   0.711   1.512  14.328 -0.1807 -0.3151 -0.7139
  449MPD2    H5 6749   0.707   1.606  14.290  1.1753 -0.3074 -0.8393
  449MPD2    N1 6750   1.167   1.566  14.232 -0.2293  0.5321  0.3953
  449MPD2    H7 6751   1.146   1.664  14.245  1.7609  1.1560 -1.1647
  450TMC3    C1 6752   1.340   1.675  14.105 -0.0023  0.5527  0.2394
  450TMC3    C2 6753   1.369   1.685  13.973 -0.2338 -0.0637 -0.2288
  450TMC3    C3 6754   1.337   1.807  13.918  0.2201 -0.4622  0.4565
  450TMC3    C4 6755   1.311   1.779  14.188 -0.1562 -0.2603  0.0683
  450TMC3    C5 6756   1.262   1.894  14.128 -0.9906 -0.7703  0.1040
  450TMC3    C6 6757   1.276   1.899  13.997  0.4889 -0.4647  0.4091
  450TMC3     C 6758   1.282   1.549  14.149 -0.5092  0.0751 -0.6062
  450TMC3     O 6759   1.318   1.444  14.098  0.1868  0.0851 -0.0883
  450TMC3     H 6760   1.397   1.592  13.925  1.0234  0.8641 -1.2811
  450TMC3    H1 6761   1.310   1.769  14.296  0.2370  0.6721  0.1589
  450TMC3    H2 6762   1.243   1.993  13.954 -2.8576 -1.8161  0.0695
  450TMC3    C7 6763   1.132   1.923  14.189 -0.1660 -0.0495  0.7344
  450TMC3    C8 6764   1.342   1.824  13.771 -0.5704  0.2644 -0.3400
  450TMC3    O1 6765   1.097   1.843  14.276  0.6688  0.5685 -0.0282
  450TMC3    O2 6766   1.311   1.932  13.727  0.1466  0.1597 -0.0776
  451MPD2     C 6767   2.272   3.921   1.500  0.1633 -0.2979  0.6216
  451MPD2    C1 6768   2.299   4.012   1.401 -0.5198  0.6491 -0.0741
  451MPD2    C2 6769   2.399   3.993   1.310  0.0766 -0.5209 -0.1238
  451MPD2    C3 6770   2.463   3.882   1.304 -0.0277 -0.9240  0.0285
  451MPD2    C4 6771   2.434   3.785   1.395 -0.5602 -0.1670 -0.0004
  451MPD2    C5 6772   2.340   3.802   1.499  0.2507  0.1198 -0.8109
  451MPD2     H 6773   2.418   4.073   1.239  0.2038 -0.8704 -0.4778
  451MPD2    H1 6774   2.490   3.692   1.401 -0.5772 -0.1694  0.1292
  451MPD2    H2 6775   2.199   3.926   1.579  1.1263  5.1446  1.1139
  451MPD2    H3 6776   2.318   3.730   1.577  1.4151  0.8486  0.2123
  451MPD2     N 6777   2.566   3.851   1.212 -0.1711 -0.1773  0.1019
  451MPD2    H5 6778   2.627   3.771   1.227  3.1214  2.3644  0.3896
  451MPD2    N1 6779   2.208   4.120   1.391  0.4959  0.0751 -0.3097
  451MPD2    H7 6780   2.145   4.133   1.470  2.1853  0.3542  1.0034
  452TMC3    C1 6781   2.716   3.867   1.053  0.5268  0.3981 -0.8141
  452TMC3    C2 6782   2.660   3.775   0.964  0.5014  0.0845  0.1541
  452TMC3    C3 6783   2.694   3.776   0.832  0.4816  0.3025  0.2205
  452TMC3    C4 6784   2.803   3.957   1.004 -0.0632 -0.0823  0.1159
  452TMC3    C5 6785   2.844   3.948   0.875 -0.1205  0.3008 -0.1606
  452TMC3    C6 6786   2.784   3.870   0.783 -0.1279  0.1819 -0.6493
  452TMC3     C 6787   2.619   3.941   1.128  0.1633  0.0887 -0.3524
  452TMC3     O 6788   2.581   4.054   1.089 -0.3634 -0.4723 -0.0393
  452TMC3     H 6789   2.587   3.699   0.988 -0.0795  0.7952  0.6318
  452TMC3    H1 6790   2.852   4.029   1.067  0.6339  0.2339 -0.7819
  452TMC3    H2 6791   2.805   3.880   0.677 -0.9820 -1.2970 -0.9563
  452TMC3    C7 6792   2.937   4.053   0.842 -0.5633  0.5926 -0.7445
  452TMC3    C8 6793   2.589   3.736   0.742  0.1357 -0.8878 -0.4666
  452TMC3    O1 6794   3.010   4.094   0.932 -0.2227 -0.3198  0.2784
  452TMC3    O2 6795   2.469   3.747   0.779 -0.0042 -0.0856  0.6080
  453TMC3    C1 6796   3.582   2.315  12.325  0.4113 -0.2566 -0.5757
  453TMC3    C2 6797   3.534   2.188  12.368 -0.3517 -0.1431  0.6231
  453TMC3    C3 6798   3.396   2.185  12.380 -0.3084 -0.2896  0.5410
  453TMC3    C4 6799   3.500   2.418  12.292 -0.9538  0.0055  1.2430
  453TMC3    C5 6800   3.362   2.396  12.297 -0.1248 -0.1767 -0.0746
  453TMC3    C6 6801   3.304   2.283  12.345  0.1351  1.0411 -0.5457
  453TMC3     C 6802   3.721   2.329  12.319  0.5365 -0.1319 -0.6931
  453TMC3     O 6803   3.761   2.446  12.339  0.4368  0.1676  0.5713
  453TMC3     H 6804   3.597   2.112  12.413 -1.8934 -1.4942  0.5096
  453TMC3    H1 6805   3.544   2.509  12.255  1.1530 -1.0850  1.0866
  453TMC3    H2 6806   3.201   2.254  12.333  0.0287  1.9647 -1.7976
  453TMC3    C7 6807   3.283   2.510  12.273 -0.3529 -0.6249 -0.3972
  453TMC3    C8 6808   3.339   2.071  12.443  0.4211 -0.3671 -0.3555
  453TMC3    O1 6809   3.342   2.605  12.221 -0.4270  0.5303  0.6020
  453TMC3    O2 6810   3.224   2.092  12.491 -0.2904 -0.3662 -0.5505
  454MPD2     C 6811   2.323   1.531  16.289 -0.6589 -0.0079  0.1581
  454MPD2    C1 6812   2.322   1.578  16.164  0.6107  0.3598  0.2270
  454MPD2    C2 6813   2.302   1.713  16.134 -0.1939 -0.3456 -0.3386
  454MPD2    C3 6814   2.273   1.797  16.233 -0.1426  0.7999 -0.5944
  454MPD2    C4 6815   2.285   1.753  16.361 -0.1660  0.3641 -0.8829
  454MPD2    C5 6816   2.305   1.617  16.390  0.3568 -0.2387 -0.2042
  454MPD2     H 6817   2.291   1.746  16.031 -1.9406 -2.4531 -0.8188
  454MPD2    H1 6818   2.263   1.816  16.446  1.2282 -0.9170  0.4408
  454MPD2    H2 6819   2.338   1.427  16.315  0.0073 -0.0709 -0.4510
  454MPD2    H3 6820   2.317   1.577  16.491 -1.2497 -0.1122  0.0382
  454MPD2     N 6821   2.214   1.924  16.213  0.8740 -0.2886 -0.8525
  454MPD2    H5 6822   2.197   1.978  16.297 -0.8360  0.7272 -1.8446
  454MPD2    N1 6823   2.311   1.492  16.055  0.6744  0.1523 -0.7611
  454MPD2    H7 6824   2.312   1.539  15.966 -0.1999  1.3359 -0.1411
  455TMC3    C1 6825   2.044   2.038  16.128 -0.0934 -0.2622  0.4519
  455TMC3    C2 6826   2.031   2.101  16.246 -0.2251  0.1248 -0.1971
  455TMC3    C3 6827   1.906   2.106  16.306  0.0288  0.8730  0.7319
  455TMC3    C4 6828   1.940   1.965  16.067  0.0110 -0.7801 -0.1387
  455TMC3    C5 6829   1.821   1.975  16.130 -0.1044  0.4225 -0.9721
  455TMC3    C6 6830   1.796   2.052  16.240 -0.6347  0.0679  0.2643
  455TMC3     C 6831   2.160   1.964  16.097 -0.2397  0.1345 -0.2340
  455TMC3     O 6832   2.163   1.928  15.984 -0.1013 -0.7430 -0.2104
  455TMC3     H 6833   2.112   2.151  16.297  1.4402 -1.9387 -0.8015
  455TMC3    H1 6834   1.940   1.912  15.972 -3.1159 -1.9584  0.5188
  455TMC3    H2 6835   1.701   2.063  16.291 -0.4335  0.0202  0.6456
  455TMC3    C7 6836   1.755   1.846  16.135  1.1328  0.4036 -0.1967
  455TMC3    C8 6837   1.883   2.189  16.422  0.3986 -0.2053  0.3719
  455TMC3    O1 6838   1.632   1.834  16.136  0.1346 -0.2280  0.0848
  455TMC3    O2 6839   1.953   2.173  16.523  0.0385 -0.2263 -1.1271
  456MPD2     C 6840   0.046   1.472  16.347  0.2171  0.1240 -0.0875
  456MPD2    C1 6841   4.734   1.600  16.343 -0.2885  0.9138 -1.0277
  456MPD2    C2 6842   4.666   1.658  16.445 -0.1751  0.5661 -0.1902
  456MPD2    C3 6843   4.648   1.586  16.561 -1.0695 -0.0900  0.3794
  456MPD2    C4 6844   4.692   1.457  16.570 -0.6011  0.0930  0.1564
  456MPD2    C5 6845   0.019   1.408  16.460 -1.0151  0.5050 -0.0578
  456MPD2     H 6846   4.626   1.759  16.446  1.7001  1.3023  0.8187
  456MPD2    H1 6847   4.682   1.389  16.654 -3.9564 -1.6016 -1.6475
  456MPD2    H2 6848   0.093   1.425  16.261 -1.6655 -0.6463 -0.6906
  456MPD2    H3 6849   0.060   1.309  16.474 -3.1485 -0.3379  0.3522
  456MPD2     N 6850   4.583   1.648  16.672 -0.0681  0.2702  0.1095
  456MPD2    H5 6851   4.549   1.744  16.670  0.5018  0.4077 -3.5247
  456MPD2    N1 6852   0.021   1.666  16.218 -0.0294  0.7545 -0.9563
  456MPD2    H7 6853   0.095   1.630  16.158  0.3402  1.6025 -1.0109
  457TMC3    C1 6854   4.507   1.672  16.895  0.3789  0.8124  0.0843
  457TMC3    C2 6855   4.424   1.773  16.875 -0.4063 -0.0487  0.2469
  457TMC3    C3 6856   4.377   1.847  16.984  0.9815 -0.4918  0.6835
  457TMC3    C4 6857   4.532   1.637  17.024 -0.7248 -0.1340  0.1530
  457TMC3    C5 6858   4.481   1.704  17.132 -0.3137 -1.2189  0.3925
  457TMC3    C6 6859   4.406   1.821  17.118  0.6835  0.1528 -0.4018
  457TMC3     C 6860   4.564   1.592  16.792  0.4925  0.4028 -0.0721
  457TMC3     O 6861   4.606   1.485  16.828  0.1203 -0.1682 -0.1677
  457TMC3     H 6862   4.394   1.789  16.772 -0.4134 -2.0676 -0.0564
  457TMC3    H1 6863   4.589   1.546  17.038 -0.3846 -0.0994 -1.0690
  457TMC3    H2 6864   4.352   1.855  17.206 -0.0768 -0.0883 -0.7791
  457TMC3    C7 6865   4.536   1.671  17.268  0.1962  0.0447 -0.1611
  457TMC3    C8 6866   4.313   1.977  16.957 -0.1049 -0.2807 -0.5687
  457TMC3    O1 6867   4.603   1.568  17.280 -0.9691 -0.4289 -0.3080
  457TMC3    O2 6868   4.286   2.048  17.052 -0.2726 -0.1001 -0.1058
  458MPD2     C 6869   2.812   1.671  12.725  0.1939  0.0153  0.4036
  458MPD2    C1 6870   2.759   1.544  12.749 -0.8350 -0.4862 -0.0584
  458MPD2    C2 6871   2.629   1.522  12.706 -0.1276 -0.4717 -0.3442
  458MPD2    C3 6872   2.558   1.631  12.648 -0.2938 -0.8298  0.4950
  458MPD2    C4 6873   2.613   1.756  12.642  0.1125 -0.4151 -0.3330
  458MPD2    C5 6874   2.743   1.771  12.663 -0.4216  0.0498 -0.0579
  458MPD2     H 6875   2.582   1.425  12.708 -0.2537 -0.4119 -0.4202
  458MPD2    H1 6876   2.552   1.838  12.606  0.9822 -0.2881 -1.4996
  458MPD2    H2 6877   2.917   1.694  12.739  0.6728 -0.9205 -1.7378
  458MPD2    H3 6878   2.794   1.867  12.670 -1.2514  0.4165  1.0312
  458MPD2     N 6879   2.422   1.605  12.599 -0.3851 -1.2534  0.6451
  458MPD2    H5 6880   2.394   1.509  12.611 -0.5183 -1.4546 -1.2370
  458MPD2    N1 6881   2.835   1.447  12.814 -0.0687  0.1246  0.5989
  458MPD2    H7 6882   2.933   1.469  12.825  0.3306 -1.5068  0.3758
  459TMC3    C1 6883   2.915   1.248  12.916  0.3720  0.4319 -0.3910
  459TMC3    C2 6884   3.041   1.275  12.863  0.3049  0.2313 -0.5308
  459TMC3    C3 6885   3.134   1.169  12.884 -0.6052 -0.6640  0.5415
  459TMC3    C4 6886   2.895   1.145  12.999  0.0248 -0.0756  0.2632
  459TMC3    C5 6887   2.994   1.057  13.026 -0.1106 -0.8137  0.2738
  459TMC3    C6 6888   3.115   1.052  12.961 -0.5136  0.2324  0.4628
  459TMC3     C 6889   2.796   1.323  12.867  0.0464 -0.3196  0.0968
  459TMC3     O 6890   2.686   1.277  12.885  0.0648 -0.3426 -0.5426
  459TMC3     H 6891   3.059   1.357  12.794  0.8194 -0.5604 -1.3422
  459TMC3    H1 6892   2.801   1.145  13.054 -0.6252 -2.1299 -0.8526
  459TMC3    H2 6893   3.195   0.983  12.985  0.3794  1.5750  1.3398
  459TMC3    C7 6894   2.981   0.980  13.148 -0.4931  0.1405 -0.7523
  459TMC3    C8 6895   3.263   1.199  12.845 -0.9849 -0.4176  0.3799
  459TMC3    O1 6896   3.059   0.886  13.175 -0.4680  0.2146 -0.3547
  459TMC3    O2 6897   3.341   1.107  12.847  1.0396 -0.6980  0.3575
  460MPD2     C 6898   2.187   3.707  10.700 -0.0206  0.5766 -0.3961
  460MPD2    C1 6899   2.056   3.733  10.725  0.8874  0.5249  0.7981
  460MPD2    C2 6900   1.980   3.804  10.638  0.3751  0.1254  0.0617
  460MPD2    C3 6901   2.037   3.873  10.536  0.7978 -0.1263  0.4300
  460MPD2    C4 6902   2.166   3.847  10.507  0.1486 -0.3506  0.5297
  460MPD2    C5 6903   2.239   3.767  10.591  0.1558 -0.3505 -0.1545
  460MPD2     H 6904   1.877   3.830  10.662  0.8863  1.5186  0.7217
  460MPD2    H1 6905   2.212   3.893  10.420 -1.6539 -3.3860 -2.0314
  460MPD2    H2 6906   2.267   3.663  10.759  0.9199  1.3072 -1.1237
  460MPD2    H3 6907   2.346   3.759  10.576  0.2469 -1.9175  1.2118
  460MPD2     N 6908   1.951   3.967  10.464  0.3532  0.4242  0.5020
  460MPD2    H5 6909   1.856   3.973  10.499 -0.2515  1.7071 -1.3647
  460MPD2    N1 6910   2.007   3.671  10.842 -0.3423  0.0410 -0.2235
  460MPD2    H7 6911   2.067   3.609  10.894 -0.4635 -0.8555 -1.1304
  461TMC3    C1 6912   1.890   4.151  10.328 -0.1565  0.1874 -0.0968
  461TMC3    C2 6913   1.796   4.115  10.237  0.2275 -0.1898  0.3145
  461TMC3    C3 6914   1.733   4.217  10.168 -0.3095  0.0846 -0.0008
  461TMC3    C4 6915   1.919   4.280  10.347  0.2708  0.4414 -0.2588
  461TMC3    C5 6916   1.856   4.376  10.284 -0.4430  0.2109 -0.7711
  461TMC3    C6 6917   1.763   4.353  10.188 -0.5297 -0.0439  0.0241
  461TMC3     C 6918   1.989   4.062  10.376  0.0306  0.1349  0.2507
  461TMC3     O 6919   2.104   4.092  10.341  0.1568 -0.2240  0.1839
  461TMC3     H 6920   1.763   4.013  10.226 -4.5370  1.1148  2.2470
  461TMC3    H1 6921   1.994   4.299  10.423  0.8924  0.1906 -0.7986
  461TMC3    H2 6922   1.703   4.434  10.149  1.0758  0.1258 -2.0646
  461TMC3    C7 6923   1.857   4.511  10.335  0.4066  0.6526 -0.8120
  461TMC3    C8 6924   1.620   4.191  10.080 -0.3460  0.3776  0.6327
  461TMC3    O1 6925   1.759   4.579  10.327  0.0551  0.1768  0.2660
  461TMC3    O2 6926   1.619   4.089  10.012  0.1981 -0.3703 -0.0828
  462TMC3    C1 6927   1.468   4.414   0.279 -0.6332 -0.7729 -0.4172
  462TMC3    C2 6928   1.460   4.375   0.148 -1.0403  0.3843 -0.7417
  462TMC3    C3 6929   1.476   4.239   0.129 -0.0385  0.1050  0.2476
  462TMC3    C4 6930   1.482   4.318   0.385 -0.6820 -0.5721  0.8388
  462TMC3    C5 6931   1.488   4.185   0.351  0.2654 -0.2281  0.5030
  462TMC3    C6 6932   1.492   4.144   0.221 -0.2832  0.2274  0.2523
  462TMC3     C 6933   1.500   4.555   0.303  0.1432 -0.3811 -0.0959
  462TMC3     O 6934   1.461   4.635   0.222  0.5749 -0.0244 -0.0245
  462TMC3     H 6935   1.470   4.455   0.075 -0.8247  2.9900  2.1790
  462TMC3    H1 6936   1.484   4.353   0.487 -1.4940  2.5294 -0.2214
  462TMC3    H2 6937   1.478   4.042   0.185  0.3596 -0.1683  1.1154
  462TMC3    C7 6938   1.452   4.087   0.450  0.9281  0.0174 -0.4119
  462TMC3    C8 6939   1.456   4.194  17.740  1.0862 -0.1253  0.8679
  462TMC3    O1 6940   1.467   3.969   0.434  0.8185  0.0716  0.3161
  462TMC3    O2 6941   1.371   4.253  17.675 -0.3820  0.3639  0.4459
  463MPD2     C 6942   3.103   2.285   1.963  0.1794  0.4536 -0.1253
  463MPD2    C1 6943   2.997   2.372   1.982  0.2089 -0.0167 -0.0487
  463MPD2    C2 6944   3.020   2.501   2.017 -0.3744 -0.6742  0.0098
  463MPD2    C3 6945   3.145   2.546   2.049 -0.5472  0.2283 -1.2789
  463MPD2    C4 6946   3.246   2.455   2.037  0.4065  0.2150 -0.2231
  463MPD2    C5 6947   3.230   2.318   2.006 -0.4448  0.1265  0.5502
  463MPD2     H 6948   2.939   2.571   2.002  0.7646  0.2265 -2.0639
  463MPD2    H1 6949   3.347   2.483   2.067  0.9014 -0.5463 -1.1804
  463MPD2    H2 6950   3.086   2.178   1.949  0.0825  0.5587 -0.7836
  463MPD2    H3 6951   3.306   2.241   2.010  0.9097  1.4765  0.6250
  463MPD2     N 6952   3.180   2.681   2.065 -0.3962 -0.5353  0.3771
  463MPD2    H5 6953   3.275   2.716   2.055 -0.3460 -0.6504  0.4526
  463MPD2    N1 6954   2.868   2.346   1.951  0.1019 -0.8851  0.5201
  463MPD2    H7 6955   2.805   2.426   1.956 -1.5276 -2.0951 -0.5689
  464TMC3    C1 6956   2.678   2.256   1.851 -0.2641  0.2294  0.9628
  464TMC3    C2 6957   2.643   2.385   1.824  0.3121  0.0864 -0.0770
  464TMC3    C3 6958   2.525   2.410   1.758 -0.2736  0.6410 -0.9289
  464TMC3    C4 6959   2.610   2.146   1.804 -0.6384 -0.4696  0.5160
  464TMC3    C5 6960   2.489   2.175   1.742 -0.0761  0.3146  0.5886
  464TMC3    C6 6961   2.441   2.303   1.721  0.9262 -0.1532 -0.5559
  464TMC3     C 6962   2.811   2.228   1.906 -0.9679 -0.2237  0.2017
  464TMC3     O 6963   2.853   2.111   1.897 -0.1905  0.1709 -0.0435
  464TMC3     H 6964   2.713   2.467   1.824 -0.4010  0.6941  1.0383
  464TMC3    H1 6965   2.648   2.045   1.816  2.9354  0.8052 -0.1298
  464TMC3    H2 6966   2.340   2.327   1.692  1.0469 -0.1438 -0.9717
  464TMC3    C7 6967   2.397   2.062   1.729 -0.1771 -0.1389  0.6867
  464TMC3    C8 6968   2.475   2.544   1.758 -0.1410 -0.6319 -0.4090
  464TMC3    O1 6969   2.403   1.976   1.818 -0.1049 -0.3984  0.0087
  464TMC3    O2 6970   2.393   2.568   1.668 -0.0902  0.4303  0.6947
  465MPD2     C 6971   3.692   1.323  17.015  0.3535 -0.3326 -0.1436
  465MPD2    C1 6972   3.580   1.400  17.040  0.7085  0.1996 -0.4551
  465MPD2    C2 6973   3.552   1.507  16.958 -0.3242 -0.4947  0.2192
  465MPD2    C3 6974   3.628   1.532  16.846 -0.3539 -0.4494  0.3720
  465MPD2    C4 6975   3.743   1.456  16.825  0.4731 -0.6643 -0.4575
  465MPD2    C5 6976   3.776   1.354  16.908 -0.3201  0.3120  0.0732
  465MPD2     H 6977   3.485   1.582  16.996 -1.4321 -1.5446  0.3356
  465MPD2    H1 6978   3.817   1.477  16.748  0.1307 -1.4819 -1.0096
  465MPD2    H2 6979   3.718   1.235  17.073  1.7825  0.3415  0.2374
  465MPD2    H3 6980   3.859   1.286  16.894  1.9207  3.6608 -2.7037
  465MPD2     N 6981   3.589   1.639  16.765  0.0008  0.1737  0.3527
  465MPD2    H5 6982   3.505   1.688  16.795 -0.3965  0.3709 -1.0388
  465MPD2    N1 6983   3.498   1.381  17.152  0.0331  0.0297 -0.4643
  465MPD2    H7 6984   3.421   1.446  17.163 -1.5293 -1.7865 -0.7185
  466TMC3    C1 6985   3.334   1.774  16.479 -0.1783 -0.6684 -0.1466
  466TMC3    C2 6986   3.371   1.889  16.414 -0.3816 -0.3062 -0.0805
  466TMC3    C3 6987   3.506   1.923  16.414  0.3483  0.1559  0.3825
  466TMC3    C4 6988   3.419   1.712  16.570  0.2333 -0.1914 -0.0774
  466TMC3    C5 6989   3.550   1.756  16.573 -0.6253  0.5460  0.2295
  466TMC3    C6 6990   3.595   1.860  16.495 -0.1188 -0.6174 -0.2348
  466TMC3     C 6991   3.201   1.762  16.512  0.4883  0.7911 -0.2091
  466TMC3     O 6992   3.174   1.654  16.561  0.6932  0.1453 -0.6272
  466TMC3     H 6993   3.309   1.925  16.332  0.8319 -2.1993 -1.8455
  466TMC3    H1 6994   3.380   1.627  16.625 -0.9996  0.5637  0.2076
  466TMC3    H2 6995   3.697   1.896  16.508 -0.6921  0.7581  0.4162
  466TMC3    C7 6996   3.644   1.681  16.644  0.1344 -0.1144 -0.5430
  466TMC3    C8 6997   3.527   2.067  16.405  0.7323 -0.4184 -0.0635
  466TMC3    O1 6998   3.758   1.675  16.598 -0.3571  0.2229  0.2376
  466TMC3    O2 6999   3.614   2.114  16.331 -0.2621  0.1119  0.0886
  467TMC3    C1 7000   0.071   0.465  13.740 -0.1121  0.4091 -0.4465
  467TMC3    C2 7001   0.005   0.579  13.699  0.0450  0.1361  0.3466
  467TMC3    C3 7002   4.601   0.584  13.708  0.1498 -0.8464  0.0574
  467TMC3    C4 7003   0.001   0.353  13.785 -0.0443  0.2405  0.4834
  467TMC3    C5 7004   4.601   0.366  13.801  0.2167 -0.0344  0.4333
  467TMC3    C6 7005   4.528   0.485  13.772  0.6090  0.6093  0.2692
  467TMC3     C 7006   0.211   0.480  13.767 -0.5203  0.1491 -0.4234
  467TMC3     O 7007   0.253   0.592  13.761  0.1988  0.6400  0.0636
  467TMC3     H 7008   0.062   0.660  13.655  2.0088 -0.6792  1.3760
  467TMC3    H1 7009   0.044   0.257  13.810 -0.5671  0.0345  0.5751
  467TMC3    H2 7010   4.420   0.494  13.782  0.0666 -2.5075 -2.6840
  467TMC3    C7 7011   4.528   0.244  13.819  0.1746 -0.0709 -0.1256
  467TMC3    C8 7012   4.553   0.719  13.681  0.0739 -0.1080 -0.0157
  467TMC3    O1 7013   4.582   0.143  13.780 -0.2862 -0.4009  0.2209
  467TMC3    O2 7014   4.637   0.795  13.640  0.3719  0.7624 -0.5961
  468MPD2     C 7015   3.418   3.638  10.848 -0.0653  0.3486  0.7755
  468MPD2    C1 7016   3.549   3.627  10.892  0.1837 -0.9311  0.2152
  468MPD2    C2 7017   3.586   3.513  10.956 -0.1230 -0.4955 -0.3624
  468MPD2    C3 7018   3.495   3.412  10.990  0.0923  0.1576 -0.2275
  468MPD2    C4 7019   3.359   3.430  10.951  0.4437 -0.0189 -0.1891
  468MPD2    C5 7020   3.324   3.549  10.881 -0.2189  0.2734 -0.5126
  468MPD2     H 7021   3.689   3.499  10.989 -0.2615  1.0916  0.7424
  468MPD2    H1 7022   3.279   3.361  10.978 -1.2592  2.2699  0.5953
  468MPD2    H2 7023   3.376   3.724  10.797  1.3888 -0.1752 -1.3484
  468MPD2    H3 7024   3.220   3.573  10.864 -0.5762 -0.1334  1.1570
  468MPD2     N 7025   3.521   3.298  11.066  0.1729 -0.7519  0.4024
  468MPD2    H5 7026   3.440   3.251  11.106 -0.3533 -1.0601 -1.0258
  468MPD2    N1 7027   3.648   3.711  10.846 -0.1679  0.3420 -0.2304
  468MPD2    H7 7028   3.741   3.691  10.884 -0.2496  0.4562  0.0356
  469TMC3    C1 7029   3.747   3.902  10.738 -0.4573 -0.8802  0.3826
  469TMC3    C2 7030   3.855   3.832  10.697 -0.8715  0.2020 -0.4456
  469TMC3    C3 7031   3.958   3.910  10.647  0.1252  0.6273  0.4678
  469TMC3    C4 7032   3.723   4.031  10.719  0.2431  0.4268 -0.2213
  469TMC3    C5 7033   3.815   4.104  10.645  0.1373 -0.4730  0.6327
  469TMC3    C6 7034   3.935   4.042  10.607  0.0163 -0.0316  0.0413
  469TMC3     C 7035   3.624   3.828  10.773 -0.6487  0.3170  0.6042
  469TMC3     O 7036   3.520   3.878  10.740 -0.0333  0.3661  0.2740
  469TMC3     H 7037   3.875   3.730  10.727 -0.7406  0.3035 -0.1825
  469TMC3    H1 7038   3.632   4.079  10.753 -0.2688 -0.9508  0.3508
  469TMC3    H2 7039   4.006   4.097  10.546 -1.0272  1.9864  0.6447
  469TMC3    C7 7040   3.793   4.238  10.587 -0.4958  0.4116 -0.0213
  469TMC3    C8 7041   4.093   3.860  10.650  0.2046 -0.6122 -0.5708
  469TMC3    O1 7042   3.835   4.261  10.473  0.1814  0.0001  0.7297
  469TMC3    O2 7043   4.167   3.917  10.564 -0.5134  0.0141 -0.4606
  470TMC3    C1 7044   0.710   4.087  17.707  1.2362  0.5464  0.0718
  470TMC3    C2 7045   0.698   4.212   0.011  1.0474  0.1209 -0.3046
  470TMC3    C3 7046   0.734   4.224   0.147  0.5152 -0.5929 -0.0582
  470TMC3    C4 7047   0.735   3.975   0.032 -0.1272  0.1912  0.1511
  470TMC3    C5 7048   0.757   3.988   0.166 -0.2120  0.8767  0.2051
  470TMC3    C6 7049   0.758   4.111   0.226  0.3804 -0.8805  0.2100
  470TMC3     C 7050   0.667   4.064  17.571  0.6367 -0.2061 -0.1259
  470TMC3     O 7051   0.605   3.962  17.550  0.1151 -0.1486  0.1933
  470TMC3     H 7052   0.667   4.297  17.695 -0.0758  1.0781  1.6537
  470TMC3    H1 7053   0.729   3.880  17.724  0.5905  0.0735  0.2774
  470TMC3    H2 7054   0.781   4.119   0.331 -1.3944 -0.8222  0.5878
  470TMC3    C7 7055   0.729   3.864   0.240  0.0610 -0.5863  0.2326
  470TMC3    C8 7056   0.722   4.359   0.197 -0.4486 -0.2548  0.1126
  470TMC3    O1 7057   0.703   3.761   0.173  0.3380 -0.3554  0.2133
  470TMC3    O2 7058   0.712   4.443   0.106 -0.2761 -0.7023 -0.0228
  471MPD2     C 7059   1.754   1.203  17.216 -0.4279 -0.3235 -0.9994
  471MPD2    C1 7060   1.754   1.064  17.209  0.4431 -0.0440 -0.0020
  471MPD2    C2 7061   1.768   0.988  17.327 -0.1723  0.2641  0.0872
  471MPD2    C3 7062   1.769   1.060  17.441  0.6163  0.6002  0.8592
  471MPD2    C4 7063   1.778   1.194  17.447  0.5678  1.2784 -0.0730
  471MPD2    C5 7064   1.774   1.263  17.333  0.0900 -0.7486 -0.4752
  471MPD2     H 7065   1.771   0.880  17.323  2.3072  0.3720 -0.9823
  471MPD2    H1 7066   1.776   1.247  17.541 -1.0233 -0.9005  1.1081
  471MPD2    H2 7067   1.743   1.274  17.135  1.4422 -0.7166 -1.6014
  471MPD2    H3 7068   1.770   1.371  17.326  0.7481 -0.7189 -0.4732
  471MPD2     N 7069   1.769   0.979  17.557 -0.5060 -0.0637  0.6452
  471MPD2    H5 7070   1.765   0.881  17.530 -0.0473  0.3167 -0.8235
  471MPD2    N1 7071   1.760   0.993  17.088  0.1487  0.0889  0.4259
  471MPD2    H7 7072   1.759   0.892  17.103 -0.0983  0.1702  0.9755
  472TMC3    C1 7073   1.723   0.926  16.874 -0.1319 -0.4388  1.2314
  472TMC3    C2 7074   1.659   0.956  16.757 -0.6253  0.2022 -0.5408
  472TMC3    C3 7075   1.604   0.849  16.693  0.4117  0.4597 -0.7643
  472TMC3    C4 7076   1.761   0.803  16.910  0.2999 -0.6267 -0.3542
  472TMC3    C5 7077   1.729   0.701  16.823 -0.1347 -0.2017 -0.3198
  472TMC3    C6 7078   1.647   0.720  16.711 -0.4531 -0.2596  0.0842
  472TMC3     C 7079   1.730   1.034  16.963  0.1116 -0.4556  0.2321
  472TMC3     O 7080   1.731   1.151  16.920  0.4136 -0.2329  1.1970
  472TMC3     H 7081   1.623   1.055  16.733  2.5446  1.4128 -0.2279
  472TMC3    H1 7082   1.823   0.780  16.996 -2.3743 -1.8007  1.2802
  472TMC3    H2 7083   1.611   0.638  16.649 -0.0415 -0.4358  0.0784
  472TMC3    C7 7084   1.680   0.579  16.891 -0.4270 -0.3535 -0.3540
  472TMC3    C8 7085   1.493   0.878  16.593 -0.2307  0.1828 -0.3806
  472TMC3    O1 7086   1.619   0.585  16.993  0.1211 -0.4750  0.1325
  472TMC3    O2 7087   1.489   0.989  16.543  0.0246  0.3052  0.5400
  473MPD2     C 7088   1.249   2.650  14.217 -0.0118 -0.0799 -0.9026
  473MPD2    C1 7089   1.185   2.759  14.165 -0.9028  0.5203 -0.6779
  473MPD2    C2 7090   1.260   2.875  14.160 -0.2692 -0.1072  0.1893
  473MPD2    C3 7091   1.392   2.880  14.199  0.3238  0.5169  0.1010
  473MPD2    C4 7092   1.450   2.758  14.243  0.2874 -0.5609 -0.3523
  473MPD2    C5 7093   1.377   2.650  14.261  0.1597  0.2908 -0.5492
  473MPD2     H 7094   1.203   2.965  14.143 -1.7354 -1.3515 -1.5109
  473MPD2    H1 7095   1.552   2.761  14.279  0.7892  0.0337 -1.8532
  473MPD2    H2 7096   1.197   2.555  14.225  0.1180 -0.0566  0.2436
  473MPD2    H3 7097   1.419   2.565  14.313  0.4721  1.2754  0.8043
  473MPD2     N 7098   1.465   3.004  14.214 -0.0404 -0.0813  0.0120
  473MPD2    H5 7099   1.536   2.999  14.287  0.7684  2.7623 -0.6001
  473MPD2    N1 7100   1.055   2.768  14.108  0.1733 -0.2998  0.3757
  473MPD2    H7 7101   1.036   2.860  14.070  1.6486 -0.3488 -0.4660
  474TMC3    C1 7102   1.473   3.230  14.259  0.4815  0.0212  0.3991
  474TMC3    C2 7103   1.373   3.312  14.303  0.1643  0.0556  0.2282
  474TMC3    C3 7104   1.402   3.397  14.405 -0.0716 -0.7070 -0.3853
  474TMC3    C4 7105   1.590   3.212  14.319  0.5260  0.5949 -0.4700
  474TMC3    C5 7106   1.618   3.306  14.415  0.6797  0.1206  0.4541
  474TMC3    C6 7107   1.532   3.405  14.457 -0.7756 -0.5493 -0.1732
  474TMC3     C 7108   1.422   3.122  14.172  0.2508  0.7655  0.4472
  474TMC3     O 7109   1.324   3.149  14.103  0.3962  0.2806  0.1266
  474TMC3     H 7110   1.288   3.332  14.240  1.4010 -0.6671 -1.6690
  474TMC3    H1 7111   1.666   3.144  14.283  0.9871  0.7704  0.1744
  474TMC3    H2 7112   1.566   3.477  14.530  0.3058 -1.3826  0.1406
  474TMC3    C7 7113   1.760   3.317  14.442 -0.4676  0.4034 -0.1999
  474TMC3    C8 7114   1.297   3.495  14.427  0.3754  1.1691  0.4277
  474TMC3    O1 7115   1.824   3.287  14.342  0.4110 -0.4597  0.1774
  474TMC3    O2 7116   1.178   3.456  14.432 -0.0129  0.0358 -0.3472
  475MPD2     C 7117   4.558   1.193  11.024 -0.0529  0.6793  0.7735
  475MPD2    C1 7118   4.570   1.327  11.018  0.3234  0.0134 -0.3341
  475MPD2    C2 7119   4.458   1.413  11.029 -0.3522  0.0559 -0.1941
  475MPD2    C3 7120   4.333   1.365  11.047  0.0577  0.0664  0.2213
  475MPD2    C4 7121   4.320   1.229  11.070  0.2236  0.7028  0.2175
  475MPD2    C5 7122   4.433   1.150  11.061  0.3335 -0.3189 -0.2352
  475MPD2     H 7123   4.488   1.517  11.026  1.2718 -0.3431  1.4772
  475MPD2    H1 7124   4.228   1.171  11.070  1.3226 -1.0299  0.5395
  475MPD2    H2 7125   4.644   1.131  11.001 -1.5107 -1.3466  0.7868
  475MPD2    H3 7126   4.416   1.043  11.070  0.1836 -0.1910  0.9758
  475MPD2     N 7127   4.221   1.451  11.019 -0.8039  0.2088  0.0167
  475MPD2    H5 7128   4.255   1.547  11.009 -1.4518  0.5672  1.2512
  475MPD2    N1 7129   4.701   1.376  10.998 -0.0138 -0.1856 -0.4862
  475MPD2    H7 7130   0.037   1.313  10.965  0.1275 -0.7915  0.9373
  476TMC3    C1 7131   0.142   1.536  10.984 -0.7679  0.7213 -0.0819
  476TMC3    C2 7132   0.126   1.575  10.861  0.0796  0.1445 -0.5813
  476TMC3    C3 7133   0.179   1.688  10.815 -0.0700 -0.0720 -0.2891
  476TMC3    C4 7134   0.209   1.609  11.072 -0.3726 -0.3773  0.5853
  476TMC3    C5 7135   0.253   1.734  11.037 -0.3112  0.0516  0.2651
  476TMC3    C6 7136   0.245   1.767  10.907 -0.5571  0.4018 -0.6408
  476TMC3     C 7137   0.010   1.500  11.041  0.4892 -0.4093 -0.1681
  476TMC3     O 7138   4.687   1.566  11.120  0.5386 -0.2722  0.4848
  476TMC3     H 7139   0.043   1.528  10.810  0.7471 -2.2444  0.5168
  476TMC3    H1 7140   0.195   1.582  11.176  0.2857 -0.7299  0.5820
  476TMC3    H2 7141   0.269   1.867  10.871  1.6868  0.2101  0.3315
  476TMC3    C7 7142   0.232   1.839  11.137 -0.5779  0.2239  0.0742
  476TMC3    C8 7143   0.104   1.763  10.713 -0.4213  0.5206 -0.6122
  476TMC3    O1 7144   0.183   1.944  11.099  0.5206 -0.3953  0.1465
  476TMC3    O2 7145   0.050   1.867  10.754  0.0194  0.4390 -0.2467
  477MPD2     C 7146   2.359   3.067  11.862 -0.1781 -0.4970 -0.5378
  477MPD2    C1 7147   2.270   2.959  11.844  0.0389 -0.5743 -0.0029
  477MPD2    C2 7148   2.264   2.863  11.948  0.2890 -0.7535 -0.3902
  477MPD2    C3 7149   2.346   2.872  12.058 -0.5190 -0.1459 -0.1134
  477MPD2    C4 7150   2.437   2.970  12.067 -0.1659 -0.4252  0.2235
  477MPD2    C5 7151   2.440   3.070  11.970  0.3563  0.5605  0.0190
  477MPD2     H 7152   2.203   2.775  11.931 -0.8779 -0.8939  4.4000
  477MPD2    H1 7153   2.490   2.986  12.160 -1.1611 -1.0341  0.9073
  477MPD2    H2 7154   2.360   3.146  11.789  0.0649  1.0024  1.1012
  477MPD2    H3 7155   2.515   3.148  11.980  0.3661  0.5632 -0.0760
  477MPD2     N 7156   2.334   2.775  12.155 -0.3800  0.0160  0.7943
  477MPD2    H5 7157   2.251   2.717  12.157  1.6190 -2.9520 -1.3963
  477MPD2    N1 7158   2.202   2.929  11.722  0.7688 -0.1608 -0.1390
  477MPD2    H7 7159   2.131   2.856  11.720 -0.2900  0.8571  0.1661
  478TMC3    C1 7160   2.104   2.952  11.505  0.2229  0.3109 -0.2437
  478TMC3    C2 7161   1.972   2.962  11.554 -0.0114 -0.2024 -0.0653
  478TMC3    C3 7162   1.869   3.002  11.467 -0.0366  0.0576 -0.5662
  478TMC3    C4 7163   2.128   2.999  11.379  0.4690 -0.4957  0.2057
  478TMC3    C5 7164   2.026   3.057  11.304  0.1615  0.7001  0.0977
  478TMC3    C6 7165   1.895   3.059  11.344  0.1775 -0.7469  0.0240
  478TMC3     C 7166   2.212   2.985  11.597  0.3432  0.1246  0.8424
  478TMC3     O 7167   2.292   3.071  11.560  0.1758  0.2990  0.4112
  478TMC3     H 7168   1.942   2.939  11.656 -0.5800 -2.6411 -0.7655
  478TMC3    H1 7169   2.226   2.983  11.334 -0.1465 -0.3510 -1.1851
  478TMC3    H2 7170   1.817   3.094  11.278 -1.2023 -1.9141  1.0312
  478TMC3    C7 7171   2.065   3.122  11.176  0.2715  0.1914 -0.3273
  478TMC3    C8 7172   1.731   3.010  11.523  0.4451 -0.2259  0.7946
  478TMC3    O1 7173   2.177   3.089  11.140 -0.1814  0.0892 -0.4885
  478TMC3    O2 7174   1.694   2.917  11.597 -0.2858 -0.2137  0.1010
  479MPD2     C 7175   1.090   0.089  14.788 -0.4014  0.3944  0.2621
  479MPD2    C1 7176   1.047   0.023  14.909  0.3328 -0.7328 -0.1678
  479MPD2    C2 7177   1.120   0.051  15.026  0.5938 -0.1360 -0.7171
  479MPD2    C3 7178   1.228   0.138  15.025 -0.0259 -0.4483  0.2253
  479MPD2    C4 7179   1.264   0.199  14.904 -0.1438 -0.3197 -0.2693
  479MPD2    C5 7180   1.194   0.171  14.787  0.0991  0.1659 -0.0041
  479MPD2     H 7181   1.085   0.011  15.121  1.4199 -0.4292 -0.5401
  479MPD2    H1 7182   1.353   0.261  14.896 -1.1202  0.9066 -1.5326
  479MPD2    H2 7183   1.038   0.087  14.693  0.3389  1.6216 -0.1673
  479MPD2    H3 7184   1.216   0.220  14.693 -1.6545 -2.1704 -1.6295
  479MPD2     N 7185   1.296   0.173  15.150  0.6282  0.0268 -0.3958
  479MPD2    H5 7186   1.377   0.232  15.134  0.2976  0.5516 -0.1185
  479MPD2    N1 7187   0.922   4.694  14.906 -0.2375  0.0649  0.2843
  479MPD2    H7 7188   0.868   4.704  14.820  2.9754  1.4871 -1.5557
  480TMC3    C1 7189   1.269   0.211  15.612  0.7546  0.2749 -0.0947
  480TMC3    C2 7190   1.250   0.340  15.591 -0.1162 -0.7247  0.4971
  480TMC3    C3 7191   1.268   0.398  15.463 -0.6994 -0.5231  0.2580
  480TMC3    C4 7192   1.312   0.137  15.504  0.3410 -0.1295  0.5442
  480TMC3    C5 7193   1.340   0.193  15.381 -0.1149 -0.2703  0.2014
  480TMC3    C6 7194   1.322   0.327  15.361 -0.3743 -0.7838  0.3278
  480TMC3     C 7195   1.220   0.141  15.728  0.3044 -0.6566 -0.3252
  480TMC3     O 7196   1.186   0.023  15.716 -0.0767 -0.4444 -0.3549
  480TMC3     H 7197   1.197   0.400  15.664 -3.2940 -1.8829 -0.8450
  480TMC3    H1 7198   1.304   0.029  15.513  0.1370 -0.1326  0.3122
  480TMC3    H2 7199   1.371   0.373  15.275 -0.3880  0.1033  0.7932
  480TMC3    C7 7200   1.273   0.118  15.273 -0.3826 -0.1120 -0.2154
  480TMC3    C8 7201   1.141   0.432  15.415 -0.3930  0.5522  0.0101
  480TMC3    O1 7202   1.181   0.052  15.317 -1.0662 -0.1942  0.0205
  480TMC3    O2 7203   1.044   0.421  15.497  0.6249 -0.6901 -0.2478
  481MPD2     C 7204   2.795   4.666  14.182 -0.4301  0.4320 -0.3377
  481MPD2    C1 7205   2.692   4.590  14.234 -0.4062  0.2027  0.3375
  481MPD2    C2 7206   2.709   4.516  14.349 -0.4848 -0.4793 -0.8790
  481MPD2    C3 7207   2.824   4.534  14.423 -0.3314  0.0617  0.0822
  481MPD2    C4 7208   2.916   4.629  14.378  0.4606 -0.5830 -0.2595
  481MPD2    C5 7209   2.903   4.694  14.259  0.1879 -0.0028 -0.3918
  481MPD2     H 7210   2.632   4.456  14.397 -0.9276  0.7137 -0.1093
  481MPD2    H1 7211   3.004   4.653  14.438 -0.2739  1.7156 -0.1054
  481MPD2    H2 7212   2.773   4.724  14.093 -0.3675  1.8839  0.5926
  481MPD2    H3 7213   2.980   0.032  14.241 -0.3541  0.7928  0.4931
  481MPD2     N 7214   2.854   4.481  14.549  0.1446 -0.2516  0.4088
  481MPD2    H5 7215   2.943   4.509  14.588 -0.1358  1.9272 -0.5164
  481MPD2    N1 7216   2.567   4.603  14.164  0.1491  0.4921 -0.3307
  481MPD2    H7 7217   2.568   4.670  14.088  1.3549 -3.4654 -3.8648
  482TMC3    C1 7218   2.347   4.560  14.084 -0.2951  0.5065  0.2624
  482TMC3    C2 7219   2.227   4.475  14.074 -0.1837 -0.8901 -0.1664
  482TMC3    C3 7220   2.118   4.536  14.012 -0.2435 -0.5666 -0.0072
  482TMC3    C4 7221   2.346   4.684  14.031 -1.2595 -0.3710  0.4788
  482TMC3    C5 7222   2.238   4.724  13.959  0.4662  0.3056  0.3544
  482TMC3    C6 7223   2.123   4.656  13.945 -0.0798 -0.7338  0.2507
  482TMC3     C 7224   2.453   4.530  14.188  0.2585  0.2869 -0.7307
  482TMC3     O 7225   2.430   4.446  14.269  0.3266 -0.0078  0.0702
  482TMC3     H 7226   2.222   4.377  14.121 -2.4361  0.3818  2.2392
  482TMC3    H1 7227   2.429   0.017  14.039 -1.7073 -0.0080  1.9800
  482TMC3    H2 7228   2.040   4.705  13.894 -0.1200 -0.5234  0.5223
  482TMC3    C7 7229   2.258   0.111  13.878  0.2024  0.7551  0.5919
  482TMC3    C8 7230   2.005   4.450  14.007  0.4089 -0.3807 -0.1673
  482TMC3    O1 7231   2.343   0.185  13.920 -1.0411  0.0120  0.4265
  482TMC3    O2 7232   1.994   4.364  14.091  0.5896 -0.3994 -0.2455
  483TMC3    C1 7233   0.765   3.017   1.422  0.2976  0.0893  0.2997
  483TMC3    C2 7234   0.812   3.094   1.521 -0.0884  1.0276  0.5598
  483TMC3    C3 7235   0.944   3.085   1.562  0.5616 -0.0333  0.2537
  483TMC3    C4 7236   0.850   2.943   1.343  0.2405  0.4205 -1.1080
  483TMC3    C5 7237   0.979   2.927   1.388  0.3751 -0.3411 -0.0550
  483TMC3    C6 7238   1.033   2.999   1.494  0.4432  0.2440  0.2148
  483TMC3     C 7239   0.637   3.049   1.366  0.3767  0.0048 -0.2309
  483TMC3     O 7240   0.567   3.112   1.448  1.0297 -0.8095 -0.3434
  483TMC3     H 7241   0.753   3.158   1.586 -0.5074  2.2240 -1.0115
  483TMC3    H1 7242   0.823   2.865   1.272 -3.3989 -0.3890  1.1984
  483TMC3    H2 7243   1.117   2.962   1.552 -0.7728 -0.1935  1.7027
  483TMC3    C7 7244   1.069   2.874   1.293 -0.0416 -0.6828  0.3000
  483TMC3    C8 7245   0.979   3.129   1.697  0.0998  0.1096  0.4547
  483TMC3    O1 7246   1.035   2.790   1.212  0.1993 -0.3394  0.0016
  483TMC3    O2 7247   0.890   3.106   1.772  0.1465  0.4681 -0.0303
  484MPD2     C 7248   3.422   1.524  12.870  0.6519 -0.9313  0.0677
  484MPD2    C1 7249   3.410   1.398  12.819 -0.5445  0.2726  0.4669
  484MPD2    C2 7250   3.522   1.332  12.780  0.2861 -0.4517  1.0870
  484MPD2    C3 7251   3.646   1.387  12.812 -0.1704  0.2497 -1.3721
  484MPD2    C4 7252   3.661   1.508  12.872  0.0119  0.1231 -0.1758
  484MPD2    C5 7253   3.545   1.578  12.899  0.3370 -0.0171 -0.2146
  484MPD2     H 7254   3.513   1.230  12.744 -0.6563  0.2256 -0.6368
  484MPD2    H1 7255   3.759   1.553  12.887  1.0526 -1.3572 -2.7075
  484MPD2    H2 7256   3.336   1.580  12.904  2.0291  1.0525  0.3150
  484MPD2    H3 7257   3.550   1.681  12.933  0.1035  0.4827 -1.7154
  484MPD2     N 7258   3.760   1.310  12.781  0.3139  0.7255 -0.3112
  484MPD2    H5 7259   3.839   1.332  12.841  0.3630 -0.0556 -0.0926
  484MPD2    N1 7260   3.283   1.334  12.826  0.5395 -0.1945 -0.3452
  484MPD2    H7 7261   3.207   1.396  12.848 -0.3217 -1.6346  0.7554
  485TMC3    C1 7262   3.908   1.148  12.685  0.4256 -0.6749 -0.8087
  485TMC3    C2 7263   3.909   1.028  12.625 -0.3908 -0.7418  0.7167
  485TMC3    C3 7264   4.023   0.982  12.567  0.3824  0.2745 -0.3142
  485TMC3    C4 7265   4.007   1.240  12.670 -1.0149 -0.2034 -0.1048
  485TMC3    C5 7266   4.116   1.194  12.600  0.4697  0.2216  0.6005
  485TMC3    C6 7267   4.130   1.066  12.563  1.1366  0.6043 -0.0598
  485TMC3     C 7268   3.771   1.200  12.702 -0.0335 -0.0140  0.4422
  485TMC3     O 7269   3.690   1.151  12.622  0.1281  0.4227  0.0183
  485TMC3     H 7270   3.816   0.972  12.620 -0.8294  0.1244 -0.6460
  485TMC3    H1 7271   3.999   1.344  12.699 -0.8562 -0.8893  2.4927
  485TMC3    H2 7272   4.218   1.033  12.510  0.6343  0.8922 -1.0749
  485TMC3    C7 7273   4.160   1.287  12.497  0.5276  0.3000  0.0441
  485TMC3    C8 7274   4.003   0.918  12.435  0.7432 -0.0324  0.3801
  485TMC3    O1 7275   4.169   1.401  12.537 -0.3446  0.2519 -0.5764
  485TMC3    O2 7276   4.062   0.971  12.344 -0.1190  0.3152 -0.2794
  486MPD2     C 7277   1.041   0.516  13.105 -0.1015  0.3156 -0.7339
  486MPD2    C1 7278   0.918   0.470  13.058  0.1707 -0.0692 -0.0416
  486MPD2    C2 7279   0.807   0.531  13.101  0.2788  0.1893  0.0176
  486MPD2    C3 7280   0.822   0.659  13.161 -0.0034 -0.7379 -0.0940
  486MPD2    C4 7281   0.937   0.713  13.198  0.3342 -0.0237 -0.2789
  486MPD2    C5 7282   1.046   0.636  13.175 -0.6164 -0.1271 -0.0751
  486MPD2     H 7283   0.707   0.489  13.092  0.7783 -0.7475 -1.0463
  486MPD2    H1 7284   0.953   0.815  13.233  0.9120  0.2284 -1.2566
  486MPD2    H2 7285   1.132   0.461  13.085 -0.4334 -0.1798 -0.8802
  486MPD2    H3 7286   1.133   0.673  13.227 -0.1451 -1.2401 -0.0607
  486MPD2     N 7287   0.704   0.717  13.189  0.0784  0.6181  0.5893
  486MPD2    H5 7288   0.623   0.672  13.148 -0.0657  0.7452  0.7351
  486MPD2    N1 7289   0.916   0.346  12.989  0.1860  0.1478  0.8520
  486MPD2    H7 7290   1.006   0.301  12.982 -0.1799 -0.6801  1.4667
  487TMC3    C1 7291   0.817   0.163  12.875 -0.3712  0.7098 -0.0679
  487TMC3    C2 7292   0.713   0.117  12.795 -0.1989  0.0524  0.6051
  487TMC3    C3 7293   0.684   4.720  12.800  0.1756 -0.0360  0.7513
  487TMC3    C4 7294   0.900   0.079  12.947  0.3127 -0.5428  0.9714
  487TMC3    C5 7295   0.873   4.678  12.934 -0.2388 -0.5537  0.5878
  487TMC3    C6 7296   0.769   4.633  12.847 -0.1874  0.0045  0.5644
  487TMC3     C 7297   0.803   0.298  12.920  0.9592  0.6249 -0.1042
  487TMC3     O 7298   0.692   0.346  12.909  0.1090  0.4918 -0.2635
  487TMC3     H 7299   0.644   0.187  12.751  0.2357  0.8251  1.1492
  487TMC3    H1 7300   0.966   0.110  13.027  1.0537  0.6112 -0.1006
  487TMC3    H2 7301   0.737   4.530  12.861 -1.4468 -0.2174 -3.6729
  487TMC3    C7 7302   0.964   4.572  12.983  0.0973  0.2175 -0.3525
  487TMC3    C8 7303   0.545   4.696  12.832 -0.1102  0.4212  0.0222
  487TMC3    O1 7304   1.007   4.595  13.094  0.0503 -0.1685 -0.2339
  487TMC3    O2 7305   0.493   0.052  12.891  0.0767  1.0546  0.4595
  488MPD2     C 7306   0.630   1.712  16.201  0.3112 -0.0064 -0.2445
  488MPD2    C1 7307   0.606   1.824  16.276  0.2085 -0.0162  0.0553
  488MPD2    C2 7308   0.509   1.813  16.375  0.4911  0.4295 -0.0246
  488MPD2    C3 7309   0.446   1.698  16.407  0.2304  0.5775 -0.2055
  488MPD2    C4 7310   0.475   1.586  16.332 -0.8150 -0.3135  0.1051
  488MPD2    C5 7311   0.564   1.598  16.233  0.5863 -0.1025  0.2646
  488MPD2     H 7312   0.490   1.897  16.441 -3.5207 -0.7328  0.3197
  488MPD2    H1 7313   0.426   1.491  16.351  1.3178 -1.4842 -0.2308
  488MPD2    H2 7314   0.708   1.701  16.127  1.4893 -0.4857  1.0776
  488MPD2    H3 7315   0.581   1.512  16.169  2.2112 -0.1228  0.7148
  488MPD2     N 7316   0.343   1.703  16.508  0.6107  0.4836  0.4838
  488MPD2    H5 7317   0.308   1.793  16.539 -0.8560 -0.0329  0.3033
  488MPD2    N1 7318   0.689   1.942  16.264  0.1838  0.2411 -0.7695
  488MPD2    H7 7319   0.672   2.012  16.335 -3.6350  0.5824 -2.0526
  489TMC3    C1 7320   0.210   1.629  16.690  1.0271  0.6364 -0.0352
  489TMC3    C2 7321   0.254   1.755  16.733 -0.5062  0.0932  1.1482
  489TMC3    C3 7322   0.293   1.764  16.866 -0.3980 -0.3507 -0.1075
  489TMC3    C4 7323   0.187   1.521  16.776  0.1477  0.1213 -0.2573
  489TMC3    C5 7324   0.222   1.534  16.907 -0.0997 -0.6660 -0.4327
  489TMC3    C6 7325   0.292   1.651  16.948 -0.1054  0.2519  0.3805
  489TMC3     C 7326   0.279   1.593  16.565 -0.6655  0.0719  0.9240
  489TMC3     O 7327   0.299   1.474  16.558  0.1078  0.2618  0.5217
  489TMC3     H 7328   0.233   1.841  16.671  1.0052 -0.4321 -0.0931
  489TMC3    H1 7329   0.153   1.425  16.738 -2.4919  0.9853 -0.0742
  489TMC3    H2 7330   0.326   1.667  17.050  2.5249  0.1735 -0.4739
  489TMC3    C7 7331   0.181   1.442  17.012  0.4793 -0.0196  0.2116
  489TMC3    C8 7332   0.367   1.880  16.898 -0.3273  0.5208  0.2312
  489TMC3    O1 7333   0.245   1.437  17.119  0.2177  0.4335  0.4875
  489TMC3    O2 7334   0.402   1.945  16.799  0.1369  0.6231 -0.5332
  490MPD2     C 7335   1.493   1.366  16.833 -0.0097  0.1754 -0.2598
  490MPD2    C1 7336   1.436   1.349  16.958 -0.0111  0.8284 -0.3516
  490MPD2    C2 7337   1.443   1.451  17.056  0.3397  0.7547  0.2309
  490MPD2    C3 7338   1.513   1.567  17.012  0.7182  0.4280 -0.1682
  490MPD2    C4 7339   1.567   1.582  16.888  0.4343  0.3671  0.2661
  490MPD2    C5 7340   1.550   1.489  16.794 -0.3387  0.2084  0.8988
  490MPD2     H 7341   1.395   1.453  17.152  0.5305  1.8428  0.3017
  490MPD2    H1 7342   1.623   1.673  16.869  1.4816 -0.3635 -0.1079
  490MPD2    H2 7343   1.499   1.284  16.763  2.4391  1.9051 -2.0785
  490MPD2    H3 7344   1.604   1.504  16.701 -0.9283  0.5063  0.5988
  490MPD2     N 7345   1.545   1.663  17.112 -0.2122  0.8763 -0.1084
  490MPD2    H5 7346   1.609   1.733  17.076  2.0521 -0.8741  0.4499
  490MPD2    N1 7347   1.387   1.228  17.005  0.1717  0.1288 -0.0221
  490MPD2    H7 7348   1.398   1.206  17.104  1.3406  2.5077  0.3660
  491TMC3    C1 7349   1.314   1.001  16.993  0.6137  0.4789  0.0872
  491TMC3    C2 7350   1.356   0.984  17.125  0.2984 -0.3216 -0.1142
  491TMC3    C3 7351   1.307   0.874  17.181 -0.6319 -0.1208  0.0769
  491TMC3    C4 7352   1.230   0.915  16.918 -0.2950  0.1290 -0.0133
  491TMC3    C5 7353   1.184   0.809  16.990  0.3933 -0.7047 -1.2043
  491TMC3    C6 7354   1.225   0.782  17.118  0.0365 -0.2053 -0.0716
  491TMC3     C 7355   1.362   1.121  16.923 -0.4698  0.3663  0.1160
  491TMC3     O 7356   1.339   1.119  16.804  0.5219 -0.0230  0.5713
  491TMC3     H 7357   1.438   1.033  17.177 -1.2368 -0.1948  2.1606
  491TMC3    H1 7358   1.193   0.940  16.819 -0.5307 -3.9069 -0.9457
  491TMC3    H2 7359   1.172   0.708  17.176  1.7930 -2.0874 -0.8720
  491TMC3    C7 7360   1.073   0.739  16.924 -0.1701  0.2434  0.5989
  491TMC3    C8 7361   1.340   0.847  17.323 -0.1460  0.2715 -0.1627
  491TMC3    O1 7362   0.999   0.796  16.847 -0.4513 -0.2015 -0.0539
  491TMC3    O2 7363   1.299   0.737  17.361 -0.6108 -0.3852  0.0870
  492MPD2     C 7364   1.611   1.803  12.129 -0.4322  0.3188  0.1158
  492MPD2    C1 7365   1.515   1.731  12.062 -0.1524  0.4770 -0.2336
  492MPD2    C2 7366   1.423   1.659  12.137  0.3011  0.6638  0.4029
  492MPD2    C3 7367   1.427   1.655  12.274 -0.3076  0.2778 -0.3353
  492MPD2    C4 7368   1.521   1.730  12.342  0.3999  0.3887 -0.0625
  492MPD2    C5 7369   1.607   1.805  12.269 -0.2551  0.0957 -0.1833
  492MPD2     H 7370   1.336   1.616  12.089  0.8649 -0.5983  0.5073
  492MPD2    H1 7371   1.523   1.730  12.450  0.1792 -2.2963 -0.0475
  492MPD2    H2 7372   1.691   1.864  12.089 -1.5898  1.2366 -0.7898
  492MPD2    H3 7373   1.683   1.867  12.317 -0.6623  0.1670  0.3677
  492MPD2     N 7374   1.342   1.575  12.360 -0.1662 -0.5286  0.3992
  492MPD2    H5 7375   1.351   1.597  12.459 -1.0621 -0.0770  0.3751
  492MPD2    N1 7376   1.492   1.740  11.927 -0.6138 -0.2713 -0.1423
  492MPD2    H7 7377   1.411   1.692  11.889  0.7374 -2.2860 -0.4477
  493TMC3    C1 7378   1.511   1.829  11.709  0.1857 -0.8631  0.4085
  493TMC3    C2 7379   1.561   1.932  11.635 -0.5233  0.0010 -0.1631
  493TMC3    C3 7380   1.555   1.939  11.499 -1.1328  0.0406 -0.2682
  493TMC3    C4 7381   1.450   1.728  11.649  0.4312  0.3801 -0.3543
  493TMC3    C5 7382   1.462   1.729  11.513 -0.6320 -0.2701  0.5778
  493TMC3    C6 7383   1.506   1.832  11.438 -0.3261 -0.2460 -1.4270
  493TMC3     C 7384   1.567   1.821  11.845 -0.0326 -0.2567 -0.4705
  493TMC3     O 7385   1.655   1.896  11.872 -0.1496  0.0743 -0.3434
  493TMC3     H 7386   1.603   2.020  11.682  0.5832  0.2356 -1.6055
  493TMC3    H1 7387   1.422   1.631  11.687  0.4751  0.6045  0.2401
  493TMC3    H2 7388   1.506   1.829  11.330  1.2163 -0.3337 -1.4258
  493TMC3    C7 7389   1.377   1.639  11.436  0.7206 -0.3178  0.1940
  493TMC3    C8 7390   1.492   2.058  11.448 -0.4099  0.0669  0.4223
  493TMC3    O1 7391   1.324   1.693  11.335  0.1917 -0.1206 -0.2615
  493TMC3    O2 7392   1.373   2.078  11.474 -0.2437  0.6376  0.4743
  494TMC3    C1 7393   2.152   2.761   0.779 -0.8209 -0.4822  0.2167
  494TMC3    C2 7394   2.169   2.631   0.798  0.0122 -0.6033 -0.8242
  494TMC3    C3 7395   2.199   2.558   0.688 -0.1967  0.2556  0.8754
  494TMC3    C4 7396   2.187   2.823   0.664  0.6301 -0.0044 -0.1018
  494TMC3    C5 7397   2.228   2.746   0.556 -0.6014  0.2515  0.8322
  494TMC3    C6 7398   2.230   2.616   0.565  0.0678 -0.5704  0.1442
  494TMC3     C 7399   2.085   2.833   0.887 -0.4034 -0.1744  0.4358
  494TMC3     O 7400   2.105   2.797   1.002 -0.4208 -0.3950 -0.1509
  494TMC3     H 7401   2.157   2.591   0.898  0.0886  0.1412 -0.5143
  494TMC3    H1 7402   2.189   2.931   0.661 -0.2501 -0.0081 -0.9765
  494TMC3    H2 7403   2.254   2.557   0.477  0.1202 -0.5628  0.1533
  494TMC3    C7 7404   2.250   2.800   0.421  0.2514  0.5127 -0.5540
  494TMC3    C8 7405   2.162   2.424   0.689 -0.3387 -0.7048  0.2878
  494TMC3    O1 7406   2.286   2.724   0.329  0.4361  0.1692 -0.0311
  494TMC3    O2 7407   2.209   2.345   0.773 -0.2842  0.2535 -0.1741
  495TMC3    C1 7408   0.959   0.355  14.435  0.3013  0.1970 -0.1795
  495TMC3    C2 7409   0.975   0.458  14.344 -0.1561 -0.5842  1.0685
  495TMC3    C3 7410   0.973   0.583  14.393  0.2768  0.7824 -1.4306
  495TMC3    C4 7411   0.961   0.375  14.568  0.3707  0.4135  0.5150
  495TMC3    C5 7412   0.971   0.499  14.620 -0.3396  0.2730 -1.2602
  495TMC3    C6 7413   0.983   0.608  14.532 -0.4490 -0.5896 -0.5043
  495TMC3     C 7414   0.945   0.216  14.396 -0.8385 -0.1489 -0.7387
  495TMC3     O 7415   0.907   0.137  14.484  0.3769 -0.4220  0.4475
  495TMC3     H 7416   0.955   0.438  14.240 -1.0022  1.4443  0.8492
  495TMC3    H1 7417   0.942   0.287  14.629  0.5010 -1.2439 -1.8356
  495TMC3    H2 7418   0.983   0.704  14.583  1.4232 -0.3517 -0.9688
  495TMC3    C7 7419   1.000   0.514  14.763  0.1872 -0.2577 -0.0070
  495TMC3    C8 7420   0.861   0.649  14.319 -0.0861 -0.2834  0.7125
  495TMC3    O1 7421   1.073   0.604  14.799  0.6497 -0.2409 -0.1694
  495TMC3    O2 7422   0.788   0.568  14.260 -0.5279 -0.0994  0.2678
  496MPD2     C 7423   3.127   0.203  15.196 -0.0891  0.0221  0.6029
  496MPD2    C1 7424   3.166   0.276  15.310 -0.3806  0.1659 -0.0097
  496MPD2    C2 7425   3.094   0.252  15.428  0.0259 -1.0965 -0.0585
  496MPD2    C3 7426   2.982   0.169  15.432 -0.5697  0.4934  0.6492
  496MPD2    C4 7427   2.946   0.102  15.315  0.3159  0.2930 -0.4994
  496MPD2    C5 7428   3.023   0.113  15.198  0.2198  0.8037 -0.5327
  496MPD2     H 7429   3.115   0.298  15.524 -0.6978 -1.6022  0.3398
  496MPD2    H1 7430   2.858   0.039  15.309 -0.0223  0.8673 -1.4925
  496MPD2    H2 7431   3.182   0.209  15.103  0.3576 -0.5871  0.8258
  496MPD2    H3 7432   2.998   0.057  15.109 -1.3648  0.3394  0.1998
  496MPD2     N 7433   2.917   0.133  15.555  0.0329 -0.0349 -0.1305
  496MPD2    H5 7434   2.846   0.061  15.557  0.4642 -0.4446  0.2473
  496MPD2    N1 7435   3.283   0.348  15.302 -0.1815  0.2921  0.3343
  496MPD2    H7 7436   3.312   0.381  15.211 -2.5740 -0.8412 -0.8196
  497TMC3    C1 7437   2.820   0.186  15.756  0.0007 -0.2899 -0.8208
  497TMC3    C2 7438   2.687   0.173  15.701  0.7212 -0.1987  0.3967
  497TMC3    C3 7439   2.586   0.157  15.788 -0.4622 -0.2237 -0.3819
  497TMC3    C4 7440   2.845   0.183  15.892 -0.3452  0.1679  0.5554
  497TMC3    C5 7441   2.739   0.161  15.975  0.3086 -0.6284  0.8371
  497TMC3    C6 7442   2.614   0.148  15.921  0.2393 -0.5179  0.0550
  497TMC3     C 7443   2.941   0.173  15.680  1.0830  0.3609 -0.0466
  497TMC3     O 7444   3.026   0.244  15.722  0.6873  0.2411  0.1231
  497TMC3     H 7445   2.663   0.184  15.596 -1.5105 -2.7877  0.6258
  497TMC3    H1 7446   2.948   0.166  15.920 -0.7294 -0.1464  1.7954
  497TMC3    H2 7447   2.533   0.124  15.989  1.3691  0.2461  1.6526
  497TMC3    C7 7448   2.761   0.108  16.105  0.5889  0.1844 -0.7439
  497TMC3    C8 7449   2.453   0.175  15.738  0.3615  0.6181 -0.3703
  497TMC3    O1 7450   2.695   0.004  16.132  0.7320  0.1382  0.2036
  497TMC3    O2 7451   2.437   0.141  15.621 -0.0413  0.3226 -0.7738
  498MPD2     C 7452   4.308   1.199  10.018 -0.3578 -0.5092  0.1828
  498MPD2    C1 7453   4.242   1.317  10.053  0.3371  0.2921 -0.6213
  498MPD2    C2 7454   4.107   1.316  10.089 -0.2053 -0.0592  0.2652
  498MPD2    C3 7455   4.030   1.201  10.075  0.3643 -0.2083 -0.8427
  498MPD2    C4 7456   4.092   1.085  10.032  0.2092 -0.1153  0.1155
  498MPD2    C5 7457   4.225   1.089  10.000  0.2533 -0.3255 -0.2204
  498MPD2     H 7458   4.056   1.410  10.109 -0.3301  0.2083 -1.2576
  498MPD2    H1 7459   4.050   0.985  10.032  1.3828 -0.6209 -1.7833
  498MPD2    H2 7460   4.411   1.187   9.986 -0.2715  2.8370 -0.7524
  498MPD2    H3 7461   4.267   0.994   9.968  0.4596 -1.2323  2.6758
  498MPD2     N 7462   3.899   1.200  10.122 -0.1279  0.0770 -0.0089
  498MPD2    H5 7463   3.867   1.288  10.162  0.0229 -0.6655  1.7398
  498MPD2    N1 7464   4.315   1.433  10.072 -0.2456 -0.4671  0.1856
  498MPD2    H7 7465   4.272   1.524  10.085  0.7701  0.0976 -0.3865
  499TMC3    C1 7466   4.502   1.575  10.085  0.3416  0.5165  0.0792
  499TMC3    C2 7467   4.629   1.585  10.141  0.6382  0.8992  0.1071
  499TMC3    C3 7468   4.669   1.708  10.183  0.9849  0.2461  0.1217
  499TMC3    C4 7469   4.417   1.688  10.075 -0.2416  0.0990 -0.1496
  499TMC3    C5 7470   4.468   1.805  10.125 -0.0510 -0.5224 -0.3229
  499TMC3    C6 7471   4.587   1.817  10.182  0.0931  0.1790  0.4013
  499TMC3     C 7472   4.455   1.445  10.056  0.1889  0.0671  0.2953
  499TMC3     O 7473   4.541   1.358  10.064  0.6984 -0.2746  0.0531
  499TMC3     H 7474   4.692   1.497  10.135  1.2371  1.3497 -0.1716
  499TMC3    H1 7475   4.330   1.681  10.011 -1.0177 -0.2168  0.9459
  499TMC3    H2 7476   4.614   1.914  10.221  2.0910  0.3344 -1.3669
  499TMC3    C7 7477   4.404   1.925  10.096 -0.1271  0.0917  0.4193
  499TMC3    C8 7478   0.073   1.729  10.229 -0.1272 -0.0564 -0.5557
  499TMC3    O1 7479   4.469   2.024  10.101  0.3365 -0.2664 -0.2899
  499TMC3    O2 7480   0.117   1.844  10.236 -0.4239 -0.8101  0.4575
  500MPD2     C 7481   0.682   2.709  11.022 -0.2114  0.2921  0.3455
  500MPD2    C1 7482   0.728   2.750  10.893 -0.5366 -0.0387  0.9152
  500MPD2    C2 7483   0.633   2.760  10.788 -0.0328  0.3722 -0.2737
  500MPD2    C3 7484   0.502   2.725  10.818  0.2068  0.4400  0.1689
  500MPD2    C4 7485   0.460   2.696  10.944  0.1187 -0.1394 -0.7551
  500MPD2    C5 7486   0.551   2.695  11.046  0.4456  0.0561  0.1850
  500MPD2     H 7487   0.678   2.777  10.691 -0.2802 -0.4920 -0.5362
  500MPD2    H1 7488   0.360   2.660  10.962 -0.4861  1.5369 -0.7171
  500MPD2    H2 7489   0.753   2.695  11.103 -2.4088 -1.7772  1.9111
  500MPD2    H3 7490   0.527   2.674  11.150  2.1285 -0.4393  0.4733
  500MPD2     N 7491   0.404   2.730  10.717  0.7392 -0.4683 -0.1088
  500MPD2    H5 7492   0.309   2.708  10.744  1.2874 -0.1238  2.0896
  500MPD2    N1 7493   0.866   2.787  10.865  0.0711  0.3807 -0.5143
  500MPD2    H7 7494   0.886   2.845  10.785  1.9875  1.6552  0.8925
  501TMC3    C1 7495   1.089   2.834  10.906 -0.6499  0.1202  0.3753
  501TMC3    C2 7496   1.083   2.946  10.823  0.0082  0.1160  1.0809
  501TMC3    C3 7497   1.200   3.002  10.784  0.7974 -0.1194  0.2034
  501TMC3    C4 7498   1.210   2.772  10.927 -0.0596 -0.4243  0.0070
  501TMC3    C5 7499   1.328   2.828  10.884 -0.1649  0.1046 -0.2077
  501TMC3    C6 7500   1.324   2.947  10.811 -0.3767  0.2291  0.1417
  501TMC3     C 7501   0.976   2.751  10.943 -0.3397 -0.2959 -0.3175
  501TMC3     O 7502   0.994   2.674  11.037 -0.0829  0.2505 -0.4033
  501TMC3     H 7503   0.994   2.997  10.788  0.6761 -1.3424 -2.7894
  501TMC3    H1 7504   1.224   2.673  10.968 -1.2854 -0.7154 -0.2732
  501TMC3    H2 7505   1.415   2.994  10.777  0.2175 -0.4261  0.8343
  501TMC3    C7 7506   1.458   2.768  10.923 -0.0561  0.2114  0.6995
  501TMC3    C8 7507   1.196   3.130  10.729 -0.5645 -0.4308 -0.2535
  501TMC3    O1 7508   1.443   2.682  11.014 -0.1785 -0.4245  0.7441
  501TMC3    O2 7509   1.294   3.201  10.764 -0.0293  0.3400 -0.1613
  502TMC3    C1 7510   0.294   0.883  14.765 -0.0462  0.7767  0.5879
  502TMC3    C2 7511   0.309   1.008  14.715 -0.4821  0.7884  0.1750
  502TMC3    C3 7512   0.207   1.099  14.729 -1.1486  0.2747 -0.6861
  502TMC3    C4 7513   0.176   0.844  14.824 -0.0422 -0.6172 -1.2994
  502TMC3    C5 7514   0.072   0.934  14.838  0.2511  0.0973  0.1250
  502TMC3    C6 7515   0.086   1.064  14.786 -0.1428 -0.7256 -0.0605
  502TMC3     C 7516   0.409   0.866  14.854  0.4262 -0.0659  0.3476
  502TMC3     O 7517   0.513   0.888  14.800  0.6855  0.0917  0.4232
  502TMC3     H 7518   0.404   1.034  14.671 -0.0511 -0.8716  0.1642
  502TMC3    H1 7519   0.182   0.749  14.877  1.3511  0.1799 -0.0331
  502TMC3    H2 7520   0.005   1.134  14.802 -0.8493 -1.2054 -1.6207
  502TMC3    C7 7521   0.003   0.921  14.973  1.0628  0.9269  0.7674
  502TMC3    C8 7522   0.260   1.225  14.767  0.1367 -0.5087  0.4608
  502TMC3    O1 7523   0.072   0.877  15.065  0.5138 -0.0067 -0.1630
  502TMC3    O2 7524   0.200   1.334  14.755 -1.2197  0.3339  0.5593
  503MPD2     C 7525   2.422   1.878  16.758 -0.5342  0.1190  0.3798
  503MPD2    C1 7526   2.344   1.901  16.874  0.7050 -0.9060 -0.4902
  503MPD2    C2 7527   2.335   1.787  16.953  0.0442 -0.5079 -0.6463
  503MPD2    C3 7528   2.371   1.664  16.911  0.7940 -0.6302 -0.9258
  503MPD2    C4 7529   2.415   1.636  16.786 -0.1222 -0.3973 -0.1831
  503MPD2    C5 7530   2.445   1.748  16.713 -0.4697 -1.0387  0.1012
  503MPD2     H 7531   2.294   1.787  17.053  0.1704 -1.6343 -0.5941
  503MPD2    H1 7532   2.445   1.537  16.752 -0.6954 -1.3218  1.9865
  503MPD2    H2 7533   2.447   1.964  16.697  0.6143 -1.1707 -0.9651
  503MPD2    H3 7534   2.492   1.729  16.617  2.6365  0.3989  1.3450
  503MPD2     N 7535   2.368   1.561  17.009  0.3743 -0.6559 -0.2070
  503MPD2    H5 7536   2.357   1.583  17.108  1.6901 -2.3296  0.3249
  503MPD2    N1 7537   2.316   2.026  16.920 -0.9209 -0.4555 -0.1564
  503MPD2    H7 7538   2.265   2.030  17.008 -1.6483 -0.7407 -0.5645
  504TMC3    C1 7539   2.468   1.376  17.101 -0.2665  0.6424 -0.2373
  504TMC3    C2 7540   2.438   1.405  17.231  0.0900  0.6941 -0.2415
  504TMC3    C3 7541   2.526   1.385  17.337 -0.2211 -0.2101 -0.0589
  504TMC3    C4 7542   2.578   1.300  17.085 -0.8238  0.4560  0.2224
  504TMC3    C5 7543   2.666   1.279  17.188 -0.2978 -0.6468 -0.1437
  504TMC3    C6 7544   2.645   1.320  17.314  0.9214  0.3242 -0.0947
  504TMC3     C 7545   2.403   1.429  16.988 -0.1416  0.0634 -0.3077
  504TMC3     O 7546   2.413   1.358  16.889  0.1721 -0.0963 -0.1052
  504TMC3     H 7547   2.341   1.445  17.256 -0.7186  0.3161 -2.8088
  504TMC3    H1 7548   2.596   1.257  16.987  0.0758  0.7663  0.2476
  504TMC3    H2 7549   2.716   1.322  17.395 -0.0481  1.4841  0.7306
  504TMC3    C7 7550   2.804   1.239  17.143 -0.3347 -0.5340 -0.7767
  504TMC3    C8 7551   2.497   1.449  17.465  0.5918  0.8637 -0.2669
  504TMC3    O1 7552   2.827   1.256  17.021 -0.0057  0.2134  0.8050
  504TMC3    O2 7553   2.416   1.544  17.458  0.1972 -0.1489 -0.0003
  505MPD2     C 7554   3.086   1.502  11.073  0.0077 -0.4284  0.3620
  505MPD2    C1 7555   2.983   1.489  10.984  0.0330  0.1106 -0.2053
  505MPD2    C2 7556   2.930   1.362  10.957  0.1244  0.0813  0.3974
  505MPD2    C3 7557   2.988   1.247  11.013 -0.4408 -0.1787  0.1323
  505MPD2    C4 7558   3.084   1.257  11.112  0.3089 -0.1578 -0.2982
  505MPD2    C5 7559   3.134   1.389  11.133  0.6074 -0.2323 -0.4471
  505MPD2     H 7560   2.844   1.341  10.894 -0.3507 -0.7891  1.3338
  505MPD2    H1 7561   3.122   1.174  11.170 -0.1787  0.5885  1.1062
  505MPD2    H2 7562   3.125   1.602  11.083  1.6708 -1.2111  1.7745
  505MPD2    H3 7563   3.202   1.394  11.217 -0.7213  2.8785  0.4186
  505MPD2     N 7564   2.926   1.129  10.974  0.1981  0.0151 -0.2855
  505MPD2    H5 7565   2.851   1.142  10.907 -0.2668 -0.4429  0.1520
  505MPD2    N1 7566   2.918   1.599  10.927 -0.0963 -0.4416 -0.1449
  505MPD2    H7 7567   2.952   1.692  10.949 -3.2613  0.5450  0.6730
  506TMC3    C1 7568   2.791   1.719  10.773  0.6954 -0.1576 -0.2413
  506TMC3    C2 7569   2.903   1.772  10.702 -0.0471 -0.0176  0.3288
  506TMC3    C3 7570   2.883   1.821  10.576  0.6746  0.2876 -0.8571
  506TMC3    C4 7571   2.672   1.713  10.717 -0.4817  0.1554  0.6558
  506TMC3    C5 7572   2.668   1.748  10.577  0.3550  0.3590  0.3978
  506TMC3    C6 7573   2.767   1.809  10.506  0.2950 -1.3756 -0.0329
  506TMC3     C 7574   2.812   1.590  10.837  0.2894 -0.1538  0.1504
  506TMC3     O 7575   2.717   1.513  10.838 -0.0456  0.0931 -0.5848
  506TMC3     H 7576   3.000   1.776  10.750  0.8470 -1.8524 -1.3293
  506TMC3    H1 7577   2.586   1.671  10.769 -0.6562  0.9259  0.9975
  506TMC3    H2 7578   2.762   1.839  10.402 -0.0888 -1.2937  0.0088
  506TMC3    C7 7579   2.586   1.662  10.494 -0.7507 -0.0749 -0.0211
  506TMC3    C8 7580   2.997   1.878  10.516  0.5890 -0.1994  0.8957
  506TMC3    O1 7581   2.536   1.686  10.388 -0.1106 -0.4156  0.3982
  506TMC3    O2 7582   2.986   1.991  10.463  0.9902  0.5619  0.2823
  507TMC3    C1 7583   3.633   1.354  14.750 -0.3928 -0.2324  0.1864
  507TMC3    C2 7584   3.686   1.270  14.662  0.1747  0.3394 -0.5945
  507TMC3    C3 7585   3.765   1.312  14.561  0.3760 -0.1864 -0.2013
  507TMC3    C4 7586   3.670   1.482  14.761 -0.4189  0.1420 -0.0972
  507TMC3    C5 7587   3.769   1.521  14.676  0.0322 -0.1163 -0.5843
  507TMC3    C6 7588   3.819   1.436  14.574  0.5173 -0.2632 -0.2961
  507TMC3     C 7589   3.493   1.333  14.773 -0.0765 -0.3191 -0.6881
  507TMC3     O 7590   3.442   1.381  14.872  0.4349 -0.0834 -0.2410
  507TMC3     H 7591   3.644   1.173  14.640  0.5922  0.3589 -1.4438
  507TMC3    H1 7592   3.595   1.545  14.808  0.1165  0.3561  0.4680
  507TMC3    H2 7593   3.894   1.474  14.506  1.7680 -1.3004  0.5085
  507TMC3    C7 7594   3.731   1.644  14.602 -0.2738 -0.4460 -0.5301
  507TMC3    C8 7595   3.693   1.286  14.439  0.1781  0.1058 -0.1869
  507TMC3    O1 7596   3.746   1.638  14.480 -0.0469 -0.3813 -0.4536
  507TMC3    O2 7597   3.617   1.195  14.434  0.2753  0.1178  0.5513
  508MPD2     C 7598   4.326   3.732  16.303 -0.4290  0.3277 -0.4430
  508MPD2    C1 7599   4.441   3.804  16.327  0.0325  0.2030  0.3662
  508MPD2    C2 7600   4.461   3.908  16.242 -0.0197  0.4366  0.0326
  508MPD2    C3 7601   4.386   3.936  16.125 -0.0869 -0.0010 -0.0494
  508MPD2    C4 7602   4.286   3.853  16.094 -0.0175  0.6101  0.3230
  508MPD2    C5 7603   4.257   3.743  16.182  0.3648 -0.1314  0.5854
  508MPD2     H 7604   4.540   3.978  16.267  0.5642  0.1557 -0.9791
  508MPD2    H1 7605   4.238   3.858  15.997  0.4835 -0.0624  0.0376
  508MPD2    H2 7606   4.304   3.644  16.363  4.9887  0.0864  1.2203
  508MPD2    H3 7607   4.171   3.680  16.164  0.4344 -0.3858  1.1617
  508MPD2     N 7608   4.433   4.044  16.049 -0.2979 -0.0041  0.0232
  508MPD2    H5 7609   4.498   4.110  16.089  0.2571 -0.6971  0.2596
  508MPD2    N1 7610   4.519   3.780  16.442 -0.2044  0.7590 -0.2433
  508MPD2    H7 7611   4.484   3.713  16.510  0.7022  0.3289 -0.1966
  509TMC3    C1 7612   4.362   4.408  15.750 -0.1295 -0.4561 -0.0630
  509TMC3    C2 7613   4.463   4.470  15.817 -0.2873 -0.2919 -0.1709
  509TMC3    C3 7614   4.551   4.407  15.904 -0.1009 -0.6316 -0.6878
  509TMC3    C4 7615   4.340   4.276  15.780  0.7910  0.2758  0.3600
  509TMC3    C5 7616   4.419   4.218  15.880 -0.0319  0.5162 -0.4535
  509TMC3    C6 7617   4.527   4.279  15.940  0.2321  0.3120  0.3585
  509TMC3     C 7618   4.254   4.494  15.727  0.0792 -0.8151 -0.0697
  509TMC3     O 7619   4.139   4.460  15.759  0.4338  0.2168  0.1703
  509TMC3     H 7620   4.469   4.578  15.812 -0.1522 -0.1966  2.0708
  509TMC3    H1 7621   4.250   4.226  15.746  0.1918  2.0722 -0.7212
  509TMC3    H2 7622   4.597   4.222  16.001 -1.4982 -1.5650  0.6182
  509TMC3    C7 7623   4.380   4.082  15.922 -0.1406  0.3655  0.9995
  509TMC3    C8 7624   4.681   4.458  15.924  0.3683  0.2516  0.2408
  509TMC3    O1 7625   4.302   4.030  15.847 -0.2721 -0.0999 -0.2928
  509TMC3    O2 7626   0.018   4.389  15.995 -0.3377 -0.3042 -0.3180
  510MPD2     C 7627   2.149   0.983  14.712  0.0944 -0.1467  0.0280
  510MPD2    C1 7628   2.205   0.870  14.765 -0.5608 -0.0946 -0.2290
  510MPD2    C2 7629   2.341   0.860  14.739 -0.1296 -0.2455  0.3128
  510MPD2    C3 7630   2.412   0.951  14.671 -0.2276 -0.3552  0.7170
  510MPD2    C4 7631   2.344   1.045  14.602  0.5095  0.1984 -0.6105
  510MPD2    C5 7632   2.213   1.060  14.622  0.3124 -0.4390 -0.3392
  510MPD2     H 7633   2.395   0.777  14.783 -3.0793 -0.8592  2.8395
  510MPD2    H1 7634   2.395   1.123  14.547 -0.3252  2.0199  1.2168
  510MPD2    H2 7635   2.043   0.999  14.728  0.1966  0.4142  0.1437
  510MPD2    H3 7636   2.165   1.146  14.576 -1.3752 -1.6862 -0.9087
  510MPD2     N 7637   2.557   0.926  14.657 -0.1826 -0.3268  0.1082
  510MPD2    H5 7638   2.592   0.877  14.739  0.3496  0.8803  0.6007
  510MPD2    N1 7639   2.121   0.777  14.828 -1.2318  0.2210 -0.0972
  510MPD2    H7 7640   2.022   0.796  14.847 -1.5988 -0.8240 -1.0037
  511TMC3    C1 7641   2.084   0.560  14.914 -0.2392 -0.4467  0.1608
  511TMC3    C2 7642   1.985   0.605  15.005 -0.0856 -0.0885 -0.3356
  511TMC3    C3 7643   1.912   0.498  15.064  0.4154 -0.0439 -0.0020
  511TMC3    C4 7644   2.089   0.423  14.872  0.4449 -0.2448  0.7351
  511TMC3    C5 7645   1.997   0.328  14.918 -0.5173 -0.6482 -0.4030
  511TMC3    C6 7646   1.918   0.371  15.023 -0.0822 -0.7150  0.6571
  511TMC3     C 7647   2.169   0.646  14.840  0.1818  0.8900 -0.4647
  511TMC3     O 7648   2.266   0.591  14.787  0.2057  0.2016 -0.5513
  511TMC3     H 7649   1.990   0.705  15.048  1.0833 -0.5915  0.7009
  511TMC3    H1 7650   2.148   0.397  14.784  1.3074  1.3976  0.8306
  511TMC3    H2 7651   1.838   0.305  15.055 -1.2343  1.0704  1.5057
  511TMC3    C7 7652   1.974   0.210  14.838 -0.5686 -0.1968  0.7661
  511TMC3    C8 7653   1.810   0.544  15.155 -0.0314  0.3978 -0.2284
  511TMC3    O1 7654   1.973   0.227  14.713 -0.3557  0.3009  0.0535
  511TMC3    O2 7655   1.777   0.659  15.138  0.1444 -1.1142 -0.2228
  512TMC3    C1 7656   1.160   0.319  13.414 -0.1085  0.0696 -0.0636
  512TMC3    C2 7657   1.275   0.296  13.491  0.2267  0.1500  0.3950
  512TMC3    C3 7658   1.369   0.212  13.434  0.0023 -0.1030 -0.6957
  512TMC3    C4 7659   1.143   0.267  13.285  0.3160  0.7468 -0.4898
  512TMC3    C5 7660   1.239   0.179  13.239 -0.5363  0.2004 -0.0582
  512TMC3    C6 7661   1.356   0.162  13.311  0.1199 -0.2227 -0.5165
  512TMC3     C 7662   1.057   0.398  13.480 -0.1609  0.4293 -0.7201
  512TMC3     O 7663   1.092   0.465  13.576 -0.0188  0.0254 -0.0693
  512TMC3     H 7664   1.274   0.322  13.596 -0.2323 -1.0602  0.6986
  512TMC3    H1 7665   1.048   0.264  13.233 -0.0607  5.4575 -0.0795
  512TMC3    H2 7666   1.435   0.102  13.267 -0.5363 -1.5779  0.1520
  512TMC3    C7 7667   1.243   0.160  13.098 -0.5803  0.4764 -0.4914
  512TMC3    C8 7668   1.463   0.151  13.521 -0.2244 -0.4561 -0.3982
  512TMC3    O1 7669   1.174   0.230  13.021  0.0236  0.3489  0.3019
  512TMC3    O2 7670   1.493   0.029  13.499 -0.4259 -0.2267 -0.2476
  513MPD2     C 7671   3.400   0.792  13.055  0.2497  0.1921 -0.1048
  513MPD2    C1 7672   3.367   0.668  13.097 -0.3491  0.2803 -0.4503
  513MPD2    C2 7673   3.415   0.631  13.222  0.3217 -0.2889 -0.7783
  513MPD2    C3 7674   3.514   0.703  13.288  0.2389  0.5064  0.5162
  513MPD2    C4 7675   3.545   0.826  13.245 -0.0085  0.3023  0.9556
  513MPD2    C5 7676   3.485   0.868  13.126 -0.6579  0.7567  0.4098
  513MPD2     H 7677   3.383   0.540  13.273 -0.4968  0.0464 -0.6828
  513MPD2    H1 7678   3.611   0.894  13.297 -1.5846  2.1336  0.6104
  513MPD2    H2 7679   3.374   0.835  12.959 -0.9209 -0.3198 -0.0049
  513MPD2    H3 7680   3.517   0.965  13.089  1.7703  0.2792  1.2435
  513MPD2     N 7681   3.557   0.646  13.412 -0.3553  0.6695 -0.2547
  513MPD2    H5 7682   3.505   0.562  13.435 -0.0296  0.8917  1.3420
  513MPD2    N1 7683   3.298   0.577  13.004 -0.7679 -0.2735 -0.0152
  513MPD2    H7 7684   3.264   0.611  12.915 -0.3897 -0.4068 -0.2121
  514TMC3    C1 7685   3.206   0.363  12.940 -0.3464  0.4364 -0.1875
  514TMC3    C2 7686   3.298   0.335  12.839 -0.4381 -0.0000 -0.3398
  514TMC3    C3 7687   3.331   0.209  12.813 -0.0805 -0.4688 -0.0973
  514TMC3    C4 7688   3.152   0.261  13.006  0.3575  0.7659 -0.0135
  514TMC3    C5 7689   3.181   0.131  12.975 -0.1802  0.0012  0.4104
  514TMC3    C6 7690   3.265   0.105  12.871 -0.1344  0.0418  0.8556
  514TMC3     C 7691   3.274   0.443  13.038 -0.2155 -0.1117  0.4714
  514TMC3     O 7692   3.301   0.389  13.145  0.4347  0.1347 -0.0254
  514TMC3     H 7693   3.354   0.418  12.797 -1.2321  0.0046 -1.3890
  514TMC3    H1 7694   3.071   0.280  13.075  0.0197  1.5046 -0.6205
  514TMC3    H2 7695   3.316   0.009  12.866  1.3345  0.9560 -1.4049
  514TMC3    C7 7696   3.206   0.055  13.088  0.1053 -0.5049  0.0511
  514TMC3    C8 7697   3.471   0.185  12.777 -0.1102  0.3737 -0.2093
  514TMC3    O1 7698   3.230   4.672  13.061  0.1257  0.2314  0.4787
  514TMC3    O2 7699   3.536   0.101  12.840 -0.2220 -1.2155  0.0024
  515MPD2     C 7700   1.197   1.930  15.157 -0.1364  0.2460  0.0634
  515MPD2    C1 7701   1.239   1.955  15.031  0.5085  0.0448  0.0617
  515MPD2    C2 7702   1.344   2.040  15.012  0.2196 -0.4704 -0.0596
  515MPD2    C3 7703   1.391   2.115  15.116 -0.1953 -0.3742  0.3770
  515MPD2    C4 7704   1.336   2.098  15.240  0.0368  0.4015  0.6077
  515MPD2    C5 7705   1.235   2.009  15.255  0.7034  0.1352  0.0356
  515MPD2     H 7706   1.384   2.057  14.913 -1.2944  1.0569 -0.4174
  515MPD2    H1 7707   1.381   2.146  15.326 -2.8603  1.3102  1.6014
  515MPD2    H2 7708   1.122   1.855  15.181  1.3270 -0.6765  1.7004
  515MPD2    H3 7709   1.211   1.986  15.358  2.9182  1.3923  0.8451
  515MPD2     N 7710   1.506   2.201  15.110 -0.4358 -0.5123  0.0486
  515MPD2    H5 7711   1.537   2.258  15.188  0.1727  0.4181 -0.8623
  515MPD2    N1 7712   1.191   1.873  14.923  0.1324  0.5717  0.2102
  515MPD2    H7 7713   1.132   1.799  14.959 -2.0425  1.8770 -0.6845
  516TMC3    C1 7714   1.145   1.803  14.699 -0.1754 -0.0179 -0.1342
  516TMC3    C2 7715   1.062   1.860  14.600 -0.0429 -0.5610  1.0709
  516TMC3    C3 7716   0.945   1.789  14.562 -0.4138 -0.3205 -0.1384
  516TMC3    C4 7717   1.117   1.680  14.749  0.3744 -0.0015 -0.3388
  516TMC3    C5 7718   1.010   1.613  14.697  1.3596 -0.8124  0.1664
  516TMC3    C6 7719   0.923   1.657  14.605  0.3991 -0.3858 -0.3291
  516TMC3     C 7720   1.203   1.902  14.788 -0.1242 -0.1341  0.0165
  516TMC3     O 7721   1.216   2.016  14.740  0.2311 -0.1047  0.4149
  516TMC3     H 7722   1.088   1.950  14.547 -1.1614 -0.9993 -0.2090
  516TMC3    H1 7723   1.176   1.639  14.830 -1.8292  1.2160  1.8994
  516TMC3    H2 7724   0.829   1.603  14.600  0.1190  0.2465 -1.8478
  516TMC3    C7 7725   0.999   1.477  14.758  0.1057 -0.2766  0.8046
  516TMC3    C8 7726   0.827   1.872  14.533  0.0199  0.4031  0.0557
  516TMC3    O1 7727   1.097   1.444  14.820 -0.0370  0.3700 -0.4230
  516TMC3    O2 7728   0.718   1.815  14.526  0.3354 -0.0133 -0.0230
  517MPD2     C 7729   1.237   2.793   0.594  0.1538  0.2942  0.5605
  517MPD2    C1 7730   1.252   2.918   0.536  0.0313 -0.2621  0.0547
  517MPD2    C2 7731   1.297   3.028   0.610 -0.2120 -0.8116 -0.9896
  517MPD2    C3 7732   1.350   3.009   0.739 -0.5383  0.1523  0.6147
  517MPD2    C4 7733   1.334   2.884   0.795  0.0225  0.1322  0.5049
  517MPD2    C5 7734   1.295   2.779   0.722 -0.5643 -0.4988  0.1485
  517MPD2     H 7735   1.296   3.127   0.565  0.7808 -0.5934 -0.5459
  517MPD2    H1 7736   1.366   2.859   0.895 -0.2390  1.4242  0.9090
  517MPD2    H2 7737   1.198   2.703   0.546 -1.3160  0.7409  0.9226
  517MPD2    H3 7738   1.289   2.681   0.769 -0.5690  0.4610  2.1495
  517MPD2     N 7739   1.397   3.111   0.824  0.4929  0.1134  0.5099
  517MPD2    H5 7740   1.389   3.092   0.923  1.1922 -0.8531  0.3842
  517MPD2    N1 7741   1.195   2.940   0.415  1.0760  0.0728 -0.3054
  517MPD2    H7 7742   1.199   3.036   0.383  1.5958 -0.4640 -1.8601
  518TMC3    C1 7743   1.085   2.925   0.208 -0.1968  0.3274  0.7498
  518TMC3    C2 7744   1.016   2.835   0.129  0.1213 -0.3939  0.5262
  518TMC3    C3 7745   1.037   2.842  17.736  0.1321 -0.3105  0.1587
  518TMC3    C4 7746   1.181   3.007   0.146  0.3596 -0.0952 -0.1340
  518TMC3    C5 7747   1.196   3.014   0.008 -0.0658  0.0530  0.1219
  518TMC3    C6 7748   1.118   2.929  17.668 -0.0339 -0.0589 -0.3034
  518TMC3     C 7749   1.118   2.860   0.337  0.1784  0.0086  0.4142
  518TMC3     O 7750   1.095   2.737   0.351  0.0721  0.6638  0.7233
  518TMC3     H 7751   0.952   2.767   0.183 -0.5822 -1.0010 -1.0863
  518TMC3    H1 7752   1.235   3.086   0.197  1.1646 -0.0008 -1.1307
  518TMC3    H2 7753   1.112   2.928  17.560  1.2524 -0.1150 -0.3742
  518TMC3    C7 7754   1.335   3.033  17.705  0.3699 -0.2740  0.3964
  518TMC3    C8 7755   0.978   2.739  17.650  0.1332  0.1570 -0.4738
  518TMC3    O1 7756   1.413   3.088   0.036  0.1955  0.3215 -0.1196
  518TMC3    O2 7757   1.029   2.720  17.538 -0.4778  0.8767  0.7079
  519MPD2     C 7758   2.346   1.548  14.483  0.6510 -0.6370  0.1835
  519MPD2    C1 7759   2.321   1.640  14.386 -0.0952  0.1973  0.9420
  519MPD2    C2 7760   2.432   1.681  14.314  0.0052 -0.2010  0.2818
  519MPD2    C3 7761   2.560   1.619  14.328  0.3929  0.3839  0.3326
  519MPD2    C4 7762   2.573   1.517  14.420  0.4640  0.4429 -0.4154
  519MPD2    C5 7763   2.463   1.482  14.497  1.1366 -0.2359  0.3562
  519MPD2     H 7764   2.411   1.747  14.230 -1.5095  1.2306  1.8043
  519MPD2    H1 7765   2.657   1.448  14.426  0.9516  1.2479  1.8314
  519MPD2    H2 7766   2.263   1.523  14.549  0.0787  1.1722  0.1499
  519MPD2    H3 7767   2.475   1.397  14.564 -0.0195  0.4384  1.4168
  519MPD2     N 7768   2.671   1.647  14.241 -0.0444 -0.3008  0.1163
  519MPD2    H5 7769   2.743   1.579  14.261 -1.0725 -2.2897 -2.9895
  519MPD2    N1 7770   2.190   1.694  14.367  0.0310  0.5464  0.0834
  519MPD2    H7 7771   2.113   1.650  14.415  0.6259  1.0149  1.4759
  520TMC3    C1 7772   2.786   1.731  14.055 -0.0942  0.4209  0.1383
  520TMC3    C2 7773   2.771   1.779  13.928 -0.6008 -0.2958  0.0536
  520TMC3    C3 7774   2.854   1.738  13.830  0.0135 -0.4339 -0.6629
  520TMC3    C4 7775   2.874   1.635  14.081  0.2722 -0.0462  0.7989
  520TMC3    C5 7776   2.955   1.592  13.984  0.2304  0.5967  0.0967
  520TMC3    C6 7777   2.949   1.637  13.858 -0.5951  0.7859 -0.3983
  520TMC3     C 7778   2.666   1.735  14.136  0.2945  0.0314  0.1756
  520TMC3     O 7779   2.568   1.788  14.082 -0.0660  0.4428  0.0003
  520TMC3     H 7780   2.705   1.859  13.899 -1.2648 -0.0614  2.1658
  520TMC3    H1 7781   2.898   1.606  14.182 -0.9801 -1.5827  0.6517
  520TMC3    H2 7782   3.001   1.594  13.773  0.1989 -0.3575  0.6632
  520TMC3    C7 7783   3.025   1.460  14.007  0.1678  0.3441 -0.4494
  520TMC3    C8 7784   2.815   1.752  13.693  0.6897  0.4498 -0.2448
  520TMC3    O1 7785   3.041   1.430  14.126  0.0564  0.0145  0.3127
  520TMC3    O2 7786   2.893   1.756  13.602  0.0309  0.6757  0.4886
  521MPD2     C 7787   3.409   4.051   0.178 -0.2000  0.1535 -0.0037
  521MPD2    C1 7788   3.369   4.032   0.045  1.0218 -0.1373 -0.6501
  521MPD2    C2 7789   3.469   4.020  17.693  0.1305  1.3341  0.3077
  521MPD2    C3 7790   3.599   4.005  17.729  0.6941  0.3499  0.5316
  521MPD2    C4 7791   3.637   4.018   0.115  0.6906 -0.0933 -0.4849
  521MPD2    C5 7792   3.538   4.037   0.212  0.2182 -0.0373  0.0395
  521MPD2     H 7793   3.440   4.024  17.588 -0.2634  0.9142  0.3996
  521MPD2    H1 7794   3.740   4.020   0.151 -0.3345 -1.3249  2.5100
  521MPD2    H2 7795   3.333   4.054   0.255 -1.3417 -1.2149 -1.0700
  521MPD2    H3 7796   3.559   4.037   0.318  3.1780 -0.3808 -0.5487
  521MPD2     N 7797   3.694   3.971  17.632 -0.4302 -0.2115 -0.1481
  521MPD2    H5 7798   3.669   3.983  17.534 -0.1794 -2.8745 -0.5380
  521MPD2    N1 7799   3.237   4.023   0.004 -0.2901  0.0301 -0.1415
  521MPD2    H7 7800   3.174   4.049   0.079  1.9624  1.0931  1.3725
  522TMC3    C1 7801   3.914   3.940  17.559  0.4317 -0.6627 -0.1242
  522TMC3    C2 7802   4.011   3.843  17.557  0.3867  0.0447 -0.5911
  522TMC3    C3 7803   4.093   3.838  17.450 -0.4996 -0.5490 -0.2125
  522TMC3    C4 7804   3.891   4.024  17.453 -0.1357  0.1646 -0.3878
  522TMC3    C5 7805   3.964   4.014  17.336  0.3490  0.3485 -1.2529
  522TMC3    C6 7806   4.064   3.923  17.345 -0.3642 -0.9015  0.1668
  522TMC3     C 7807   3.818   3.926  17.665 -0.9885  0.3445 -0.1129
  522TMC3     O 7808   3.841   3.855   0.018 -0.2198  0.0176 -0.2291
  522TMC3     H 7809   4.039   3.779  17.640 -0.3045 -1.1368 -1.2712
  522TMC3    H1 7810   3.819   4.104  17.466  0.5234  0.7634 -0.4508
  522TMC3    H2 7811   4.139   3.917  17.266  0.2616  1.2001  0.5854
  522TMC3    C7 7812   3.984   4.138  17.264 -0.0581  0.2114 -0.7244
  522TMC3    C8 7813   4.223   3.770  17.466  0.3443 -0.3722 -0.0210
  522TMC3    O1 7814   4.096   4.147  17.213 -0.5722  0.2055  0.4102
  522TMC3    O2 7815   4.268   3.746  17.575 -0.0406  0.3535  0.5797
  523MPD2     C 7816   2.162   4.705  10.426 -0.3294  0.1804 -0.0284
  523MPD2    C1 7817   2.024   4.681  10.415  0.2882  0.2356  0.5273
  523MPD2    C2 7818   1.930   0.047  10.422  0.0247  0.3309  0.5052
  523MPD2    C3 7819   1.978   0.179  10.442  0.4383  0.1651 -0.1521
  523MPD2    C4 7820   2.114   0.201  10.446 -0.4136  0.3838  0.0058
  523MPD2    C5 7821   2.196   0.095  10.447 -0.3832  0.4636 -0.3528
  523MPD2     H 7822   1.822   0.039  10.411 -0.2070  2.2018  1.4594
  523MPD2    H1 7823   2.160   0.295  10.473  1.5875  0.1219 -2.4897
  523MPD2    H2 7824   2.242   4.635  10.403  0.6113  1.0710  0.5009
  523MPD2    H3 7825   2.299   0.124  10.464 -0.7698  1.6234 -0.0128
  523MPD2     N 7826   1.899   0.295  10.451 -0.3415  0.0981 -0.3157
  523MPD2    H5 7827   1.954   0.378  10.474 -0.3898 -0.2597  1.0455
  523MPD2    N1 7828   1.985   4.549  10.382  0.5502  0.1342  0.7052
  523MPD2    H7 7829   2.060   4.480  10.378  0.4350  0.2019 -2.7058
  524TMC3    C1 7830   1.715   0.440  10.456  0.3834 -0.6940  0.2450
  524TMC3    C2 7831   1.794   0.557  10.452  0.0609  0.7747 -0.2643
  524TMC3    C3 7832   1.733   0.674  10.439 -0.4422 -0.0130 -0.0408
  524TMC3    C4 7833   1.580   0.445  10.483  0.4481 -0.3332  0.0915
  524TMC3    C5 7834   1.527   0.575  10.472  0.0225  0.1699 -0.4946
  524TMC3    C6 7835   1.600   0.687  10.454  0.1432 -0.2147 -0.1358
  524TMC3     C 7836   1.762   0.309  10.438  0.6994 -0.4463  0.4381
  524TMC3     O 7837   1.686   0.213  10.430 -0.0637 -0.6052 -0.2857
  524TMC3     H 7838   1.893   0.543  10.409 -0.1476  1.0139 -0.8222
  524TMC3    H1 7839   1.522   0.354  10.484  0.6190 -0.4379  1.7965
  524TMC3    H2 7840   1.554   0.784  10.438 -0.5351 -0.9056 -2.5006
  524TMC3    C7 7841   1.379   0.582  10.482 -0.4378 -0.2169  0.1385
  524TMC3    C8 7842   1.819   0.783  10.387  0.8580 -0.4866  0.0017
  524TMC3    O1 7843   1.330   0.482  10.531  0.0871  0.9970 -0.1472
  524TMC3    O2 7844   1.937   0.758  10.375 -0.2304 -0.2250 -0.1174
  525MPD2     C 7845   3.927   1.001  14.449  0.4790  0.0598 -0.3466
  525MPD2    C1 7846   4.010   1.030  14.555  0.2422 -0.0448  0.1741
  525MPD2    C2 7847   4.110   1.122  14.537 -0.4036  0.4458  1.1706
  525MPD2    C3 7848   4.110   1.205  14.428 -0.1878  0.3877 -0.8684
  525MPD2    C4 7849   4.025   1.172  14.323  0.1921  0.0874  0.0632
  525MPD2    C5 7850   3.937   1.068  14.328 -0.1616 -0.4367 -0.0934
  525MPD2     H 7851   4.170   1.159  14.620  0.7985  1.2202 -0.0464
  525MPD2    H1 7852   4.037   1.233  14.234  1.0483 -0.5341 -0.2525
  525MPD2    H2 7853   3.860   0.916  14.454 -1.0307  1.1731 -1.8437
  525MPD2    H3 7854   3.867   1.041  14.249  1.1410 -0.0322 -1.3869
  525MPD2     N 7855   4.186   1.321  14.409 -0.3495 -0.3309 -0.0336
  525MPD2    H5 7856   4.140   1.385  14.344  1.5402 -0.3205 -1.3864
  525MPD2    N1 7857   4.002   0.973  14.682  0.1838 -0.5347 -0.7359
  525MPD2    H7 7858   4.063   1.011  14.753 -1.7551  0.9390  0.1456
  526TMC3    C1 7859   3.939   0.811  14.853  1.2646  0.3858 -0.1536
  526TMC3    C2 7860   3.868   0.825  14.974  0.0936  0.2011  0.1486
  526TMC3    C3 7861   3.922   0.773  15.093 -0.7359 -0.1186 -0.6190
  526TMC3    C4 7862   4.065   0.763  14.856  0.1914  0.3558 -0.5641
  526TMC3    C5 7863   4.122   0.730  14.981 -0.4268 -0.0189 -0.2890
  526TMC3    C6 7864   4.051   0.732  15.099 -0.4636  0.2114 -0.2746
  526TMC3     C 7865   3.898   0.891  14.730 -0.5043  0.1939  0.0202
  526TMC3     O 7866   3.784   0.888  14.690 -0.0402  0.0706 -0.1329
  526TMC3     H 7867   3.763   0.853  14.969  0.4500  2.1009  3.0452
  526TMC3    H1 7868   4.118   0.769  14.761  1.6464  1.2416  0.3069
  526TMC3    H2 7869   4.096   0.691  15.189 -1.9958 -1.2499 -0.1684
  526TMC3    C7 7870   4.260   0.707  14.998  0.2953  0.6157  0.4012
  526TMC3    C8 7871   3.878   0.830  15.214 -0.6105 -0.1408 -0.4643
  526TMC3    O1 7872   4.296   0.679  15.108  0.0519 -0.5455  0.1319
  526TMC3    O2 7873   3.968   0.833  15.301 -0.4127  0.0316 -0.3253
  527MPD2     C 7874   2.001   3.683   1.766  0.2764 -0.1033  0.8393
  527MPD2    C1 7875   1.964   3.664   1.636 -0.0061  0.2127 -0.4383
  527MPD2    C2 7876   2.037   3.572   1.557  0.5461 -0.2071 -0.2976
  527MPD2    C3 7877   2.148   3.500   1.593  0.4016  0.0305  0.3394
  527MPD2    C4 7878   2.186   3.528   1.725 -0.6509  0.0595  0.0370
  527MPD2    C5 7879   2.117   3.617   1.812  0.2850 -0.0833 -0.4546
  527MPD2     H 7880   2.010   3.566   1.452 -0.5718 -0.4639  0.0011
  527MPD2    H1 7881   2.271   3.479   1.771  0.5970  2.4422  0.2322
  527MPD2    H2 7882   1.946   3.753   1.827 -0.6336  0.9895 -1.2141
  527MPD2    H3 7883   2.146   3.628   1.916 -2.9555  0.6237  0.3771
  527MPD2     N 7884   2.200   3.390   1.514  0.2458 -0.0901 -0.3657
  527MPD2    H5 7885   2.145   3.368   1.432 -0.1248  1.0798 -0.4349
  527MPD2    N1 7886   1.855   3.732   1.577 -0.2574  0.5047  0.5226
  527MPD2    H7 7887   1.845   3.724   1.476  0.2764  1.4176  0.3933
  528TMC3    C1 7888   1.645   3.840   1.559 -0.4412  0.3408  0.3459
  528TMC3    C2 7889   1.678   3.853   1.423 -0.6723  0.3422 -0.0451
  528TMC3    C3 7890   1.573   3.844   1.333  0.1443  0.3482 -0.2512
  528TMC3    C4 7891   1.520   3.798   1.591  0.8118 -0.3808  0.3240
  528TMC3    C5 7892   1.435   3.755   1.492  0.4820 -0.0638  0.2162
  528TMC3    C6 7893   1.452   3.783   1.359 -0.3896 -0.0985  0.0490
  528TMC3     C 7894   1.748   3.782   1.646 -0.0754 -0.0541 -0.4040
  528TMC3     O 7895   1.730   3.780   1.770 -0.3961 -0.0146  0.5797
  528TMC3     H 7896   1.768   3.903   1.390  0.4224  0.6540  3.3961
  528TMC3    H1 7897   1.508   3.769   1.695  3.5691 -0.8033  0.5272
  528TMC3    H2 7898   1.368   3.783   1.290 -0.6569  2.7154  0.3856
  528TMC3    C7 7899   1.315   3.676   1.530 -0.0841  0.8024  0.3196
  528TMC3    C8 7900   1.591   3.880   1.189  0.5817 -0.5162 -0.0658
  528TMC3    O1 7901   1.236   3.648   1.440 -0.2627 -0.4923 -0.3516
  528TMC3    O2 7902   1.552   3.799   1.105  0.6907  0.3433 -0.1843
  529MPD2     C 7903   3.483   1.615   0.744 -0.0570  0.1610  0.0184
  529MPD2    C1 7904   3.566   1.714   0.783  0.2570  0.5907 -0.2428
  529MPD2    C2 7905   3.565   1.830   0.713 -0.4587 -0.2108 -0.2050
  529MPD2    C3 7906   3.471   1.859   0.620 -0.2091  0.2893  0.2207
  529MPD2    C4 7907   3.379   1.759   0.597  0.6003  0.4569 -0.7074
  529MPD2    C5 7908   3.386   1.635   0.650 -0.0525  0.4001  0.0498
  529MPD2     H 7909   3.645   1.896   0.745  0.3637 -1.0568 -0.5280
  529MPD2    H1 7910   3.293   1.781   0.535  0.6177 -0.4875 -1.0752
  529MPD2    H2 7911   3.486   1.521   0.796 -0.4504  0.5265  0.6961
  529MPD2    H3 7912   3.313   1.560   0.622  2.3167 -2.0687  0.4975
  529MPD2     N 7913   3.465   1.976   0.543 -0.5269  0.1513 -0.1681
  529MPD2    H5 7914   3.374   2.003   0.506 -0.0227 -0.6545 -1.9806
  529MPD2    N1 7915   3.667   1.699   0.882  0.4168  0.3965  0.3875
  529MPD2    H7 7916   3.731   1.776   0.897  2.4235 -1.0321 -0.9066
  530TMC3    C1 7917   3.827   1.599   1.031  0.2845  0.6081 -0.8977
  530TMC3    C2 7918   3.872   1.729   1.061  0.7715  0.3676 -0.3666
  530TMC3    C3 7919   3.999   1.739   1.121  0.0796 -0.4446  0.0930
  530TMC3    C4 7920   3.900   1.488   1.066  0.4846 -0.3192 -0.0628
  530TMC3    C5 7921   4.022   1.508   1.134 -0.3659  0.9007 -0.1859
  530TMC3    C6 7922   4.072   1.630   1.156  0.1937  0.2124 -0.0311
  530TMC3     C 7923   3.707   1.583   0.946 -0.0403 -0.1861 -0.2300
  530TMC3     O 7924   3.661   1.471   0.944 -0.6543  0.2980  0.3170
  530TMC3     H 7925   3.820   1.818   1.029 -3.5755 -1.7656  0.7516
  530TMC3    H1 7926   3.865   1.389   1.038  1.4789 -0.2272 -1.5951
  530TMC3    H2 7927   4.170   1.638   1.201 -0.4995  0.9744  1.3509
  530TMC3    C7 7928   4.129   1.424   1.097 -0.0194 -0.1802 -0.5809
  530TMC3    C8 7929   4.073   1.853   1.083 -0.0680 -0.3921  0.1530
  530TMC3    O1 7930   4.229   1.471   1.046  0.9103  0.0855  0.1898
  530TMC3    O2 7931   4.017   1.965   1.085 -0.2321  0.1327 -0.1820
  531MPD2     C 7932   3.350   0.001  13.568  0.1725 -0.3979  0.2655
  531MPD2    C1 7933   3.345   0.132  13.534 -0.5219 -0.5521  0.0146
  531MPD2    C2 7934   3.276   0.181  13.427  0.9519 -0.1924  0.1598
  531MPD2    C3 7935   3.242   0.080  13.331 -0.5019  0.1040 -0.9562
  531MPD2    C4 7936   3.255   4.685  13.357 -0.6215  0.4180  0.4194
  531MPD2    C5 7937   3.303   4.650  13.480 -1.0797 -0.6440 -0.3139
  531MPD2     H 7938   3.269   0.286  13.402  0.2510 -0.2743  0.0011
  531MPD2    H1 7939   3.234   4.602  13.291  0.7195  0.5651 -0.1866
  531MPD2    H2 7940   3.395   4.713  13.663 -1.3057 -1.2912  0.7339
  531MPD2    H3 7941   3.310   4.545  13.505  1.6234  0.1224  2.2150
  531MPD2     N 7942   3.204   0.127  13.205  0.8313 -0.6807 -0.2068
  531MPD2    H5 7943   3.194   0.226  13.186 -0.1171 -0.6818  0.2425
  531MPD2    N1 7944   3.412   0.222  13.615  0.0547 -0.7996  0.0949
  531MPD2    H7 7945   3.453   0.184  13.700  0.5708  4.4089  2.1898
  532TMC3    C1 7946   3.531   0.409  13.663 -0.6750  0.0239  0.0360
  532TMC3    C2 7947   3.551   0.543  13.633  0.1790 -0.2842  0.2651
  532TMC3    C3 7948   3.676   0.601  13.609  0.4632  1.0454  0.3635
  532TMC3    C4 7949   3.649   0.339  13.680 -0.1777 -0.1009  0.6762
  532TMC3    C5 7950   3.769   0.395  13.647 -0.1321 -0.0800 -0.0168
  532TMC3    C6 7951   3.785   0.523  13.614 -0.4905  0.0480  0.4692
  532TMC3     C 7952   3.437   0.349  13.578  0.6352 -0.7197  1.1431
  532TMC3     O 7953   3.404   0.419  13.485 -0.1479 -0.3897  0.3238
  532TMC3     H 7954   3.455   0.593  13.621 -0.3781 -1.0524  1.5698
  532TMC3    H1 7955   3.639   0.231  13.694 -1.7843  0.0589  0.8045
  532TMC3    H2 7956   3.883   0.562  13.591 -0.6683  0.2275  0.0244
  532TMC3    C7 7957   3.882   0.303  13.611 -0.1930 -0.1256 -0.7570
  532TMC3    C8 7958   3.658   0.692  13.496 -0.6920  0.9257  0.3822
  532TMC3    O1 7959   3.994   0.351  13.623  0.0547 -0.1960 -0.4265
  532TMC3    O2 7960   3.725   0.796  13.483  0.7496  0.1459  0.3061
  533TMC3    C1 7961   4.310   1.511  14.476 -0.2042 -0.5275  0.3551
  533TMC3    C2 7962   4.427   1.555  14.537 -0.2387 -0.1224  0.6453
  533TMC3    C3 7963   4.432   1.689  14.585 -0.1197  0.3376  0.1981
  533TMC3    C4 7964   4.204   1.599  14.469 -0.5805 -1.1957 -0.1913
  533TMC3    C5 7965   4.212   1.721  14.533  0.7258 -0.2874 -0.2185
  533TMC3    C6 7966   4.326   1.773  14.579 -0.0688 -0.2514 -0.0011
  533TMC3     C 7967   4.278   1.366  14.498  0.1121 -0.0753 -0.0995
  533TMC3     O 7968   4.350   1.307  14.579 -0.1722 -0.0821  0.0936
  533TMC3     H 7969   4.512   1.488  14.545  0.7720  1.1277  0.5026
  533TMC3    H1 7970   4.105   1.560  14.448 -1.1825  0.5694 -0.6356
  533TMC3    H2 7971   4.329   1.879  14.598  0.6118  0.0484 -1.7902
  533TMC3    C7 7972   4.120   1.715  14.642 -0.0771  0.9912 -0.4308
  533TMC3    C8 7973   4.554   1.737  14.647  0.7917  0.0623  0.3399
  533TMC3    O1 7974   4.075   1.605  14.667 -0.5528  0.0232  0.0979
  533TMC3    O2 7975   4.658   1.668  14.650 -0.0787 -0.1783  0.3479
  534MPD2     C 7976   2.179   1.871   1.640 -0.0970  0.2417  0.3906
  534MPD2    C1 7977   2.227   1.974   1.566 -0.2280 -0.6043  0.7995
  534MPD2    C2 7978   2.179   2.005   1.445  0.5818  0.5026  0.6326
  534MPD2    C3 7979   2.068   1.948   1.398 -0.0444  0.0371 -0.0519
  534MPD2    C4 7980   2.015   1.841   1.473  0.2462  0.3974 -0.6817
  534MPD2    C5 7981   2.067   1.806   1.598 -0.5362  0.8381  0.0901
  534MPD2     H 7982   2.236   2.076   1.386 -0.4175 -0.0582 -0.9981
  534MPD2    H1 7983   1.946   1.770   1.429 -1.5829  1.5185  0.4054
  534MPD2    H2 7984   2.233   1.844   1.730  0.4958 -0.0162 -0.0464
  534MPD2    H3 7985   2.036   1.722   1.659  0.6720 -0.6610 -1.3849
  534MPD2     N 7986   2.012   1.971   1.271 -0.1862  0.5054 -0.2417
  534MPD2    H5 7987   1.925   1.923   1.253 -0.9563  1.8139 -0.0110
  534MPD2    N1 7988   2.327   2.065   1.612 -0.3754 -0.0642  0.2514
  534MPD2    H7 7989   2.351   2.141   1.549 -1.1979  0.6167  0.7561
  535TMC3    C1 7990   1.998   2.017   1.048  0.0289  0.2959 -0.5656
  535TMC3    C2 7991   1.925   1.899   1.036 -0.3094 -0.6580 -0.0278
  535TMC3    C3 7992   1.844   1.887   0.922 -0.6540  0.4376 -0.1319
  535TMC3    C4 7993   1.994   2.118   0.956  0.2945  0.3712 -0.0803
  535TMC3    C5 7994   1.904   2.102   0.859  0.2615 -0.4078  0.7794
  535TMC3    C6 7995   1.838   1.987   0.831 -0.9147  0.0502 -0.2385
  535TMC3     C 7996   2.068   2.047   1.171  0.7375  0.1563  0.1517
  535TMC3     O 7997   2.168   2.120   1.167 -0.6944  0.7636  0.0551
  535TMC3     H 7998   1.923   1.822   1.113 -2.0848  1.0807  1.6585
  535TMC3    H1 7999   2.064   2.199   0.966  0.3295  0.1363  1.6255
  535TMC3    H2 8000   1.780   1.969   0.741 -0.3641 -2.2063 -0.1364
  535TMC3    C7 8001   1.848   2.216   0.791 -0.5081 -0.0506  0.7146
  535TMC3    C8 8002   1.728   1.809   0.921  0.2737  0.5923  0.0424
  535TMC3    O1 8003   1.757   2.193   0.708  0.4025  0.0304 -0.4090
  535TMC3    O2 8004   1.633   1.841   0.855 -0.0906  0.3415 -0.3658
  536MPD2     C 8005   0.607   1.044  16.310 -0.2189  0.2153 -0.5525
  536MPD2    C1 8006   0.527   0.955  16.236  0.1435  0.3602 -0.0515
  536MPD2    C2 8007   0.478   0.995  16.112  0.0675 -0.2516  0.3626
  536MPD2    C3 8008   0.500   1.128  16.067  0.2486 -0.1133 -0.4062
  536MPD2    C4 8009   0.575   1.215  16.147  0.2640 -0.2860  0.8113
  536MPD2    C5 8010   0.620   1.174  16.269  0.3326 -0.7084  0.0257
  536MPD2     H 8011   0.402   0.936  16.062 -1.8588  0.5348  2.3264
  536MPD2    H1 8012   0.584   1.321  16.126 -0.0990 -0.4556 -0.2364
  536MPD2    H2 8013   0.636   1.010  16.409 -0.1840 -3.5415 -1.8678
  536MPD2    H3 8014   0.684   1.238  16.328 -0.7014  0.2567  0.1034
  536MPD2     N 8015   0.445   1.159  15.940 -0.5921 -0.0126 -0.1274
  536MPD2    H5 8016   0.394   1.089  15.886 -1.8605  1.0994 -0.3558
  536MPD2    N1 8017   0.500   0.839  16.307  0.1030  0.2587  0.4943
  536MPD2    H7 8018   0.548   0.836  16.396  1.9597  1.5119 -0.4576
  537TMC3    C1 8019   0.425   0.620  16.349 -0.2533  0.7914  0.2725
  537TMC3    C2 8020   0.548   0.594  16.410 -0.3484  0.2918  0.2087
  537TMC3    C3 8021   0.547   0.522  16.528  0.0317  1.0569  0.3352
  537TMC3    C4 8022   0.309   0.560  16.383 -0.3994  0.3604  0.2817
  537TMC3    C5 8023   0.326   0.467  16.483  0.5730 -0.6956 -0.4807
  537TMC3    C6 8024   0.431   0.459  16.571  0.5235 -0.7077  0.4176
  537TMC3     C 8025   0.419   0.734  16.264 -1.1543 -0.1612  0.3591
  537TMC3     O 8026   0.327   0.740  16.182  1.2704 -0.3130  0.0557
  537TMC3     H 8027   0.640   0.630  16.365 -0.6581  1.7032  0.7066
  537TMC3    H1 8028   0.216   0.589  16.335 -0.1949 -2.5643 -1.8764
  537TMC3    H2 8029   0.426   0.412  16.669  2.8711 -1.5359  0.1301
  537TMC3    C7 8030   0.199   0.400  16.511  0.2318  0.1094 -0.0092
  537TMC3    C8 8031   0.666   0.540  16.617 -0.7312  0.4435 -0.7043
  537TMC3    O1 8032   0.100   0.451  16.467  0.5749  0.5545 -0.4219
  537TMC3    O2 8033   0.761   0.605  16.572 -0.1505 -0.0351  0.6314
  538TMC3    C1 8034   2.082   4.053  10.836  0.5993  0.7900 -0.5403
  538TMC3    C2 8035   2.199   4.120  10.843 -0.1391 -0.1922  0.3359
  538TMC3    C3 8036   2.210   4.229  10.763  0.0148 -0.5248 -0.0427
  538TMC3    C4 8037   1.978   4.109  10.768 -0.7178  0.0721  0.0040
  538TMC3    C5 8038   1.991   4.231  10.708  0.4161  0.2884 -0.4694
  538TMC3    C6 8039   2.112   4.296  10.700 -0.5033 -0.2846  0.2641
  538TMC3     C 8040   2.044   4.026  10.971 -0.0892 -0.3182  0.1926
  538TMC3     O 8041   2.132   4.047  11.057  0.2577  0.3956  0.1683
  538TMC3     H 8042   2.284   4.062  10.879 -0.3682 -0.5189  0.3536
  538TMC3    H1 8043   1.884   4.056  10.763  0.4235 -1.8468 -1.1732
  538TMC3    H2 8044   2.129   4.394  10.656 -0.1300 -0.5106 -0.0918
  538TMC3    C7 8045   1.865   4.300  10.689  0.2740 -0.7221 -0.3036
  538TMC3    C8 8046   2.344   4.290  10.751 -0.1961  0.8273 -0.1528
  538TMC3    O1 8047   1.771   4.229  10.650 -0.2519 -0.1695 -0.4407
  538TMC3    O2 8048   2.370   4.368  10.660 -0.3584 -0.1983 -0.2593
  539MPD2     C 8049   1.438   3.049  11.566  0.4858  0.0539 -0.7192
  539MPD2    C1 8050   1.523   3.140  11.505 -0.3687  0.0956  0.2350
  539MPD2    C2 8051   1.474   3.265  11.477 -0.4210  0.2953 -0.3248
  539MPD2    C3 8052   1.342   3.300  11.498  0.3306 -0.0241 -0.6921
  539MPD2    C4 8053   1.256   3.204  11.542 -0.6469 -0.0939  0.2828
  539MPD2    C5 8054   1.304   3.078  11.575  0.1420 -0.7697 -0.0707
  539MPD2     H 8055   1.546   3.339  11.444  0.8720 -0.4331  0.8460
  539MPD2    H1 8056   1.150   3.224  11.552 -0.5242  0.6940 -0.0162
  539MPD2    H2 8057   1.459   2.947  11.597 -1.0680  0.2367  0.9544
  539MPD2    H3 8058   1.230   3.006  11.608 -0.1974 -1.2588 -1.9237
  539MPD2     N 8059   1.291   3.436  11.490 -0.3908 -0.3421  0.0225
  539MPD2    H5 8060   1.192   3.449  11.506 -0.2254 -1.9375  2.4269
  539MPD2    N1 8061   1.661   3.118  11.479 -0.6533 -0.1943 -0.4709
  539MPD2    H7 8062   1.695   3.187  11.413  0.3605 -1.0525 -0.8341
  540TMC3    C1 8063   1.281   3.663  11.463  0.2603  0.2264 -0.1118
  540TMC3    C2 8064   1.337   3.764  11.397 -0.2810 -0.5106 -0.2889
  540TMC3    C3 8065   1.308   3.890  11.424 -0.4015  0.2326 -0.0436
  540TMC3    C4 8066   1.208   3.691  11.572 -0.0425 -0.3876 -0.5477
  540TMC3    C5 8067   1.203   3.819  11.622 -0.1677  0.1386  0.8231
  540TMC3    C6 8068   1.246   3.927  11.537 -0.5104  0.1768 -0.2215
  540TMC3     C 8069   1.367   3.546  11.459  0.1440 -0.2186  0.6698
  540TMC3     O 8070   1.489   3.555  11.457  0.3508 -0.0227  0.0372
  540TMC3     H 8071   1.399   3.738  11.312  0.0888  0.3361 -0.2731
  540TMC3    H1 8072   1.180   3.607  11.634 -2.0099 -0.0859 -1.0245
  540TMC3    H2 8073   1.219   4.031  11.551  1.4592  0.4589  1.6044
  540TMC3    C7 8074   1.096   3.831  11.718  0.0853  0.4661 -0.4948
  540TMC3    C8 8075   1.336   4.003  11.331 -0.3958 -0.3684  0.6891
  540TMC3    O1 8076   1.014   3.738  11.728  0.2981 -0.4613 -0.2984
  540TMC3    O2 8077   1.335   4.116  11.372 -0.1420 -0.3320  0.2548
  541MPD2     C 8078   0.086   0.437  13.356  0.4554  0.0435  0.7173
  541MPD2    C1 8079   0.088   0.339  13.257 -1.0068  0.0871  0.1174
  541MPD2    C2 8080   0.114   0.379  13.124  0.3137 -0.0201  0.2960
  541MPD2    C3 8081   0.126   0.515  13.098 -0.4378 -0.0940  0.4224
  541MPD2    C4 8082   0.105   0.607  13.198 -0.0793 -0.1704  0.2101
  541MPD2    C5 8083   0.093   0.567  13.326  0.4684  0.2320 -0.4880
  541MPD2     H 8084   0.127   0.301  13.050  0.3960  2.1348 -1.9653
  541MPD2    H1 8085   0.115   0.713  13.178 -1.1247  0.1419  1.3277
  541MPD2    H2 8086   0.079   0.419  13.463  1.3744  0.3935  0.8363
  541MPD2    H3 8087   0.078   0.647  13.398 -1.4295 -0.2267 -0.3891
  541MPD2     N 8088   0.143   0.561  12.962 -0.2501 -0.5396  0.1014
  541MPD2    H5 8089   0.146   0.661  12.945 -1.1993 -0.0560  2.6802
  541MPD2    N1 8090   0.064   0.205  13.283 -0.3276 -0.5544  0.2989
  541MPD2    H7 8091   0.039   0.144  13.205 -1.4763 -0.7783  0.8379
  542TMC3    C1 8092   0.138   0.550  12.722  0.6080  0.6201 -0.3860
  542TMC3    C2 8093   0.140   0.468  12.620 -0.2959  0.0816  0.0101
  542TMC3    C3 8094   0.042   0.489  12.525  0.7641  0.2875 -0.6185
  542TMC3    C4 8095   0.059   0.659  12.727  0.0738 -0.3748  0.6160
  542TMC3    C5 8096   4.707   0.683  12.624  0.2873  0.0050  0.2061
  542TMC3    C6 8097   4.696   0.594  12.527 -0.3849  0.2444  0.0088
  542TMC3     C 8098   0.170   0.485  12.854  0.0624  0.0900 -0.1550
  542TMC3     O 8099   0.190   0.364  12.844 -0.6151 -0.0191  0.4162
  542TMC3     H 8100   0.223   0.401  12.603 -0.5339 -0.6137  1.5676
  542TMC3    H1 8101   0.072   0.730  12.807 -0.6693  0.8395 -0.3493
  542TMC3    H2 8102   4.615   0.589  12.455  0.2290 -1.4182 -0.5505
  542TMC3    C7 8103   4.641   0.812  12.626 -0.2473  0.1571 -0.0983
  542TMC3    C8 8104   0.057   0.423  12.399  0.2308 -0.0224  0.1365
  542TMC3    O1 8105   4.613   0.870  12.730 -0.5505  0.5880 -0.3152
  542TMC3    O2 8106   0.003   0.472  12.302 -0.4805 -0.3771 -0.2172
  543TMC3    C1 8107   3.916   1.486  17.247  0.5593 -0.4003  0.2673
  543TMC3    C2 8108   3.940   1.363  17.306 -0.2818 -0.9456  0.4195
  543TMC3    C3 8109   3.860   1.327  17.411  0.0852 -0.9741 -0.6436
  543TMC3    C4 8110   3.826   1.576  17.300  0.5005 -0.1310 -0.1506
  543TMC3    C5 8111   3.743   1.528  17.400  0.4025 -0.0651 -0.5272
  543TMC3    C6 8112   3.760   1.403  17.459 -0.5223 -0.9958 -0.3350
  543TMC3     C 8113   3.993   1.514  17.126  0.2455 -0.0896  0.5563
  543TMC3     O 8114   4.067   1.425  17.091 -0.6828  0.0799 -0.2176
  543TMC3     H 8115   4.007   1.290  17.261 -1.0952 -1.5557  0.1906
  543TMC3    H1 8116   3.791   1.663  17.246  0.1161  0.1332  0.5311
  543TMC3    H2 8117   3.699   1.373  17.543  1.0727 -2.5773  0.2510
  543TMC3    C7 8118   3.653   1.624  17.469  0.0345 -0.5362 -0.2632
  543TMC3    C8 8119   3.876   1.187  17.439  1.1088  0.7099 -0.2165
  543TMC3    O1 8120   3.575   1.561  17.535  0.5145  0.3343 -0.0415
  543TMC3    O2 8121   3.944   1.119  17.360 -0.0499  0.2655 -0.0964
  544MPD2     C 8122   3.854   0.775  17.736  0.5281  0.1841  1.1205
  544MPD2    C1 8123   3.881   0.791  17.603 -0.3733  0.5909  0.3134
  544MPD2    C2 8124   3.870   0.911  17.546 -0.3513  0.3764  0.8788
  544MPD2    C3 8125   3.848   1.019  17.619 -0.4766  0.1498  0.7308
  544MPD2    C4 8126   3.812   1.002   0.006 -0.4174 -0.0775 -0.6502
  544MPD2    C5 8127   3.825   0.884   0.063 -0.0617  0.4799 -0.0098
  544MPD2     H 8128   3.874   0.928  17.439  2.0363  1.5137  1.1353
  544MPD2    H1 8129   3.793   1.090   0.066 -0.0553  0.4256 -1.2759
  544MPD2    H2 8130   3.856   0.676   0.037  0.6548 -0.3571 -0.0717
  544MPD2    H3 8131   3.802   0.866   0.167  0.2433  1.0378  0.1568
  544MPD2     N 8132   3.836   1.150  17.564  0.1381  0.1916 -0.2194
  544MPD2    H5 8133   3.788   1.217  17.623  1.7759  1.1043  0.0842
  544MPD2    N1 8134   3.936   0.672  17.539 -0.2463  0.0056 -0.2745
  544MPD2    H7 8135   3.976   0.597  17.594  0.8069  1.0072  0.3514
  545TMC3    C1 8136   4.046   0.543  17.384 -0.2718 -0.9454  0.1755
  545TMC3    C2 8137   4.174   0.550  17.336 -0.3334 -0.6793 -0.4591
  545TMC3    C3 8138   4.253   0.436  17.355 -0.0593 -0.3457 -0.2334
  545TMC3    C4 8139   3.995   0.435  17.446 -0.1260  0.2031  0.8108
  545TMC3    C5 8140   4.073   0.327  17.464  0.0313 -0.6012 -0.2142
  545TMC3    C6 8141   4.199   0.323  17.415  0.2199  0.3137  0.5577
  545TMC3     C 8142   3.984   0.670  17.412  0.5461 -0.0468 -0.4899
  545TMC3     O 8143   3.991   0.753  17.322 -0.1909 -0.6412 -0.4294
  545TMC3     H 8144   4.209   0.642  17.291 -2.0620  1.4073  2.4053
  545TMC3    H1 8145   3.891   0.438  17.476 -0.4041  0.7950 -0.2097
  545TMC3    H2 8146   4.264   0.237  17.423 -1.4700 -1.1535 -1.6176
  545TMC3    C7 8147   4.007   0.201  17.490 -0.0909  0.6330 -0.0990
  545TMC3    C8 8148   4.396   0.443  17.321 -0.2752  0.4885  0.0531
  545TMC3    O1 8149   3.884   0.203  17.481 -0.2519 -0.1094  0.1123
  545TMC3    O2 8150   4.458   0.340  17.340  0.0137  0.3904  0.1539
  546MPD2     C 8151   0.643   1.548  16.629 -0.2065  0.3916  0.6458
  546MPD2    C1 8152   0.622   1.527  16.766 -0.6786  0.4999  0.2981
  546MPD2    C2 8153   0.652   1.627  16.857 -0.1443 -0.2232  0.0377
  546MPD2    C3 8154   0.699   1.752  16.822 -0.1302 -0.6950 -0.0580
  546MPD2    C4 8155   0.722   1.778  16.689 -0.4961 -0.1638 -0.0054
  546MPD2    C5 8156   0.692   1.679  16.596  0.5788 -0.1473 -0.2276
  546MPD2     H 8157   0.634   1.597  16.960  0.6900  3.5779  1.2892
  546MPD2    H1 8158   0.762   1.873  16.658 -0.4918 -0.3662 -0.6094
  546MPD2    H2 8159   0.630   1.469  16.556  0.5646 -1.3318  2.3815
  546MPD2    H3 8160   0.705   1.704  16.491 -1.0331 -0.1137 -0.4166
  546MPD2     N 8161   0.745   1.854  16.908  0.4583 -0.1247 -0.1132
  546MPD2    H5 8162   0.780   1.942  16.870 -1.8179  1.1357  0.7181
  546MPD2    N1 8163   0.568   1.398  16.803 -0.0519  0.0884 -0.4493
  546MPD2    H7 8164   0.536   1.338  16.728  0.5449 -2.9867  1.7530
  547TMC3    C1 8165   0.490   1.215  16.930 -0.2232  0.2314  0.1695
  547TMC3    C2 8166   0.383   1.188  16.850 -0.4691 -0.5175  0.9696
  547TMC3    C3 8167   0.297   1.086  16.885 -0.3631 -0.4570  0.0443
  547TMC3    C4 8168   0.521   1.142  17.038 -0.2514  0.1927 -0.4819
  547TMC3    C5 8169   0.443   1.026  17.063  0.0788  0.9624 -0.1142
  547TMC3    C6 8170   0.323   1.008  16.991  0.0238 -0.4158  0.7316
  547TMC3     C 8171   0.555   1.345  16.927  0.2158 -0.9096 -0.0322
  547TMC3     O 8172   0.597   1.386  17.031  0.0979  0.4893  0.1285
  547TMC3     H 8173   0.353   1.252  16.767 -1.8945 -1.8606  0.4613
  547TMC3    H1 8174   0.604   1.174  17.100 -0.0392 -1.0923 -0.0869
  547TMC3    H2 8175   0.260   0.926  17.023  0.2782 -0.7444  0.4015
  547TMC3    C7 8176   0.480   0.927  17.157  0.0534  0.0499 -0.1322
  547TMC3    C8 8177   0.175   1.083  16.816 -0.0652 -0.7201 -0.1372
  547TMC3    O1 8178   0.401   0.853  17.210  0.6138 -0.6888 -0.0707
  547TMC3    O2 8179   0.158   1.160  16.725  0.1587 -0.3871  0.0166
  548MPD2     C 8180   0.904   2.014  12.807 -0.7406  0.1449  0.0271
  548MPD2    C1 8181   0.849   1.925  12.896  0.1490 -0.4042  0.2223
  548MPD2    C2 8182   0.928   1.832  12.952  0.2736  0.0817 -0.0899
  548MPD2    C3 8183   1.062   1.828  12.922  0.3735 -0.1642 -0.6562
  548MPD2    C4 8184   1.120   1.918  12.845  0.3731 -1.3240  0.6093
  548MPD2    C5 8185   1.042   2.011  12.790  0.3888 -1.0872 -0.2265
  548MPD2     H 8186   0.872   1.760  13.011  0.5805  0.0635  0.1807
  548MPD2    H1 8187   1.226   1.910  12.825  0.6631  3.0499  0.3909
  548MPD2    H2 8188   0.851   2.095  12.758 -1.1597  1.1656  2.1428
  548MPD2    H3 8189   1.091   2.082  12.724 -1.0551  1.7117  1.6885
  548MPD2     N 8190   1.113   1.708  12.973  0.0476  0.8019  0.5042
  548MPD2    H5 8191   1.055   1.651  13.033  0.4223 -1.9581 -1.7489
  548MPD2    N1 8192   0.716   1.937  12.915 -0.8308 -0.3157 -0.3552
  548MPD2    H7 8193   0.665   2.009  12.864 -1.1218 -0.4144 -0.2035
  549TMC3    C1 8194   0.495   1.891  12.971 -0.5707 -1.1830 -0.4909
  549TMC3    C2 8195   0.457   1.988  12.883 -0.9001  0.9313  0.3849
  549TMC3    C3 8196   0.320   1.993  12.860  0.5660  0.2415  0.8890
  549TMC3    C4 8197   0.415   1.804  13.030 -0.2751 -0.0049 -0.2757
  549TMC3    C5 8198   0.284   1.798  12.991  0.0773 -0.7673 -0.0762
  549TMC3    C6 8199   0.238   1.896  12.912 -0.0266  0.2844  0.8103
  549TMC3     C 8200   0.638   1.865  12.998 -0.1808  0.3092 -0.1670
  549TMC3     O 8201   0.663   1.780  13.081 -0.3223  0.0937  0.0942
  549TMC3     H 8202   0.527   2.054  12.833 -0.5067 -1.1107 -1.7375
  549TMC3    H1 8203   0.455   1.720  13.086  1.3624  0.0028 -1.4337
  549TMC3    H2 8204   0.133   1.893  12.887 -0.3335  0.4344  2.0843
  549TMC3    C7 8205   0.190   1.694  13.035  0.0586 -0.8007  0.5288
  549TMC3    C8 8206   0.261   2.097  12.782 -0.1509 -0.0953 -0.6155
  549TMC3    O1 8207   0.075   1.711  13.001 -0.0733 -0.2038  0.3786
  549TMC3    O2 8208   0.161   2.073  12.712  0.3029 -0.0194  0.1086
  550TMC3    C1 8209   4.500   0.082  12.344 -0.5749 -0.2121 -0.2119
  550TMC3    C2 8210   4.515   0.126  12.479  0.2213  0.6787  0.4736
  550TMC3    C3 8211   4.500   0.258  12.495  0.3487 -0.5644 -0.1900
  550TMC3    C4 8212   4.485   0.169  12.233 -0.5318  0.2795  0.4994
  550TMC3    C5 8213   4.474   0.304  12.265  0.3775 -0.1311 -0.0077
  550TMC3    C6 8214   4.476   0.348  12.394  0.6860  0.3786 -0.0903
  550TMC3     C 8215   4.528   4.682  12.312  0.9689 -0.4385 -0.6040
  550TMC3     O 8216   4.565   4.613  12.406  0.0616 -0.1629 -0.1533
  550TMC3     H 8217   4.554   0.057  12.553  0.0248 -1.2226 -1.1737
  550TMC3    H1 8218   4.480   0.132  12.131 -0.4142 -0.2828  0.6954
  550TMC3    H2 8219   4.449   0.451  12.415 -0.1928  0.8614 -3.4781
  550TMC3    C7 8220   4.397   0.381  12.176 -0.2026  0.3410 -0.0816
  550TMC3    C8 8221   4.445   0.312  12.619 -0.1027  0.2964 -0.1658
  550TMC3    O1 8222   4.301   0.449  12.220 -0.4448  0.8906 -0.3783
  550TMC3    O2 8223   4.431   0.434  12.633 -0.6047 -0.3622  0.0726
  551TMC3    C1 8224   1.527   2.974  13.516 -0.1959 -0.3460  0.3747
  551TMC3    C2 8225   1.560   3.060  13.413 -0.1241 -0.3626  0.3044
  551TMC3    C3 8226   1.682   3.129  13.413 -0.3454 -0.6734 -0.0474
  551TMC3    C4 8227   1.591   2.980  13.635  0.4726 -0.1557 -0.1123
  551TMC3    C5 8228   1.706   3.057  13.635  0.4388 -0.8979  0.0862
  551TMC3    C6 8229   1.751   3.137  13.533 -0.1384 -0.1947 -0.6704
  551TMC3     C 8230   1.405   2.904  13.500 -0.2092 -0.6814  0.8189
  551TMC3     O 8231   1.377   2.878  13.381  0.1723  0.2040 -1.2180
  551TMC3     H 8232   1.494   3.056  13.327  2.7974 -1.4073 -1.9013
  551TMC3    H1 8233   1.557   2.919  13.718  0.1746  0.8710  0.5174
  551TMC3    H2 8234   1.831   3.210  13.542 -0.5877  0.2873 -0.6009
  551TMC3    C7 8235   1.796   3.032  13.743  0.0552  0.5229  0.3429
  551TMC3    C8 8236   1.720   3.187  13.288  0.1513 -0.1438  0.2612
  551TMC3    O1 8237   1.748   2.995  13.852 -0.2588 -0.4515 -0.4633
  551TMC3    O2 8238   1.636   3.180  13.198  0.2878 -0.6519 -0.2352
  552MPD2     C 8239   3.330   4.580  14.331  0.7835 -0.2844 -0.7511
  552MPD2    C1 8240   3.416   4.485  14.287 -0.6847  0.8240 -0.3807
  552MPD2    C2 8241   3.552   4.492  14.324 -0.4218 -0.4356  0.0831
  552MPD2    C3 8242   3.588   4.598  14.409 -0.0189  0.4831 -0.4278
  552MPD2    C4 8243   3.496   4.687  14.458 -0.6178 -0.2174 -0.8614
  552MPD2    C5 8244   3.366   4.681  14.418 -0.6886 -0.0102  0.0005
  552MPD2     H 8245   3.620   4.415  14.291 -0.1846  0.0834 -0.6353
  552MPD2    H1 8246   3.522   0.033  14.524 -2.9819  1.9971 -2.6492
  552MPD2    H2 8247   3.230   4.588  14.291  0.8533 -0.3107 -0.9293
  552MPD2    H3 8248   3.296   0.023  14.443  2.1974  1.0789  4.6683
  552MPD2     N 8249   3.723   4.618  14.453  0.0938 -0.4991  0.0927
  552MPD2    H5 8250   3.731   4.673  14.538  0.0159 -2.2038  1.1983
  552MPD2    N1 8251   3.378   4.377  14.201  0.5192 -0.9591  0.5479
  552MPD2    H7 8252   3.447   4.311  14.167  3.5806  2.3790  0.2849
  553TMC3    C1 8253   3.227   4.210  14.124 -0.1585  0.2466  0.0791
  553TMC3    C2 8254   3.125   4.213  14.023 -0.0103  0.3484 -0.1156
  553TMC3    C3 8255   3.137   4.132  13.911 -0.0994  0.1664  0.7383
  553TMC3    C4 8256   3.325   4.118  14.116 -0.0560 -0.1092 -0.0892
  553TMC3    C5 8257   3.338   4.039  14.008 -0.1666  0.2541  0.2846
  553TMC3    C6 8258   3.247   4.050  13.908  0.4686  0.4529  0.5554
  553TMC3     C 8259   3.245   4.335  14.190  0.4773 -1.0129  1.0044
  553TMC3     O 8260   3.146   4.387  14.230 -0.3715 -0.2601  0.1333
  553TMC3     H 8261   3.046   4.287  14.028 -0.0179  0.1947  2.0726
  553TMC3    H1 8262   3.404   4.123  14.190 -1.8346  0.1942  1.7815
  553TMC3    H2 8263   3.271   3.988  13.822  0.5257  0.1104  0.8195
  553TMC3    C7 8264   3.453   3.947  13.981  0.7449 -0.7354 -0.2524
  553TMC3    C8 8265   3.076   4.186  13.791 -0.2786 -0.3103  0.3401
  553TMC3    O1 8266   3.426   3.836  13.937  0.3800 -0.2470  0.5999
  553TMC3    O2 8267   2.992   4.273  13.806 -0.3452  0.4450 -0.1459
  554TMC3    C1 8268   0.683   3.579  11.591 -0.3621  0.7424  0.4359
  554TMC3    C2 8269   0.678   3.459  11.522  0.6204  0.1015  0.0373
  554TMC3    C3 8270   0.761   3.446  11.409 -0.0740  0.3364 -0.5066
  554TMC3    C4 8271   0.755   3.685  11.547  0.1696 -0.0340  0.3928
  554TMC3    C5 8272   0.845   3.663  11.451 -0.4797 -0.0605  0.7300
  554TMC3    C6 8273   0.858   3.543  11.388 -0.0983  0.5255 -0.0153
  554TMC3     C 8274   0.650   3.587  11.733  0.0703  0.1470  0.1850
  554TMC3     O 8275   0.649   3.697  11.789  0.6915  0.3480 -0.4593
  554TMC3     H 8276   0.621   3.378  11.567  0.8457  0.2064  0.5141
  554TMC3    H1 8277   0.748   3.777  11.604  1.3619  0.6164 -0.4789
  554TMC3    H2 8278   0.923   3.523  11.304 -1.9899 -1.4122 -1.0133
  554TMC3    C7 8279   0.917   3.770  11.393  0.1063  0.3982 -0.1820
  554TMC3    C8 8280   0.702   3.406  11.279 -0.1320  0.1611  0.1577
  554TMC3    O1 8281   1.002   3.741  11.311 -0.0690  0.2380  0.1005
  554TMC3    O2 8282   0.747   3.437  11.172  0.2347 -0.4510 -0.0253
  555TMC3    C1 8283   4.221   3.419  15.524  0.2898  0.2652 -0.5649
  555TMC3    C2 8284   4.277   3.469  15.640 -0.0214  0.0644 -0.2444
  555TMC3    C3 8285   4.393   3.417  15.676  0.3849 -1.0760 -0.7723
  555TMC3    C4 8286   4.282   3.330  15.441 -0.0975 -0.3858  0.4770
  555TMC3    C5 8287   4.390   3.263  15.487 -0.7557  0.3386  0.3288
  555TMC3    C6 8288   4.457   3.313  15.605  0.1024  0.4260 -0.3441
  555TMC3     C 8289   4.097   3.492  15.488 -0.4697  0.0411  0.2539
  555TMC3     O 8290   4.056   3.577  15.567  0.4031 -0.6953 -0.0456
  555TMC3     H 8291   4.219   3.533  15.705  0.9811  0.1637  0.5571
  555TMC3    H1 8292   4.230   3.292  15.354 -2.8368 -0.2306  2.0500
  555TMC3    H2 8293   4.556   3.277  15.631 -0.0976  0.1667  0.0607
  555TMC3    C7 8294   4.454   3.161  15.409  0.5576  0.5332 -0.1486
  555TMC3    C8 8295   4.449   3.466  15.804 -0.1343  0.1729 -0.1546
  555TMC3    O1 8296   4.577   3.171  15.410  0.1537 -0.2495  0.4835
  555TMC3    O2 8297   4.431   3.584  15.819  0.0516 -0.1663 -0.1690
  556MPD2     C 8298   3.286   0.433  10.836  0.0694 -0.1146 -0.0619
  556MPD2    C1 8299   3.159   0.390  10.869 -0.6509  0.0457  0.0397
  556MPD2    C2 8300   3.097   0.284  10.796 -0.6096  0.0226  0.3804
  556MPD2    C3 8301   3.164   0.220  10.691  0.7760 -0.3658  0.3207
  556MPD2    C4 8302   3.289   0.271  10.655  0.7088 -0.0726  0.0379
  556MPD2    C5 8303   3.350   0.375  10.724 -0.4251  0.3817 -0.1230
  556MPD2     H 8304   3.009   0.238  10.839  0.1655 -1.3454  0.4898
  556MPD2    H1 8305   3.334   0.219  10.571  1.2233 -0.4972  0.5774
  556MPD2    H2 8306   3.332   0.514  10.891 -1.2886  0.1942  0.6198
  556MPD2    H3 8307   3.450   0.406  10.697 -0.2705 -0.3940 -0.4377
  556MPD2     N 8308   3.102   0.116  10.616  0.1985 -0.2700  0.1510
  556MPD2    H5 8309   3.019   0.075  10.659 -1.5961  1.4842 -1.6293
  556MPD2    N1 8310   3.093   0.424  10.984  0.6233 -0.5262  0.0697
  556MPD2    H7 8311   2.999   0.387  10.998  0.7975  0.6856  4.4562
  557TMC3    C1 8312   3.054   4.696  10.442 -0.2071  0.5638 -0.2774
  557TMC3    C2 8313   3.019   4.697  10.309 -0.6600 -0.2558 -0.0756
  557TMC3    C3 8314   2.938   4.595  10.261  0.3618  0.0042  0.4195
  557TMC3    C4 8315   3.016   4.600  10.530  0.8807  0.0168  0.3037
  557TMC3    C5 8316   2.932   4.508  10.478 -0.4647  0.0180 -0.9354
  557TMC3    C6 8317   2.895   4.498  10.343  0.5396 -0.6164  0.0281
  557TMC3     C 8318   3.133   0.073  10.485  0.7086 -0.1242  0.5026
  557TMC3     O 8319   3.212   0.119  10.401 -0.8893  0.4038 -0.3658
  557TMC3     H 8320   3.054   0.046  10.252  1.2684 -1.2515 -0.3924
  557TMC3    H1 8321   3.032   4.603  10.637 -1.0201  0.2756  0.5736
  557TMC3    H2 8322   2.817   4.429  10.311 -1.5327  1.6773  0.1269
  557TMC3    C7 8323   2.840   4.434  10.562 -0.6135  0.0963  0.3260
  557TMC3    C8 8324   2.857   4.624  10.144 -0.5138 -0.3169  0.1304
  557TMC3    O1 8325   2.760   4.361  10.507 -0.0291 -0.1030  0.0738
  557TMC3    O2 8326   2.844   0.006  10.116  0.0928  0.0916 -0.4482
  558TMC3    C1 8327   0.325   2.659  10.510  0.5983  0.5738 -0.0517
  558TMC3    C2 8328   0.217   2.605  10.569  1.0257 -0.8570  0.9270
  558TMC3    C3 8329   0.104   2.579  10.490 -0.2762  0.4678 -0.0396
  558TMC3    C4 8330   0.340   2.663  10.379 -0.0453  0.4556 -0.1852
  558TMC3    C5 8331   0.241   2.619  10.304 -0.0422  0.3478  0.1858
  558TMC3    C6 8332   0.120   2.576  10.353  1.0364  0.6557 -0.7070
  558TMC3     C 8333   0.441   2.709  10.584  0.0591 -0.8812  0.2252
  558TMC3     O 8334   0.546   2.730  10.525 -0.2328  0.6379 -0.7064
  558TMC3     H 8335   0.215   2.593  10.676 -0.4777 -2.6038  0.6956
  558TMC3    H1 8336   0.430   2.686  10.325  0.4294 -0.5159  0.1826
  558TMC3    H2 8337   0.049   2.527  10.287  0.1376  0.4754  0.3989
  558TMC3    C7 8338   0.255   2.638  10.158 -0.0335 -0.7840 -0.0982
  558TMC3    C8 8339   4.728   2.507  10.538 -0.3213 -0.4125 -1.2373
  558TMC3    O1 8340   0.369   2.656  10.111 -0.2992  0.2372  0.1215
  558TMC3    O2 8341   4.627   2.507  10.472 -0.1350  0.6613 -0.8553
  559MPD2     C 8342   0.461   3.098  10.436  0.1819  0.2963  0.5086
  559MPD2    C1 8343   0.376   3.057  10.529  0.1167  0.3822  0.0267
  559MPD2    C2 8344   0.425   3.049  10.660 -0.3819  0.4428  0.3165
  559MPD2    C3 8345   0.551   3.098  10.689 -0.0609 -0.4581  0.1218
  559MPD2    C4 8346   0.629   3.147  10.584  0.1409 -0.3949 -0.0667
  559MPD2    C5 8347   0.587   3.139  10.459  0.8772 -0.7246 -0.2440
  559MPD2     H 8348   0.365   3.018  10.745  0.2106 -0.3769  0.4349
  559MPD2    H1 8349   0.733   3.176  10.595 -0.9416  2.9974  1.4924
  559MPD2    H2 8350   0.423   3.103  10.335  3.1867 -0.8480 -0.6516
  559MPD2    H3 8351   0.655   3.163  10.378  1.5045 -2.5461 -0.2497
  559MPD2     N 8352   0.594   3.086  10.821 -0.1350  0.2538 -0.4106
  559MPD2    H5 8353   0.533   3.054  10.895 -1.1851  2.5934 -0.2537
  559MPD2    N1 8354   0.243   3.024  10.491 -0.9117  0.3582  0.0330
  559MPD2    H7 8355   0.213   3.043  10.396 -0.2391  2.1342  0.1702
  560TMC3    C1 8356   0.749   3.125  10.998  0.4577  0.0830 -0.1667
  560TMC3    C2 8357   0.651   3.072  11.081  0.4248  0.0630 -0.4913
  560TMC3    C3 8358   0.691   3.026  11.200 -0.3139 -0.7730 -0.3086
  560TMC3    C4 8359   0.877   3.122  11.028 -0.2021  0.8369 -0.8822
  560TMC3    C5 8360   0.911   3.078  11.153 -0.1078 -0.2901 -0.4580
  560TMC3    C6 8361   0.826   3.023  11.238  0.0582 -0.0645 -0.6232
  560TMC3     C 8362   0.723   3.126  10.857 -0.2115  0.9317 -0.3598
  560TMC3     O 8363   0.814   3.180  10.795 -0.1592 -0.4177  0.1572
  560TMC3     H 8364   0.544   3.081  11.068  0.0940 -1.8610  0.9436
  560TMC3    H1 8365   0.952   3.167  10.964  0.4955 -0.0132 -0.6655
  560TMC3    H2 8366   0.855   2.992  11.338 -0.0610  3.2906  0.4695
  560TMC3    C7 8367   1.053   3.061  11.190 -0.9733 -0.5485  0.3964
  560TMC3    C8 8368   0.589   2.962  11.284 -0.4025 -0.0381  0.5358
  560TMC3    O1 8369   1.072   2.973  11.279 -0.3324 -0.8249  0.1444
  560TMC3    O2 8370   0.470   2.966  11.250 -0.0485 -0.1841  0.3594
  561TMC3    C1 8371   3.407   2.348  11.919  0.4615 -0.5465 -0.0740
  561TMC3    C2 8372   3.329   2.245  11.959 -0.4605  0.4791  0.0296
  561TMC3    C3 8373   3.194   2.256  11.967 -0.3186  0.1002 -0.3313
  561TMC3    C4 8374   3.350   2.472  11.900 -0.4927 -0.6999 -0.1819
  561TMC3    C5 8375   3.212   2.481  11.898 -0.2411 -0.5295  0.0110
  561TMC3    C6 8376   3.132   2.383  11.940  0.5780  1.1809  0.5752
  561TMC3     C 8377   3.553   2.325  11.943  0.1313 -0.4515 -0.1876
  561TMC3     O 8378   3.588   2.216  11.991  0.1843 -0.1853  0.0060
  561TMC3     H 8379   3.372   2.148  11.981  0.7029  0.7493 -1.0620
  561TMC3    H1 8380   3.414   2.554  11.870 -2.2919  0.3833 -1.1024
  561TMC3    H2 8381   3.025   2.395  11.939  0.4566  0.2124  2.4057
  561TMC3    C7 8382   3.156   2.613  11.866 -0.9625 -0.3321 -0.1928
  561TMC3    C8 8383   3.126   2.177  12.064  0.4451  0.4091  0.5987
  561TMC3    O1 8384   3.047   2.650  11.910  0.4522 -0.0008 -0.2856
  561TMC3    O2 8385   3.194   2.086  12.105  0.2466  0.0220 -0.1222
  562TMC3    C1 8386   4.239   3.243  16.238 -0.1790 -0.3873 -0.0752
  562TMC3    C2 8387   4.162   3.353  16.213 -0.4114 -0.0515 -0.2988
  562TMC3    C3 8388   4.121   3.380  16.085 -0.4933  0.0491 -0.6061
  562TMC3    C4 8389   4.278   3.153  16.132  0.3648  0.1051  0.5667
  562TMC3    C5 8390   4.229   3.189  16.005  0.5832  0.0481 -0.4214
  562TMC3    C6 8391   4.153   3.303  15.975  0.4401 -0.0198 -0.2775
  562TMC3     C 8392   4.305   3.227  16.366  0.1967 -0.4773 -0.3169
  562TMC3     O 8393   4.298   3.317  16.448 -0.4873 -0.1851  0.4550
  562TMC3     H 8394   4.131   3.420  16.293 -1.7474 -0.1235 -0.7575
  562TMC3    H1 8395   4.361   3.085  16.146  0.0649 -0.3587  0.0762
  562TMC3    H2 8396   4.116   3.329  15.877 -3.4279 -3.5365  0.2824
  562TMC3    C7 8397   4.259   3.104  15.891  0.1349 -0.4710 -0.0097
  562TMC3    C8 8398   3.995   3.445  16.087 -0.4054  0.3643  0.1404
  562TMC3    O1 8399   4.264   3.157  15.775  0.2261  0.1960 -0.2816
  562TMC3    O2 8400   3.929   3.428  16.192  0.3465 -0.6681 -0.5029
  563MPD2     C 8401   2.176   4.644  15.800  0.8487 -0.4820 -0.0807
  563MPD2    C1 8402   2.223   4.673  15.924  0.5944  0.5972 -0.5344
  563MPD2    C2 8403   2.352   4.661  15.951  0.5522  0.6685  0.0049
  563MPD2    C3 8404   2.436   4.604  15.861 -0.0090  0.3290 -0.7167
  563MPD2    C4 8405   2.396   4.576  15.732  0.4419 -0.2447 -0.5902
  563MPD2    C5 8406   2.262   4.594  15.707  0.3656 -0.2914 -0.1678
  563MPD2     H 8407   2.391   4.679  16.051 -0.1037  0.0005  0.3859
  563MPD2    H1 8408   2.457   4.525  15.658  0.3134 -0.3465 -0.6254
  563MPD2    H2 8409   2.072   4.660  15.774  0.6826  0.1744  0.9493
  563MPD2    H3 8410   2.212   4.564  15.615  1.0812 -2.1338  0.0396
  563MPD2     N 8411   2.564   4.592  15.907 -0.1924 -0.2532 -0.3412
  563MPD2    H5 8412   2.582   4.613  16.005  1.4045  0.6966 -0.8324
  563MPD2    N1 8413   2.141   4.723  16.029  0.3014  0.0237  0.1321
  563MPD2    H7 8414   2.204   0.012  16.104 -0.8657  0.9139  0.8125
  564TMC3    C1 8415   1.952   0.110  16.125 -0.1684  0.4899  0.0843
  564TMC3    C2 8416   1.820   0.138  16.112 -0.0683  0.5356  0.7544
  564TMC3    C3 8417   1.750   0.180  16.221  0.3013  0.3670 -0.3174
  564TMC3    C4 8418   2.017   0.122  16.240  0.2074 -0.1629  0.1354
  564TMC3    C5 8419   1.943   0.157  16.354  0.6026 -0.5614  0.0150
  564TMC3    C6 8420   1.813   0.189  16.341  0.1930 -0.4041  0.4147
  564TMC3     C 8421   2.001   0.019  16.020 -0.6019 -0.2187 -0.3203
  564TMC3     O 8422   1.925   0.017  15.923 -0.0209  0.4302 -0.4169
  564TMC3     H 8423   1.770   0.144  16.016  1.1485 -1.4336  0.0029
  564TMC3    H1 8424   2.123   0.098  16.245  0.5226  1.2971  0.8066
  564TMC3    H2 8425   1.760   0.232  16.426 -0.8896  1.5079 -1.2296
  564TMC3    C7 8426   1.953   0.057  16.462 -0.5001 -0.1830 -0.6488
  564TMC3    C8 8427   1.634   0.100  16.244  0.2212  0.2577  0.2636
  564TMC3    O1 8428   2.068   0.034  16.492  0.7503 -0.3789 -0.1585
  564TMC3    O2 8429   1.606   0.073  16.361  0.1996  0.1525 -0.4600
  565TMC3    C1 8430   2.138   1.325  10.651  0.1253  0.1983  0.2983
  565TMC3    C2 8431   2.208   1.231  10.735 -0.1069 -0.1887  0.6706
  565TMC3    C3 8432   2.175   1.099  10.735 -0.5708  1.0594 -0.1128
  565TMC3    C4 8433   2.026   1.277  10.582  0.3648  0.0923 -0.3574
  565TMC3    C5 8434   1.994   1.146  10.592 -0.0041  0.2945 -0.0716
  565TMC3    C6 8435   2.071   1.053  10.656 -0.4842  0.0915 -0.3507
  565TMC3     C 8436   2.162   1.472  10.661 -0.0522  0.1230 -0.8024
  565TMC3     O 8437   2.113   1.538  10.571 -0.1298 -0.2109 -0.6772
  565TMC3     H 8438   2.297   1.272  10.783 -0.6116 -0.4380  1.8093
  565TMC3    H1 8439   1.963   1.355  10.542 -0.9386  0.2577  2.0466
  565TMC3    H2 8440   2.031   0.952  10.660  0.6315 -0.3481 -0.1882
  565TMC3    C7 8441   1.850   1.108  10.586 -0.6915  0.1786  0.1269
  565TMC3    C8 8442   2.187   1.045  10.867  0.7166 -0.8050 -0.4063
  565TMC3    O1 8443   1.812   1.008  10.646 -0.3053  0.5921 -0.3554
  565TMC3    O2 8444   2.283   1.064  10.937 -0.2112 -0.0947 -0.0904
  566MPD2     C 8445   3.722   3.078  14.196  0.1888  0.5362 -0.0179
  566MPD2    C1 8446   3.794   3.041  14.084 -0.2602 -0.8203  0.3723
  566MPD2    C2 8447   3.730   2.994  13.972 -0.3809 -0.2072 -0.7298
  566MPD2    C3 8448   3.596   3.013  13.956 -0.0327 -0.3288 -0.4247
  566MPD2    C4 8449   3.523   3.067  14.063  0.4051 -0.3774 -0.6094
  566MPD2    C5 8450   3.584   3.086  14.185  0.7533 -0.0238  0.0054
  566MPD2     H 8451   3.787   2.959  13.887  0.7604  0.1754 -0.1214
  566MPD2    H1 8452   3.418   3.094  14.051  0.5430 -0.7195 -2.5214
  566MPD2    H2 8453   3.768   3.117  14.286  2.0256 -0.4916 -0.5198
  566MPD2    H3 8454   3.525   3.125  14.267  1.3360  2.0910 -0.5780
  566MPD2     N 8455   3.538   2.998  13.829  0.4292  0.8590 -0.6303
  566MPD2    H5 8456   3.588   2.939  13.763  0.8450 -0.9984  1.3418
  566MPD2    N1 8457   3.935   3.027  14.100  0.5005  0.2516  0.5563
  566MPD2    H7 8458   3.971   3.036  14.194 -1.0447 -0.3570  1.2080
  567TMC3    C1 8459   4.162   3.045  14.033  0.7285  0.2903 -0.0602
  567TMC3    C2 8460   4.242   3.027  13.926 -0.1636  0.0797 -0.0713
  567TMC3    C3 8461   4.358   3.099  13.927 -0.1153  0.3804  0.8420
  567TMC3    C4 8462   4.196   3.116  14.151  0.6570 -1.1773 -0.2919
  567TMC3    C5 8463   4.314   3.192  14.147  0.8531 -0.0045 -0.1630
  567TMC3    C6 8464   4.385   3.188  14.026  0.1526  0.3875  0.4398
  567TMC3     C 8465   4.023   3.015  13.999 -0.7147  0.3003  0.2866
  567TMC3     O 8466   4.004   3.016  13.878  0.4770 -0.3462  0.0377
  567TMC3     H 8467   4.212   2.969  13.840  2.4803 -0.8014 -0.3996
  567TMC3    H1 8468   4.121   3.132  14.228  1.1082 -1.3933  0.1837
  567TMC3    H2 8469   4.484   3.231  14.014 -0.6923  1.3245 -3.0588
  567TMC3    C7 8470   4.378   3.242  14.269  0.0972 -0.0404  0.2969
  567TMC3    C8 8471   4.405   3.140  13.796  0.1033 -0.1791 -0.4826
  567TMC3    O1 8472   4.464   3.324  14.252  0.1656  0.0258 -0.6944
  567TMC3    O2 8473   4.414   3.259  13.774 -0.2546  0.5113 -0.5037
  568MPD2     C 8474   1.675   3.446  16.605  0.0543 -0.4628  1.0065
  568MPD2    C1 8475   1.554   3.441  16.669  0.1076 -0.3908  0.3713
  568MPD2    C2 8476   1.475   3.558  16.677  0.1679 -0.1785  0.6782
  568MPD2    C3 8477   1.521   3.675  16.625  0.0763  0.2590  0.2596
  568MPD2    C4 8478   1.648   3.679  16.577  1.0978 -0.2619  0.4901
  568MPD2    C5 8479   1.722   3.568  16.566  0.0896  0.3971  0.5834
  568MPD2     H 8480   1.374   3.558  16.716 -0.1269 -0.7417 -0.0953
  568MPD2    H1 8481   1.696   3.772  16.548 -1.0837  1.3036  1.8513
  568MPD2    H2 8482   1.741   3.360  16.604 -0.1325 -0.5986  0.5829
  568MPD2    H3 8483   1.821   3.576  16.521 -0.8886  1.0125 -1.4872
  568MPD2     N 8484   1.448   3.793  16.633 -0.3736  0.0424  0.3098
  568MPD2    H5 8485   1.369   3.801  16.696 -0.7623  0.6062 -0.2556
  568MPD2    N1 8486   1.523   3.320  16.738 -0.1820  0.2357 -0.0138
  568MPD2    H7 8487   1.585   3.243  16.716  0.4554  0.1355  2.1597
  569TMC3    C1 8488   1.370   4.008  16.564 -0.4958  0.5418 -0.0755
  569TMC3    C2 8489   1.346   4.066  16.688  0.0111  0.9581 -0.1858
  569TMC3    C3 8490   1.316   4.204  16.685  0.6516  0.1912  0.6479
  569TMC3    C4 8491   1.350   4.079  16.443  0.0697  0.3680 -0.2277
  569TMC3    C5 8492   1.315   4.211  16.453 -0.9581  0.0543 -0.0541
  569TMC3    C6 8493   1.297   4.272  16.570 -0.1510  0.0918  0.8202
  569TMC3     C 8494   1.464   3.901  16.548 -0.3590 -0.2090 -0.2306
  569TMC3     O 8495   1.537   3.912  16.447  0.6724 -0.2021 -0.4163
  569TMC3     H 8496   1.356   4.008  16.779 -1.4065 -1.0886 -1.3488
  569TMC3    H1 8497   1.369   4.033  16.347 -2.1080  0.2987 -0.6155
  569TMC3    H2 8498   1.259   4.374  16.568 -3.3555 -1.1324 -1.6489
  569TMC3    C7 8499   1.308   4.266  16.324 -0.2223 -0.2632  0.3873
  569TMC3    C8 8500   1.358   4.288  16.794  0.1013 -0.6963  0.5550
  569TMC3    O1 8501   1.265   4.199  16.232 -0.1357 -0.1219 -0.1585
  569TMC3    O2 8502   1.349   4.405  16.767  0.4850  0.8160 -0.6307
  570TMC3    C1 8503   0.852   2.087  16.177  0.2296 -0.5162  0.0768
  570TMC3    C2 8504   0.961   2.108  16.089 -0.2882  0.4437 -0.4532
  570TMC3    C3 8505   1.034   2.226  16.102 -0.4628 -0.2457 -0.2869
  570TMC3    C4 8506   0.811   2.185  16.258 -0.9163  0.9553  0.1643
  570TMC3    C5 8507   0.881   2.301  16.268  0.7481 -0.8268  0.7101
  570TMC3    C6 8508   0.996   2.322  16.198 -0.4421  0.5866 -0.0046
  570TMC3     C 8509   0.778   1.964  16.161 -0.7575  1.0560  0.1655
  570TMC3     O 8510   0.792   1.895  16.061  0.5135 -0.3054  0.5613
  570TMC3     H 8511   0.993   2.034  16.017  1.0911  2.4722 -1.9020
  570TMC3    H1 8512   0.718   2.184  16.314 -0.4036  1.1908  1.0266
  570TMC3    H2 8513   1.058   2.410  16.211 -1.9189  1.5915  0.2664
  570TMC3    C7 8514   0.843   2.398  16.361 -0.1152 -0.3384  0.4219
  570TMC3    C8 8515   1.148   2.262  16.018  0.1675  0.4335  0.3970
  570TMC3    O1 8516   0.788   2.359  16.466  0.0339 -0.4929 -0.0906
  570TMC3    O2 8517   1.220   2.353  16.050 -0.1720 -0.3257  0.1707
  571MPD2     C 8518   3.066   3.544   0.262 -0.2265 -0.3455  0.4480
  571MPD2    C1 8519   3.025   3.556   0.393  0.9521 -0.5470 -0.2467
  571MPD2    C2 8520   3.055   3.665   0.467 -0.6232 -0.2094 -0.5009
  571MPD2    C3 8521   3.140   3.761   0.416 -0.1563 -0.1965 -0.7916
  571MPD2    C4 8522   3.188   3.751   0.287  0.1428 -0.0394 -0.0670
  571MPD2    C5 8523   3.143   3.647   0.206 -0.0172  0.6669 -0.1772
  571MPD2     H 8524   3.028   3.669   0.572  2.0783  1.2784  0.1324
  571MPD2    H1 8525   3.244   3.834   0.244 -2.2969  0.2418 -2.7006
  571MPD2    H2 8526   3.041   3.464   0.192 -1.1339  1.2208 -1.0115
  571MPD2    H3 8527   3.178   3.628   0.105  1.6644 -0.6944  0.6467
  571MPD2     N 8528   3.185   3.875   0.490 -1.0969  0.4846  0.3871
  571MPD2    H5 8529   3.220   3.960   0.447 -0.5631  1.2079  2.2348
  571MPD2    N1 8530   2.952   3.445   0.440 -0.2477  0.5607  0.0128
  571MPD2    H7 8531   2.931   3.375   0.370  1.0357 -0.5859  0.7647
  572TMC3    C1 8532   3.235   4.005   0.675 -0.2595 -0.2903 -0.0107
  572TMC3    C2 8533   3.263   4.000   0.811  0.0376  0.6590  0.3666
  572TMC3    C3 8534   3.373   4.071   0.855 -1.2261  0.0890  0.2333
  572TMC3    C4 8535   3.321   4.071   0.589 -1.1299 -0.4400 -0.3587
  572TMC3    C5 8536   3.427   4.145   0.640 -0.0543  0.4100 -0.4286
  572TMC3    C6 8537   3.459   4.149   0.773 -0.0296 -0.1628  0.1935
  572TMC3     C 8538   3.166   3.889   0.626  0.0582  0.2484  0.9511
  572TMC3     O 8539   3.123   3.809   0.707 -0.2073 -0.2394 -0.2633
  572TMC3     H 8540   3.211   3.924   0.868  2.2070 -0.2291  1.1555
  572TMC3    H1 8541   3.304   4.083   0.483  0.5442  1.1094 -0.4486
  572TMC3    H2 8542   3.536   4.216   0.809  2.2065 -1.9587 -1.2960
  572TMC3    C7 8543   3.496   4.238   0.542 -0.7133  0.4917  0.3251
  572TMC3    C8 8544   3.396   4.079   1.000 -0.1570 -0.3571 -0.8609
  572TMC3    O1 8545   3.436   4.274   0.444 -0.0375  0.1452 -0.4108
  572TMC3    O2 8546   3.508   4.103   1.048 -0.5218 -0.5920  0.0782
  573MPD2     C 8547   4.699   3.833   0.301  0.2303 -0.3130 -0.0960
  573MPD2    C1 8548   4.732   3.958   0.242  0.5915  0.2455 -0.6995
  573MPD2    C2 8549   4.708   3.965   0.105 -0.5110 -0.2484 -0.1822
  573MPD2    C3 8550   4.632   3.869   0.035  0.2185 -0.3379 -0.2546
  573MPD2    C4 8551   4.601   3.752   0.097  0.5792 -0.2765 -0.5521
  573MPD2    C5 8552   4.636   3.737   0.224  0.6978 -0.2807 -0.0916
  573MPD2     H 8553   0.000   4.058   0.058 -1.3229  0.3872  0.5872
  573MPD2    H1 8554   4.543   3.679   0.041 -0.5609  0.1690  0.0280
  573MPD2    H2 8555   4.707   3.813   0.407 -0.1037  3.1184  0.5891
  573MPD2    H3 8556   4.601   3.649   0.277 -1.9925 -1.1344 -3.2518
  573MPD2     N 8557   4.578   3.886  17.648  0.0571  0.4052  0.1772
  573MPD2    H5 8558   4.523   3.808  17.615 -0.7346  1.3266 -0.6602
  573MPD2    N1 8559   0.057   4.058   0.330  0.2201  0.6520  0.1763
  573MPD2    H7 8560   0.069   4.030   0.427  0.3881  1.4540  0.3898
  574TMC3    C1 8561   4.491   3.992  17.469 -0.2937  0.4711 -0.4907
  574TMC3    C2 8562   4.387   4.064  17.527 -0.1565  0.5256  0.4638
  574TMC3    C3 8563   4.327   4.158  17.455 -0.1196  0.8328  0.2438
  574TMC3    C4 8564   4.536   4.023  17.340  0.0838 -0.0015  0.1763
  574TMC3    C5 8565   4.465   4.113  17.271 -0.2612 -0.7565  0.4828
  574TMC3    C6 8566   4.360   4.185  17.327  0.1036 -1.0813  0.6269
  574TMC3     C 8567   4.598   3.993  17.560 -0.2053 -0.0044  0.0321
  574TMC3     O 8568   4.659   4.095  17.583  0.0950  0.7141 -0.1690
  574TMC3     H 8569   4.366   4.045  17.631 -0.5866 -0.2124  0.2414
  574TMC3    H1 8570   4.621   3.971  17.296 -0.6900 -0.8173 -0.3384
  574TMC3    H2 8571   4.299   4.257  17.274  0.7136 -0.1453  1.1986
  574TMC3    C7 8572   4.476   4.106  17.128 -0.2560 -0.0153 -0.8455
  574TMC3    C8 8573   4.212   4.230  17.512  0.1306  0.3512 -0.2781
  574TMC3    O1 8574   4.592   4.087  17.092 -0.7163  0.4554 -0.1069
  574TMC3    O2 8575   4.152   4.172  17.599 -0.4532 -0.2239  0.1692
  575TMC3    C1 8576   2.355   1.179  11.689 -0.8308  0.4452 -0.3632
  575TMC3    C2 8577   2.424   1.068  11.743  0.4547  0.0441 -0.6260
  575TMC3    C3 8578   2.380   0.949  11.695  0.2840 -0.4163 -0.1985
  575TMC3    C4 8579   2.265   1.170  11.589 -0.5972  0.3776 -0.3942
  575TMC3    C5 8580   2.237   1.047  11.547  0.4311 -0.2010  0.1839
  575TMC3    C6 8581   2.279   0.930  11.604  0.4777 -0.7692 -0.4041
  575TMC3     C 8582   2.342   1.291  11.773 -0.7478  0.0204 -0.3558
  575TMC3     O 8583   2.297   1.395  11.726 -0.0191  0.6675 -0.4354
  575TMC3     H 8584   2.498   1.073  11.823 -1.7618 -0.7249  1.4878
  575TMC3    H1 8585   2.225   1.257  11.540 -3.3131 -0.1855  0.8372
  575TMC3    H2 8586   2.252   0.834  11.560  1.2554 -1.1431 -0.0715
  575TMC3    C7 8587   2.175   1.044  11.411  0.0291  0.1265  0.1102
  575TMC3    C8 8588   2.466   0.833  11.713  0.0031  0.1420 -1.0825
  575TMC3    O1 8589   2.173   1.146  11.343 -0.3690 -0.7334  0.1581
  575TMC3    O2 8590   2.410   0.724  11.710 -0.8342  0.2534 -0.3865
  576MPD2     C 8591   1.894   2.617  12.748  0.2788  0.8534 -0.0890
  576MPD2    C1 8592   1.932   2.690  12.636 -0.4084 -0.7726  0.0797
  576MPD2    C2 8593   1.859   2.799  12.598  0.9109 -0.2777  0.5552
  576MPD2    C3 8594   1.749   2.838  12.667 -0.1020 -0.0720  0.2806
  576MPD2    C4 8595   1.719   2.779  12.790 -0.2991  0.3072 -0.2263
  576MPD2    C5 8596   1.796   2.672  12.829  0.4224  0.0224  0.0600
  576MPD2     H 8597   1.898   2.856  12.515  0.8282  0.6120  1.1235
  576MPD2    H1 8598   1.642   2.817  12.857 -1.3010 -0.1118 -1.1361
  576MPD2    H2 8599   1.949   2.535  12.792  1.2915  3.0864  2.8338
  576MPD2    H3 8600   1.768   2.620  12.920  0.6981 -0.9935 -0.4335
  576MPD2     N 8601   1.691   2.958  12.626  0.5645 -0.3498 -0.1624
  576MPD2    H5 8602   1.735   3.008  12.549  1.8183  0.5152  1.1294
  576MPD2    N1 8603   2.057   2.656  12.565 -0.8920 -0.4713 -0.1480
  576MPD2    H7 8604   2.080   2.714  12.486 -1.4123  3.3348  2.4834
  577TMC3    C1 8605   2.273   2.562  12.521  0.5299  0.4671  0.4861
  577TMC3    C2 8606   2.366   2.468  12.552  0.7645 -0.4455 -0.2308
  577TMC3    C3 8607   2.475   2.455  12.467 -0.3879 -0.0037 -1.0598
  577TMC3    C4 8608   2.280   2.643  12.409 -0.2381  0.4192 -0.0231
  577TMC3    C5 8609   2.390   2.632  12.339 -0.7263 -0.0635 -0.7773
  577TMC3    C6 8610   2.494   2.547  12.365 -0.1938  0.5456 -0.3436
  577TMC3     C 8611   2.148   2.562  12.607 -0.5925 -0.0578 -0.2464
  577TMC3     O 8612   2.142   2.483  12.705 -0.4931 -0.1521 -0.1816
  577TMC3     H 8613   2.352   2.402  12.637 -3.2760  1.4042  0.5599
  577TMC3    H1 8614   2.208   2.711  12.366 -0.9971 -1.0531 -1.0809
  577TMC3    H2 8615   2.585   2.550  12.308 -2.5507  0.6635 -4.0971
  577TMC3    C7 8616   2.430   2.742  12.251  0.0197  0.7423  0.0763
  577TMC3    C8 8617   2.574   2.353  12.498 -0.6090  0.2154  0.9894
  577TMC3    O1 8618   2.548   2.782  12.260 -0.5196  1.1613  0.6190
  577TMC3    O2 8619   2.547   2.263  12.575  0.3222  0.1979 -0.6272
  578MPD2     C 8620   0.807   2.422   0.921 -0.3195 -0.4379  0.0001
  578MPD2    C1 8621   0.718   2.342   0.853 -0.4213  1.2117 -0.7197
  578MPD2    C2 8622   0.745   2.210   0.835  0.0042 -0.1508 -0.7150
  578MPD2    C3 8623   0.864   2.143   0.879  0.3795  0.0150 -0.2337
  578MPD2    C4 8624   0.953   2.237   0.933 -0.5020  0.0004 -0.8153
  578MPD2    C5 8625   0.925   2.369   0.955  0.1180  0.7181 -0.6314
  578MPD2     H 8626   0.682   2.148   0.772 -0.5711 -1.0465  0.7542
  578MPD2    H1 8627   1.055   2.216   0.963 -0.9563  0.6994  1.2619
  578MPD2    H2 8628   0.780   2.523   0.948  1.5263  0.5337 -1.7779
  578MPD2    H3 8629   0.999   2.437   0.997 -0.7662  0.9554  0.5511
  578MPD2     N 8630   0.881   2.007   0.856  0.2509  0.0400  0.1239
  578MPD2    H5 8631   0.802   1.966   0.809 -1.3627  1.4506  1.6189
  578MPD2    N1 8632   0.602   2.406   0.802 -0.5416 -0.0303  0.4457
  578MPD2    H7 8633   0.597   2.507   0.807 -0.4006  0.0070 -0.1750
  579TMC3    C1 8634   0.975   1.793   0.878 -0.2895  0.1395  0.4597
  579TMC3    C2 8635   1.054   1.714   0.965 -0.1010 -0.0932  0.3840
  579TMC3    C3 8636   1.039   1.578   0.952 -0.2428  0.7474  0.2822
  579TMC3    C4 8637   0.888   1.744   0.790  0.9839  0.1152  0.0867
  579TMC3    C5 8638   0.872   1.609   0.791  0.5209 -0.2407  0.0648
  579TMC3    C6 8639   0.946   1.523   0.866  1.0393 -0.4749 -0.0204
  579TMC3     C 8640   0.992   1.937   0.901  0.3804  0.8851 -0.1303
  579TMC3     O 8641   1.077   1.980   0.981  0.3615  0.1665  0.2195
  579TMC3     H 8642   1.113   1.760   1.044 -1.1899 -0.7460  1.5808
  579TMC3    H1 8643   0.837   1.817   0.728  2.6900  0.1570 -1.2492
  579TMC3    H2 8644   0.926   1.417   0.860  1.5348 -0.4787 -1.4826
  579TMC3    C7 8645   0.786   1.551   0.684 -0.2371 -0.5892 -0.5695
  579TMC3    C8 8646   1.153   1.497   0.997 -0.0249  0.0430  0.5502
  579TMC3    O1 8647   0.833   1.447   0.633 -0.3471  0.7270  0.1203
  579TMC3    O2 8648   1.143   1.378   1.020 -1.0062 -0.2068 -0.6571
  580TMC3    C1 8649   0.233   1.807  12.543  0.1708 -0.5633 -0.1162
  580TMC3    C2 8650   0.350   1.872  12.517  0.1003 -0.0838 -0.2659
  580TMC3    C3 8651   0.463   1.814  12.558  0.1642  0.2831 -0.3297
  580TMC3    C4 8652   0.230   1.686  12.609 -0.0926 -0.2080 -0.5980
  580TMC3    C5 8653   0.350   1.635  12.648  0.1700  0.1438  0.3978
  580TMC3    C6 8654   0.470   1.697  12.625 -0.5084  0.4485  0.1782
  580TMC3     C 8655   0.118   1.854  12.475 -0.4332 -0.3880 -0.2488
  580TMC3     O 8656   0.137   1.901  12.366  0.4898  0.0668 -0.6333
  580TMC3     H 8657   0.337   1.972  12.476 -1.3159  2.0333  5.2842
  580TMC3    H1 8658   0.136   1.636  12.628  0.6172 -1.1844  0.3628
  580TMC3    H2 8659   0.565   1.660  12.662  0.5124  0.4656 -2.3547
  580TMC3    C7 8660   0.363   1.501  12.699 -0.1094  0.8598 -0.2259
  580TMC3    C8 8661   0.587   1.878  12.508 -0.5040  0.3967  0.2648
  580TMC3    O1 8662   0.460   1.472  12.769 -0.2271  0.0678 -0.3880
  580TMC3    O2 8663   0.693   1.853  12.568  0.2030  0.1894  0.2137
  581MPD2     C 8664   2.698   1.284  14.903 -0.4624  1.0780 -0.2334
  581MPD2    C1 8665   2.587   1.209  14.938  0.1521 -0.0344 -0.6170
  581MPD2    C2 8666   2.461   1.257  14.893 -0.8614  0.2947  0.2766
  581MPD2    C3 8667   2.440   1.393  14.850  0.4477 -0.3704  0.4511
  581MPD2    C4 8668   2.554   1.458  14.825 -0.6417  0.3495  0.4534
  581MPD2    C5 8669   2.679   1.403  14.848  0.1525 -0.0202  0.4568
  581MPD2     H 8670   2.373   1.193  14.883 -0.8656  0.2643  0.5094
  581MPD2    H1 8671   2.546   1.560  14.790  0.9609 -0.0688 -1.1606
  581MPD2    H2 8672   2.798   1.248  14.925 -0.9760  1.3945  2.7154
  581MPD2    H3 8673   2.768   1.462  14.827  0.9481 -0.7753  1.6631
  581MPD2     N 8674   2.317   1.456  14.824 -0.4187 -0.0516  0.0443
  581MPD2    H5 8675   2.323   1.556  14.805 -1.3001 -0.3248 -1.6086
  581MPD2    N1 8676   2.618   1.080  14.989  0.3194 -0.0192  0.0457
  581MPD2    H7 8677   2.717   1.063  15.008 -0.1138 -2.4235  0.1239
  582TMC3    C1 8678   2.582   0.868  15.085  0.8078 -0.0548  0.9697
  582TMC3    C2 8679   2.667   0.876  15.188  0.2399  0.6530 -0.5843
  582TMC3    C3 8680   2.668   0.772  15.275  0.6246 -0.1597  0.4945
  582TMC3    C4 8681   2.501   0.755  15.068  0.3712  0.3269  0.2747
  582TMC3    C5 8682   2.522   0.651  15.148 -0.1319  0.4296 -0.3023
  582TMC3    C6 8683   2.615   0.653  15.244  0.4171  0.0063  0.7351
  582TMC3     C 8684   2.526   0.991  15.037  0.1082 -0.2144  0.1912
  582TMC3     O 8685   2.404   0.998  15.020 -0.7357  0.1412 -0.2512
  582TMC3     H 8686   2.706   0.974  15.213  1.8685 -0.1015 -0.2108
  582TMC3    H1 8687   2.431   0.749  14.986 -2.2810  1.0983  2.4616
  582TMC3    H2 8688   2.600   0.573  15.315  0.1805 -1.6746 -1.2249
  582TMC3    C7 8689   2.398   0.604  15.196 -0.3292  0.3343  0.6412
  582TMC3    C8 8690   2.680   0.800  15.412 -0.1055  0.0509  0.3499
  582TMC3    O1 8691   2.392   0.503  15.271  0.5264 -0.8458 -0.3339
  582TMC3    O2 8692   2.665   0.917  15.443 -0.7225 -0.3442  0.2960
  583MPD2     C 8693   2.740   2.432  16.905 -0.0979  0.2081  0.6553
  583MPD2    C1 8694   2.744   2.568  16.867 -0.4100 -0.0786  0.2791
  583MPD2    C2 8695   2.686   2.662  16.947  0.4147 -0.3276 -0.1291
  583MPD2    C3 8696   2.610   2.623  17.053  0.5124 -0.2210  0.0961
  583MPD2    C4 8697   2.614   2.489  17.091  0.1229  0.2481  0.1673
  583MPD2    C5 8698   2.681   2.398  17.018  0.0611  0.0633  0.1588
  583MPD2     H 8699   2.693   2.767  16.921  0.6856  0.1452  1.8813
  583MPD2    H1 8700   2.579   2.455  17.187  1.3285  0.5403  0.7181
  583MPD2    H2 8701   2.782   2.355  16.842 -0.4738  0.5862 -0.0672
  583MPD2    H3 8702   2.673   2.294  17.047 -0.5504  0.1630  0.3384
  583MPD2     N 8703   2.533   2.716  17.127 -0.5603  0.2086  0.1245
  583MPD2    H5 8704   2.522   2.806  17.083 -0.4932 -0.7116 -1.7759
  583MPD2    N1 8705   2.816   2.617  16.756 -0.1894 -0.3881  0.1127
  583MPD2    H7 8706   2.803   2.715  16.732 -2.8315 -0.9927 -0.9161
  584TMC3    C1 8707   2.461   2.835  17.318 -0.2579  0.3146  0.0984
  584TMC3    C2 8708   2.475   2.958  17.256  0.2148 -0.5610  0.4867
  584TMC3    C3 8709   2.518   3.067  17.323 -0.3132 -0.4848 -0.0508
  584TMC3    C4 8710   2.472   2.827  17.450  0.2775 -0.6499  0.3251
  584TMC3    C5 8711   2.504   2.939  17.526  0.7111  0.7550  0.4989
  584TMC3    C6 8712   2.535   3.057  17.462 -0.0516  0.8608 -0.0725
  584TMC3     C 8713   2.485   2.708  17.252  0.6077 -0.2226  0.4768
  584TMC3     O 8714   2.476   2.608  17.324  0.3420  0.2171  0.3128
  584TMC3     H 8715   2.455   2.967  17.150  0.3007  1.9295  0.6803
  584TMC3    H1 8716   2.480   2.732  17.502  1.3271 -1.1810 -0.8067
  584TMC3    H2 8717   2.586   3.134  17.519 -1.4228  1.0236  0.9542
  584TMC3    C7 8718   2.459   2.932  17.663 -0.1972  1.0030  0.2721
  584TMC3    C8 8719   2.524   3.191  17.247  0.1072 -0.4422  0.7937
  584TMC3    O1 8720   2.443   2.812  17.708 -0.2201 -0.4734  0.0874
  584TMC3    O2 8721   2.481   3.188  17.129  0.0041 -0.4052  0.6314
  585MPD2     C 8722   1.247   2.150   0.254  0.5946 -0.2376 -0.4088
  585MPD2    C1 8723   1.336   2.223   0.173 -0.4256 -0.6627 -0.3213
  585MPD2    C2 8724   1.397   2.153   0.068  0.9867  0.3586 -0.2183
  585MPD2    C3 8725   1.362   2.025   0.034  0.1250 -0.1151 -0.2509
  585MPD2    C4 8726   1.267   1.962   0.108 -0.0834 -0.2871 -0.4278
  585MPD2    C5 8727   1.207   2.025   0.217  0.0693 -0.4547  0.5065
  585MPD2     H 8728   1.476   2.203   0.014  0.5078  0.0837 -1.1762
  585MPD2    H1 8729   1.241   1.858   0.090  0.2701 -0.4296 -0.0952
  585MPD2    H2 8730   1.191   2.199   0.334  2.0332 -0.4944  0.7519
  585MPD2    H3 8731   1.137   1.974   0.281 -1.6257 -0.2774 -1.2018
  585MPD2     N 8732   1.419   1.953  17.675  0.0757  0.2326  0.8014
  585MPD2    H5 8733   1.386   1.858  17.662  0.2885  0.1684  0.7378
  585MPD2    N1 8734   1.363   2.357   0.203  0.4525 -0.7599 -0.2724
  585MPD2    H7 8735   1.309   2.394   0.281  2.8764  0.9524  0.6127
  586TMC3    C1 8736   1.581   1.898  17.518  0.2055  0.3184  0.1710
  586TMC3    C2 8737   1.717   1.911  17.495 -0.1534 -0.0752 -0.3465
  586TMC3    C3 8738   1.779   1.836  17.399 -0.0775 -0.2630 -1.0442
  586TMC3    C4 8739   1.506   1.829  17.428 -0.4789  0.1800  0.4716
  586TMC3    C5 8740   1.569   1.785  17.311  0.4955 -0.8762 -0.2876
  586TMC3    C6 8741   1.706   1.781  17.295 -0.0114  0.1907 -0.0867
  586TMC3     C 8742   1.516   2.003  17.587 -0.1424  0.2065 -0.6611
  586TMC3     O 8743   1.570   2.112  17.586  0.0638  0.0076  0.0936
  586TMC3     H 8744   1.774   1.977  17.558  0.5128 -1.6473  0.7012
  586TMC3    H1 8745   1.398   1.836  17.433 -0.5846 -1.5753  0.6599
  586TMC3    H2 8746   1.747   1.722  17.214  0.1725 -0.9805  0.8640
  586TMC3    C7 8747   1.502   1.674  17.243  1.1465 -0.4171  0.0242
  586TMC3    C8 8748   1.888   1.753  17.448 -0.6539  0.4061  0.3957
  586TMC3    O1 8749   1.409   1.620  17.307  0.1977  0.6842  0.5723
  586TMC3    O2 8750   1.915   1.775  17.565 -0.2136 -0.1987 -0.3018
  587TMC3    C1 8751   4.330   0.471  16.821 -0.1916 -0.3130 -0.8278
  587TMC3    C2 8752   4.295   0.554  16.715 -1.2271  0.4740  0.3700
  587TMC3    C3 8753   4.393   0.626  16.656  0.0434 -0.4038 -0.3051
  587TMC3    C4 8754   4.462   0.473  16.870 -0.1866 -0.5398 -0.9578
  587TMC3    C5 8755   4.557   0.552  16.809 -0.3069  0.1547  0.8177
  587TMC3    C6 8756   4.523   0.629  16.697  0.2452  0.0374  0.0094
  587TMC3     C 8757   4.230   0.395  16.899  0.3797 -0.7961  0.1252
  587TMC3     O 8758   4.273   0.316  16.982 -0.0080  0.1199 -0.3003
  587TMC3     H 8759   4.200   0.541  16.664 -0.6048  1.6683 -1.1243
  587TMC3    H1 8760   4.501   0.407  16.946 -0.6465  2.3072  1.7426
  587TMC3    H2 8761   4.596   0.669  16.628 -1.8704  3.1830 -0.3992
  587TMC3    C7 8762   4.695   0.545  16.859  0.0991  0.4218 -0.0079
  587TMC3    C8 8763   4.357   0.738  16.564  0.3294 -0.1414 -0.3074
  587TMC3    O1 8764   4.717   0.467  16.951  0.4717  0.3566 -0.1834
  587TMC3    O2 8765   4.444   0.769  16.484  0.3459  0.0150 -0.3671
  588TMC3    C1 8766   1.354   2.995   9.729  0.7781 -0.4636 -0.5585
  588TMC3    C2 8767   1.335   2.929   9.847  0.4109  0.0134  0.9300
  588TMC3    C3 8768   1.446   2.885   9.915 -0.4117  0.6383  0.3528
  588TMC3    C4 8769   1.478   2.999   9.670 -0.1515  0.4346 -0.7805
  588TMC3    C5 8770   1.590   2.965   9.746 -0.0541  0.1162 -0.2180
  588TMC3    C6 8771   1.574   2.905   9.866 -0.0563  0.5483 -0.0441
  588TMC3     C 8772   1.280   3.117   9.727  0.1211 -0.2245  0.2202
  588TMC3     O 8773   1.165   3.125   9.768  0.1884  0.1053  0.4169
  588TMC3     H 8774   1.240   2.928   9.899 -0.6974  2.8107 -1.0051
  588TMC3    H1 8775   1.489   3.042   9.571 -0.7155 -0.3638 -1.1876
  588TMC3    H2 8776   1.657   2.858   9.919  0.2339  1.2752  0.1394
  588TMC3    C7 8777   1.695   3.064   9.735  0.3186 -0.1712 -0.3076
  588TMC3    C8 8778   1.420   2.775  10.003  0.3374 -0.1099 -0.2542
  588TMC3    O1 8779   1.668   3.148   9.648 -0.5165 -0.2528  0.4790
  588TMC3    O2 8780   1.305   2.729  10.006 -0.1621  0.4818 -0.5067
  589TMC3    C1 8781   0.961   0.058   1.077  1.0027 -0.0920 -0.0648
  589TMC3    C2 8782   1.026   4.721   1.171 -0.1608  0.2194 -0.0880
  589TMC3    C3 8783   1.062   4.596   1.133 -0.6061  0.1686 -0.4601
  589TMC3    C4 8784   0.921   0.012   0.956 -0.2161 -0.6828  0.1783
  589TMC3    C5 8785   0.964   4.622   0.924 -0.0242 -0.4433 -0.2605
  589TMC3    C6 8786   1.038   4.546   1.008  0.7314 -0.3630 -0.4353
  589TMC3     C 8787   0.887   0.181   1.110  0.0554 -0.2956  0.4837
  589TMC3     O 8788   0.788   0.219   1.045 -0.5049  0.1990  0.5281
  589TMC3     H 8789   1.065   0.022   1.265 -1.8693  3.7578 -0.7774
  589TMC3    H1 8790   0.856   0.067   0.889 -0.1277 -2.0867 -1.0373
  589TMC3    H2 8791   1.073   4.448   0.979 -0.9549 -1.0301 -0.1866
  589TMC3    C7 8792   0.932   4.560   0.804  0.2024 -0.1006  0.1094
  589TMC3    C8 8793   1.169   4.543   1.203  0.6373  0.0288  0.5752
  589TMC3    O1 8794   0.945   4.438   0.790  0.5860  0.1787 -0.4270
  589TMC3    O2 8795   1.252   4.617   1.258  0.5934  0.1042  0.4361
  590MPD2     C 8796   0.567   3.896  16.802 -0.8958 -1.4655 -0.1175
  590MPD2    C1 8797   0.502   3.910  16.678 -0.5222 -0.3745  0.1235
  590MPD2    C2 8798   0.570   3.969  16.568 -0.3272  0.6377  0.0802
  590MPD2    C3 8799   0.692   4.030  16.600 -0.1242  0.0072 -0.3242
  590MPD2    C4 8800   0.755   4.009  16.721 -0.5236  0.0215 -0.2887
  590MPD2    C5 8801   0.692   3.940  16.822 -0.4028  0.3814  0.8131
  590MPD2     H 8802   0.523   3.975  16.470 -1.1606 -1.0702  0.3684
  590MPD2    H1 8803   0.859   4.041  16.730 -0.5960  0.0470  0.4469
  590MPD2    H2 8804   0.516   3.856  16.888 -0.8968  1.6625  1.3266
  590MPD2    H3 8805   0.733   3.939  16.922  1.8371  2.0380 -0.0860
  590MPD2     N 8806   0.756   4.101  16.495 -0.1782 -0.9683 -0.8381
  590MPD2    H5 8807   0.710   4.107  16.404  1.9816  3.2131 -1.6532
  590MPD2    N1 8808   0.372   3.858  16.660  0.0252 -0.8715  0.4883
  590MPD2    H7 8809   0.329   3.879  16.571 -0.1638 -0.5310  0.6588
  591TMC3    C1 8810   0.886   4.256  16.384  0.4327 -0.1640 -0.5873
  591TMC3    C2 8811   0.916   4.176  16.275  0.9909 -0.0043  0.3605
  591TMC3    C3 8812   0.973   4.240  16.171 -0.0895 -0.4998  0.0532
  591TMC3    C4 8813   0.916   4.388  16.394  0.8093  0.1923  0.4850
  591TMC3    C5 8814   0.982   4.442  16.295  0.5405 -0.1943  0.2686
  591TMC3    C6 8815   1.016   4.371  16.181  0.5937  0.4403 -0.3858
  591TMC3     C 8816   0.871   4.186  16.508 -0.0284  0.1794 -0.4593
  591TMC3     O 8817   0.946   4.205  16.602  0.3218 -0.6762 -0.4091
  591TMC3     H 8818   0.920   4.068  16.281  1.3441 -0.1089 -1.8567
  591TMC3    H1 8819   0.879   4.449  16.476 -2.0380  0.2902 -0.8809
  591TMC3    H2 8820   1.075   4.416  16.101  0.2317  1.7119  0.0693
  591TMC3    C7 8821   1.009   4.583  16.306 -0.1188 -0.9920  0.7550
  591TMC3    C8 8822   1.014   4.162  16.061 -0.4577 -0.9298  0.1592
  591TMC3    O1 8823   1.016   4.626  16.420 -0.0641 -0.3405 -0.3709
  591TMC3    O2 8824   1.007   4.041  16.060  0.3571 -0.2983 -0.1017
  592MPD2     C 8825   0.721   1.585  11.990  0.2572 -0.0826  0.5255
  592MPD2    C1 8826   0.772   1.591  12.117  0.1548 -0.3697 -0.2330
  592MPD2    C2 8827   0.709   1.517  12.214 -0.5639  0.0820 -0.3430
  592MPD2    C3 8828   0.597   1.437  12.183  0.8565 -0.1978 -0.2404
  592MPD2    C4 8829   0.550   1.434  12.054  0.5244  0.5571 -0.4749
  592MPD2    C5 8830   0.617   1.502  11.956  0.6050 -0.2400  0.4459
  592MPD2     H 8831   0.747   1.510  12.316 -0.9065 -0.2263 -0.2375
  592MPD2    H1 8832   0.468   1.371  12.020  1.0381 -0.5230  0.2885
  592MPD2    H2 8833   0.767   1.648  11.914 -0.9757  1.3221  0.9322
  592MPD2    H3 8834   0.564   1.511  11.862 -0.2103  0.4435  0.9696
  592MPD2     N 8835   0.533   1.354  12.284 -0.2015 -0.0648  0.2070
  592MPD2    H5 8836   0.554   1.367  12.383  1.2507 -3.2043  0.3184
  592MPD2    N1 8837   0.899   1.661  12.131 -0.4770  0.1631  0.5521
  592MPD2    H7 8838   0.941   1.688  12.043  0.5774  1.4632  1.4359
  593TMC3    C1 8839   1.088   1.775  12.223  0.3469  0.5144  0.3955
  593TMC3    C2 8840   1.127   1.841  12.336  0.0962  0.5281 -0.3953
  593TMC3    C3 8841   1.212   1.947  12.325 -0.0176  0.5407  0.2239
  593TMC3    C4 8842   1.129   1.807  12.095  0.0703 -0.4633 -0.0394
  593TMC3    C5 8843   1.205   1.924  12.093  0.1365  0.2174  0.0622
  593TMC3    C6 8844   1.253   1.989  12.205  0.0164  0.4158  0.1326
  593TMC3     C 8845   0.959   1.706  12.246  0.1154 -0.2558 -0.0676
  593TMC3     O 8846   0.922   1.682  12.360 -0.2350  0.1258  0.8511
  593TMC3     H 8847   1.101   1.799  12.433 -0.5539 -1.0096 -1.2298
  593TMC3    H1 8848   1.099   1.763  12.001 -3.5187 -1.8702  1.7612
  593TMC3    H2 8849   1.319   2.075  12.198  1.2990 -0.6781 -1.1183
  593TMC3    C7 8850   1.205   1.998  11.964 -0.4314  0.0871 -0.3031
  593TMC3    C8 8851   1.295   1.982  12.439  0.0128 -0.3721 -0.0988
  593TMC3    O1 8852   1.110   1.971  11.893  0.0283 -0.0495 -0.3016
  593TMC3    O2 8853   1.253   1.934  12.543  0.1237  0.0309 -0.3183
  594MPD2     C 8854   4.482   4.572  14.125  1.1207  0.1308  0.2732
  594MPD2    C1 8855   4.453   4.632  14.249  0.0576 -0.3708 -0.3101
  594MPD2    C2 8856   4.519   0.015  14.285 -0.5987  1.1536  0.1181
  594MPD2    C3 8857   4.612   0.078  14.203  0.0299 -0.1104 -0.1236
  594MPD2    C4 8858   4.638   0.013  14.080  0.6808  0.7896  0.2650
  594MPD2    C5 8859   4.580   4.631  14.044  0.3035  0.1090  0.4458
  594MPD2     H 8860   4.487   0.061  14.378 -0.5018 -2.1618  1.7912
  594MPD2    H1 8861   4.705   0.051  14.004  0.3758  2.4455  0.8283
  594MPD2    H2 8862   4.420   4.492  14.087  2.1228  0.0384 -1.1720
  594MPD2    H3 8863   4.587   4.593  13.943  0.3803 -0.6782  0.7444
  594MPD2     N 8864   4.659   0.207  14.219  0.2940  0.1176  0.2672
  594MPD2    H5 8865   4.600   0.267  14.275  1.1162 -0.3780  1.6705
  594MPD2    N1 8866   4.357   4.569  14.330 -1.0008  0.0005  0.1403
  594MPD2    H7 8867   4.316   4.486  14.287  0.2539 -0.5786  0.0773
  595TMC3    C1 8868   0.193   0.578  14.272  0.1867  0.9309  0.7770
  595TMC3    C2 8869   0.161   0.474  14.184  0.4112 -0.8525  0.3179
  595TMC3    C3 8870   0.042   0.415  14.203  0.0943 -0.3906 -0.1854
  595TMC3    C4 8871   0.106   0.634  14.359  0.3528  0.2925 -0.1799
  595TMC3    C5 8872   4.725   0.576  14.368 -0.7022 -0.7575 -0.7401
  595TMC3    C6 8873   4.689   0.467  14.293 -0.3231 -0.5298 -0.0966
  595TMC3     C 8874   0.325   0.636  14.256 -0.3869 -0.7927 -0.4611
  595TMC3     O 8875   0.403   0.588  14.179 -0.2831 -0.2810 -0.8441
  595TMC3     H 8876   0.236   0.421  14.126  1.6689  0.3769  0.8209
  595TMC3    H1 8877   0.127   0.710  14.434  0.0127  1.8737 -1.6949
  595TMC3    H2 8878   4.594   0.417  14.313 -0.7791  1.1012  1.8423
  595TMC3    C7 8879   4.639   0.598  14.479 -0.4219 -0.6121 -0.0669
  595TMC3    C8 8880   0.023   0.277  14.157 -0.2225 -1.0101 -0.2575
  595TMC3    O1 8881   4.519   0.592  14.463 -0.4450 -0.1496 -0.8689
  595TMC3    O2 8882   0.111   0.229  14.081 -0.2550  0.4244  0.5546
  596MPD2     C 8883   3.609   2.577  16.975 -0.4185  0.4553 -0.6275
  596MPD2    C1 8884   3.577   2.700  16.927  0.6023 -0.4441  0.3865
  596MPD2    C2 8885   3.621   2.741  16.802  0.0769 -0.1280 -0.5047
  596MPD2    C3 8886   3.684   2.647  16.717 -0.3898  0.5393  0.1547
  596MPD2    C4 8887   3.735   2.531  16.780 -0.1285  0.3228 -0.4205
  596MPD2    C5 8888   3.697   2.501  16.907  0.4697  0.3565  0.5951
  596MPD2     H 8889   3.592   2.840  16.768 -0.0689 -0.5413 -1.5891
  596MPD2    H1 8890   3.789   2.472  16.707  0.0126 -0.4640  0.3174
  596MPD2    H2 8891   3.577   2.539  17.072 -0.4902 -0.1386 -0.8852
  596MPD2    H3 8892   3.739   2.416  16.959 -1.5722  0.5715  2.5991
  596MPD2     N 8893   3.714   2.674  16.581 -0.0445 -0.1135 -0.1154
  596MPD2    H5 8894   3.777   2.612  16.530 -1.4476  0.3054 -2.3775
  596MPD2    N1 8895   3.485   2.786  16.994 -0.1159  0.4144  0.2213
  596MPD2    H7 8896   3.445   2.865  16.944 -0.3007  0.1114 -0.1110
  597TMC3    C1 8897   3.407   2.904  17.175 -0.4238  0.3108  0.5038
  597TMC3    C2 8898   3.425   3.009  17.091  0.7187  0.9555  0.4100
  597TMC3    C3 8899   3.346   3.114  17.099 -0.2410 -0.1834  0.0519
  597TMC3    C4 8900   3.305   2.905  17.264  0.2152 -0.1008 -0.6060
  597TMC3    C5 8901   3.231   3.014  17.276  0.0836  0.6931 -0.1387
  597TMC3    C6 8902   3.249   3.126  17.198  0.3259 -0.0736 -0.3705
  597TMC3     C 8903   3.443   2.772  17.124 -0.5537  0.5494 -0.3799
  597TMC3     O 8904   3.456   2.684  17.205 -0.2053 -0.1564 -0.1496
  597TMC3     H 8905   3.514   3.025  17.032  0.2706  2.3042  0.1114
  597TMC3    H1 8906   3.272   2.812  17.309  3.5857 -0.9468  0.0684
  597TMC3    H2 8907   3.182   3.210  17.207  0.0544  0.1946 -4.8803
  597TMC3    C7 8908   3.128   3.012  17.383 -0.1948  0.1591  0.6812
  597TMC3    C8 8909   3.382   3.226  17.024  0.7893 -0.4072  0.1779
  597TMC3    O1 8910   3.116   2.903  17.437 -1.1337  0.3504  0.2034
  597TMC3    O2 8911   3.429   3.210  16.909 -0.0448 -0.2198  0.2370
  598TMC3    C1 8912   1.739   4.126  15.337 -0.1459  0.4583  0.5773
  598TMC3    C2 8913   1.712   3.994  15.305  0.1408 -0.2189  0.2111
  598TMC3    C3 8914   1.747   3.952  15.184 -0.0389 -0.3732 -0.4562
  598TMC3    C4 8915   1.783   4.216  15.242 -0.0591  0.1240  0.2563
  598TMC3    C5 8916   1.803   4.161  15.116 -1.1270 -0.7100  0.4232
  598TMC3    C6 8917   1.797   4.030  15.083 -0.3600 -0.1563 -0.2237
  598TMC3     C 8918   1.730   4.173  15.474  0.4607  0.1057 -0.5151
  598TMC3     O 8919   1.729   4.295  15.494  0.3852  0.9379  0.8799
  598TMC3     H 8920   1.657   3.937  15.380  0.9939 -0.9477  0.2795
  598TMC3    H1 8921   1.796   4.322  15.263  2.4120  0.4226 -2.7084
  598TMC3    H2 8922   1.809   3.995  14.981  2.3310 -3.1401  1.1242
  598TMC3    C7 8923   1.826   4.247  14.998 -0.4025 -0.1810  0.6710
  598TMC3    C8 8924   1.637   3.864  15.133  0.4043  0.1116 -0.0122
  598TMC3    O1 8925   1.782   4.201  14.893 -0.1877 -0.3817  0.1499
  598TMC3    O2 8926   1.607   3.778  15.215 -0.0784 -0.4004 -0.0195
  599MPD2     C 8927   1.915   1.794  15.738  0.0683 -0.5569  0.1997
  599MPD2    C1 8928   1.859   1.666  15.750 -0.1450  0.3751  0.4250
  599MPD2    C2 8929   1.725   1.649  15.767  0.3903 -0.2002  0.2531
  599MPD2    C3 8930   1.649   1.758  15.784  0.2564  0.0935  0.0969
  599MPD2    C4 8931   1.698   1.886  15.760  0.0040  0.1473 -0.1265
  599MPD2    C5 8932   1.834   1.900  15.740 -0.3348 -0.9977 -0.4164
  599MPD2     H 8933   1.687   1.551  15.793 -1.0723  0.4243  0.4925
  599MPD2    H1 8934   1.638   1.977  15.764  0.8963  0.6641  1.7064
  599MPD2    H2 8935   2.021   1.814  15.724 -0.5350  1.8447 -0.8874
  599MPD2    H3 8936   1.884   1.996  15.731  0.9372 -1.3789  2.5350
  599MPD2     N 8937   1.510   1.746  15.826 -0.4966  0.5355 -0.1796
  599MPD2    H5 8938   1.464   1.835  15.843  1.3677  1.2389  1.1949
  599MPD2    N1 8939   1.951   1.560  15.753  0.4788 -0.4317 -0.0082
  599MPD2    H7 8940   2.045   1.585  15.779  0.6343 -1.3393  0.2888
  600TMC3    C1 8941   1.313   1.661  15.904  0.0724  0.4167  0.7662
  600TMC3    C2 8942   1.203   1.615  15.848 -0.5984 -0.5497  0.5524
  600TMC3    C3 8943   1.077   1.656  15.904 -0.4524 -0.1783  0.6497
  600TMC3    C4 8944   1.308   1.738  16.017 -0.1755 -0.7513 -0.1157
  600TMC3    C5 8945   1.190   1.774  16.076  0.2130  0.4363 -0.2155
  600TMC3    C6 8946   1.073   1.740  16.015  0.0671  0.6694  1.0847
  600TMC3     C 8947   1.435   1.635  15.847  0.0467  1.0769  0.6505
  600TMC3     O 8948   1.462   1.516  15.844  0.1280 -0.4820  0.0811
  600TMC3     H 8949   1.207   1.556  15.758 -1.1352 -0.1535  0.2662
  600TMC3    H1 8950   1.400   1.769  16.066 -0.0073 -0.9863 -0.2806
  600TMC3    H2 8951   0.978   1.766  16.059 -0.4246  1.3466 -0.3663
  600TMC3    C7 8952   1.179   1.866  16.189  0.8932  1.0378 -0.4091
  600TMC3    C8 8953   0.953   1.606  15.840 -0.0548 -0.5490 -0.4066
  600TMC3    O1 8954   1.074   1.855  16.253  0.1142 -0.1961 -0.1572
  600TMC3    O2 8955   0.979   1.527  15.747 -0.2258 -0.2607  0.7008
  601MPD2     C 8956   3.883   4.524   0.369  0.1336 -0.4534 -0.3235
  601MPD2    C1 8957   3.752   4.530   0.335  0.3885  0.1560 -0.2317
  601MPD2    C2 8958   3.659   4.452   0.408  0.2299 -0.2544 -0.1317
  601MPD2    C3 8959   3.711   4.356   0.496 -0.3436 -0.3675  0.1835
  601MPD2    C4 8960   3.847   4.349   0.522  0.4794  0.7012 -0.7089
  601MPD2    C5 8961   3.931   4.436   0.463  0.4092 -0.6504  0.6242
  601MPD2     H 8962   3.555   4.462   0.379  0.5324 -0.8899 -1.4554
  601MPD2    H1 8963   3.897   4.275   0.583  1.1967  0.1148 -2.0039
  601MPD2    H2 8964   3.953   4.587   0.317  0.0995  2.7672  3.4895
  601MPD2    H3 8965   4.035   4.432   0.493  0.7890 -1.6735 -0.8349
  601MPD2     N 8966   3.628   4.266   0.575  0.1505 -0.0010  0.2880
  601MPD2    H5 8967   3.672   4.203   0.642  0.6918 -2.1838 -2.1237
  601MPD2    N1 8968   3.702   4.611   0.227 -0.1446 -0.2842  0.0817
  601MPD2    H7 8969   3.606   4.587   0.204 -0.3743 -0.2755  1.0284
  602TMC3    C1 8970   3.676   0.036   0.063  0.6487  0.0760  0.1391
  602TMC3    C2 8971   3.703   0.170   0.020 -0.1264  0.7182  0.2027
  602TMC3    C3 8972   3.601   0.246  17.716  0.2091 -0.1894  0.3539
  602TMC3    C4 8973   3.547   4.726   0.051 -0.8762  0.1785  0.0275
  602TMC3    C5 8974   3.452   0.069  17.738  0.1844  0.1752 -0.5640
  602TMC3    C6 8975   3.474   0.197  17.687 -0.1759  0.3828  0.4723
  602TMC3     C 8976   3.764   4.720   0.166  0.4616 -0.8298 -0.3943
  602TMC3     O 8977   3.872   0.034   0.194 -0.7035 -0.6710  0.4099
  602TMC3     H 8978   3.805   0.208   0.028  0.4481 -0.8172  0.3064
  602TMC3    H1 8979   3.513   4.626   0.074  0.6143 -0.1931  0.5923
  602TMC3    H2 8980   3.404   0.242  17.617 -0.4967  1.4480  1.4663
  602TMC3    C7 8981   3.318   0.015   0.005 -0.3935 -0.0409 -0.4463
  602TMC3    C8 8982   3.611   0.388  17.725 -0.3445 -0.4281  0.2083
  602TMC3    O1 8983   3.296   4.635   0.022  0.6086 -0.0077 -0.2914
  602TMC3    O2 8984   3.719   0.445  17.733  0.0335  1.0286 -0.7461
  603TMC3    C1 8985   1.636   1.195  11.163  0.7599  0.3225 -0.6781
  603TMC3    C2 8986   1.712   1.147  11.265  0.2588  0.3897  0.2610
  603TMC3    C3 8987   1.772   1.238  11.351  0.1178  0.1220  0.3205
  603TMC3    C4 8988   1.615   1.325  11.151 -0.1315 -0.3683  0.5005
  603TMC3    C5 8989   1.669   1.417  11.240  0.2007 -0.0108  0.1027
  603TMC3    C6 8990   1.765   1.373  11.330 -0.0746  0.0035 -0.4510
  603TMC3     C 8991   1.559   1.110  11.069  0.5958  0.7400  0.3642
  603TMC3     O 8992   1.515   1.163  10.966 -0.4871 -0.0424 -0.0198
  603TMC3     H 8993   1.743   1.043  11.274 -0.3480  0.1350 -0.6052
  603TMC3    H1 8994   1.544   1.352  11.074  0.2180 -0.1162  0.2677
  603TMC3    H2 8995   1.790   1.447  11.405  0.1644 -1.2033  0.6636
  603TMC3    C7 8996   1.660   1.563  11.213 -0.2750 -0.0000 -0.3976
  603TMC3    C8 8997   1.809   1.187  11.478 -0.2098  0.0802  0.3121
  603TMC3    O1 8998   1.730   1.630  11.284  0.4494 -0.1609  0.0708
  603TMC3    O2 8999   1.755   1.079  11.501  0.0805 -0.3443  0.3643
  604MPD2     C 9000   2.453   3.591  16.697  0.4147  0.0959 -0.1350
  604MPD2    C1 9001   2.413   3.709  16.635  0.2771 -0.2087 -0.2828
  604MPD2    C2 9002   2.394   3.710  16.501  0.0033 -0.1185 -0.6020
  604MPD2    C3 9003   2.425   3.595  16.422  0.4994  0.0469 -0.3025
  604MPD2    C4 9004   2.469   3.479  16.484  0.0565 -0.4951  0.1398
  604MPD2    C5 9005   2.491   3.483  16.622  0.5739 -0.0735 -0.3312
  604MPD2     H 9006   2.365   3.802  16.451 -0.8401 -0.2949 -0.4289
  604MPD2    H1 9007   2.496   3.388  16.432  1.1787  0.4453 -0.9228
  604MPD2    H2 9008   2.471   3.587  16.804  0.6731  0.0098 -0.1819
  604MPD2    H3 9009   2.524   3.389  16.665  0.2249 -0.6816 -1.3986
  604MPD2     N 9010   2.426   3.627  16.286  0.7793 -0.0115  0.3395
  604MPD2    H5 9011   2.381   3.715  16.263 -0.5034 -0.5507  0.8281
  604MPD2    N1 9012   2.368   3.811  16.714  0.1547 -0.0194 -0.6587
  604MPD2    H7 9013   2.379   3.797  16.814 -0.0716  0.8802 -0.5078
  605TMC3    C1 9014   2.318   4.043  16.768 -0.0563  0.6241  0.4216
  605TMC3    C2 9015   2.423   4.065  16.860 -0.0693 -0.5128  0.0074
  605TMC3    C3 9016   2.433   4.193  16.918  0.4884  0.0624 -0.2128
  605TMC3    C4 9017   2.217   4.130  16.743  0.3605 -0.6784 -0.4631
  605TMC3    C5 9018   2.238   4.255  16.795  0.8557  0.3564  0.1815
  605TMC3    C6 9019   2.338   4.284  16.881 -0.1958 -0.3722 -0.5666
  605TMC3     C 9020   2.321   3.931  16.670 -0.2775 -0.7182 -0.2590
  605TMC3     O 9021   2.261   3.964  16.566  0.7584  0.3354 -0.3201
  605TMC3     H 9022   2.503   3.994  16.875  0.9099  0.7304  0.6293
  605TMC3    H1 9023   2.141   4.114  16.669  0.4196 -0.5834 -0.5446
  605TMC3    H2 9024   2.349   4.387  16.911 -1.3179 -0.5092  0.3314
  605TMC3    C7 9025   2.142   4.366  16.760  0.0489  0.0860  0.1186
  605TMC3    C8 9026   2.557   4.252  16.945  0.5697 -0.1153 -0.2315
  605TMC3    O1 9027   2.184   4.478  16.767 -0.2251  0.3764  0.0557
  605TMC3    O2 9028   2.570   4.372  16.954 -0.5625  0.1983  0.2321
  606TMC3    C1 9029   3.258   2.706  17.618  0.2275 -0.1337  0.2260
  606TMC3    C2 9030   3.137   2.689  17.688 -0.1620 -0.2668 -0.1854
  606TMC3    C3 9031   3.054   2.583  17.676 -0.5384  0.1451  0.5881
  606TMC3    C4 9032   3.295   2.617  17.526 -0.1703 -0.1248  0.1609
  606TMC3    C5 9033   3.201   2.512  17.512  0.2775 -0.1914  0.5962
  606TMC3    C6 9034   3.089   2.487  17.583  0.2032 -0.2719  0.0784
  606TMC3     C 9035   3.328   2.833  17.641 -0.6343  0.5064 -0.4002
  606TMC3     O 9036   3.271   2.905  17.727 -0.7466  0.4006  0.1087
  606TMC3     H 9037   3.096   2.778  17.735 -0.1905 -0.4454  0.1212
  606TMC3    H1 9038   3.386   2.619  17.468 -0.1850 -0.1615  0.1366
  606TMC3    H2 9039   3.011   2.420  17.550 -0.0332  0.2510 -0.4203
  606TMC3    C7 9040   3.249   2.408  17.421  0.0393  0.6457  0.2692
  606TMC3    C8 9041   2.918   2.601  17.713  0.1174 -0.1731  0.5296
  606TMC3    O1 9042   3.351   2.426  17.358 -0.2826  0.2082 -0.4470
  606TMC3    O2 9043   2.871   2.712  17.692  0.1796  0.2844  0.1915
  607MPD2     C 9044   0.730   0.980  12.356  0.2102 -0.0651 -0.3402
  607MPD2    C1 9045   0.816   0.981  12.465  0.0623 -0.2297 -0.5261
  607MPD2    C2 9046   0.852   0.861  12.515  0.2679  0.4002  0.1232
  607MPD2    C3 9047   0.815   0.740  12.463 -0.3852 -0.3225 -0.3764
  607MPD2    C4 9048   0.721   0.744  12.359 -0.4197  0.2424 -0.3484
  607MPD2    C5 9049   0.679   0.864  12.313 -0.3286 -0.3656 -0.5976
  607MPD2     H 9050   0.925   0.856  12.595 -1.8870  1.3206  2.1508
  607MPD2    H1 9051   0.687   0.655  12.307 -1.4611 -0.3152  1.2649
  607MPD2    H2 9052   0.686   1.070  12.316 -1.8980 -0.3184  1.3644
  607MPD2    H3 9053   0.598   0.872  12.241 -0.2842  2.4549 -0.3158
  607MPD2     N 9054   0.878   0.625  12.524  0.1402 -0.0473  0.0368
  607MPD2    H5 9055   0.935   0.646  12.605 -1.4410  0.6994  0.9694
  607MPD2    N1 9056   0.889   1.094  12.507 -0.2766 -0.4216 -0.1238
  607MPD2    H7 9057   0.954   1.068  12.581  3.5779  2.4120 -2.5287
  608TMC3    C1 9058   0.996   1.298  12.494 -0.5868  0.1811  0.0728
  608TMC3    C2 9059   1.065   1.251  12.605 -0.7707 -0.0698 -0.6677
  608TMC3    C3 9060   1.190   1.301  12.623 -0.0927  0.0711 -0.3369
  608TMC3    C4 9061   1.042   1.391  12.406 -0.1650 -0.2393 -0.1724
  608TMC3    C5 9062   1.170   1.434  12.434 -0.7300 -0.7985 -0.7806
  608TMC3    C6 9063   1.246   1.392  12.544 -0.9742 -0.3187  0.0270
  608TMC3     C 9064   0.891   1.215  12.443  0.3554  0.1586  0.6299
  608TMC3     O 9065   0.823   1.259  12.356 -0.5692  0.0347  0.1233
  608TMC3     H 9066   1.019   1.199  12.688  3.1186 -0.8330  0.9631
  608TMC3    H1 9067   0.989   1.420  12.316 -0.6660 -0.5091  0.0323
  608TMC3    H2 9068   1.347   1.431  12.553 -1.2537  0.1514  1.2068
  608TMC3    C7 9069   1.240   1.493  12.322  0.1505 -0.2949 -0.0060
  608TMC3    C8 9070   1.283   1.232  12.717  0.0178 -0.4176  0.2341
  608TMC3    O1 9071   1.199   1.466  12.209 -0.0964 -0.1156 -0.3599
  608TMC3    O2 9072   1.372   1.286  12.780 -0.1106 -0.4470 -0.1666
  609TMC3    C1 9073   4.402   0.302   9.316  0.0096 -0.4659  0.4489
  609TMC3    C2 9074   4.429   0.436   9.322 -0.8433 -0.4023 -0.0631
  609TMC3    C3 9075   4.560   0.485   9.326  0.7113  0.7933 -0.4749
  609TMC3    C4 9076   4.507   0.218   9.312 -0.1132 -0.4716 -0.2461
  609TMC3    C5 9077   4.633   0.270   9.309 -0.3172  0.1707  0.4398
  609TMC3    C6 9078   4.670   0.399   9.312 -0.1346  0.3668 -0.4339
  609TMC3     C 9079   4.280   0.240   9.372  0.0716 -0.2788 -0.0786
  609TMC3     O 9080   4.277   0.123   9.403  0.2543  0.3064  0.1913
  609TMC3     H 9081   4.343   0.503   9.320 -0.2696  0.2963 -1.0150
  609TMC3    H1 9082   4.486   0.112   9.312  0.9412 -0.6880 -0.1045
  609TMC3    H2 9083   0.035   0.432   9.295 -0.5770  1.3887 -1.1117
  609TMC3    C7 9084   0.002   0.179   9.280 -0.0924  0.4864  0.0403
  609TMC3    C8 9085   4.577   0.618   9.376  0.0617 -0.0310 -0.3049
  609TMC3    O1 9086   0.112   0.206   9.317  0.5332  0.6223 -0.2896
  609TMC3    O2 9087   4.483   0.675   9.419 -0.0684  0.1372  0.1097
  610TMC3    C1 9088   1.860   1.067  12.649  0.5991  0.2391 -0.1360
  610TMC3    C2 9089   1.740   1.114  12.602  0.3630 -0.1784 -0.4249
  610TMC3    C3 9090   1.646   1.016  12.572 -0.4745  0.7327 -0.2896
  610TMC3    C4 9091   1.877   0.942  12.688 -0.0939  0.4385 -0.1727
  610TMC3    C5 9092   1.776   0.854  12.674 -0.9418 -0.0299  0.2691
  610TMC3    C6 9093   1.664   0.890  12.612 -0.2378 -0.6565  0.8806
  610TMC3     C 9094   1.959   1.160  12.701 -0.1334 -0.5354 -0.2247
  610TMC3     O 9095   2.072   1.127  12.734  0.3183 -0.0514  0.1127
  610TMC3     H 9096   1.724   1.205  12.546 -2.6784  1.0935  2.5224
  610TMC3    H1 9097   1.969   0.920  12.742  0.2784  3.1092  0.2833
  610TMC3    H2 9098   1.593   0.810  12.598 -0.1748 -0.8645  1.7880
  610TMC3    C7 9099   1.820   0.716  12.670  0.2516  0.1948 -0.0358
  610TMC3    C8 9100   1.526   1.052  12.501  1.1847  0.3998  0.5178
  610TMC3    O1 9101   1.926   0.701  12.730 -0.1507  0.0006  0.0959
  610TMC3    O2 9102   1.523   1.165  12.464  0.9679 -0.0240 -0.4036
  611MPD2     C 9103   0.928   1.148  10.587 -0.3926 -0.5865  0.1532
  611MPD2    C1 9104   0.831   1.242  10.568  0.3483 -0.3145 -0.0857
  611MPD2    C2 9105   0.866   1.376  10.566  0.4597 -1.0571  0.8722
  611MPD2    C3 9106   0.997   1.419  10.587  0.2738 -0.2197 -0.8162
  611MPD2    C4 9107   1.086   1.317  10.617  0.0915  0.2700 -0.2864
  611MPD2    C5 9108   1.051   1.185  10.611 -0.0078  0.1541  0.2341
  611MPD2     H 9109   0.783   1.445  10.561  0.2512 -1.3032  0.9629
  611MPD2    H1 9110   1.189   1.339  10.644  0.1469  0.2903 -0.5189
  611MPD2    H2 9111   0.905   1.042  10.589 -0.6142 -0.5987 -2.4970
  611MPD2    H3 9112   1.125   1.108  10.634 -0.2147 -0.1498 -0.1301
  611MPD2     N 9113   1.035   1.555  10.586 -0.9949 -0.1733 -0.6975
  611MPD2    H5 9114   1.125   1.580  10.625 -2.6192  0.1800  2.8603
  611MPD2    N1 9115   0.695   1.199  10.556 -0.1732  0.2554 -0.5986
  611MPD2    H7 9116   0.681   1.098  10.557  1.2023  0.0623 -1.4654
  612TMC3    C1 9117   1.012   1.785  10.549  0.7417  0.5281  0.2001
  612TMC3    C2 9118   1.138   1.810  10.618  1.0655 -0.1466 -0.3299
  612TMC3    C3 9119   1.166   1.939  10.659 -0.1921 -0.6344 -0.2199
  612TMC3    C4 9120   0.926   1.893  10.530 -0.6867  0.1772 -0.1751
  612TMC3    C5 9121   0.966   2.020  10.560 -0.0079  0.5587  1.1136
  612TMC3    C6 9122   1.090   2.043  10.622 -0.6401 -0.1851  0.0713
  612TMC3     C 9123   0.954   1.657  10.527  0.1529 -0.8537 -1.0520
  612TMC3     O 9124   0.851   1.656  10.468 -1.0253  0.3621  0.3136
  612TMC3     H 9125   1.205   1.727  10.641  2.0979  0.2997 -1.7046
  612TMC3    H1 9126   0.843   1.882  10.462 -1.3215  0.9700  0.4824
  612TMC3    H2 9127   1.140   2.137  10.643  1.1711 -0.5706 -2.4864
  612TMC3    C7 9128   0.898   2.130  10.486 -0.4034 -0.2849  0.8138
  612TMC3    C8 9129   1.280   1.969  10.740 -0.8678  0.1133 -0.8144
  612TMC3    O1 9130   0.777   2.105  10.456 -0.3991  0.1050  0.2903
  612TMC3    O2 9131   1.312   2.088  10.753 -0.7081  0.6566 -0.3145
  613MPD2     C 9132   4.610   2.515  16.700  0.2035  0.3896  0.0788
  613MPD2    C1 9133   4.661   2.548  16.583  0.3365  0.8892 -0.3888
  613MPD2    C2 9134   4.631   2.474  16.472  0.2803  0.5142  0.5773
  613MPD2    C3 9135   4.553   2.362  16.473  0.3696 -0.2203  0.8061
  613MPD2    C4 9136   4.519   2.317  16.593  0.4798 -0.0928 -0.1358
  613MPD2    C5 9137   4.533   2.401  16.701 -0.3243 -0.8045  0.4990
  613MPD2     H 9138   4.672   2.514  16.381  0.3518  0.1951  0.4678
  613MPD2    H1 9139   4.460   2.226  16.592  0.4081 -0.0551  0.9198
  613MPD2    H2 9140   4.636   2.564  16.793  1.7282  2.1795 -1.2859
  613MPD2    H3 9141   4.499   2.366  16.798  1.5345 -1.1329  1.0406
  613MPD2     N 9142   4.536   2.287  16.361 -0.5819 -0.3060  0.3257
  613MPD2    H5 9143   4.520   2.187  16.363 -1.1111 -0.1936  1.4029
  613MPD2    N1 9144   0.010   2.661  16.558 -0.1050 -0.4405  0.2762
  613MPD2    H7 9145   0.049   2.667  16.464 -2.9909 -0.4925 -0.8969
  614TMC3    C1 9146   0.118   2.863  16.589  0.1907  0.3296  0.5941
  614TMC3    C2 9147   0.198   2.807  16.496 -0.2387 -0.3456  1.0062
  614TMC3    C3 9148   0.219   2.865  16.371 -0.0931 -0.3402 -0.1652
  614TMC3    C4 9149   0.059   2.981  16.566  0.0461 -0.2352  0.3260
  614TMC3    C5 9150   0.069   3.032  16.432  0.2601  0.6233  0.3623
  614TMC3    C6 9151   0.154   2.981  16.329 -0.7803 -0.0708  0.3065
  614TMC3     C 9152   0.041   2.761  16.652  0.1316  0.2352 -0.1776
  614TMC3     O 9153   0.005   2.774  16.762  0.3453 -0.5589 -0.4963
  614TMC3     H 9154   0.252   2.715  16.516 -1.9564 -1.2397  1.5373
  614TMC3    H1 9155   4.733   3.025  16.642 -0.2964  0.4744 -0.3602
  614TMC3    H2 9156   0.177   3.022  16.232 -2.0667  1.4531  0.6401
  614TMC3    C7 9157   0.028   3.169  16.410  0.2427  0.0900 -1.0024
  614TMC3    C8 9158   0.222   2.757  16.276 -0.5048  0.8117 -0.2544
  614TMC3    O1 9159   0.012   3.237  16.511 -0.1109  0.2542 -0.0632
  614TMC3    O2 9160   0.122   2.684  16.289  0.3356  0.0567  0.1095
  615MPD2     C 9161   4.298   4.291  16.271 -0.3375 -0.2509  0.2139
  615MPD2    C1 9162   4.291   4.397  16.187 -0.0781 -0.5912  0.0328
  615MPD2    C2 9163   4.196   4.395  16.091 -0.7564 -0.6010 -0.6506
  615MPD2    C3 9164   4.118   4.284  16.071 -0.1906 -0.2298 -0.4003
  615MPD2    C4 9165   4.116   4.186  16.157  0.3304  0.1161 -0.3665
  615MPD2    C5 9166   4.216   4.187  16.261 -0.0299 -0.3216  0.3864
  615MPD2     H 9167   4.191   4.468  16.011 -0.6125  0.2826  0.1462
  615MPD2    H1 9168   4.064   4.092  16.142  0.3996  0.0050  0.0708
  615MPD2    H2 9169   4.362   4.299  16.359  0.6136  0.5593 -0.5542
  615MPD2    H3 9170   4.220   4.112  16.339 -1.9538  1.2939  2.0481
  615MPD2     N 9171   4.034   4.283  15.956 -0.6591 -0.1290 -0.5938
  615MPD2    H5 9172   4.053   4.355  15.887 -1.6911  0.3779 -0.3552
  615MPD2    N1 9173   4.369   4.513  16.210 -0.4605  0.4090  0.5144
  615MPD2    H7 9174   4.344   4.597  16.157  0.1461 -0.0393 -0.4719
  616TMC3    C1 9175   4.552   4.642  16.296 -0.0679 -0.2862  0.2043
  616TMC3    C2 9176   4.686   4.667  16.275  0.3724  0.0099 -0.1356
  616TMC3    C3 9177   4.728   0.062  16.282 -0.5803 -0.3153 -0.0748
  616TMC3    C4 9178   4.464   0.013  16.311  0.1911 -0.2836 -0.0294
  616TMC3    C5 9179   4.516   0.137  16.320 -0.4233 -0.7521  0.9890
  616TMC3    C6 9180   4.647   0.168  16.310  0.0320  0.3429 -0.0323
  616TMC3     C 9181   4.494   4.519  16.274 -0.2385  0.1723 -1.3170
  616TMC3     O 9182   4.565   4.422  16.289 -0.1090  1.0783 -0.2901
  616TMC3     H 9183   0.022   4.589  16.255 -1.0337 -1.1212 -0.7819
  616TMC3    H1 9184   4.361   4.721  16.327  0.2304  0.0443  0.7471
  616TMC3    H2 9185   4.690   0.266  16.330  0.6910 -0.3358  1.8689
  616TMC3    C7 9186   4.429   0.238  16.377  0.7079  0.2017  0.6902
  616TMC3    C8 9187   0.133   0.089  16.257  0.1785  1.1780 -0.2735
  616TMC3    O1 9188   4.461   0.352  16.348 -0.6524  0.0691 -0.0819
  616TMC3    O2 9189   0.214   0.011  16.307 -0.8254 -0.1435  0.0765
  617MPD2     C 9190   2.358   2.656  13.726 -0.0900  0.6455  0.2480
  617MPD2    C1 9191   2.344   2.689  13.856  0.4328  0.3791  0.6425
  617MPD2    C2 9192   2.236   2.645  13.927  0.0364  0.5478 -0.6824
  617MPD2    C3 9193   2.128   2.586  13.857 -0.3409  0.1546 -0.2936
  617MPD2    C4 9194   2.139   2.567  13.722  0.1205 -0.5425 -0.1575
  617MPD2    C5 9195   2.257   2.594  13.659 -0.2900 -0.2969 -0.0429
  617MPD2     H 9196   2.229   2.663  14.034 -1.5124  0.3625 -0.7469
  617MPD2    H1 9197   2.059   2.521  13.664  0.4815 -0.6978 -0.5327
  617MPD2    H2 9198   2.435   2.696  13.661  0.0408 -0.1801 -0.1037
  617MPD2    H3 9199   2.268   2.581  13.552 -2.0463 -2.2129  0.0095
  617MPD2     N 9200   2.010   2.531  13.922  0.1619 -0.3115  0.0134
  617MPD2    H5 9201   1.940   2.499  13.855 -0.9410  0.1324  0.9550
  617MPD2    N1 9202   2.447   2.756  13.918  0.0390 -1.0105  0.3520
  617MPD2    H7 9203   2.521   2.783  13.854  0.2768 -2.6422 -0.0466
  618TMC3    C1 9204   2.587   2.880  14.056 -0.9944  0.2281  0.5170
  618TMC3    C2 9205   2.685   2.844  14.143 -0.2572 -0.4157 -0.0872
  618TMC3    C3 9206   2.807   2.864  14.095  0.4544 -0.6719  0.5112
  618TMC3    C4 9207   2.618   2.933  13.928 -0.2705 -0.1753 -0.3654
  618TMC3    C5 9208   2.746   2.940  13.888 -0.0211  0.1386 -0.2937
  618TMC3    C6 9209   2.845   2.904  13.974 -0.6629 -0.4245 -0.1155
  618TMC3     C 9210   2.469   2.790  14.050 -0.0103 -0.6002  0.3652
  618TMC3     O 9211   2.415   2.747  14.150 -0.1592  0.4558  0.0159
  618TMC3     H 9212   2.650   2.797  14.234 -1.9023 -0.6234 -0.8361
  618TMC3    H1 9213   2.542   2.971  13.861  0.1445  2.3035  0.5462
  618TMC3    H2 9214   2.948   2.909  13.943 -0.8765  0.0459 -0.7510
  618TMC3    C7 9215   2.747   2.871  13.757 -0.1806 -0.3866  0.0892
  618TMC3    C8 9216   2.914   2.801  14.179  1.0662  0.1807 -0.0648
  618TMC3    O1 9217   2.642   2.831  13.716  0.1119 -0.1568  0.0269
  618TMC3    O2 9218   2.890   2.806  14.297  0.3038 -0.4153  0.3528
  619MPD2     C 9219   3.760   3.730  13.531 -0.0746 -0.2228  0.8663
  619MPD2    C1 9220   3.657   3.818  13.494  0.0346 -0.0685 -0.6354
  619MPD2    C2 9221   3.534   3.793  13.548  0.0906 -1.4644 -0.4521
  619MPD2    C3 9222   3.505   3.684  13.630  0.0913 -0.7006 -0.0540
  619MPD2    C4 9223   3.608   3.597  13.665 -0.0690 -0.2906  0.1775
  619MPD2    C5 9224   3.732   3.625  13.611 -0.7666 -0.2859  0.2135
  619MPD2     H 9225   3.453   3.861  13.522 -0.8309 -1.5767  2.1316
  619MPD2    H1 9226   3.603   3.501  13.714  0.5604  0.5878  1.9778
  619MPD2    H2 9227   3.864   3.728  13.503 -0.2284  0.4226  0.2475
  619MPD2    H3 9228   3.822   3.576  13.648 -0.2928 -0.0687 -0.6344
  619MPD2     N 9229   3.372   3.648  13.666 -0.6751 -0.3620 -0.0672
  619MPD2    H5 9230   3.347   3.554  13.693 -0.7614  0.3551  2.3286
  619MPD2    N1 9231   3.676   3.934  13.414 -0.0665  0.3088 -0.3616
  619MPD2    H7 9232   3.597   3.979  13.369  0.7123  0.5242 -1.5259
  620TMC3    C1 9233   3.772   4.089  13.291  0.5161  0.2357  0.1335
  620TMC3    C2 9234   3.660   4.085  13.220  0.5924  0.4345 -0.2800
  620TMC3    C3 9235   3.576   4.190  13.201  0.0040  0.0988  0.4600
  620TMC3    C4 9236   3.803   4.204  13.364  0.7240 -0.0034  0.7035
  620TMC3    C5 9237   3.714   4.312  13.348  0.4855  0.6483 -0.1992
  620TMC3    C6 9238   3.609   4.308  13.252  0.0732 -0.9384  0.0226
  620TMC3     C 9239   3.799   3.978  13.377 -0.5659  0.2350 -0.2145
  620TMC3     O 9240   3.913   3.947  13.401 -0.4362  0.0198  0.2514
  620TMC3     H 9241   3.644   3.994  13.163 -3.5685  0.3695  0.9539
  620TMC3    H1 9242   3.885   4.206  13.435  1.4597 -2.5830 -0.0734
  620TMC3    H2 9243   3.551   4.398  13.238  0.2294 -1.0167 -1.1031
  620TMC3    C7 9244   3.736   4.437  13.415 -0.2855 -0.9317 -0.1601
  620TMC3    C8 9245   3.440   4.152  13.245  0.1180  0.3938  0.3937
  620TMC3    O1 9246   3.653   4.527  13.408  0.1950 -0.1106  0.4115
  620TMC3    O2 9247   3.435   4.036  13.285  0.2258  1.0672  0.4074
  621MPD2     C 9248   4.443   3.991   9.136  0.3897  0.8258  0.4693
  621MPD2    C1 9249   4.383   4.084   9.214 -0.5080 -0.1797 -0.2578
  621MPD2    C2 9250   4.462   4.165   9.291  0.2384  0.5396  0.6235
  621MPD2    C3 9251   4.597   4.144   9.306 -0.4573 -0.3953  0.2838
  621MPD2    C4 9252   4.654   4.050   9.227  0.0217 -0.1473 -0.5892
  621MPD2    C5 9253   4.582   3.969   9.146 -0.1693  0.2269 -0.3309
  621MPD2     H 9254   4.418   4.249   9.343  1.4562  0.8408  1.1632
  621MPD2    H1 9255   0.025   4.034   9.233 -0.1527 -0.3841  1.8055
  621MPD2    H2 9256   4.387   3.926   9.070 -0.1037 -0.1951  1.9168
  621MPD2    H3 9257   4.629   3.899   9.078  0.7760  0.8300 -0.2913
  621MPD2     N 9258   4.675   4.230   9.390 -0.1128  0.3582 -0.4131
  621MPD2    H5 9259   4.625   4.306   9.436  2.5088  1.9070 -0.1192
  621MPD2    N1 9260   4.244   4.114   9.211  1.0252  0.6610 -0.9153
  621MPD2    H7 9261   4.221   4.196   9.265 -1.7751  0.0552 -1.1765
  622TMC3    C1 9262   4.017   4.090   9.152 -0.2705  0.1572  0.4849
  622TMC3    C2 9263   3.917   3.998   9.117  0.0601 -0.2193 -0.1083
  622TMC3    C3 9264   3.783   4.044   9.134 -0.3156 -0.1521 -0.3544
  622TMC3    C4 9265   3.991   4.222   9.179  0.2892 -0.3389  0.2315
  622TMC3    C5 9266   3.858   4.261   9.193  0.3913  0.1120  0.1629
  622TMC3    C6 9267   3.756   4.172   9.176 -0.8345 -0.3585  0.1153
  622TMC3     C 9268   4.151   4.042   9.133  0.2182 -0.2505  0.0869
  622TMC3     O 9269   4.167   3.951   9.050  0.7870  0.6452  0.0745
  622TMC3     H 9270   3.936   3.897   9.082 -0.2011 -0.5639  0.7534
  622TMC3    H1 9271   4.067   4.299   9.176 -0.0274 -0.1185 -2.4961
  622TMC3    H2 9272   3.659   4.211   9.145 -0.3678  0.1383 -0.7124
  622TMC3    C7 9273   3.829   4.407   9.205 -0.8008 -0.0905  0.5275
  622TMC3    C8 9274   3.677   3.949   9.162 -0.2220 -0.4977  0.5537
  622TMC3    O1 9275   3.921   4.477   9.157  0.2307 -0.1083  0.2127
  622TMC3    O2 9276   3.561   3.985   9.161  0.9085 -0.0251 -0.3438
  623MPD2     C 9277   3.262   0.041  16.170  0.4640 -0.2900  0.1135
  623MPD2    C1 9278   3.195   4.670  16.230 -0.4318  0.8637 -0.1712
  623MPD2    C2 9279   3.200   4.646  16.369  0.1271 -0.0959  0.0898
  623MPD2    C3 9280   3.278   4.723  16.458  0.2019 -0.2450  0.8711
  623MPD2    C4 9281   3.358   0.078  16.395 -0.3916 -0.0701  0.0687
  623MPD2    C5 9282   3.354   0.103  16.257  0.1191 -0.3064 -1.2442
  623MPD2     H 9283   3.155   4.555  16.408  1.0398 -1.3689 -1.8354
  623MPD2    H1 9284   3.407   0.158  16.449 -2.4392  0.0903  1.6532
  623MPD2    H2 9285   3.241   0.065  16.067  1.3969 -0.2737 -0.0671
  623MPD2    H3 9286   3.405   0.188  16.215 -0.7011  0.2259 -1.1636
  623MPD2     N 9287   3.262   4.702  16.598 -0.1395 -0.0054  0.0359
  623MPD2    H5 9288   3.191   4.630  16.612  0.7610 -1.1556 -1.3582
  623MPD2    N1 9289   3.110   4.582  16.157 -0.2935  0.3809 -0.4257
  623MPD2    H7 9290   3.084   4.499  16.211  1.0465  0.7991  0.8588
  624TMC3    C1 9291   3.397   4.632  17.033  0.7096 -0.3717 -0.2030
  624TMC3    C2 9292   3.278   4.587  17.071 -0.4526  1.3013  0.0877
  624TMC3    C3 9293   3.171   4.613  16.988  0.1982  0.1029  0.7220
  624TMC3    C4 9294   3.410   4.699  16.908  0.4449 -0.4507 -0.2496
  624TMC3    C5 9295   3.304   4.718  16.826 -0.6357 -0.7334 -0.3551
  624TMC3    C6 9296   3.181   4.664  16.866  0.3290  0.3609  0.1034
  624TMC3     C 9297   3.501   4.534  17.064  0.2049  0.5336 -0.3167
  624TMC3     O 9298   3.471   4.419  17.096 -0.4192 -0.2512 -0.7305
  624TMC3     H 9299   3.276   4.526  17.160 -1.8479  1.2771  0.0346
  624TMC3    H1 9300   3.504   0.006  16.875  0.0597 -1.1238 -2.1864
  624TMC3    H2 9301   3.090   4.682  16.810  0.4176 -1.1793 -0.5251
  624TMC3    C7 9302   3.326   0.032  16.698  0.8578  0.1571 -0.2193
  624TMC3    C8 9303   3.050   4.529  17.002  0.4464  0.5645 -0.5886
  624TMC3    O1 9304   3.432   0.098  16.684 -0.6966 -0.4622  0.2059
  624TMC3    O2 9305   2.953   4.568  16.942 -0.1738  0.3270 -0.7342
  625MPD2     C 9306   3.249   0.801   0.615 -0.0916  1.0723  0.6370
  625MPD2    C1 9307   3.255   0.936   0.637  0.5800  0.3108 -0.0666
  625MPD2    C2 9308   3.371   0.978   0.702 -0.6539 -0.0177  0.2868
  625MPD2    C3 9309   3.474   0.894   0.742  0.7054 -0.5156 -0.1946
  625MPD2    C4 9310   3.460   0.758   0.734  0.5193 -0.0194  1.0369
  625MPD2    C5 9311   3.348   0.719   0.668 -0.0302  0.0309  0.2424
  625MPD2     H 9312   3.377   1.080   0.738 -0.8434  1.8283 -4.9397
  625MPD2    H1 9313   3.533   0.682   0.755  1.5073  0.5999 -0.1551
  625MPD2    H2 9314   3.166   0.740   0.583 -1.0166  3.2075 -1.0055
  625MPD2    H3 9315   3.335   0.613   0.647 -1.3151 -0.2265  2.3493
  625MPD2     N 9316   3.599   0.952   0.793  0.2948  0.4150  0.7931
  625MPD2    H5 9317   3.599   1.052   0.810  0.0554  0.3143  1.3854
  625MPD2    N1 9318   3.145   1.023   0.622  0.0646  0.0882  0.2947
  625MPD2    H7 9319   3.155   1.118   0.657  0.3982 -0.8573  2.7361
  626TMC3    C1 9320   2.934   1.088   0.562  0.5985  0.5545  0.1425
  626TMC3    C2 9321   2.852   1.099   0.456  0.0930  0.2196 -0.4993
  626TMC3    C3 9322   2.743   1.185   0.451  0.1003 -0.5127 -0.0595
  626TMC3    C4 9323   2.903   1.158   0.678 -0.1564  0.3013 -0.0448
  626TMC3    C5 9324   2.803   1.253   0.670 -0.1790 -0.6233 -0.4300
  626TMC3    C6 9325   2.725   1.265   0.560  0.6878  0.2499  0.6449
  626TMC3     C 9326   3.027   0.987   0.561 -0.9452  0.5286  0.7444
  626TMC3     O 9327   3.007   0.884   0.499  0.3312  0.0582  0.9877
  626TMC3     H 9328   2.884   1.040   0.371  0.1854  0.4799 -0.6450
  626TMC3    H1 9329   2.970   1.142   0.762 -0.5584  0.9737  0.4097
  626TMC3    H2 9330   2.647   1.341   0.558  0.5695  0.0274 -3.2727
  626TMC3    C7 9331   2.750   1.306   0.799  0.1060  0.0396  0.5392
  626TMC3    C8 9332   2.709   1.232   0.323  0.2052  0.4315 -0.1841
  626TMC3    O1 9333   2.818   1.286   0.896  0.1014 -0.6439 -0.6750
  626TMC3    O2 9334   2.764   1.182   0.225  0.1104  0.2555 -0.1398
  627MPD2     C 9335   1.550   1.366  14.468 -0.3376  0.1302 -0.7289
  627MPD2    C1 9336   1.650   1.303  14.542  0.2671 -0.6016  0.3857
  627MPD2    C2 9337   1.645   1.162  14.547  0.0040 -0.7634  0.3454
  627MPD2    C3 9338   1.551   1.097  14.472  0.3885 -0.0256  0.5339
  627MPD2    C4 9339   1.463   1.161  14.391 -1.4327  0.0005 -0.4797
  627MPD2    C5 9340   1.471   1.299  14.387  0.1476  0.0678  0.0652
  627MPD2     H 9341   1.710   1.108  14.615  1.2704 -2.7035 -2.4637
  627MPD2    H1 9342   1.388   1.108  14.333 -0.8537 -1.5631  0.2062
  627MPD2    H2 9343   1.545   1.474  14.460  1.3732  0.2088 -0.8398
  627MPD2    H3 9344   1.399   1.353  14.326 -0.0723  2.5561  2.5327
  627MPD2     N 9345   1.547   0.958  14.488 -0.2228  0.9750 -0.0318
  627MPD2    H5 9346   1.631   0.919  14.529  0.3480 -2.0543 -4.0622
  627MPD2    N1 9347   1.751   1.363  14.616 -0.2454 -0.4103 -0.5434
  627MPD2    H7 9348   1.825   1.303  14.653 -0.5020  0.2634  1.0754
  628TMC3    C1 9349   1.896   1.534  14.678  0.7818  0.4567  0.5434
  628TMC3    C2 9350   1.981   1.444  14.733  0.1962 -0.3454  0.2158
  628TMC3    C3 9351   2.093   1.498  14.788  0.3346 -1.2476 -0.1093
  628TMC3    C4 9352   1.918   1.674  14.677  0.0874  0.4361  0.0477
  628TMC3    C5 9353   2.041   1.718  14.721 -0.3662  0.1347  0.7193
  628TMC3    C6 9354   2.125   1.632  14.783 -0.6256 -0.2026  0.4659
  628TMC3     C 9355   1.763   1.495  14.640 -0.6680 -0.0758  0.7248
  628TMC3     O 9356   1.683   1.581  14.615  0.1065 -0.2475  0.0010
  628TMC3     H 9357   1.961   1.338  14.747  3.1659 -0.8947  0.2440
  628TMC3    H1 9358   1.844   1.741  14.634  1.4078  2.1261  0.3991
  628TMC3    H2 9359   2.202   1.685  14.839 -1.2374  2.4382 -1.2153
  628TMC3    C7 9360   2.081   1.855  14.695 -0.6450 -0.1745 -0.5572
  628TMC3    C8 9361   2.196   1.400  14.833  0.1042  0.4353 -0.1714
  628TMC3    O1 9362   2.202   1.879  14.707  0.1475  0.1405  0.0488
  628TMC3    O2 9363   2.160   1.283  14.848  0.6255 -0.2169  0.4647
  629MPD2     C 9364   0.516   0.400  16.090  0.5760  0.0840  0.2929
  629MPD2    C1 9365   0.518   0.288  16.173 -0.3960  0.1585 -0.5358
  629MPD2    C2 9366   0.404   0.217  16.207 -0.9406 -0.7143 -0.2923
  629MPD2    C3 9367   0.282   0.263  16.162 -0.1732  0.2773 -0.1957
  629MPD2    C4 9368   0.279   0.376  16.085 -0.1441  0.2146  0.4551
  629MPD2    C5 9369   0.394   0.443  16.048 -0.4410 -0.1656  0.7405
  629MPD2     H 9370   0.407   0.126  16.265 -1.2925 -0.9040 -0.5770
  629MPD2    H1 9371   0.186   0.421  16.051  0.6520  1.5091  0.0060
  629MPD2    H2 9372   0.606   0.453  16.060  2.3306 -2.7112  0.6104
  629MPD2    H3 9373   0.392   0.531  15.986  0.7187 -0.6356  0.0287
  629MPD2     N 9374   0.162   0.202  16.184  0.3767  0.1753  0.2836
  629MPD2    H5 9375   0.080   0.245  16.142  0.4338  0.5195  0.5247
  629MPD2    N1 9376   0.650   0.261  16.231 -0.4108  0.3247 -0.4982
  629MPD2    H7 9377   0.712   0.341  16.230 -0.3891  0.3260  0.6689
  630TMC3    C1 9378   0.795   0.161  16.386 -0.5620  0.2496  0.9336
  630TMC3    C2 9379   0.871   0.279  16.394 -0.2846  0.2425  0.6003
  630TMC3    C3 9380   0.925   0.319  16.513 -0.0220  0.2324  0.1472
  630TMC3    C4 9381   0.783   0.075  16.497 -0.4451  0.4587 -0.2537
  630TMC3    C5 9382   0.846   0.115  16.614 -0.0727  0.1532 -0.0032
  630TMC3    C6 9383   0.915   0.237  16.626 -0.4883  0.0473 -0.1673
  630TMC3     C 9384   0.690   0.146  16.292  0.2699  0.1361 -0.1410
  630TMC3     O 9385   0.633   0.040  16.291  0.1880 -0.0104  0.0275
  630TMC3     H 9386   0.913   0.313  16.301 -4.7365  1.4103 -0.9880
  630TMC3    H1 9387   0.716   4.726  16.494  0.3285 -0.1406 -0.5947
  630TMC3    H2 9388   0.958   0.265  16.721 -1.8441 -2.0195  1.0658
  630TMC3    C7 9389   0.801   0.052  16.735  0.2600 -0.2988 -1.5105
  630TMC3    C8 9390   1.036   0.417  16.510  0.0308  0.5745 -0.3850
  630TMC3    O1 9391   0.684   0.016  16.728 -0.1233 -0.1187  0.5363
  630TMC3    O2 9392   1.127   0.388  16.588 -0.1924 -0.5059  0.6969
  631MPD2     C 9393   3.987   0.041  15.173  0.2627  0.2922 -0.6548
  631MPD2    C1 9394   3.901   0.065  15.286  0.5616  0.2133 -0.1417
  631MPD2    C2 9395   3.882   4.697  15.376 -0.1524  0.0392  0.4197
  631MPD2    C3 9396   3.947   4.576  15.368  0.0996  0.4708 -0.4280
  631MPD2    C4 9397   4.031   4.551  15.255  0.9215 -0.1494  1.0432
  631MPD2    C5 9398   4.036   4.648  15.150 -0.5329 -0.0144  0.0839
  631MPD2     H 9399   3.827   4.721  15.466  0.2373  1.6166  0.2408
  631MPD2    H1 9400   4.088   4.460  15.237  0.4560 -0.0023 -1.1222
  631MPD2    H2 9401   4.001   0.114  15.094 -2.0611  1.7273  0.2616
  631MPD2    H3 9402   4.090   4.629  15.058 -1.9392  0.5416 -0.8466
  631MPD2     N 9403   3.927   4.490  15.477 -0.3523  0.0642  0.2592
  631MPD2    H5 9404   3.854   4.521  15.540  1.6282  1.4579  1.8734
  631MPD2    N1 9405   3.835   0.192  15.281 -0.6417 -0.0367 -0.0098
  631MPD2    H7 9406   3.838   0.242  15.193  2.3658  0.0956  0.1536
  632TMC3    C1 9407   3.687   0.368  15.363  0.4851 -0.3930 -0.3006
  632TMC3    C2 9408   3.578   0.401  15.440 -0.6159 -0.1303  0.6963
  632TMC3    C3 9409   3.472   0.456  15.375 -0.3271 -0.2354  1.0181
  632TMC3    C4 9410   3.701   0.408  15.232  0.2662  0.4316  0.3152
  632TMC3    C5 9411   3.601   0.481  15.174 -0.1839 -0.3825  0.0674
  632TMC3    C6 9412   3.486   0.496  15.247 -0.2886 -0.9862  0.6720
  632TMC3     C 9413   3.760   0.243  15.391  0.1283  0.0199  0.0805
  632TMC3     O 9414   3.739   0.189  15.502  0.0088  0.4940  0.1497
  632TMC3     H 9415   3.575   0.368  15.543  1.0504 -0.5879  0.5983
  632TMC3    H1 9416   3.799   0.414  15.188 -0.0527 -2.0055 -0.6918
  632TMC3    H2 9417   3.398   0.539  15.202  0.6699  1.0402  0.6888
  632TMC3    C7 9418   3.619   0.560  15.060  0.6030 -0.4257 -0.3987
  632TMC3    C8 9419   3.350   0.393  15.416  0.3807  0.7464 -0.2200
  632TMC3    O1 9420   3.585   0.679  15.083  0.0916  0.2475  0.1893
  632TMC3    O2 9421   3.350   0.355  15.532 -0.6179 -0.3067  0.5575
  633MPD2     C 9422   2.775   2.367  17.432 -0.7488  0.4038  0.6002
  633MPD2    C1 9423   2.823   2.323  17.314 -0.5310  0.0896  0.5411
  633MPD2    C2 9424   2.781   2.199  17.271 -0.3751 -0.3716  0.3282
  633MPD2    C3 9425   2.692   2.122  17.345 -0.6786  0.2199  0.3276
  633MPD2    C4 9426   2.676   2.161  17.476  0.2771 -0.0321 -0.0495
  633MPD2    C5 9427   2.699   2.291  17.510  0.2738 -0.2818  0.3695
  633MPD2     H 9428   2.827   2.165  17.179  0.8052 -0.0092  0.7787
  633MPD2    H1 9429   2.614   2.099  17.541  3.2216 -2.6476  0.2790
  633MPD2    H2 9430   2.784   2.470  17.465  0.2336  1.3476 -2.5487
  633MPD2    H3 9431   2.660   2.337  17.600 -0.6745  0.9645 -0.6747
  633MPD2     N 9432   2.651   1.997  17.309 -0.3687  0.3507  0.5704
  633MPD2    H5 9433   2.606   1.936  17.376  0.2424 -0.0650  0.5978
  633MPD2    N1 9434   2.913   2.399  17.228 -0.3924 -0.9435  0.3716
  633MPD2    H7 9435   2.942   2.353  17.142 -0.9451 -0.8527  0.1342
  634TMC3    C1 9436   3.020   2.575  17.125 -0.0164  0.0740 -0.1165
  634TMC3    C2 9437   3.120   2.500  17.065  0.1070 -0.0827 -0.1105
  634TMC3    C3 9438   3.178   2.565  16.962  0.1622 -0.5161 -0.0192
  634TMC3    C4 9439   2.990   2.702  17.100  0.3232 -0.2180  0.1091
  634TMC3    C5 9440   3.068   2.763  17.005 -0.0630  0.4826  0.6888
  634TMC3    C6 9441   3.163   2.696  16.929  0.3541  0.3611 -0.2085
  634TMC3     C 9442   2.953   2.526  17.247  0.3683 -0.6341 -0.1996
  634TMC3     O 9443   2.927   2.605  17.338 -0.2316 -0.2760 -0.2508
  634TMC3     H 9444   3.139   2.401  17.105  1.6276  0.1652 -0.2329
  634TMC3    H1 9445   2.905   2.755  17.142  0.5568  0.4386 -0.2524
  634TMC3    H2 9446   3.227   2.751  16.861 -1.3263  0.8106 -1.4057
  634TMC3    C7 9447   3.037   2.891  16.950  0.4071 -0.9149  0.8096
  634TMC3    C8 9448   3.249   2.470  16.877 -0.5024 -0.4580 -0.1041
  634TMC3    O1 9449   3.087   2.917  16.840  0.1251 -0.2583  1.3349
  634TMC3    O2 9450   3.262   2.353  16.908  0.4336  0.3126  0.3063
  635TMC3    C1 9451   2.801   3.333   0.583 -0.1235  0.3367  0.1016
  635TMC3    C2 9452   2.874   3.219   0.590 -0.5870 -0.5749  0.0582
  635TMC3    C3 9453   2.837   3.119   0.677  0.1883 -0.3008  0.1359
  635TMC3    C4 9454   2.698   3.352   0.679  0.6045 -0.1475 -0.1208
  635TMC3    C5 9455   2.668   3.250   0.770 -0.6035  0.7096  1.0010
  635TMC3    C6 9456   2.739   3.136   0.772 -0.3546  0.5075  0.1280
  635TMC3     C 9457   2.873   3.449   0.555  0.2049  0.5545  0.0294
  635TMC3     O 9458   2.849   3.536   0.637  0.2088  0.3485 -0.0494
  635TMC3     H 9459   2.958   3.201   0.523  0.0079 -0.3159  0.7306
  635TMC3    H1 9460   2.656   3.452   0.686 -4.3823 -2.2079 -0.8625
  635TMC3    H2 9461   2.710   3.056   0.838  1.3241 -0.2497 -0.0628
  635TMC3    C7 9462   2.605   3.302   0.889 -0.6193  0.0742  0.1461
  635TMC3    C8 9463   2.905   2.987   0.654 -0.7370 -0.1040 -0.6161
  635TMC3    O1 9464   2.500   3.364   0.881 -0.4378  0.3507  0.1891
  635TMC3    O2 9465   2.999   2.981   0.578 -0.2833 -0.6050 -0.4325
  636MPD2     C 9466   4.338   2.897  15.698  0.3864 -1.0485  0.4629
  636MPD2    C1 9467   4.314   2.874  15.837  0.0631  0.8029  0.5019
  636MPD2    C2 9468   4.332   2.746  15.887  1.1601  0.1368  0.4725
  636MPD2    C3 9469   4.391   2.648  15.808 -0.2100  0.3670  0.2044
  636MPD2    C4 9470   4.409   2.670  15.671  0.2472  0.5312 -0.9210
  636MPD2    C5 9471   4.378   2.787  15.620  0.1672  0.8686  0.2779
  636MPD2     H 9472   4.305   2.726  15.991 -0.2622  0.3963  0.1579
  636MPD2    H1 9473   4.442   2.591  15.604 -0.1231 -0.2389 -0.2007
  636MPD2    H2 9474   4.332   2.994  15.651  1.4212 -1.6467 -0.8997
  636MPD2    H3 9475   4.387   2.793  15.512 -2.1875 -0.8823 -0.0007
  636MPD2     N 9476   4.425   2.526  15.870 -0.3161 -0.9269 -0.8745
  636MPD2    H5 9477   4.399   2.516  15.968 -1.2936  0.5456 -0.9819
  636MPD2    N1 9478   4.271   2.973  15.923  0.1883 -0.3902 -0.1437
  636MPD2    H7 9479   4.251   2.943  16.018  0.1535  1.1260  0.3241
  637TMC3    C1 9480   4.530   2.329  15.910  0.0721 -0.0756 -0.1246
  637TMC3    C2 9481   4.438   2.310  16.017 -0.1582 -1.1199 -0.1241
  637TMC3    C3 9482   4.499   2.245  16.130 -0.4233  0.2349  0.4225
  637TMC3    C4 9483   4.655   2.284  15.904  0.5353 -0.7248 -0.3554
  637TMC3    C5 9484   4.708   2.225  16.012  0.2516  0.1834  1.1633
  637TMC3    C6 9485   4.627   2.199  16.120 -0.3871 -0.2746 -0.9815
  637TMC3     C 9486   4.500   2.421  15.810  0.0304  0.3265  0.0769
  637TMC3     O 9487   4.568   2.431  15.708  0.4683  0.2679 -0.3486
  637TMC3     H 9488   4.336   2.344  16.009  0.4382  0.4081 -1.3968
  637TMC3    H1 9489   4.732   2.320  15.836 -0.3801  2.0322  0.0931
  637TMC3    H2 9490   4.671   2.147  16.204  0.4496 -1.6878 -2.3079
  637TMC3    C7 9491   0.083   2.304  16.062  0.3445 -0.5425  0.0091
  637TMC3    C8 9492   4.512   2.344  16.239 -0.3821  0.0537  0.4192
  637TMC3    O1 9493   0.073   2.339  16.180  0.0139 -0.0646  0.0837
  637TMC3    O2 9494   4.495   2.461  16.206  0.6743 -0.4509  0.0226
  638MPD2     C 9495   3.978   1.946  14.891 -0.3527  0.0137  1.0354
  638MPD2    C1 9496   4.032   1.824  14.842  0.3655  0.1963  0.5328
  638MPD2    C2 9497   4.006   1.719  14.919  0.4622 -0.4921  0.0877
  638MPD2    C3 9498   3.931   1.723  15.038  0.2189 -0.5080 -0.1508
  638MPD2    C4 9499   3.884   1.842  15.081  0.4423  0.2615  0.5157
  638MPD2    C5 9500   3.906   1.951  15.007  0.0524  0.3529 -0.6390
  638MPD2     H 9501   4.054   1.624  14.899  2.6493  1.1717 -2.4302
  638MPD2    H1 9502   3.829   1.854  15.173  1.1583 -0.0089  0.9802
  638MPD2    H2 9503   3.982   2.039  14.835 -0.7808 -1.0651 -0.7740
  638MPD2    H3 9504   3.860   2.042  15.043  0.5680 -0.2886  1.6380
  638MPD2     N 9505   3.907   1.600  15.101 -0.3283 -0.1541  0.1434
  638MPD2    H5 9506   3.947   1.523  15.049  1.8280  0.4721  0.8655
  638MPD2    N1 9507   4.110   1.824  14.717 -0.3246 -0.0354 -0.7258
  638MPD2    H7 9508   4.137   1.917  14.685  1.3295 -0.4072 -0.4298
  639TMC3    C1 9509   3.872   1.451  15.279  0.2045  0.0871  0.0625
  639TMC3    C2 9510   3.783   1.365  15.206 -0.2233  0.4232  0.1999
  639TMC3    C3 9511   3.835   1.254  15.152 -0.7508 -0.7608 -0.0815
  639TMC3    C4 9512   4.000   1.416  15.310  0.6955  0.0014  0.7738
  639TMC3    C5 9513   4.044   1.297  15.248 -0.4192  0.6391  0.4287
  639TMC3    C6 9514   3.966   1.223  15.163  0.5673 -0.3792 -0.1772
  639TMC3     C 9515   3.872   1.588  15.234 -0.6900 -0.0661  0.4808
  639TMC3     O 9516   3.868   1.676  15.317  0.5065  0.2637 -0.3312
  639TMC3     H 9517   3.689   1.408  15.175 -0.0837 -0.4511 -1.4459
  639TMC3    H1 9518   4.061   1.493  15.355  1.4414  0.4272 -0.9862
  639TMC3    H2 9519   3.994   1.130  15.114 -0.3694 -0.5614 -0.3598
  639TMC3    C7 9520   4.187   1.251  15.282  0.0636  0.4556  0.6343
  639TMC3    C8 9521   3.757   1.191  15.056  0.2163  0.0001  0.0400
  639TMC3    O1 9522   4.251   1.318  15.359 -0.1783  0.4279 -0.4661
  639TMC3    O2 9523   3.830   1.130  14.975 -0.1872  0.3030  0.1491
  640MPD2     C 9524   4.543   0.507  10.075 -0.3458 -0.4114  0.6094
  640MPD2    C1 9525   4.618   0.624  10.093 -0.3861 -0.5462  0.2662
  640MPD2    C2 9526   4.559   0.731  10.157  1.2568 -0.1525  0.2278
  640MPD2    C3 9527   4.426   0.731  10.195 -0.6279 -0.5469 -0.3740
  640MPD2    C4 9528   4.353   0.620  10.159 -0.0923 -0.1756 -0.6661
  640MPD2    C5 9529   4.414   0.506  10.104 -0.2688  0.4819  0.8862
  640MPD2     H 9530   4.623   0.815  10.183 -0.0108  0.7739  0.3392
  640MPD2    H1 9531   4.246   0.623  10.177  0.1071 -1.2824  0.6443
  640MPD2    H2 9532   4.585   0.415  10.036 -0.1779  0.0041 -0.1869
  640MPD2    H3 9533   4.355   0.419  10.076  1.2629 -0.1702 -0.3236
  640MPD2     N 9534   4.359   0.838  10.253 -0.3058 -0.5666 -0.2103
  640MPD2    H5 9535   4.260   0.823  10.267 -0.3379  0.8283  1.1300
  640MPD2    N1 9536   0.020   0.621  10.058  0.0879 -0.3452  0.7051
  640MPD2    H7 9537   0.062   0.529  10.045 -0.8292 -0.8075  0.9966
  641TMC3    C1 9538   0.244   0.686  10.034 -0.3261  0.1406 -0.1554
  641TMC3    C2 9539   0.283   0.561   9.991  0.3309  0.5683  0.4069
  641TMC3    C3 9540   0.408   0.540   9.937 -0.2968  0.9401 -0.5406
  641TMC3    C4 9541   0.327   0.792  10.007  0.2871 -0.2082 -0.0874
  641TMC3    C5 9542   0.451   0.773   9.952 -0.8558  0.1850 -0.1134
  641TMC3    C6 9543   0.496   0.644   9.920  0.1923  0.3447 -0.7837
  641TMC3     C 9544   0.107   0.726  10.049 -0.1145  0.0561 -0.1063
  641TMC3     O 9545   0.080   0.841  10.051  0.0737 -0.1005 -0.5269
  641TMC3     H 9546   0.221   0.475  10.011 -1.3049  1.6194 -0.1173
  641TMC3    H1 9547   0.300   0.892  10.039 -2.2699 -0.3433 -1.7957
  641TMC3    H2 9548   0.588   0.615   9.871 -0.4472  0.3899 -2.0178
  641TMC3    C7 9549   0.537   0.890   9.935 -0.1017 -0.3074 -0.3217
  641TMC3    C8 9550   0.455   0.404   9.909  0.5167 -0.0092  0.2247
  641TMC3    O1 9551   0.491   1.001   9.960 -0.1926  0.0284  0.2986
  641TMC3    O2 9552   0.375   0.315   9.871 -0.0634  0.0421 -0.6552
  642TMC3    C1 9553   1.265   1.544  13.037 -0.2117  0.3064  0.0069
  642TMC3    C2 9554   1.396   1.506  13.045 -0.4226 -0.7738  0.1309
  642TMC3    C3 9555   1.425   1.377  13.074 -0.0602 -0.1167  0.0263
  642TMC3    C4 9556   1.158   1.453  13.037 -0.2948  0.1261  0.8268
  642TMC3    C5 9557   1.195   1.321  13.063 -0.2648  0.5862  0.4651
  642TMC3    C6 9558   1.323   1.286  13.084 -1.0098  0.4294 -0.4449
  642TMC3     C 9559   1.244   1.671  12.975  0.1035  0.0455  0.1061
  642TMC3     O 9560   1.333   1.735  12.924 -0.3174 -0.1905  0.1402
  642TMC3     H 9561   1.478   1.576  13.044 -0.3796 -0.8243  0.1269
  642TMC3    H1 9562   1.053   1.474  13.021 -0.2739  1.6337  2.6814
  642TMC3    H2 9563   1.347   1.181  13.099 -1.0281  0.1727 -2.1980
  642TMC3    C7 9564   1.097   1.211  13.047  0.2322  0.7058 -0.5114
  642TMC3    C8 9565   1.564   1.328  13.073  0.4169 -0.4605  0.5046
  642TMC3    O1 9566   1.102   1.112  13.116 -0.2101 -0.4678  0.0229
  642TMC3    O2 9567   1.649   1.387  13.009  0.0275  0.6424 -0.0669
  643TMC3    C1 9568   0.478   0.494   0.062  0.0190 -0.1112  0.2921
  643TMC3    C2 9569   0.355   0.431   0.039  0.9240 -0.0905  0.6588
  643TMC3    C3 9570   0.328   0.369  17.664 -0.8920  0.5560  0.2993
  643TMC3    C4 9571   0.571   0.494  17.709  0.3749 -0.3201  0.0488
  643TMC3    C5 9572   0.542   0.434  17.591  0.0028 -0.4341 -0.6903
  643TMC3    C6 9573   0.425   0.366  17.567  0.4690 -0.8921 -0.6337
  643TMC3     C 9574   0.483   0.597   0.165 -0.3875 -0.6347 -0.7586
  643TMC3     O 9575   0.591   0.654   0.188 -0.2934  0.1546 -0.2881
  643TMC3     H 9576   0.296   0.421   0.129  0.2870  0.6689  0.3247
  643TMC3    H1 9577   0.665   0.548  17.721 -0.3412  0.7863  0.5923
  643TMC3    H2 9578   0.413   0.319  17.470  0.3437 -1.5359 -0.3077
  643TMC3    C7 9579   0.576   0.513  17.471  0.2376 -0.5959 -0.1125
  643TMC3    C8 9580   0.200   0.407  17.609 -0.3287  0.3581  0.8155
  643TMC3    O1 9581   0.493   0.522  17.385 -0.0478  0.0520 -0.1769
  643TMC3    O2 9582   0.149   0.339  17.520  0.4884  0.1985  0.1296
  644MPD2     C 9583   0.250   1.200   9.975 -0.0095  0.1431 -0.0193
  644MPD2    C1 9584   0.340   1.308   9.977  0.0604 -0.2248 -0.0191
  644MPD2    C2 9585   0.302   1.437   9.933 -0.1902  0.4704 -0.1384
  644MPD2    C3 9586   0.166   1.467   9.909  0.4147  0.5359  0.3048
  644MPD2    C4 9587   0.080   1.361   9.915 -0.2180 -0.2298 -0.5056
  644MPD2    C5 9588   0.120   1.231   9.944  0.2004 -0.0393 -0.0852
  644MPD2     H 9589   0.380   1.510   9.952  0.6825 -0.6517  0.5548
  644MPD2    H1 9590   4.712   1.379   9.893  0.0323  0.2210 -1.3552
  644MPD2    H2 9591   0.271   1.097  10.001 -0.4461  0.2308  0.6800
  644MPD2    H3 9592   0.043   1.155   9.949  0.0209  0.2283  1.3425
  644MPD2     N 9593   0.129   1.601   9.883 -0.4036  0.5959 -0.4846
  644MPD2    H5 9594   0.199   1.674   9.872 -0.6904  1.3385  2.5701
  644MPD2    N1 9595   0.476   1.274  10.008  0.5314 -0.4441  0.1294
  644MPD2    H7 9596   0.481   1.177  10.036 -1.1530 -0.8380 -0.9253
  645TMC3    C1 9597   4.728   1.786   9.819  0.5805 -0.1043  0.1328
  645TMC3    C2 9598   4.620   1.825   9.743  0.3589  0.3037 -0.4642
  645TMC3    C3 9599   4.594   1.959   9.722  0.0914  0.4481 -0.0378
  645TMC3    C4 9600   0.054   1.875   9.898 -0.7595  0.0164 -0.0691
  645TMC3    C5 9601   0.021   2.007   9.884 -0.1280  0.1841 -0.3082
  645TMC3    C6 9602   4.661   2.056   9.799 -0.3401 -0.6632 -0.2538
  645TMC3     C 9603   0.005   1.645   9.839  0.2900 -0.1360  0.4733
  645TMC3     O 9604   4.653   1.570   9.803 -0.2424  0.2622  0.2347
  645TMC3     H 9605   4.566   1.750   9.686 -1.7527  0.6187  1.1253
  645TMC3    H1 9606   0.120   1.837   9.976  0.4959  2.1596 -0.1054
  645TMC3    H2 9607   4.630   2.159   9.789 -0.8385 -0.8743 -0.9456
  645TMC3    C7 9608   0.086   2.100   9.968  0.4660  0.0819  0.7211
  645TMC3    C8 9609   4.479   1.994   9.641  0.0491  0.6631  0.1957
  645TMC3    O1 9610   0.018   2.194  10.010  0.5177  0.1655  0.7963
  645TMC3    O2 9611   4.402   1.902   9.617  0.5282 -0.4262 -0.2308
  646MPD2     C 9612   4.188   0.534  14.444 -0.0023  0.1421  0.2251
  646MPD2    C1 9613   4.107   0.515  14.557 -0.3304 -0.1730  0.5616
  646MPD2    C2 9614   3.981   0.567  14.565  0.6349 -0.2027 -0.6894
  646MPD2    C3 9615   3.921   0.614  14.445 -0.3485  0.5507  0.5093
  646MPD2    C4 9616   4.001   0.634  14.335 -0.3787  0.4050  0.3047
  646MPD2    C5 9617   4.133   0.595  14.330 -0.9829  0.1280 -0.8845
  646MPD2     H 9618   3.920   0.562  14.655  0.9845  1.1229 -0.3756
  646MPD2    H1 9619   3.976   0.686  14.244 -2.9758 -0.5315  0.4900
  646MPD2    H2 9620   4.289   0.494  14.447  0.2345  0.7242 -0.1955
  646MPD2    H3 9621   4.191   0.604  14.239 -1.0002  3.3749 -0.5746
  646MPD2     N 9622   3.782   0.652  14.431 -0.1231  0.3134 -0.7498
  646MPD2    H5 9623   3.719   0.639  14.509  0.2939 -2.3464 -0.8577
  646MPD2    N1 9624   4.172   0.455  14.671  0.4687 -0.1532 -0.2181
  646MPD2    H7 9625   4.264   0.420  14.647  0.5302  0.2436 -0.5768
  647TMC3    C1 9626   4.208   0.382  14.900  0.5093 -0.1375 -0.7845
  647TMC3    C2 9627   4.180   0.391  15.035  0.9799 -0.3950  0.6487
  647TMC3    C3 9628   4.261   0.340  15.130  0.0457 -0.9522  0.1971
  647TMC3    C4 9629   4.333   0.337  14.861  0.0969  0.0908  0.2952
  647TMC3    C5 9630   4.413   0.281  14.956 -0.6631  0.4889  0.0954
  647TMC3    C6 9631   4.383   0.282  15.083  0.1361  0.1031  0.3296
  647TMC3     C 9632   4.118   0.434  14.797  0.1511  0.1911  0.0613
  647TMC3     O 9633   4.004   0.447  14.841  0.0277  0.5248  0.0404
  647TMC3     H 9634   4.077   0.416  15.059  1.9412  1.4255  2.8388
  647TMC3    H1 9635   4.371   0.354  14.761  1.3246  0.0879  0.7600
  647TMC3    H2 9636   4.449   0.250  15.164  2.0672  1.3843 -0.7380
  647TMC3    C7 9637   4.547   0.220  14.918 -0.3627  0.7710  0.1039
  647TMC3    C8 9638   4.204   0.320  15.262  0.2052 -0.3003 -0.3022
  647TMC3    O1 9639   4.623   0.182  15.011 -0.0567  0.0425 -0.0895
  647TMC3    O2 9640   4.104   0.379  15.290  0.3937 -0.6538  0.2189
  648TMC3    C1 9641   3.666   2.750  16.359 -0.6236  0.1334  0.3120
  648TMC3    C2 9642   3.749   2.652  16.314 -0.0673 -0.0634 -0.1752
  648TMC3    C3 9643   3.717   2.612  16.189  0.0438 -0.2140  1.0328
  648TMC3    C4 9644   3.563   2.806  16.283 -0.1089  0.6847  0.2514
  648TMC3    C5 9645   3.541   2.757  16.157  0.9057 -0.0567 -0.0610
  648TMC3    C6 9646   3.620   2.659  16.106 -0.0226  0.6364  0.4421
  648TMC3     C 9647   3.649   2.766  16.504 -0.4581 -0.4476  0.3849
  648TMC3     O 9648   3.565   2.850  16.544 -0.3415 -0.1970 -0.4662
  648TMC3     H 9649   3.825   2.609  16.379 -1.1290 -3.8838 -1.4662
  648TMC3    H1 9650   3.491   2.872  16.330 -0.3016  1.5033 -1.1979
  648TMC3    H2 9651   3.590   2.600  16.020  0.1647 -0.2433  0.9835
  648TMC3    C7 9652   3.462   2.834  16.062  0.3743  0.0188  0.0480
  648TMC3    C8 9653   3.802   2.516  16.137  0.2217  1.4665 -0.3944
  648TMC3    O1 9654   3.462   2.802  15.946 -0.4881 -0.8258  0.4469
  648TMC3    O2 9655   3.870   2.456  16.218  0.1057  0.0116 -0.3132
  649TMC3    C1 9656   2.060   3.895  13.182 -0.3985  0.3028  0.5212
  649TMC3    C2 9657   2.196   3.895  13.196  0.2580  0.3208  0.2626
  649TMC3    C3 9658   2.255   3.789  13.257  0.5041 -0.1369  0.4658
  649TMC3    C4 9659   1.987   3.793  13.226  0.5797 -0.1835  0.5869
  649TMC3    C5 9660   2.049   3.705  13.312 -0.1634 -0.4596  0.1903
  649TMC3    C6 9661   2.183   3.690  13.318 -0.2852  0.5014  0.2228
  649TMC3     C 9662   2.006   3.993  13.098 -0.2618 -0.0218 -0.6725
  649TMC3     O 9663   2.065   4.099  13.080 -0.0795 -0.1170  0.0150
  649TMC3     H 9664   2.261   3.976  13.166 -0.1134  0.6505  0.3435
  649TMC3    H1 9665   1.879   3.792  13.234  0.4613  0.2487 -1.0523
  649TMC3    H2 9666   2.233   3.623  13.387 -1.1561 -0.4798 -0.1117
  649TMC3    C7 9667   1.976   3.625  13.404  0.3763  0.2845 -0.3078
  649TMC3    C8 9668   2.391   3.807  13.313  0.0095  0.8068 -0.6574
  649TMC3    O1 9669   2.031   3.602  13.512  0.0073  0.2850 -0.1173
  649TMC3    O2 9670   2.415   3.743  13.417  0.5497 -0.5077  0.0241
  650TMC3    C1 9671   0.547   0.892  13.252  0.3407  0.4821 -1.3170
  650TMC3    C2 9672   0.500   0.987  13.341 -0.7979  0.3821 -0.3380
  650TMC3    C3 9673   0.367   1.027  13.324 -0.3613  0.6158 -0.8169
  650TMC3    C4 9674   0.478   0.857  13.136 -0.1015 -0.3080 -0.2329
  650TMC3    C5 9675   0.350   0.903  13.119 -0.0845 -0.3813  0.3809
  650TMC3    C6 9676   0.299   0.991  13.205 -0.2516  0.0276  0.7082
  650TMC3     C 9677   0.686   0.832  13.264  0.0212 -0.3451 -0.3299
  650TMC3     O 9678   0.753   0.884  13.352  0.2983  0.0465 -0.5663
  650TMC3     H 9679   0.555   1.021  13.428  1.2716 -0.3043 -1.3762
  650TMC3    H1 9680   0.523   0.793  13.061 -2.6444 -0.6915 -1.4245
  650TMC3    H2 9681   0.203   1.034  13.177 -0.7798  0.0976  2.6214
  650TMC3    C7 9682   0.301   0.917  12.988  0.0998 -0.1349 -0.9821
  650TMC3    C8 9683   0.343   1.164  13.361 -0.0098 -0.7777 -0.6372
  650TMC3    O1 9684   0.211   0.837  12.965 -0.5445 -0.0970  0.3566
  650TMC3    O2 9685   0.441   1.229  13.344 -0.4674  0.5362  0.0812
  651MPD2     C 9686   4.165   2.725  11.127  0.4180 -0.1587  0.2472
  651MPD2    C1 9687   4.120   2.837  11.056 -0.0990 -0.3721 -0.4491
  651MPD2    C2 9688   4.205   2.899  10.969  0.2009 -0.2387 -0.0001
  651MPD2    C3 9689   4.328   2.855  10.935  0.4283  0.4738  0.1687
  651MPD2    C4 9690   4.374   2.739  10.998 -0.6560  0.0109 -0.3675
  651MPD2    C5 9691   4.293   2.687  11.094  0.4185 -0.0410 -0.9227
  651MPD2     H 9692   4.168   2.987  10.918  2.1791  1.7550  2.0415
  651MPD2    H1 9693   4.472   2.695  10.989  0.3739  2.3242 -0.4670
  651MPD2    H2 9694   4.111   2.681  11.210 -0.6465 -0.0124 -0.3694
  651MPD2    H3 9695   4.324   2.598  11.148 -2.8710  0.0312  1.1400
  651MPD2     N 9696   4.395   2.914  10.826 -0.1255 -0.2688 -0.0601
  651MPD2    H5 9697   4.330   2.977  10.781  2.2823  1.1289 -1.5549
  651MPD2    N1 9698   3.995   2.902  11.084 -0.2813 -0.2059  0.0916
  651MPD2    H7 9699   3.966   2.980  11.027 -3.1686 -1.0828  0.3498
  652TMC3    C1 9700   0.015   2.956  10.533  0.4995  0.0626 -0.2359
  652TMC3    C2 9701   4.670   2.873  10.603  0.2881  0.6495 -0.3054
  652TMC3    C3 9702   4.542   2.914  10.630 -0.1174  0.1133  0.1626
  652TMC3    C4 9703   4.703   3.080  10.491  1.1222  0.2737 -0.4041
  652TMC3    C5 9704   4.574   3.109  10.501  0.0836 -0.5710  0.3655
  652TMC3    C6 9705   4.494   3.026  10.570  0.7230 -0.1249  0.3116
  652TMC3     C 9706   0.151   2.963  10.582  0.4998  0.0449 -0.1495
  652TMC3     O 9707   0.183   2.894  10.678  0.4525 -0.2383  0.0394
  652TMC3     H 9708   4.712   2.780  10.639 -0.4073  0.2368 -0.5646
  652TMC3    H1 9709   0.042   3.148  10.454  0.8094  0.7575 -0.1558
  652TMC3    H2 9710   4.387   3.043  10.565  0.5752 -1.5288 -1.2307
  652TMC3    C7 9711   4.517   3.241  10.470 -0.5892 -1.0349 -1.3999
  652TMC3    C8 9712   4.507   2.868  10.765 -0.3335  0.4389  0.6507
  652TMC3    O1 9713   4.401   3.254  10.442 -0.2089  0.1580 -0.1790
  652TMC3    O2 9714   4.594   2.802  10.821 -0.5774 -0.6576  0.7671
  653MPD2     C 9715   2.455   2.318   0.050 -0.1126  0.0195  0.5085
  653MPD2    C1 9716   2.445   2.453   0.008 -0.0055  0.3593  0.7395
  653MPD2    C2 9717   2.401   2.471  17.622  0.6030  0.0137  0.1885
  653MPD2    C3 9718   2.350   2.362  17.545 -1.0976 -0.3072 -0.0624
  653MPD2    C4 9719   2.336   2.245  17.605  0.1359  0.2490  0.4190
  653MPD2    C5 9720   2.400   2.217  17.724 -0.9042 -0.5317  0.0206
  653MPD2     H 9721   2.398   2.573  17.585  1.0036  0.3446  1.0610
  653MPD2    H1 9722   2.299   2.155  17.556 -0.7816 -0.5422  2.5550
  653MPD2    H2 9723   2.495   2.290   0.147  0.1656  0.4071  0.5024
  653MPD2    H3 9724   2.404   2.116   0.018  0.7222 -0.8447 -1.0258
  653MPD2     N 9725   2.328   2.385  17.402 -0.1983  1.0386 -0.8708
  653MPD2    H5 9726   2.378   2.469  17.374 -0.7469  1.3435 -0.9201
  653MPD2    N1 9727   2.494   2.562   0.087 -0.3775  0.1014  0.3138
  653MPD2    H7 9728   2.489   2.658   0.054 -1.7243  0.3412  1.2299
  654TMC3    C1 9729   2.296   2.341  17.165  0.4225 -0.1090 -0.9479
  654TMC3    C2 9730   2.230   2.453  17.135 -0.0349 -0.6337 -0.7917
  654TMC3    C3 9731   2.199   2.473  17.009 -0.2176 -0.1479 -0.1162
  654TMC3    C4 9732   2.334   2.240  17.079  0.2419 -0.3163 -0.3347
  654TMC3    C5 9733   2.281   2.252  16.951  0.1553  0.2027 -1.0035
  654TMC3    C6 9734   2.221   2.372  16.916 -0.1716  0.4145  0.1449
  654TMC3     C 9735   2.294   2.294  17.306  0.2426  0.0542 -0.5979
  654TMC3     O 9736   2.255   2.179  17.326 -0.1022  0.0432 -0.2979
  654TMC3     H 9737   2.199   2.518  17.216  2.7304 -1.5228  0.9587
  654TMC3    H1 9738   2.375   2.151  17.124 -1.1594 -2.2249 -2.8025
  654TMC3    H2 9739   2.158   2.383  16.828 -0.5203  1.0103  0.4752
  654TMC3    C7 9740   2.331   2.146  16.856  0.0847  0.1964  0.2449
  654TMC3    C8 9741   2.128   2.589  16.971 -0.3728 -0.6345 -0.3295
  654TMC3    O1 9742   2.356   2.173  16.738 -0.3945 -0.1844  0.0020
  654TMC3    O2 9743   2.063   2.644  17.057 -0.3365  0.4812 -0.1329
  655MPD2     C 9744   3.950   2.876  15.809  0.5135  0.6045  0.5362
  655MPD2    C1 9745   3.929   3.000  15.749 -0.5246  0.2562 -0.2472
  655MPD2    C2 9746   3.957   3.023  15.611  1.1749  0.7071 -0.2801
  655MPD2    C3 9747   3.994   2.912  15.539  0.2396  0.0590 -0.6534
  655MPD2    C4 9748   4.027   2.793  15.600 -0.1563  0.2952  0.3260
  655MPD2    C5 9749   3.999   2.774  15.733  0.3185 -0.3572  0.0407
  655MPD2     H 9750   3.964   3.124  15.574  2.5642  0.3988 -0.8827
  655MPD2    H1 9751   4.066   2.711  15.541 -1.7510 -0.1005 -0.1917
  655MPD2    H2 9752   3.937   2.851  15.913 -0.3032  0.7132  0.4537
  655MPD2    H3 9753   4.021   2.679  15.780  1.1190 -0.1933 -0.0036
  655MPD2     N 9754   4.006   2.910  15.400  0.0974 -0.3173  0.1514
  655MPD2    H5 9755   4.026   2.822  15.353 -0.4512  0.0185 -0.7134
  655MPD2    N1 9756   3.870   3.108  15.824  0.1293 -0.2347 -0.0857
  655MPD2    H7 9757   3.837   3.192  15.778  0.7885  0.9518  1.5999
  656TMC3    C1 9758   3.746   3.211  15.995 -0.4947 -0.5375 -0.2081
  656TMC3    C2 9759   3.706   3.213  16.126 -0.4551  0.9711  0.0503
  656TMC3    C3 9760   3.585   3.265  16.153  0.2826  0.1353 -0.4269
  656TMC3    C4 9761   3.665   3.258  15.891 -0.7018  1.4073  0.1282
  656TMC3    C5 9762   3.539   3.306  15.926  0.1333 -0.1860  0.3427
  656TMC3    C6 9763   3.502   3.311  16.053  0.3454 -0.0946 -0.0071
  656TMC3     C 9764   3.851   3.116  15.962  0.4197 -0.2166  0.4715
  656TMC3     O 9765   3.875   3.028  16.042  0.4238 -0.3142 -0.6371
  656TMC3     H 9766   3.766   3.169  16.204 -0.0023  1.4584 -0.0208
  656TMC3    H1 9767   3.694   3.249  15.788 -2.7097 -1.4638 -0.2043
  656TMC3    H2 9768   3.398   3.321  16.081 -0.1838  1.7207 -2.6759
  656TMC3    C7 9769   3.439   3.308  15.824 -0.0394  0.1217  0.9045
  656TMC3    C8 9770   3.539   3.221  16.284 -0.5615 -0.0951 -0.0635
  656TMC3    O1 9771   3.455   3.236  15.727 -0.1019 -0.0301  0.0923
  656TMC3    O2 9772   3.581   3.112  16.325  0.2445 -0.2758 -0.0065
  657TMC3    C1 9773   3.061   2.225  14.571 -0.1423 -0.4580 -0.2908
  657TMC3    C2 9774   2.999   2.232  14.689  0.1238 -0.3505  0.2991
  657TMC3    C3 9775   2.885   2.307  14.691 -0.1123  0.1197  0.4788
  657TMC3    C4 9776   3.010   2.289  14.457  0.1317  0.1029  0.3939
  657TMC3    C5 9777   2.906   2.375  14.468  0.0626  0.7426 -0.1800
  657TMC3    C6 9778   2.839   2.374  14.586 -0.1879 -0.3999 -0.0145
  657TMC3     C 9779   3.115   2.094  14.530  0.0005  0.3725 -0.0925
  657TMC3     O 9780   3.083   2.061  14.419 -0.1138 -0.1086 -0.0658
  657TMC3     H 9781   3.042   2.191  14.779 -1.8945  0.7121  1.7372
  657TMC3    H1 9782   3.060   2.280  14.361 -0.0619  2.5021  0.0691
  657TMC3    H2 9783   2.747   2.431  14.589 -0.0970 -0.2858  0.5280
  657TMC3    C7 9784   2.842   2.428  14.350  0.0337 -0.0364 -0.4794
  657TMC3    C8 9785   2.808   2.323  14.810  0.0936  0.4528  0.1987
  657TMC3    O1 9786   2.720   2.444  14.363 -0.0449  0.4899 -0.3336
  657TMC3    O2 9787   2.752   2.431  14.826  0.1647 -0.0014  0.0661
  658MPD2     C 9788   4.304   3.349  14.773 -0.1223  0.2210 -0.3452
  658MPD2    C1 9789   4.258   3.220  14.740 -0.5315  0.4320  0.4739
  658MPD2    C2 9790   4.280   3.158  14.617  0.1714 -0.0886  0.2905
  658MPD2    C3 9791   4.327   3.236  14.519  0.1142  0.1186  0.0143
  658MPD2    C4 9792   4.362   3.369  14.543 -0.0015 -0.0029 -0.0476
  658MPD2    C5 9793   4.349   3.425  14.670 -0.4678  0.1120 -0.6425
  658MPD2     H 9794   4.258   3.054  14.598 -1.2565  0.4729 -1.1513
  658MPD2    H1 9795   4.400   3.433  14.465 -1.1021 -0.3747 -0.8926
  658MPD2    H2 9796   4.288   3.391  14.871  0.5294  0.5008 -0.3593
  658MPD2    H3 9797   4.387   3.525  14.688 -0.6357  0.0941 -0.1911
  658MPD2     N 9798   4.333   3.182  14.385 -0.8613  0.2359  0.2054
  658MPD2    H5 9799   4.286   3.092  14.375  0.8748 -0.5518 -0.9626
  658MPD2    N1 9800   4.196   3.151  14.851  0.1736 -0.6984  0.3649
  658MPD2    H7 9801   4.174   3.212  14.930  1.7789  0.1427  0.1712
  659TMC3    C1 9802   4.051   2.993  14.961 -0.2549 -0.5078 -0.3343
  659TMC3    C2 9803   4.090   3.028  15.088  0.1555 -0.5672 -0.0879
  659TMC3    C3 9804   4.008   2.971  15.186 -0.0112 -0.3209 -0.3608
  659TMC3    C4 9805   3.952   2.904  14.933 -0.3747 -0.7144 -0.2442
  659TMC3    C5 9806   3.889   2.847  15.033  0.1140  0.2097  0.1682
  659TMC3    C6 9807   3.917   2.872  15.164  1.2208  0.3304  0.1873
  659TMC3     C 9808   4.129   3.030  14.843 -0.6594  0.6424 -0.2261
  659TMC3     O 9809   4.110   2.963  14.739  0.2345 -0.0080 -0.3608
  659TMC3     H 9810   4.165   3.102  15.114 -0.5571  0.2800 -0.4287
  659TMC3    H1 9811   3.907   2.904  14.834 -0.5534 -0.2544 -0.1621
  659TMC3    H2 9812   3.851   2.827  15.237  1.0806 -0.0819 -0.1914
  659TMC3    C7 9813   3.763   2.786  15.006 -0.1844 -0.2564 -0.5465
  659TMC3    C8 9814   4.010   3.017  15.319  0.1911  0.0877 -0.3482
  659TMC3    O1 9815   3.676   2.797  15.092  0.2850 -0.3655 -0.2432
  659TMC3    O2 9816   4.041   3.131  15.350  0.3774 -0.4980 -0.0327
  660MPD2     C 9817   2.567   1.813  12.965 -0.4032  0.5285 -0.4124
  660MPD2    C1 9818   2.437   1.832  12.950  0.0297  0.0135  0.0254
  660MPD2    C2 9819   2.348   1.749  13.002  0.3689 -0.2044 -0.1155
  660MPD2    C3 9820   2.381   1.638  13.083  0.0091  0.6024  0.3628
  660MPD2    C4 9821   2.518   1.619  13.096 -1.0167  0.1292 -0.4389
  660MPD2    C5 9822   2.607   1.706  13.044  0.6776 -0.0744  0.3855
  660MPD2     H 9823   2.242   1.761  12.982 -0.0746  0.5811  2.6305
  660MPD2    H1 9824   2.557   1.529  13.142  0.8640  1.0792 -0.1869
  660MPD2    H2 9825   2.631   1.880  12.908  0.3252 -0.5497 -0.8710
  660MPD2    H3 9826   2.713   1.685  13.054  1.2409  1.3827 -2.4267
  660MPD2     N 9827   2.288   1.553  13.144 -0.7187  0.6765  0.1790
  660MPD2    H5 9828   2.326   1.481  13.205  0.3565  0.2945 -0.9366
  660MPD2    N1 9829   2.393   1.947  12.877  0.7989 -0.1480  0.3023
  660MPD2    H7 9830   2.468   1.999  12.832  0.6276 -0.9254 -0.9064
  661TMC3    C1 9831   2.250   2.104  12.762 -0.3106 -0.0428 -0.5978
  661TMC3    C2 9832   2.302   2.067  12.642  0.0668  0.3250 -0.6557
  661TMC3    C3 9833   2.228   2.106  12.532 -0.0020  0.0673  0.4072
  661TMC3    C4 9834   2.129   2.163  12.776  0.2152 -0.1650 -0.1537
  661TMC3    C5 9835   2.055   2.198  12.664  0.4807 -0.0423 -0.2624
  661TMC3    C6 9836   2.104   2.163  12.543  0.0538 -0.4354 -0.8225
  661TMC3     C 9837   2.267   1.999  12.866 -0.6330  0.5141  0.1073
  661TMC3     O 9838   2.169   1.964  12.929 -0.3072 -0.4869  0.7684
  661TMC3     H 9839   2.385   1.998  12.644 -1.0723 -1.0107 -0.1740
  661TMC3    H1 9840   2.086   2.193  12.870  2.4635  0.7289  0.5992
  661TMC3    H2 9841   2.054   2.199  12.454 -2.8508  0.5600  1.2204
  661TMC3    C7 9842   1.916   2.211  12.695 -0.2389  0.3409  0.1435
  661TMC3    C8 9843   2.284   2.121  12.405  0.3182 -0.6621 -0.0908
  661TMC3    O1 9844   1.886   2.259  12.803 -0.0611 -0.0485  0.1556
  661TMC3    O2 9845   2.232   2.212  12.342 -0.0265 -0.0612 -0.0389
  662MPD2     C 9846   2.134   1.298  17.423  0.0666 -0.3480  0.3762
  662MPD2    C1 9847   2.100   1.382  17.527  0.3192 -0.3764 -0.2828
  662MPD2    C2 9848   2.030   1.497  17.508  0.3427  0.4025 -0.0931
  662MPD2    C3 9849   2.002   1.537  17.382  0.1587  0.5220  0.4919
  662MPD2    C4 9850   2.033   1.455  17.275 -0.4483 -0.4740  0.2935
  662MPD2    C5 9851   2.102   1.339  17.296 -0.6469 -0.0242 -0.0002
  662MPD2     H 9852   2.026   1.561  17.596  1.9660  1.3626 -0.7211
  662MPD2    H1 9853   1.999   1.473  17.173 -1.3003 -1.4652  0.4090
  662MPD2    H2 9854   2.166   1.195  17.428  0.8946 -0.1026  0.1926
  662MPD2    H3 9855   2.115   1.282  17.205 -0.2825  0.6849 -0.3910
  662MPD2     N 9856   1.930   1.657  17.356  0.3334 -0.0769  0.6230
  662MPD2    H5 9857   1.899   1.678  17.262  0.8663 -0.9420  0.2671
  662MPD2    N1 9858   2.126   1.344  17.658  0.1855 -0.1176 -0.1792
  662MPD2    H7 9859   2.083   1.400  17.732  0.1272 -0.4748  0.0576
  663TMC3    C1 9860   2.177   1.202   0.098  0.6761  1.0963 -0.2245
  663TMC3    C2 9861   2.050   1.198   0.147 -1.1727  0.1778  0.0154
  663TMC3    C3 9862   2.012   1.096   0.221  0.3489 -0.1698  0.2392
  663TMC3    C4 9863   2.261   1.108   0.140  0.7307  0.0841 -0.7351
  663TMC3    C5 9864   2.231   1.003   0.227  0.6290  0.5443 -0.3970
  663TMC3    C6 9865   2.107   1.018   0.284  0.3532  0.6640  0.7044
  663TMC3     C 9866   2.213   1.241  17.701 -0.0701  0.1550  0.2556
  663TMC3     O 9867   2.275   1.161  17.629  0.1901 -0.2970  0.0646
  663TMC3     H 9868   1.975   1.246   0.085 -2.7512 -0.7011  1.2487
  663TMC3    H1 9869   2.359   1.104   0.093  1.2972 -1.3569  0.5891
  663TMC3    H2 9870   2.064   0.940   0.347  1.3318  0.4053  1.0599
  663TMC3    C7 9871   2.306   0.873   0.215  0.3272 -0.4038 -0.1648
  663TMC3    C8 9872   1.902   1.147   0.300 -0.4507  0.0405  0.6839
  663TMC3    O1 9873   2.409   0.892   0.153  0.3897 -0.1401 -0.3139
  663TMC3    O2 9874   1.877   1.267   0.293 -0.2202  0.1409  0.7030
  664MPD2     C 9875   0.187   3.956  17.224  0.3192  0.0941  0.2269
  664MPD2    C1 9876   0.209   4.049  17.323  1.3342  0.4116 -0.2885
  664MPD2    C2 9877   0.207   4.003  17.454  0.1923  0.4503  0.3583
  664MPD2    C3 9878   0.194   3.879  17.490 -0.0607 -0.3114  0.3159
  664MPD2    C4 9879   0.188   3.786  17.390 -0.3552  0.1986 -0.0849
  664MPD2    C5 9880   0.184   3.820  17.255  0.0006  0.2086 -0.5088
  664MPD2     H 9881   0.211   4.085  17.526 -1.6685  0.0501  0.9191
  664MPD2    H1 9882   0.209   3.683  17.417 -1.9149 -0.4115 -1.1912
  664MPD2    H2 9883   0.190   3.979  17.118 -0.1779  1.5645  0.5323
  664MPD2    H3 9884   0.185   3.747  17.174 -1.8557  1.7253 -1.9224
  664MPD2     N 9885   0.197   3.855  17.630  0.6157  0.2562  0.3056
  664MPD2    H5 9886   0.216   3.934  17.690  2.7650 -0.4715  0.5837
  664MPD2    N1 9887   0.215   4.186  17.300  0.2424  0.6109  0.3052
  664MPD2    H7 9888   0.228   4.253  17.375  0.0945 -0.2453  1.0887
  665TMC3    C1 9889   0.283   3.750   0.071 -0.1565 -0.7234 -0.2729
  665TMC3    C2 9890   0.253   3.681   0.179  0.7082 -0.3921 -0.2382
  665TMC3    C3 9891   0.294   3.741   0.301 -0.3509 -0.0940  0.7260
  665TMC3    C4 9892   0.357   3.864   0.072  0.0439 -0.6499 -0.1505
  665TMC3    C5 9893   0.399   3.920   0.189 -0.7947  0.2657  0.4018
  665TMC3    C6 9894   0.365   3.859   0.307 -0.1129  0.0862  0.3222
  665TMC3     C 9895   0.209   3.731  17.688 -0.7744  0.3264 -0.0710
  665TMC3     O 9896   0.169   3.621  17.653  0.3074 -0.0214 -0.6740
  665TMC3     H 9897   0.189   3.596   0.163  0.5103 -0.2601 -0.1460
  665TMC3    H1 9898   0.400   3.908  17.726 -2.2582  0.1581 -0.8352
  665TMC3    H2 9899   0.389   3.909   0.400  1.4776 -0.7307  0.3473
  665TMC3    C7 9900   0.380   4.062   0.176  0.4992  0.5070 -0.4827
  665TMC3    C8 9901   0.225   3.701   0.423  0.0188 -0.4588 -0.1270
  665TMC3    O1 9902   0.315   4.103   0.082  0.2269 -0.1480 -0.4050
  665TMC3    O2 9903   0.220   3.790   0.509  0.9550 -0.1250 -0.3437
  666TMC3    C1 9904   0.105   4.328   9.519  0.0857  0.1632 -0.5211
  666TMC3    C2 9905   0.206   4.315   9.602 -0.2683  0.5602 -0.1221
  666TMC3    C3 9906   0.218   4.417   9.687  0.3706  0.0151  0.2319
  666TMC3    C4 9907   0.029   4.439   9.510 -0.5533  0.3192  0.1230
  666TMC3    C5 9908   0.059   4.545   9.586 -0.3892  0.4849  0.2292
  666TMC3    C6 9909   0.149   4.536   9.686  0.2662  0.0696 -0.3181
  666TMC3     C 9910   0.061   4.214   9.439 -0.4050  0.4504  0.5462
  666TMC3     O 9911   0.154   4.147   9.402  0.0863  0.3282 -0.1038
  666TMC3     H 9912   0.279   4.235   9.595  0.1460  0.9038  0.2433
  666TMC3    H1 9913   4.695   4.460   9.431 -1.5013  0.1093  0.9194
  666TMC3    H2 9914   0.172   4.615   9.756 -0.8140 -0.2822  0.4353
  666TMC3    C7 9915   4.708   4.663   9.578  0.3348 -0.2205 -0.4355
  666TMC3    C8 9916   0.310   4.384   9.796  0.0700 -0.5938  0.2677
  666TMC3    O1 9917   4.593   4.654   9.543  0.1909 -0.0597  0.0828
  666TMC3    O2 9918   0.344   4.266   9.807  0.1702 -0.1941 -0.6380
  667MPD2     C 9919   1.181   4.453  14.437  0.9909  0.7790  1.1115
  667MPD2    C1 9920   1.265   4.435  14.545  0.3874 -0.4105 -0.1655
  667MPD2    C2 9921   1.260   4.326  14.627  0.2511  0.6401  0.7536
  667MPD2    C3 9922   1.158   4.233  14.605  0.1302 -0.0740 -0.7401
  667MPD2    C4 9923   1.079   4.248  14.492 -0.0063 -0.1713 -0.5288
  667MPD2    C5 9924   1.087   4.355  14.412  0.5506 -0.1144  0.3263
  667MPD2     H 9925   1.321   4.321  14.717  0.3085  1.7301  0.7799
  667MPD2    H1 9926   1.000   4.178  14.468 -1.4524  0.6636  1.8119
  667MPD2    H2 9927   1.186   4.543  14.377  1.5893  1.0672  1.5992
  667MPD2    H3 9928   1.019   4.367  14.329 -0.1152  2.0218  1.1650
  667MPD2     N 9929   1.137   4.121  14.685  0.0537  1.0962  0.0598
  667MPD2    H5 9930   1.067   4.059  14.644  0.5628  0.6946 -0.1910
  667MPD2    N1 9931   1.362   4.530  14.588  0.5574 -0.1184  0.1256
  667MPD2    H7 9932   1.396   4.513  14.682  1.6046  2.2331  0.1800
  668TMC3    C1 9933   1.496   4.734  14.591  0.1230  0.1280 -0.0505
  668TMC3    C2 9934   1.542   0.106  14.519 -0.1748 -0.5369 -0.2778
  668TMC3    C3 9935   1.621   0.200  14.587  0.3530  0.5162  0.4822
  668TMC3    C4 9936   1.525   4.717  14.725 -0.3093 -0.5041 -0.3152
  668TMC3    C5 9937   1.603   0.074  14.786  0.0998 -0.8722  0.1663
  668TMC3    C6 9938   1.651   0.185  14.719  0.1618  0.3888  0.2697
  668TMC3     C 9939   1.402   4.640  14.515 -0.1537  0.4852  0.0755
  668TMC3     O 9940   1.397   4.661  14.392  0.4866  0.8323  0.1143
  668TMC3     H 9941   1.533   0.119  14.411  1.2019  0.9699 -0.2088
  668TMC3    H1 9942   1.513   4.617  14.764 -0.1477 -0.8099 -1.0518
  668TMC3    H2 9943   1.716   0.257  14.766 -2.5082  0.6701  3.5558
  668TMC3    C7 9944   1.623   0.071  14.928 -0.4632  0.0072  0.6395
  668TMC3    C8 9945   1.675   0.319  14.512  0.4573 -0.0670 -0.5276
  668TMC3    O1 9946   1.682   0.160  14.982 -0.1285 -0.1807  0.5005
  668TMC3    O2 9947   1.620   0.336  14.404  0.0994  0.1624  0.5373
  669TMC3    C1 9948   4.050   4.539  14.686 -0.3277 -0.3449 -0.0235
  669TMC3    C2 9949   3.937   4.536  14.614 -0.5932  0.6384 -0.1962
  669TMC3    C3 9950   3.947   4.544  14.475 -0.3174 -0.5844 -1.1356
  669TMC3    C4 9951   4.177   4.536  14.624  0.2076  0.1589 -0.2396
  669TMC3    C5 9952   4.185   4.553  14.490  0.6242 -0.1521  0.2219
  669TMC3    C6 9953   4.071   4.559  14.408  0.2002 -0.2327 -0.5099
  669TMC3     C 9954   4.040   4.460  14.805  0.6621 -0.2858 -0.1419
  669TMC3     O 9955   3.928   4.447  14.856  1.2723 -0.6834  0.0399
  669TMC3     H 9956   3.841   4.520  14.660 -0.3554  0.2427  0.1557
  669TMC3    H1 9957   4.268   4.536  14.682 -0.3959  0.3895  0.7107
  669TMC3    H2 9958   4.075   4.580  14.301 -3.9827  1.0863 -0.4028
  669TMC3    C7 9959   4.315   4.608  14.455 -0.0933  0.6492 -0.7993
  669TMC3    C8 9960   3.836   4.570  14.384 -1.1257  0.1028  0.1529
  669TMC3    O1 9961   4.355   4.698  14.527 -0.0919  0.0444  0.3053
  669TMC3    O2 9962   3.851   4.539  14.267  0.0373 -0.4224  0.2221
  670MPD2     C 9963   1.950   2.289  13.640 -0.3732  0.2081  0.4695
  670MPD2    C1 9964   2.060   2.214  13.679  0.3777  0.1531 -0.2651
  670MPD2    C2 9965   2.053   2.138  13.792 -0.1765 -0.8758 -0.3662
  670MPD2    C3 9966   1.938   2.141  13.864 -0.1634  0.9808  0.1465
  670MPD2    C4 9967   1.832   2.221  13.823  0.0168  0.1107  0.0204
  670MPD2    C5 9968   1.842   2.300  13.714 -0.0789  0.7232  0.9248
  670MPD2     H 9969   2.139   2.079  13.823 -0.4882 -0.2165  1.7668
  670MPD2    H1 9970   1.745   2.226  13.887 -0.4559  2.4820 -0.8064
  670MPD2    H2 9971   1.959   2.353  13.553 -2.6864 -0.4942 -0.3051
  670MPD2    H3 9972   1.759   2.364  13.684  0.5119  0.7999 -0.5539
  670MPD2     N 9973   1.932   2.062  13.979  0.0912 -0.5277 -0.3029
  670MPD2    H5 9974   2.019   2.020  14.009  2.2709  2.9041 -1.8175
  670MPD2    N1 9975   2.180   2.219  13.605 -0.3208 -0.0543 -0.0153
  670MPD2    H7 9976   2.258   2.178  13.655  0.5026  2.2726  0.5937
  671TMC3    C1 9977   1.851   1.958  14.176 -0.2507 -0.9929 -0.3033
  671TMC3    C2 9978   1.978   1.935  14.203 -0.3546 -0.0120  0.0423
  671TMC3    C3 9979   2.009   1.825  14.279 -0.4295 -0.1554  0.3101
  671TMC3    C4 9980   1.755   1.874  14.211 -0.5323 -0.2815 -0.2876
  671TMC3    C5 9981   1.792   1.755  14.269  0.7071  0.6228  0.5317
  671TMC3    C6 9982   1.923   1.722  14.301 -0.6758  1.1977  0.0900
  671TMC3     C 9983   1.823   2.044  14.061  0.1424 -0.0881  0.4527
  671TMC3     O 9984   1.709   2.084  14.049  0.0006  0.0209 -0.5483
  671TMC3     H 9985   2.039   2.025  14.203  0.1008 -0.3142  1.0993
  671TMC3    H1 9986   1.655   1.890  14.171 -1.2882 -1.0645  1.2777
  671TMC3    H2 9987   1.946   1.626  14.345  1.5000  1.9615  0.6429
  671TMC3    C7 9988   1.688   1.651  14.273  0.4226 -0.1840 -0.2148
  671TMC3    C8 9989   2.152   1.800  14.287 -0.1549 -0.9241 -0.1799
  671TMC3    O1 9990   1.579   1.688  14.311  0.1324 -0.4355  0.4102
  671TMC3    O2 9991   2.223   1.880  14.233  0.1245 -0.2219 -0.0462
  672MPD2     C 9992   2.344   1.720   1.285 -0.3138 -0.1321  0.3421
  672MPD2    C1 9993   2.410   1.798   1.194  0.4605 -0.5800  0.2321
  672MPD2    C2 9994   2.517   1.880   1.233  0.1446 -0.5393 -0.0559
  672MPD2    C3 9995   2.541   1.896   1.367  0.7199 -0.0402 -0.1757
  672MPD2    C4 9996   2.477   1.819   1.458 -0.0456  0.9739 -0.0532
  672MPD2    C5 9997   2.377   1.732   1.415  0.0783 -0.6172 -0.2749
  672MPD2     H 9998   2.571   1.937   1.158 -0.0560 -0.4179 -0.1058
  672MPD2    H1 9999   2.486   1.838   1.565  1.9474 -0.5646  0.0725
  672MPD2    H210000   2.259   1.660   1.254 -0.1333 -0.7811  1.0989
  672MPD2    H310001   2.315   1.678   1.485 -0.1719  1.1874  0.9026
  672MPD2     N10002   2.641   1.988   1.404 -0.3407 -0.8274 -0.0505
  672MPD2    H510003   2.669   2.061   1.339 -2.4215 -0.3829 -0.4613
  672MPD2    N110004   2.379   1.787   1.064 -0.6191 -0.1445  0.0904
  672MPD2    H710005   2.444   1.821   0.994 -0.1957 -0.3150  0.4010
  673TMC3    C110006   2.295   1.690   0.869 -0.2566  0.3945  0.4807
  673TMC3    C210007   2.418   1.686   0.817  0.0122  0.0877  0.7084
  673TMC3    C310008   2.436   1.688   0.679 -0.7095  0.7912 -0.4997
  673TMC3    C410009   2.188   1.711   0.786  0.3605 -1.0864 -0.4662
  673TMC3    C510010   2.207   1.702   0.654 -1.3473 -0.2557  0.4221
  673TMC3    C610011   2.326   1.696   0.596 -0.6093 -0.6980  0.9262
  673TMC3     C10012   2.279   1.710   1.013  0.6923 -0.2615  0.3889
  673TMC3     O10013   2.164   1.691   1.054 -0.1065 -0.3072  0.0158
  673TMC3     H10014   2.509   1.662   0.870 -0.6018 -1.4244  1.0761
  673TMC3    H110015   2.089   1.731   0.826  0.0730  0.1990 -1.8429
  673TMC3    H210016   2.349   1.705   0.491  2.6115 -0.9988  1.6267
  673TMC3    C710017   2.127   1.782   0.572  0.7979 -0.7469 -0.2281
  673TMC3    C810018   2.561   1.636   0.621 -0.1859  0.1781 -0.5176
  673TMC3    O110019   2.064   1.730   0.482 -0.1328 -0.3418  0.0417
  673TMC3    O210020   2.545   1.581   0.514  0.4772  0.6513  0.5401
  674MPD2     C10021   2.104   2.603   0.045 -0.3242 -0.1371 -0.5403
  674MPD2    C110022   2.004   2.512   0.031 -0.5387  0.4728  0.3451
  674MPD2    C210023   1.868   2.555   0.016  0.0740  0.1961 -0.1077
  674MPD2    C310024   1.837   2.688   0.024 -0.4288  0.6262 -0.0948
  674MPD2    C410025   1.936   2.776   0.037  0.0350  0.0572 -0.2216
  674MPD2    C510026   2.063   2.733   0.044 -0.3457 -0.6255  0.0359
  674MPD2     H10027   1.791   2.480   0.000  1.9729 -1.8171  0.0999
  674MPD2    H110028   1.910   2.881   0.046  1.1742  0.3028  0.2020
  674MPD2    H210029   2.209   2.578   0.053 -0.3190  0.2138  0.5289
  674MPD2    H310030   2.143   2.806   0.049  0.2272 -1.2078 -0.5398
  674MPD2     N10031   1.701   2.720   0.036 -0.4207  0.4115 -0.0095
  674MPD2    H510032   1.633   2.645   0.027 -0.2268  0.3044 -0.5549
  674MPD2    N110033   2.036   2.370   0.041  0.9708 -0.7579 -1.1705
  674MPD2    H710034   2.124   2.351   0.087  2.1129  0.8201 -2.7207
  675TMC3    C110035   1.995   2.128   0.049 -0.4450 -0.1462  0.1778
  675TMC3    C210036   1.891   2.037   0.052 -0.7798  0.1882 -0.3593
  675TMC3    C310037   1.908   1.915   0.112 -0.0129 -0.6677 -0.3286
  675TMC3    C410038   2.116   2.102   0.106  0.5179 -0.3953 -0.2962
  675TMC3    C510039   2.129   1.975   0.168 -0.0695  1.0239  0.4196
  675TMC3    C610040   2.023   1.884   0.179 -0.0366 -0.4278  0.1833
  675TMC3     C10041   1.953   2.264   0.005 -0.5809  0.1289 -0.7257
  675TMC3     O10042   1.877   2.267  17.656  0.4147  0.3508 -0.4915
  675TMC3     H10043   1.793   2.067   0.017 -1.0395  0.3185  0.4737
  675TMC3    H110044   2.184   2.186   0.107  1.9401 -1.5385  0.1166
  675TMC3    H210045   2.046   1.781   0.204  0.0316 -0.1112  1.4609
  675TMC3    C710046   2.245   1.946   0.252 -0.1700 -0.4907 -0.3451
  675TMC3    C810047   1.785   1.846   0.147 -0.9277 -0.8816  0.5470
  675TMC3    O110048   2.273   1.825   0.252  0.5089 -0.1839 -0.0646
  675TMC3    O210049   1.679   1.882   0.092  0.2896 -0.4613 -0.2814
  676MPD2     C10050   4.700   0.777  10.968  0.1798 -0.1358  0.2027
  676MPD2    C110051   0.015   0.685  11.056  0.2115  0.3056 -0.0420
  676MPD2    C210052   0.058   0.557  11.016 -0.3393  0.3158 -0.0811
  676MPD2    C310053   0.056   0.528  10.879 -0.2889 -0.4582  0.3992
  676MPD2    C410054   4.732   0.615  10.793 -0.0109 -0.0160  0.0556
  676MPD2    C510055   4.689   0.740  10.835  0.8066 -0.5175  0.4364
  676MPD2     H10056   0.104   0.493  11.090  0.5683 -1.0932 -1.8810
  676MPD2    H110057   4.725   0.601  10.686  0.3067  0.3827 -0.0199
  676MPD2    H210058   4.654   0.871  10.993 -1.5516 -0.8859 -0.1351
  676MPD2    H310059   4.641   0.808  10.766 -0.2202 -0.9430  0.7325
  676MPD2     N10060   0.114   0.415  10.820  0.2392 -0.1680  0.0292
  676MPD2    H510061   0.103   0.401  10.720  2.6953 -1.0560 -0.1152
  676MPD2    N110062   0.034   0.707  11.197 -0.1003  0.0010  0.2859
  676MPD2    H710063   0.082   0.635  11.249 -1.2175 -1.3975 -0.6301
  677TMC3    C110064   0.101   0.857  11.380  0.6481  0.0797  0.3021
  677TMC3    C210065   0.047   0.899  11.497  0.3409 -0.0101  0.6101
  677TMC3    C310066   0.129   0.985  11.579  0.8199  0.6168 -0.4384
  677TMC3    C410067   0.227   0.878  11.347  0.3135  0.4534 -0.0282
  677TMC3    C510068   0.303   0.963  11.431 -0.1699 -0.1039  0.4326
  677TMC3    C610069   0.253   1.021  11.541 -0.5544  0.8452 -0.0505
  677TMC3     C10070   0.015   0.830  11.262  0.7251 -0.4721  0.1194
  677TMC3     O10071   4.706   0.934  11.219  0.3882 -0.9196  0.2886
  677TMC3     H10072   4.679   0.884  11.522  0.5286 -2.3469 -0.0738
  677TMC3    H110073   0.271   0.837  11.257  1.8728 -0.5248  1.1854
  677TMC3    H210074   0.306   1.094  11.602 -0.6045  0.7421  0.1172
  677TMC3    C710075   0.436   1.002  11.381  0.2992 -0.3135  0.1052
  677TMC3    C810076   0.094   1.000  11.721  0.0390  0.0316 -0.1120
  677TMC3    O110077   0.486   0.929  11.301  0.2748 -0.5584 -0.6424
  677TMC3    O210078   0.161   1.081  11.788  0.0483  0.0917 -0.1992
  678MPD2     C10079   1.441   4.143   1.377 -0.1035 -0.6306 -0.5424
  678MPD2    C110080   1.486   4.273   1.353  0.6048  0.0228 -0.5072
  678MPD2    C210081   1.387   4.359   1.306 -0.1854 -0.7113  0.1424
  678MPD2    C310082   1.255   4.316   1.268 -0.1355 -0.2041 -0.9801
  678MPD2    C410083   1.226   4.182   1.296  0.6886 -0.1313 -0.2522
  678MPD2    C510084   1.317   4.100   1.349 -0.4056 -0.3925 -0.0121
  678MPD2     H10085   1.422   4.460   1.289  0.7240 -1.0917 -0.2284
  678MPD2    H110086   1.124   4.149   1.280  0.5730 -1.0033  2.2976
  678MPD2    H210087   1.509   4.067   1.413 -0.6166 -1.0080 -0.3707
  678MPD2    H310088   1.288   3.999   1.374  0.0243 -0.3703  0.5997
  678MPD2     N10089   1.151   4.406   1.229  0.2210  0.4965  0.1352
  678MPD2    H510090   1.059   4.378   1.197  0.2244  0.4083  0.2047
  678MPD2    N110091   1.617   4.314   1.360 -0.2000  0.5121  0.7716
  678MPD2    H710092   1.639   4.399   1.310  0.4079 -0.5343 -0.7382
  679TMC3    C110093   2.072   4.282   1.302  0.2205 -1.1118  0.8287
  679TMC3    C210094   1.956   4.223   1.351 -0.6451  0.5879  1.3423
  679TMC3    C310095   1.850   4.309   1.371  0.0738  0.4194  0.5851
  679TMC3    C410096   2.070   4.406   1.238  0.4481 -0.1027  0.2758
  679TMC3    C510097   1.958   4.484   1.259  0.0768  0.0059  0.4175
  679TMC3    C610098   1.843   4.441   1.322 -0.8589  0.2705 -0.1543
  679TMC3     C10099   2.194   4.203   1.283 -0.5540 -0.0409 -0.1946
  679TMC3     O10100   2.250   4.213   1.173  0.1292 -0.2187  0.3944
  679TMC3     H10101   1.951   4.123   1.390 -0.4952  0.1797  0.3096
  679TMC3    H110102   2.166   4.449   1.210 -0.9786  2.7456 -0.2968
  679TMC3    H210103   1.762   4.513   1.334 -1.8643 -0.5546 -2.1589
  679TMC3    C710104   1.951   4.617   1.214  0.3012 -0.7339  0.5445
  679TMC3    C810105   1.724   4.247   1.415  0.6636  0.5256  0.1849
  679TMC3    O110106   1.854   4.686   1.244 -0.2606 -0.0656 -0.3012
  679TMC3    O210107   1.721   4.131   1.447 -0.0160 -0.2891  0.3498
  680MPD2     C10108   1.582   4.248  13.790 -0.3743  0.0377 -0.6876
  680MPD2    C110109   1.671   4.198  13.886 -0.1912 -0.1957  0.3316
  680MPD2    C210110   1.780   4.273  13.919  0.4803  0.1392 -0.4628
  680MPD2    C310111   1.810   4.403  13.861 -0.1715  0.2733 -0.0743
  680MPD2    C410112   1.722   4.447  13.765 -0.1360 -0.0078 -0.2759
  680MPD2    C510113   1.612   4.367  13.730  0.2946  0.3543  1.0758
  680MPD2     H10114   1.851   4.223  13.984  1.7428  1.2898 -0.9619
  680MPD2    H110115   1.728   4.549  13.728  0.2590 -0.2077 -0.7808
  680MPD2    H210116   1.509   4.184  13.742 -0.9062  0.1609 -0.0261
  680MPD2    H310117   1.543   4.408  13.656  0.6095 -1.7013 -0.3422
  680MPD2     N10118   1.929   4.476  13.897  0.2395 -0.0652 -0.4202
  680MPD2    H510119   1.958   4.551  13.835  3.5673 -0.9767  0.0274
  680MPD2    N110120   1.661   4.068  13.942  0.6144  0.1571 -0.0493
  680MPD2    H710121   1.736   4.031  13.998  0.5845 -0.7043 -0.5808
  681TMC3    C110122   1.578   3.844  13.980 -0.1083  1.1231 -0.4615
  681TMC3    C210123   1.682   3.823  14.068 -0.0458 -0.0904 -0.1718
  681TMC3    C310124   1.714   3.697  14.104 -0.5161 -0.8651 -0.1623
  681TMC3    C410125   1.509   3.747  13.912 -0.4887 -0.7566  0.5857
  681TMC3    C510126   1.545   3.620  13.949 -0.3581  0.2755  0.1623
  681TMC3    C610127   1.644   3.594  14.045 -0.4140  0.4339 -0.6750
  681TMC3     C10128   1.555   3.982  13.928 -0.1524  0.1120 -0.4155
  681TMC3     O10129   1.445   4.008  13.881 -0.3507  0.1259  0.2075
  681TMC3     H10130   1.720   3.905  14.129  1.9743  0.6035 -2.3700
  681TMC3    H110131   1.441   3.767  13.831 -0.6026 -1.2916  0.5532
  681TMC3    H210132   1.666   3.489  14.057 -2.3611  0.2193  1.2268
  681TMC3    C710133   1.502   3.519  13.852  0.0834 -0.3117  0.2912
  681TMC3    C810134   1.702   3.690  14.246  0.4692 -0.0072  0.1872
  681TMC3    O110135   1.386   3.527  13.808 -1.0082  0.6640  0.4879
  681TMC3    O210136   1.604   3.638  14.293  0.0588 -0.1475 -0.3163
  682MPD2     C10137   3.863   0.704  10.261  0.4588  0.5028  0.1209
  682MPD2    C110138   3.869   0.568  10.256 -0.3944 -0.0125 -0.0736
  682MPD2    C210139   3.829   0.489  10.363  0.2244 -0.6233  0.1860
  682MPD2    C310140   3.771   0.551  10.477  0.0474 -0.0972  0.0343
  682MPD2    C410141   3.768   0.689  10.482 -0.3457  0.3066  0.6188
  682MPD2    C510142   3.822   0.758  10.375  1.2360 -0.5029  0.2421
  682MPD2     H10143   3.840   0.381  10.367  0.9296 -0.5379  0.4860
  682MPD2    H110144   3.736   0.741  10.572  0.0138  1.0374  0.3227
  682MPD2    H210145   3.886   0.766  10.175 -0.5561  0.3250 -0.2777
  682MPD2    H310146   3.819   0.867  10.383 -1.0219 -0.4035 -2.2214
  682MPD2     N10147   3.737   0.478  10.594 -0.3527  0.0867 -0.4761
  682MPD2    H510148   3.697   0.527  10.673  3.1986 -0.4552  1.6557
  682MPD2    N110149   3.915   0.492  10.145 -0.1975 -0.1787  0.3969
  682MPD2    H710150   3.911   0.391  10.152  1.3711 -0.1585  1.5147
  683TMC3    C110151   3.826   0.321  10.940 -0.2488 -0.0801  0.8729
  683TMC3    C210152   3.845   0.183  10.953 -0.5419  0.4212  0.5858
  683TMC3    C310153   3.789   0.103  10.860  0.4158  0.3728  0.1261
  683TMC3    C410154   3.750   0.380  10.848 -0.2748  0.1288 -0.3836
  683TMC3    C510155   3.708   0.298  10.740 -0.0831 -0.4935 -0.5207
  683TMC3    C610156   3.717   0.159  10.751  0.6389  1.1893 -0.4633
  683TMC3     C10157   3.874   0.411  11.043 -0.3882 -0.4260  0.2861
  683TMC3     O10158   3.822   0.516  11.069  0.1068 -0.2740 -1.1566
  683TMC3     H10159   3.892   0.134  11.038  1.3571  0.1415 -0.6325
  683TMC3    H110160   3.738   0.488  10.847  0.3756  0.2006 -1.1356
  683TMC3    H210161   3.694   0.087  10.673  2.6306 -0.5574  0.5859
  683TMC3    C710162   3.725   0.343  10.604  0.2347  0.1648 -0.2872
  683TMC3    C810163   3.844   4.703  10.837  0.1448  0.3935  0.1762
  683TMC3    O110164   3.734   0.261  10.516 -0.4527 -0.1130  0.3282
  683TMC3    O210165   3.862   4.670  10.720  0.0952 -0.7985  0.4817
  684MPD2     C10166   2.638   4.427  16.513 -0.1760  0.8181  0.3214
  684MPD2    C110167   2.619   4.509  16.410  0.1341 -0.2829 -0.1831
  684MPD2    C210168   2.550   4.630  16.419 -0.0278 -0.1757  1.0661
  684MPD2    C310169   2.491   4.672  16.542  0.2539 -0.0503 -0.2912
  684MPD2    C410170   2.525   4.584  16.647  0.4946  0.0333 -0.9050
  684MPD2    C510171   2.595   4.471  16.638 -0.4174 -0.5046 -0.2748
  684MPD2     H10172   2.546   4.694  16.332 -0.8194 -1.5131  0.1253
  684MPD2    H110173   2.481   4.612  16.742  3.7465 -2.3103  1.2725
  684MPD2    H210174   2.690   4.333  16.498 -1.3381  0.3888 -1.0509
  684MPD2    H310175   2.610   4.402  16.720 -1.7621 -0.4644 -0.0121
  684MPD2     N10176   2.430   0.066  16.564  0.3908  0.1468 -0.0028
  684MPD2    H510177   2.404   0.096  16.657 -0.8470 -0.2570 -0.2223
  684MPD2    N110178   2.678   4.480  16.286 -0.1714 -0.2753  0.2392
  684MPD2    H710179   2.650   4.537  16.207  2.1072  1.4017  0.6497
  685TMC3    C110180   2.823   4.393  16.125 -0.6447  0.4572 -0.3364
  685TMC3    C210181   2.726   4.432  16.041 -0.3745  0.3138 -0.3667
  685TMC3    C310182   2.772   4.503  15.932  0.3050 -0.1472  0.8311
  685TMC3    C410183   2.961   4.392  16.098  0.6412  0.5386 -0.1137
  685TMC3    C510184   2.991   4.472  15.992 -0.0132  0.1301  1.2298
  685TMC3    C610185   2.903   4.516  15.899  0.3230 -0.0841  0.0632
  685TMC3     C10186   2.783   4.392  16.267  0.3962 -0.4045 -0.2613
  685TMC3     O10187   2.853   4.330  16.349 -0.0495  0.5350  0.4734
  685TMC3     H10188   2.623   4.404  16.060 -0.2521 -0.2736 -0.5872
  685TMC3    H110189   3.026   4.375  16.184  0.0814 -0.4529  0.1086
  685TMC3    H210190   2.951   4.573  15.820 -2.5365  1.7125 -0.3648
  685TMC3    C710191   3.086   4.578  16.020  0.3639  0.7882  0.3289
  685TMC3    C810192   2.674   4.552  15.836  0.0938 -0.2660 -0.5622
  685TMC3    O110193   3.102   4.671  15.941 -0.4437  0.4695 -0.3602
  685TMC3    O210194   2.701   4.551  15.716  0.2389 -0.0910 -0.2239
  686MPD2     C10195   3.135   4.523  15.447 -0.8670 -0.2626 -0.7328
  686MPD2    C110196   3.129   4.415  15.532  0.3027  0.5199 -0.6138
  686MPD2    C210197   3.248   4.366  15.592  0.3664 -0.6182  0.0382
  686MPD2    C310198   3.361   4.441  15.579 -0.3004  0.6750  0.2203
  686MPD2    C410199   3.362   4.556  15.496 -0.0404  0.3665  0.4073
  686MPD2    C510200   3.249   4.598  15.431 -0.2615  0.3177  0.3109
  686MPD2     H10201   3.249   4.278  15.656  3.5387  0.9729  2.1751
  686MPD2    H110202   3.459   4.605  15.487  0.5995 -1.0133 -0.1307
  686MPD2    H210203   3.047   4.562  15.396  0.1970 -1.5671 -3.5561
  686MPD2    H310204   3.249   4.688  15.372  0.3201  1.4645  2.0656
  686MPD2     N10205   3.489   4.395  15.620 -0.5230 -0.1845  0.0693
  686MPD2    H510206   3.565   4.457  15.596 -2.3560  0.9157 -2.8761
  686MPD2    N110207   2.994   4.374  15.563  0.0766  0.5624 -0.1283
  686MPD2    H710208   2.919   4.418  15.509  2.4580  2.0416 -2.2224
  687TMC3    C110209   3.675   4.272  15.695  0.1468 -0.1109  0.5311
  687TMC3    C210210   3.751   4.325  15.594 -0.5090  0.2298  0.4079
  687TMC3    C310211   3.884   4.303  15.598 -0.6138 -0.5289  0.0197
  687TMC3    C410212   3.737   4.209  15.800  0.2355 -0.5240  0.3198
  687TMC3    C510213   3.874   4.189  15.803 -0.7404  0.7610  0.1807
  687TMC3    C610214   3.946   4.232  15.695 -0.4479 -0.1685  0.6068
  687TMC3     C10215   3.529   4.281  15.689 -0.0208  0.9519 -0.4425
  687TMC3     O10216   3.458   4.203  15.756 -0.0329  0.3222 -0.1893
  687TMC3     H10217   3.704   4.349  15.499  1.3286 -1.6918 -0.9644
  687TMC3    H110218   3.670   4.171  15.876 -1.8091  0.4963 -1.0023
  687TMC3    H210219   4.053   4.217  15.696 -0.4208 -0.0868 -1.3286
  687TMC3    C710220   3.937   4.182  15.933 -0.3096  0.2356 -0.1352
  687TMC3    C810221   3.970   4.365  15.500  0.0428 -1.1459 -0.4192
  687TMC3    O110222   3.891   4.088  16.001 -0.0926 -0.2841  0.2871
  687TMC3    O210223   4.066   4.305  15.459  0.2976 -0.6419 -0.6791
  688MPD2     C10224   2.778   3.207  17.702 -0.0069 -0.1273 -0.0020
  688MPD2    C110225   2.824   3.078  17.693 -0.5995 -0.1817  0.4634
  688MPD2    C210226   2.920   3.051  17.598 -0.0605 -0.0989  0.1703
  688MPD2    C310227   2.976   3.154  17.518 -0.0044  0.4581  0.2716
  688MPD2    C410228   2.927   3.282  17.531  0.4838  0.3895  0.0021
  688MPD2    C510229   2.823   3.304  17.619 -0.3907  0.0513  0.3611
  688MPD2     H10230   2.955   2.948  17.589  1.3015  0.0521  3.5810
  688MPD2    H110231   2.964   3.356  17.461 -0.8239 -1.4200 -2.5926
  688MPD2    H210232   2.701   3.235   0.029 -0.5854  0.4712 -0.8692
  688MPD2    H310233   2.778   3.403  17.625  1.2205  0.7395  1.2488
  688MPD2     N10234   3.078   3.139  17.421  0.2688 -0.0747 -0.3298
  688MPD2    H510235   3.124   3.223  17.389  1.1134 -0.6310 -0.5940
  688MPD2    N110236   2.773   2.973   0.034  0.1179  0.0061 -0.2638
  688MPD2    H710237   2.817   2.882   0.029 -0.7607 -0.4044 -0.5030
  689TMC3    C110238   2.704   2.878   0.241 -0.0802 -0.5120 -0.3778
  689TMC3    C210239   2.686   2.903   0.373 -0.7344 -0.0807  0.5264
  689TMC3    C310240   2.637   2.803   0.450 -0.7604 -0.2563 -0.0552
  689TMC3    C410241   2.665   2.760   0.187 -0.1751 -0.5811 -0.7600
  689TMC3    C510242   2.609   2.666   0.267 -0.0571 -0.4411 -0.1362
  689TMC3    C610243   2.595   2.681   0.404  0.0587  0.3894  0.5525
  689TMC3     C10244   2.711   2.996   0.156 -0.0521 -0.6936  0.2516
  689TMC3     O10245   2.680   3.100   0.206 -0.3403 -0.3601 -0.4045
  689TMC3     H10246   2.724   2.997   0.412  0.3938  0.2253 -1.3204
  689TMC3    H110247   2.670   2.742   0.081 -0.9145 -1.2342 -0.6846
  689TMC3    H210248   2.554   2.600   0.464 -0.7050 -1.2867 -2.2235
  689TMC3    C710249   2.538   2.552   0.217 -0.0098 -0.5531  0.7950
  689TMC3    C810250   2.560   2.847   0.566  0.5837 -0.0619 -0.9484
  689TMC3    O110251   2.532   2.460   0.296 -0.5684 -0.1165  0.2104
  689TMC3    O210252   2.505   2.768   0.645 -0.5260  0.5767 -0.7872
  690MPD2     C10253   0.667   0.927  15.800 -0.0151 -0.1181 -0.2185
  690MPD2    C110254   0.634   0.848  15.688  0.5583 -0.2846  0.3091
  690MPD2    C210255   0.724   0.832  15.584  0.2880 -0.1151 -0.4244
  690MPD2    C310256   0.850   0.882  15.594  0.0952 -0.3227 -0.0133
  690MPD2    C410257   0.883   0.973  15.697  0.2777  0.1928  0.4745
  690MPD2    C510258   0.789   0.993  15.798 -0.4969 -0.0134  0.5523
  690MPD2     H10259   0.687   0.776  15.498  0.4484 -0.3168 -0.3621
  690MPD2    H110260   0.974   1.030  15.704  1.5500 -1.7875  0.2300
  690MPD2    H210261   0.605   0.948  15.886  0.6691 -0.7141  0.4201
  690MPD2    H310262   0.825   1.055  15.880  0.8211  1.5746 -1.2305
  690MPD2     N10263   0.935   0.849  15.487  0.1812 -0.1965 -0.7056
  690MPD2    H510264   0.898   0.796  15.409  0.0390  0.2285 -0.9241
  690MPD2    N110265   0.509   0.785  15.681  0.9448  0.1296 -0.5107
  690MPD2    H710266   0.495   0.717  15.608  3.2543 -0.1206 -0.7258
  691TMC3    C110267   0.288   0.728  15.733  0.4327  0.6496 -0.1067
  691TMC3    C210268   0.158   0.767  15.764 -0.5954 -0.1172 -0.3387
  691TMC3    C310269   0.063   0.672  15.782 -0.2957  0.0325 -0.4158
  691TMC3    C410270   0.315   0.596  15.705 -0.4221  0.3893 -0.2088
  691TMC3    C510271   0.215   0.504  15.715 -0.0157 -0.4457  0.1956
  691TMC3    C610272   0.086   0.541  15.756  0.4716 -0.3362 -0.6739
  691TMC3     C10273   0.395   0.820  15.751  0.2292  0.1653 -0.2472
  691TMC3     O10274   0.368   0.935  15.789 -0.1379 -0.2740 -0.1697
  691TMC3     H10275   0.158   0.864  15.814 -1.2547 -0.2019 -0.1711
  691TMC3    H110276   0.418   0.564  15.695 -0.9021 -1.4490  0.7368
  691TMC3    H210277   0.006   0.468  15.755  0.7524 -0.6608  0.3511
  691TMC3    C710278   0.258   0.366  15.739 -0.2689  0.2266 -0.0659
  691TMC3    C810279   4.671   0.700  15.847 -0.1052 -0.1647 -0.2702
  691TMC3    O110280   0.380   0.344  15.729  0.0626 -0.0791  0.0180
  691TMC3    O210281   4.613   0.607  15.896  0.3703 -0.5170  0.1210
  692TMC3    C110282   2.027   1.346  15.815 -0.3484 -0.4270  0.1418
  692TMC3    C210283   2.134   1.404  15.878 -0.6086  0.2070 -0.2558
  692TMC3    C310284   2.227   1.317  15.937 -0.0498 -0.3635  0.3178
  692TMC3    C410285   1.992   1.214  15.826 -0.1114  0.3801 -0.8316
  692TMC3    C510286   2.072   1.135  15.900 -0.2843 -0.2956  0.1499
  692TMC3    C610287   2.183   1.187  15.951 -0.1434 -0.0744  0.6605
  692TMC3     C10288   1.927   1.425  15.744  1.0324  0.3638 -0.1732
  692TMC3     O10289   1.837   1.374  15.686  0.1750  0.3339 -0.4889
  692TMC3     H10290   2.163   1.508  15.867  1.5470 -0.3651  0.0587
  692TMC3    H110291   1.901   1.175  15.783 -0.5040 -2.1778  2.3071
  692TMC3    H210292   2.258   1.121  15.993 -1.6261 -1.9814  0.3204
  692TMC3    C710293   2.098   1.005  15.845 -0.1504  0.4180  0.8567
  692TMC3    C810294   2.279   1.361  16.061  0.2557  0.2505  0.0751
  692TMC3    O110295   2.114   0.991  15.725  0.8693  0.1997  0.6762
  692TMC3    O210296   2.273   1.286  16.158 -0.0998 -0.4539 -0.5129
  693MPD2     C10297   1.542   4.691  10.728  0.4342 -0.4279 -0.7657
  693MPD2    C110298   1.520   4.558  10.709 -0.2294  0.0883 -0.2288
  693MPD2    C210299   1.624   4.473  10.691  0.2598  0.4913  0.1693
  693MPD2    C310300   1.758   4.519  10.709 -0.6780 -0.1498 -0.4125
  693MPD2    C410301   1.775   4.653  10.736 -0.0726 -0.0344  0.1034
  693MPD2    C510302   1.665   0.003  10.739 -0.1197 -0.9594  0.1639
  693MPD2     H10303   1.593   4.370  10.682 -0.6608  0.8812 -1.0163
  693MPD2    H110304   1.875   4.695  10.745 -0.5631  1.5483 -1.6213
  693MPD2    H210305   1.457   0.021  10.742  1.4911  0.3698  1.7443
  693MPD2    H310306   1.681   0.109  10.750  2.3349 -1.3392  0.2875
  693MPD2     N10307   1.870   4.433  10.716  0.0923 -0.1166 -0.0795
  693MPD2    H510308   1.957   4.472  10.751  2.2618 -3.6578 -1.5500
  693MPD2    N110309   1.386   4.516  10.707  0.2464 -0.0411 -0.0867
  693MPD2    H710310   1.315   4.565  10.761 -1.4509 -0.7542 -1.6586
  694TMC3    C110311   1.207   4.363  10.700  0.6648  0.8497 -0.1053
  694TMC3    C210312   1.143   4.269  10.624  0.3898 -0.9721  0.0572
  694TMC3    C310313   1.047   4.189  10.687 -0.4683 -0.7279 -0.1095
  694TMC3    C410314   1.185   4.377  10.833 -0.4484  0.1745  0.3386
  694TMC3    C510315   1.101   4.288  10.891 -0.0034 -1.1603 -0.5851
  694TMC3    C610316   1.024   4.199  10.820 -0.1035 -0.0829  0.2504
  694TMC3     C10317   1.339   4.402  10.652  0.0549 -1.1250  0.7070
  694TMC3     O10318   1.389   4.341  10.558  0.0087 -0.0052  0.1669
  694TMC3     H10319   1.168   4.250  10.521 -0.3969  3.0610 -0.8859
  694TMC3    H110320   1.250   4.434  10.897  2.1431 -1.7196 -0.6062
  694TMC3    H210321   0.941   4.142  10.861 -1.0794  0.7280 -0.5735
  694TMC3    C710322   1.097   4.289  11.035  0.1379 -0.5402  0.0832
  694TMC3    C810323   0.973   4.085  10.616 -0.4224 -0.0928  0.5493
  694TMC3    O110324   1.143   4.390  11.085 -0.2327 -0.0620  0.8237
  694TMC3    O210325   0.902   4.004  10.678 -0.2453  0.6030 -0.1835
  695MPD2     C10326   2.645   1.862  13.471 -0.3166 -0.4348 -0.6037
  695MPD2    C110327   2.597   1.816  13.591  0.2268 -0.2289 -1.3322
  695MPD2    C210328   2.461   1.794  13.607  0.5171  0.1973  0.4779
  695MPD2    C310329   2.370   1.834  13.507  0.3323  0.4099  0.0581
  695MPD2    C410330   2.426   1.859  13.381 -0.1042  0.1759  0.0555
  695MPD2    C510331   2.559   1.878  13.367  0.2796  0.7125 -0.1209
  695MPD2     H10332   2.425   1.749  13.699 -2.3563  1.6101  0.0267
  695MPD2    H110333   2.364   1.892  13.299  1.6855  1.7483 -0.6766
  695MPD2    H210334   2.748   1.886  13.449 -0.7628  1.1244 -0.9799
  695MPD2    H310335   2.607   1.917  13.278 -0.3045  0.6607 -0.4574
  695MPD2     N10336   2.234   1.820  13.533 -0.1481 -0.8294 -0.5781
  695MPD2    H510337   2.208   1.779  13.622 -0.5117 -0.6377 -0.6001
  695MPD2    N110338   2.681   1.764  13.695  0.2368 -0.4035 -0.1868
  695MPD2    H710339   2.637   1.717  13.773  2.8402 -0.4596  1.2097
  696TMC3    C110340   1.992   1.836  13.497  0.9029 -0.4023 -0.2191
  696TMC3    C210341   1.970   1.752  13.602  1.0130 -0.0752 -0.5780
  696TMC3    C310342   1.848   1.755  13.666 -0.7376  0.1085  0.1017
  696TMC3    C410343   1.890   1.921  13.447  0.5628  0.2859  0.7143
  696TMC3    C510344   1.773   1.920  13.515  0.1512 -0.7153  0.1001
  696TMC3    C610345   1.752   1.846  13.623 -0.1976 -0.1298 -0.2114
  696TMC3     C10346   2.132   1.860  13.445 -0.1071  0.3648 -0.5933
  696TMC3     O10347   2.135   1.899  13.331  0.6680 -0.7903  0.0864
  696TMC3     H10348   2.054   1.699  13.645  0.9049  0.1780 -0.0522
  696TMC3    H110349   1.906   1.989  13.365  0.4748  0.7078  1.0486
  696TMC3    H210350   1.655   1.845  13.670 -0.9203  1.7807 -1.6617
  696TMC3    C710351   1.665   2.013  13.483  0.0985  0.3285 -0.2883
  696TMC3    C810352   1.815   1.674  13.787  0.1003 -0.3320 -1.0632
  696TMC3    O110353   1.674   2.059  13.369  0.8170  0.0277 -0.2390
  696TMC3    O210354   1.709   1.708  13.837  0.1121  0.4991 -0.0604
  697MPD2     C10355   1.664   3.323  15.805 -0.1823 -0.3879 -0.1969
  697MPD2    C110356   1.723   3.251  15.705  0.2625  0.5968 -0.3481
  697MPD2    C210357   1.782   3.318  15.597 -0.1517 -0.4243  0.8656
  697MPD2    C310358   1.783   3.456  15.591  0.0181  0.5846  0.3531
  697MPD2    C410359   1.734   3.530  15.701 -0.4249  0.0395  0.1248
  697MPD2    C510360   1.673   3.462  15.799  0.2009  0.6479 -0.2170
  697MPD2     H10361   1.829   3.259  15.519  1.3950  0.5103  1.0874
  697MPD2    H110362   1.731   3.638  15.710  1.8256  0.0844  0.2825
  697MPD2    H210363   1.612   3.272  15.885 -0.4475 -0.3704 -0.3581
  697MPD2    H310364   1.627   3.520  15.878 -1.2112 -1.2786  0.3793
  697MPD2     N10365   1.845   3.519  15.479  0.3083  0.8509 -0.0355
  697MPD2    H510366   1.901   3.459  15.419 -0.1313 -0.3739  0.7910
  697MPD2    N110367   1.714   3.106  15.702  0.2410 -0.1366 -0.1777
  697MPD2    H710368   1.744   3.059  15.617  2.5925  0.6855  0.2072
  698TMC3    C110369   1.961   3.677  15.354  0.0860 -0.2541  0.4211
  698TMC3    C210370   2.049   3.777  15.366  0.5040  0.3091 -0.4576
  698TMC3    C310371   2.139   3.799  15.261  0.4385  0.2477 -0.4564
  698TMC3    C410372   1.946   3.604  15.243 -0.1638 -0.5977 -0.7712
  698TMC3    C510373   2.024   3.645  15.132  0.2322  0.4409  0.3924
  698TMC3    C610374   2.126   3.737  15.140 -0.3394 -1.0037 -0.2621
  698TMC3     C10375   1.888   3.650  15.472 -0.8283  0.1533 -0.4122
  698TMC3     O10376   1.860   3.748  15.540  0.6657 -0.3892 -0.3884
  698TMC3     H10377   2.069   3.825  15.461  2.2556  0.9440 -1.1374
  698TMC3    H110378   1.868   3.530  15.229  0.0309 -1.0017  0.2828
  698TMC3    H210379   2.171   3.779  15.051  3.2498 -1.8866  1.1253
  698TMC3    C710380   1.979   3.586  15.004 -0.0718 -0.3364 -0.4844
  698TMC3    C810381   2.272   3.808  15.312  0.5934  0.0611  0.0066
  698TMC3    O110382   1.867   3.538  15.004 -0.5922  0.4480  0.1858
  698TMC3    O210383   2.284   3.773  15.434  0.3014 -0.0124 -0.1616
  699TMC3    C110384   2.083   1.490  13.240 -0.3370 -0.0059 -0.4171
  699TMC3    C210385   2.141   1.370  13.283 -0.0607  0.7335 -0.4316
  699TMC3    C310386   2.063   1.284  13.358 -0.3379 -0.4691 -0.4044
  699TMC3    C410387   1.952   1.524  13.271 -0.7048 -0.4475  0.5876
  699TMC3    C510388   1.883   1.440  13.355 -0.2597  0.1464  0.1454
  699TMC3    C610389   1.937   1.322  13.396  0.8304 -0.1659 -0.9963
  699TMC3     C10390   2.154   1.575  13.149 -0.0691  0.2327  0.0652
  699TMC3     O10391   2.093   1.683  13.135  0.2090 -0.5685 -0.5561
  699TMC3     H10392   2.244   1.345  13.264  0.7209  2.3425  1.7348
  699TMC3    H110393   1.912   1.614  13.225  0.8077 -0.7959 -1.3941
  699TMC3    H210394   1.879   1.250  13.452 -0.7282  2.6898  1.0443
  699TMC3    C710395   1.766   1.483  13.421 -0.0628  0.3751 -0.7327
  699TMC3    C810396   2.124   1.198  13.449  0.5413  0.3282 -0.8247
  699TMC3    O110397   1.740   1.426  13.529 -0.4299  0.5233 -0.0905
  699TMC3    O210398   2.080   1.203  13.566  0.4819  0.1496 -0.7988
  700TMC3    C110399   0.953   3.751  17.556 -0.3348  0.6844  0.4151
  700TMC3    C210400   0.962   3.614  17.539  0.3165  0.0578 -0.2970
  700TMC3    C310401   1.035   3.541  17.631 -0.2360 -0.4453  0.1712
  700TMC3    C410402   1.022   3.812  17.656 -0.5157  0.1658  0.0187
  700TMC3    C510403   1.090   3.736  17.741 -0.0422 -0.7852  0.1635
  700TMC3    C610404   1.104   3.601  17.727 -0.0054  0.1527 -0.3191
  700TMC3     C10405   0.940   3.814  17.429  0.2065 -0.1354 -0.6744
  700TMC3     O10406   0.857   3.760  17.356 -0.4647 -0.0170 -0.2134
  700TMC3     H10407   0.922   3.571  17.448 -0.1680  1.0410 -0.5475
  700TMC3    H110408   1.003   3.918  17.673  2.0290  0.2779  2.1196
  700TMC3    H210409   1.140   3.544   0.067  2.4255  1.0419 -0.7686
  700TMC3    C710410   1.107   3.779   0.139  0.1799 -0.0177 -0.8743
  700TMC3    C810411   1.081   3.407  17.596  0.1017  0.3636  0.4821
  700TMC3    O110412   1.094   3.701   0.233  0.1245  0.0772  0.2280
  700TMC3    O210413   1.198   3.379  17.613 -0.2632  0.1860  0.4223
  701TMC3    C110414   1.057   2.475  15.684  0.5235  0.0107  0.5562
  701TMC3    C210415   1.102   2.428  15.564 -0.6840 -0.3742  0.5529
  701TMC3    C310416   1.205   2.504  15.502 -0.2125 -0.4083 -0.3998
  701TMC3    C410417   1.089   2.599  15.736  0.2197 -0.5834 -0.5638
  701TMC3    C510418   1.187   2.667  15.671 -0.1867 -0.5704  0.2701
  701TMC3    C610419   1.245   2.622  15.559 -0.6427  0.1039  0.6452
  701TMC3     C10420   0.956   2.405  15.753  0.5494  0.2538  0.2079
  701TMC3     O10421   0.946   2.429  15.873  0.5035  0.7451  0.3689
  701TMC3     H10422   1.077   2.327  15.535 -0.9388  0.2861 -1.5231
  701TMC3    H110423   1.032   2.629  15.824  1.4940  0.4907 -0.1058
  701TMC3    H210424   1.320   2.685  15.513 -1.4324  0.0380 -0.7129
  701TMC3    C710425   1.223   2.793  15.718 -0.1095  0.1692  0.4688
  701TMC3    C810426   1.243   2.461  15.369 -0.2232  0.3738 -0.3571
  701TMC3    O110427   1.293   2.853  15.641 -0.0088 -0.1094 -0.2795
  701TMC3    O210428   1.347   2.501  15.318  1.2705 -0.1696  0.0076
  702MPD2     C10429   0.551   0.430  10.321 -0.5352 -0.2381  0.1917
  702MPD2    C110430   0.431   0.474  10.375 -0.2248 -0.3835 -0.1492
  702MPD2    C210431   0.412   0.608  10.385 -0.7511  0.2727  0.0306
  702MPD2    C310432   0.504   0.701  10.329 -0.4959 -0.3552 -0.0655
  702MPD2    C410433   0.618   0.651  10.278 -0.3960 -0.1290 -0.1412
  702MPD2    C510434   0.644   0.516  10.275 -0.2368 -0.5537 -0.2303
  702MPD2     H10435   0.331   0.648  10.445  0.3919  2.3358  0.2319
  702MPD2    H110436   0.704   0.704  10.240 -1.3468 -0.4712 -2.7360
  702MPD2    H210437   0.579   0.326  10.331  3.1113  0.6572 -0.5055
  702MPD2    H310438   0.737   0.476  10.236 -0.0983 -1.1952  0.7559
  702MPD2     N10439   0.491   0.838  10.348  0.0376 -0.0141  0.7093
  702MPD2    H510440   0.577   0.892  10.352  0.1102 -0.1297  0.7099
  702MPD2    N110441   0.340   0.390  10.442 -0.6125 -0.3345  0.0810
  702MPD2    H710442   0.267   0.436  10.496 -1.7714 -2.1654  0.0639
  703TMC3    C110443   0.366   1.037  10.417 -0.4403  0.1509  0.5166
  703TMC3    C210444   0.241   1.082  10.449 -0.2836 -0.2374 -0.2908
  703TMC3    C310445   0.231   1.193  10.525  0.2342 -0.4019 -0.4077
  703TMC3    C410446   0.479   1.088  10.471 -0.4417 -0.1924  0.6510
  703TMC3    C510447   0.464   1.199  10.548 -0.2093 -1.0001  0.2165
  703TMC3    C610448   0.344   1.250  10.583 -0.0502 -0.2093  0.4446
  703TMC3     C10449   0.365   0.903  10.354  0.6835 -0.4710  0.5981
  703TMC3     O10450   0.252   0.858  10.333  0.2880 -0.5659  0.3174
  703TMC3     H10451   0.153   1.057  10.390 -0.2829  1.2140 -0.8904
  703TMC3    H110452   0.575   1.050  10.439 -0.5444  2.0686 -2.4092
  703TMC3    H210453   0.341   1.339  10.644 -1.5544  1.0683 -1.4997
  703TMC3    C710454   0.586   1.276  10.590 -0.8505 -0.2814  0.1831
  703TMC3    C810455   0.105   1.235  10.595  0.5131  1.0794  0.0955
  703TMC3    O110456   0.580   1.396  10.611  0.2269 -0.0326 -0.1438
  703TMC3    O210457   0.099   1.349  10.644  0.3357 -0.9228  0.4383
  704TMC3    C110458   2.959   3.658  12.401  0.5206 -0.5865 -0.1128
  704TMC3    C210459   3.014   3.688  12.276 -0.1481 -0.1698 -0.1685
  704TMC3    C310460   3.136   3.631  12.250  0.0761  0.5102 -0.0693
  704TMC3    C410461   3.030   3.597  12.502  0.3580 -0.3424 -0.4638
  704TMC3    C510462   3.159   3.570  12.478 -0.0427  0.5431 -0.2951
  704TMC3    C610463   3.210   3.580  12.353 -0.1240  0.3087 -0.0701
  704TMC3     C10464   2.815   3.657  12.419  0.0592 -0.2418  0.7309
  704TMC3     O10465   2.765   3.648  12.531 -0.0362 -0.2830 -0.3672
  704TMC3     H10466   2.958   3.754  12.211 -0.4594 -0.5410 -0.2783
  704TMC3    H110467   2.986   3.578  12.600  0.8732  1.5071  0.1359
  704TMC3    H210468   3.316   3.568  12.333  0.3171 -0.7474  2.9244
  704TMC3    C710469   3.206   3.456  12.554 -0.6130  0.3987 -0.6272
  704TMC3    C810470   3.106   3.531  12.147 -0.3251  0.1627  0.7034
  704TMC3    O110471   3.119   3.398  12.618  0.1111  0.2753  0.2197
  704TMC3    O210472   2.996   3.550  12.097 -0.1760 -0.3433 -0.7703
  705MPD2     C10473   2.109   1.065  16.609 -0.0676  0.5067  0.1875
  705MPD2    C110474   2.157   1.155  16.515 -0.3050  0.5601  0.1192
  705MPD2    C210475   2.077   1.268  16.488  0.6107 -0.1108  0.1448
  705MPD2    C310476   1.951   1.288  16.552  0.2639 -0.1974 -1.0940
  705MPD2    C410477   1.905   1.188  16.628 -0.3092 -0.6520 -0.4419
  705MPD2    C510478   1.988   1.088  16.670 -0.3811 -0.3488  0.6243
  705MPD2     H10479   2.115   1.346  16.422 -0.0596  0.5195  0.5046
  705MPD2    H110480   1.803   1.194  16.663 -0.1305 -0.8718  0.1262
  705MPD2    H210481   2.157   0.971  16.637  0.7184  0.8612  0.0441
  705MPD2    H310482   1.945   1.010  16.732 -1.9828 -0.3008 -0.4307
  705MPD2     N10483   1.853   1.385  16.526 -0.2151 -0.0208  0.9136
  705MPD2    H510484   1.755   1.364  16.543 -0.9670  0.0392 -3.2692
  705MPD2    N110485   2.273   1.129  16.443 -0.3163 -0.0594 -0.6985
  705MPD2    H710486   2.291   1.197  16.370 -0.8339  2.4228  1.4999
  706TMC3    C110487   2.525   0.944  16.134 -0.1357  0.2049 -0.4382
  706TMC3    C210488   2.577   1.071  16.103 -0.0307 -0.6528 -0.1257
  706TMC3    C310489   2.574   1.171  16.203  0.1002  0.0392 -0.1116
  706TMC3    C410490   2.454   0.929  16.254 -0.0118  0.2881  0.2544
  706TMC3    C510491   2.456   1.026  16.344 -0.7093 -0.1258 -0.3370
  706TMC3    C610492   2.508   1.153  16.321 -0.3467  0.6523 -0.2932
  706TMC3     C10493   2.573   0.819  16.071  0.4914 -0.1071 -0.2324
  706TMC3     O10494   2.587   0.726  16.147 -0.1847  0.5623  0.6986
  706TMC3     H10495   2.637   1.081  16.014 -2.2884 -1.7782 -1.7940
  706TMC3    H110496   2.412   0.833  16.281 -0.7034  0.6688  0.5214
  706TMC3    H210497   2.492   1.236  16.390 -0.4099  0.6363 -0.2887
  706TMC3    C710498   2.357   1.026  16.453  0.4548 -0.4104  0.2415
  706TMC3    C810499   2.620   1.302  16.173 -0.6627 -0.4579  0.1227
  706TMC3    O110500   2.349   0.917  16.512 -0.3791  0.0469  0.0300
  706TMC3    O210501   2.632   1.338  16.055  0.3581  0.7761  0.6751
  707TMC3    C110502   3.949   4.667   0.738  0.3296 -0.5473  0.2007
  707TMC3    C210503   3.927   4.584   0.848  1.0203  0.3514  0.1914
  707TMC3    C310504   3.797   4.542   0.872 -0.4204 -0.0499  0.2483
  707TMC3    C410505   3.841   4.725   0.667 -0.3341  0.2080 -0.2729
  707TMC3    C510506   3.715   4.692   0.704  0.0804 -0.7261  0.2095
  707TMC3    C610507   3.699   4.591   0.797  0.2924  0.4334  0.2863
  707TMC3     C10508   4.088   4.668   0.681  0.5519 -0.0139  1.2764
  707TMC3     O10509   4.170   4.604   0.747 -0.1592 -0.3260  0.0293
  707TMC3     H10510   4.007   4.532   0.898  1.3098  0.4160 -0.1998
  707TMC3    H110511   3.856   0.039   0.572  2.9481 -0.7920 -0.2901
  707TMC3    H210512   3.605   4.547   0.828  0.7255 -0.4444  0.3710
  707TMC3    C710513   3.610   0.011   0.620 -0.1878 -0.6703 -0.0531
  707TMC3    C810514   3.774   4.433   0.961 -0.3958 -0.7531  0.3720
  707TMC3    O110515   3.643   0.061   0.513  0.1086  0.3173  0.1019
  707TMC3    O210516   3.665   4.427   1.021  0.0213  0.3283 -0.2766
  708MPD2     C10517   1.042   3.753  13.960  0.0106  0.1319  0.2179
  708MPD2    C110518   1.014   3.879  13.913  0.0060  0.9246  1.0342
  708MPD2    C210519   0.915   3.951  13.968  0.5362  0.4314  0.2075
  708MPD2    C310520   0.862   3.918  14.089 -0.3082 -0.1080  0.2172
  708MPD2    C410521   0.893   3.792  14.137  0.0945 -0.2000  0.3597
  708MPD2    C510522   0.984   3.715  14.076  0.5191 -0.0588  0.0759
  708MPD2     H10523   0.879   4.045  13.928  0.1538  0.6127  0.9855
  708MPD2    H110524   0.860   3.755  14.234  0.9503  2.9927  1.8641
  708MPD2    H210525   1.123   3.694  13.918 -0.2234  0.7183 -1.0670
  708MPD2    H310526   1.011   3.615  14.108  3.1897  0.5933 -0.1482
  708MPD2     N10527   0.766   4.006  14.141  0.1469 -0.1445 -1.0782
  708MPD2    H510528   0.725   4.071  14.076  2.0212  2.2455  0.1450
  708MPD2    N110529   1.084   3.943  13.810  0.3236 -0.5803  0.1113
  708MPD2    H710530   1.071   4.044  13.812 -0.1523 -0.6656  1.5724
  709TMC3    C110531   1.241   4.009  13.656  0.2473  0.2205  0.0086
  709TMC3    C210532   1.212   3.986  13.532 -0.1647 -0.6479  0.3333
  709TMC3    C310533   1.172   4.089  13.455 -0.2574  0.1945 -0.4725
  709TMC3    C410534   1.207   4.134  13.709 -0.3574  0.2352 -0.2863
  709TMC3    C510535   1.136   4.228  13.637 -0.0168 -0.1231 -0.7373
  709TMC3    C610536   1.122   4.212  13.505 -0.8572  0.4554 -0.3677
  709TMC3     C10537   1.191   3.900  13.735  0.2612  0.1366 -0.1151
  709TMC3     O10538   1.216   3.789  13.701  0.2207 -0.4448 -0.1098
  709TMC3     H10539   1.218   3.883  13.498 -0.9582 -0.8392  0.7703
  709TMC3    H110540   1.226   4.148  13.815  0.0559 -0.1185 -0.3108
  709TMC3    H210541   1.065   4.281  13.445 -0.7202  0.8089 -0.0876
  709TMC3    C710542   1.015   4.276  13.705  0.2466 -0.6068  0.4707
  709TMC3    C810543   1.147   4.050  13.318 -0.4822 -0.6407  0.0745
  709TMC3    O110544   0.996   4.238  13.820  0.5257  0.3499 -0.2600
  709TMC3    O210545   1.152   3.931  13.284 -0.1264 -0.3103  0.1832
  710TMC3    C110546   1.425   0.530   0.974 -0.3304  0.1091  1.0447
  710TMC3    C210547   1.464   0.641   0.904 -0.4421 -0.0025 -0.4789
  710TMC3    C310548   1.594   0.651   0.859 -0.3258  0.1576  0.0909
  710TMC3    C410549   1.511   0.433   1.001  0.5260  0.5460  0.8892
  710TMC3    C510550   1.639   0.439   0.965  0.2784 -0.0331  0.0199
  710TMC3    C610551   1.688   0.551   0.898 -0.2143  0.1141 -0.5692
  710TMC3     C10552   1.295   0.529   1.034  0.9327 -0.1489  0.1926
  710TMC3     O10553   1.235   0.423   1.053 -0.4957 -0.0980  0.2940
  710TMC3     H10554   1.392   0.719   0.881  2.4606  1.6425 -4.1311
  710TMC3    H110555   1.469   0.346   1.049 -1.0074  0.6847 -0.1952
  710TMC3    H210556   1.788   0.552   0.857  0.1592 -1.0765  0.3032
  710TMC3    C710557   1.713   0.325   0.984  0.6371  0.2753  0.3799
  710TMC3    C810558   1.633   0.747   0.755 -0.1437  0.4054 -0.0489
  710TMC3    O110559   1.678   0.250   1.073  0.2151 -0.0479  0.2787
  710TMC3    O210560   1.724   0.708   0.687  0.2681  0.6528  0.1603
  711TMC3    C110561   1.705   2.286  15.037  0.1654  0.0192  0.3116
  711TMC3    C210562   1.721   2.307  15.169 -0.7129  0.1222  0.0400
  711TMC3    C310563   1.841   2.266  15.220 -0.1707 -0.4128  0.3135
  711TMC3    C410564   1.803   2.223  14.962 -0.9539 -0.0730  0.5108
  711TMC3    C510565   1.909   2.165  15.025 -0.0728 -0.1967  0.5185
  711TMC3    C610566   1.939   2.200  15.151 -0.4355 -0.2486  0.4414
  711TMC3     C10567   1.577   2.226  14.995  1.0061  0.4649  0.5682
  711TMC3     O10568   1.578   2.164  14.890  0.3497  0.5406  0.3123
  711TMC3     H10569   1.656   2.380  15.216  0.5626  0.3578  1.4147
  711TMC3    H110570   1.785   2.211  14.856 -0.7045 -0.9160  0.5662
  711TMC3    H210571   2.029   2.175  15.206 -1.6465 -1.7050  1.7328
  711TMC3    C710572   1.918   2.025  15.007 -0.5400 -0.1196 -0.0746
  711TMC3    C810573   1.840   2.281  15.367  0.5111  0.0298  0.4712
  711TMC3    O110574   2.006   1.967  15.071  0.0928 -0.0404  0.5604
  711TMC3    O210575   1.731   2.309  15.414  0.5419  0.2133  0.6668
  712MPD2     C10576   3.091   2.936  13.303 -0.0227 -0.3531 -0.7835
  712MPD2    C110577   2.977   2.982  13.362 -0.3099  0.3311 -0.2089
  712MPD2    C210578   2.972   3.106  13.428  1.0526  0.3469  0.2828
  712MPD2    C310579   3.082   3.185  13.435 -0.3942  0.2147  0.0882
  712MPD2    C410580   3.199   3.143  13.375  0.3235 -0.3297 -0.2250
  712MPD2    C510581   3.202   3.018  13.318  0.2362 -0.5255  0.0653
  712MPD2     H10582   2.883   3.139  13.480  1.2800  0.3311  0.6906
  712MPD2    H110583   3.289   3.204  13.381  0.6429 -1.0008  1.8509
  712MPD2    H210584   3.097   2.834  13.266 -0.0954 -0.1750 -1.2804
  712MPD2    H310585   3.297   2.982  13.279  1.3317  1.5349  0.8125
  712MPD2     N10586   3.076   3.321  13.490  0.0466 -0.1987 -0.0010
  712MPD2    H510587   3.159   3.379  13.493 -0.1513  0.1292 -1.0188
  712MPD2    N110588   2.850   2.918  13.351 -0.0871 -0.9422 -0.5912
  712MPD2    H710589   2.769   2.975  13.375  0.7188 -0.2644  0.4861
  713TMC3    C110590   2.982   3.500  13.627 -0.2353  0.2990  0.9060
  713TMC3    C210591   3.117   3.536  13.659 -0.8447 -0.7800 -0.4147
  713TMC3    C310592   3.138   3.667  13.694 -0.3167  0.4106 -0.6133
  713TMC3    C410593   2.878   3.586  13.638  0.5618  0.3075 -0.0285
  713TMC3    C510594   2.899   3.709  13.694 -0.5086  1.0910  0.1140
  713TMC3    C610595   3.027   3.747  13.722 -0.6040  0.0863  0.7829
  713TMC3     C10596   2.959   3.378  13.548 -0.5881 -0.0536 -0.1780
  713TMC3     O10597   2.845   3.349  13.533 -0.2910  0.3856  0.1898
  713TMC3     H10598   3.202   3.472  13.640  0.3123  0.9030 -0.9143
  713TMC3    H110599   2.776   3.556  13.614  0.6068 -0.8076  1.1952
  713TMC3    H210600   3.036   3.854  13.741 -0.2986  0.2950 -0.4840
  713TMC3    C710601   2.780   3.788  13.728 -0.6167  1.0896  0.3524
  713TMC3    C810602   3.261   3.733  13.653  0.7833  0.0226  1.2006
  713TMC3    O110603   2.674   3.763  13.674  0.1735 -0.2251 -0.5986
  713TMC3    O210604   3.253   3.845  13.620  0.0002 -0.7223  0.2321
  714MPD2     C10605   4.441   2.040   0.801  0.5380 -0.2588  0.4193
  714MPD2    C110606   4.484   1.931   0.870 -0.4404  0.3301  0.4024
  714MPD2    C210607   4.402   1.845   0.940  0.4526 -0.0401 -0.1459
  714MPD2    C310608   4.274   1.886   0.944 -0.1891  0.1089 -0.0737
  714MPD2    C410609   4.235   2.005   0.884 -0.0382  0.1210  0.3670
  714MPD2    C510610   4.316   2.079   0.812 -0.0372  0.6270 -0.1089
  714MPD2     H10611   4.436   1.760   0.999  1.3226  0.6020  0.2764
  714MPD2    H110612   4.128   2.025   0.885 -0.1929 -0.6572 -0.6754
  714MPD2    H210613   4.513   2.112   0.763 -0.6318  2.0549  2.5873
  714MPD2    H310614   4.280   2.172   0.770 -1.0422  0.1003 -0.4321
  714MPD2     N10615   4.188   1.809   1.020 -0.2884 -0.4472  0.0345
  714MPD2    H510616   4.215   1.712   1.035 -0.2700 -0.3672  0.4989
  714MPD2    N110617   4.624   1.920   0.870 -0.7458  0.1293  0.4367
  714MPD2    H710618   4.679   1.996   0.830 -1.4715  0.5269  0.1917
  715TMC3    C110619   0.106   1.818   0.880 -0.3678  0.4784  0.7200
  715TMC3    C210620   0.172   1.697   0.847  0.1976 -0.0616 -0.4883
  715TMC3    C310621   0.308   1.696   0.859  0.4914 -0.9362 -0.3651
  715TMC3    C410622   0.167   1.934   0.914  0.2012  0.7926  0.3292
  715TMC3    C510623   0.304   1.936   0.925  0.4608  0.5084 -0.0393
  715TMC3    C610624   0.377   1.816   0.891  0.0872  0.0393 -0.3611
  715TMC3     C10625   4.699   1.806   0.900 -0.6742  0.1045 -0.0136
  715TMC3     O10626   4.647   1.695   0.911 -0.2516 -0.4449  0.0418
  715TMC3     H10627   0.122   1.605   0.820 -1.3331  1.3294 -2.3927
  715TMC3    H110628   0.102   2.017   0.940 -0.9245 -0.1298  0.4620
  715TMC3    H210629   0.486   1.818   0.892  0.0445  2.0340 -1.3822
  715TMC3    C710630   0.375   2.052   0.976  0.1819 -0.4100 -0.1312
  715TMC3    C810631   0.365   1.562   0.882  0.8511  0.0108 -0.9856
  715TMC3    O110632   0.489   2.031   1.006  0.1777 -0.4384  0.0618
  715TMC3    O210633   0.307   1.468   0.837  0.1460 -0.4344 -0.1859
  716MPD2     C10634   0.769   0.259  10.028 -0.4999 -0.4033 -0.2460
  716MPD2    C110635   0.659   0.264   9.940 -0.4752 -0.3547 -0.0122
  716MPD2    C210636   0.629   0.160   9.850  0.2289  0.2960 -0.0882
  716MPD2    C310637   0.718   0.053   9.841 -0.1723 -0.1171 -0.2437
  716MPD2    C410638   0.831   0.051   9.928  0.2957  0.2935  0.3360
  716MPD2    C510639   0.861   0.158  10.011  0.1244 -0.5282 -0.1189
  716MPD2     H10640   0.547   0.168   9.780 -0.8313  1.2732  1.2756
  716MPD2    H110641   0.901   4.705   9.920 -0.0754  0.1598 -1.5236
  716MPD2    H210642   0.781   0.325  10.113 -0.9015 -0.6030 -0.0315
  716MPD2    H310643   0.953   0.162  10.069 -0.3470 -2.0752  0.7478
  716MPD2     N10644   0.697   4.703   9.735 -0.1108  0.1158 -0.0615
  716MPD2    H510645   0.616   4.721   9.676 -1.7823 -1.0224  1.8908
  716MPD2    N110646   0.584   0.379   9.954 -0.4035 -0.0876 -0.6459
  716MPD2    H710647   0.621   0.451  10.014 -0.5775 -0.3114 -0.2744
  717TMC3    C110648   0.702   4.519   9.598 -0.1978 -0.2691 -0.0604
  717TMC3    C210649   0.577   4.556   9.556 -0.2239  0.3682  0.3979
  717TMC3    C310650   0.529   4.522   9.435  0.8256  0.3107 -0.1749
  717TMC3    C410651   0.778   4.439   9.514 -0.5334  0.5952 -0.0637
  717TMC3    C510652   0.728   4.393   9.395 -0.6323  0.5367 -0.4401
  717TMC3    C610653   0.602   4.443   9.348  0.1273  0.2772 -0.6007
  717TMC3     C10654   0.772   4.596   9.706 -0.2293  0.4786  0.2781
  717TMC3     O10655   0.887   4.563   9.737 -0.7906  0.3667  0.1887
  717TMC3     H10656   0.511   4.614   9.619 -0.4053  0.5628  0.0293
  717TMC3    H110657   0.881   4.417   9.540 -0.9772 -1.6660 -0.1800
  717TMC3    H210658   0.558   4.417   9.252  0.7502 -1.2017 -0.5009
  717TMC3    C710659   0.804   4.292   9.318  0.4380 -0.2110  0.0449
  717TMC3    C810660   0.399   4.574   9.403 -0.1705 -0.3407 -0.0072
  717TMC3    O110661   0.755   4.253   9.208  0.9260  0.6166  0.1979
  717TMC3    O210662   0.354   4.662   9.479 -0.4137  0.5431 -0.2093
  718MPD2     C10663   4.161   3.621  12.333 -0.9603  0.4772  0.3092
  718MPD2    C110664   4.099   3.500  12.305  0.0972  0.5095 -0.0868
  718MPD2    C210665   4.118   3.389  12.384 -0.1962  0.0186  0.1460
  718MPD2    C310666   4.192   3.396  12.500  0.0129  0.4399  0.5572
  718MPD2    C410667   4.230   3.524  12.543  0.1331 -0.0549  0.1438
  718MPD2    C510668   4.223   3.629  12.455 -0.1259  0.0855  0.0429
  718MPD2     H10669   4.073   3.292  12.368 -3.2747  0.7964  4.0500
  718MPD2    H110670   4.284   3.542  12.636  1.6072  0.2397 -0.7655
  718MPD2    H210671   4.164   3.706  12.265 -0.3282  0.2325  0.0266
  718MPD2    H310672   4.259   3.726  12.488 -0.8885  0.3286  0.1440
  718MPD2     N10673   4.204   3.280  12.584  0.2085 -0.4884 -0.0780
  718MPD2    H510674   4.149   3.202  12.549 -1.3961  1.0631 -1.0364
  718MPD2    N110675   4.039   3.490  12.178 -0.0845  0.2844 -0.4458
  718MPD2    H710676   4.066   3.569  12.120  1.9259 -1.0407 -1.2904
  719TMC3    C110677   3.998   3.350  11.997  0.0942  0.1009  0.4603
  719TMC3    C210678   3.992   3.215  11.975 -0.1803 -0.2590  0.0777
  719TMC3    C310679   4.096   3.159  11.902 -0.0359 -0.4366 -0.5741
  719TMC3    C410680   4.105   3.430  11.949  0.3108 -0.0130 -0.0186
  719TMC3    C510681   4.207   3.368  11.879 -0.5526  0.4312 -0.0011
  719TMC3    C610682   4.197   3.238  11.849  0.1852 -0.6403 -0.1353
  719TMC3     C10683   3.970   3.383  12.135 -0.0371 -0.5679 -0.4863
  719TMC3     O10684   3.900   3.305  12.198 -0.3891  0.1112 -0.2409
  719TMC3     H10685   3.912   3.153  12.014 -0.9486  0.3577 -0.5271
  719TMC3    H110686   4.106   3.538  11.952 -0.2299 -0.0735  2.3723
  719TMC3    H210687   4.274   3.187  11.793  0.2790 -1.8169  1.0574
  719TMC3    C710688   4.337   3.408  11.918  0.1877 -0.3894  0.0479
  719TMC3    C810689   4.161   3.054  11.973  0.1571  0.4390  0.5097
  719TMC3    O110690   4.433   3.375  11.848  0.5224  0.4661 -0.0478
  719TMC3    O210691   4.265   3.087  12.029 -0.3826 -0.4249 -0.3577
  720MPD2     C10692   3.016   4.686  13.823  0.3486 -0.4112  0.5444
  720MPD2    C110693   3.082   0.071  13.801 -0.2248 -0.4314 -0.1358
  720MPD2    C210694   3.207   0.091  13.858  0.0528 -0.4604  0.3507
  720MPD2    C310695   3.253   0.004  13.949 -0.1569  0.8272  0.4548
  720MPD2    C410696   3.181   4.621  13.971  0.4951 -0.1498  0.0832
  720MPD2    C510697   3.059   4.597  13.911 -0.7345  0.0852 -0.5830
  720MPD2     H10698   3.255   0.186  13.838  0.8215 -0.9125  0.0325
  720MPD2    H110699   3.230   4.552  14.038  1.0245  1.1389  1.0348
  720MPD2    H210700   2.918   4.675  13.778  0.1029  0.7747  0.7806
  720MPD2    H310701   2.995   4.510  13.913  0.1214 -0.4836  1.4451
  720MPD2     N10702   3.375   0.028  14.020  0.0273  0.2025  0.0678
  720MPD2    H510703   3.395   4.709  14.102  2.7319 -0.1035 -0.8225
  720MPD2    N110704   3.020   0.170  13.715 -0.2018  0.2531 -1.2141
  720MPD2    H710705   3.054   0.265  13.726 -2.0300  0.4147  2.9183
  721TMC3    C110706   3.565   0.127  14.081 -0.0184  0.1232  0.1639
  721TMC3    C210707   3.517   0.173  14.195  0.4225  0.3116  0.4315
  721TMC3    C310708   3.603   0.232  14.285 -0.2627  0.3136 -0.0492
  721TMC3    C410709   3.703   0.129  14.054  0.2902 -0.5709 -0.2053
  721TMC3    C510710   3.788   0.180  14.148 -0.0098 -0.1166  0.2105
  721TMC3    C610711   3.739   0.240  14.263  0.1796  0.4566 -0.1678
  721TMC3     C10712   3.478   0.102  13.974  0.4943 -0.7453 -0.4198
  721TMC3     O10713   3.499   0.154  13.865 -0.2726  0.1418  0.3723
  721TMC3     H10714   3.412   0.169  14.221  0.6555  1.9793  1.7084
  721TMC3    H110715   3.741   0.091  13.960  0.1864  1.0142 -0.8821
  721TMC3    H210716   3.800   0.286  14.339 -0.4032 -0.3064  0.7656
  721TMC3    C710717   3.931   0.185  14.130  0.0727 -0.3137 -1.0766
  721TMC3    C810718   3.537   0.325  14.373  0.4015 -0.8865 -0.3933
  721TMC3    O110719   3.990   0.285  14.172  0.0098 -0.5282 -0.2598
  721TMC3    O210720   3.423   0.342  14.347  0.1218 -0.0461  0.2775
  722MPD2     C10721   1.721   3.900  13.593  0.3345  0.3366 -0.2619
  722MPD2    C110722   1.764   4.000  13.512 -0.0685  0.5071 -0.3731
  722MPD2    C210723   1.696   4.017  13.394  0.5104  0.4458 -0.3635
  722MPD2    C310724   1.597   3.931  13.347  0.4572  0.1379  0.2510
  722MPD2    C410725   1.555   3.832  13.431 -0.2858 -0.3360 -0.1767
  722MPD2    C510726   1.617   3.816  13.548  0.4614  0.8426  0.3436
  722MPD2     H10727   1.725   4.094  13.324  1.2707  0.5995  0.1293
  722MPD2    H110728   1.485   3.753  13.407 -0.9122 -0.3714  1.7644
  722MPD2    H210729   1.772   3.878  13.686 -0.7060  1.2931  0.5354
  722MPD2    H310730   1.580   3.736  13.611 -0.2928 -1.0636 -2.5477
  722MPD2     N10731   1.534   3.954  13.220  0.0739  0.3225  0.1592
  722MPD2    H510732   1.559   4.041  13.174 -1.6671  1.6757  1.7960
  722MPD2    N110733   1.867   4.096  13.544  0.4177  0.2743 -0.8519
  722MPD2    H710734   1.883   4.167  13.473 -2.8456  1.1611 -0.6646
  723TMC3    C110735   1.411   3.946  13.036  0.8536 -0.6978  1.5662
  723TMC3    C210736   1.387   3.873  12.923  0.1046  0.3996  0.5829
  723TMC3    C310737   1.338   3.946  12.814  0.1199  0.7162 -0.4681
  723TMC3    C410738   1.427   4.081  13.036 -0.3969  0.3866  0.2212
  723TMC3    C510739   1.389   4.150  12.924  0.0304 -0.8694  0.2299
  723TMC3    C610740   1.349   4.087  12.811  0.2476  0.7575  0.0763
  723TMC3     C10741   1.440   3.878  13.157 -0.6884 -0.2268 -0.0024
  723TMC3     O10742   1.431   3.755  13.165 -0.5290 -0.6424  0.3608
  723TMC3     H10743   1.392   3.764  12.929  2.0612  0.5111  1.0966
  723TMC3    H110744   1.422   4.153  13.116  0.9660  0.2257  0.4434
  723TMC3    H210745   1.317   4.125  12.714 -3.2707 -0.6839  0.6610
  723TMC3    C710746   1.391   4.291  12.936  0.2754  0.3265 -0.2355
  723TMC3    C810747   1.341   3.883  12.684  0.0835  0.4032  0.1821
  723TMC3    O110748   1.460   4.341  13.026 -0.3175 -0.1029 -0.2167
  723TMC3    O210749   1.391   3.943  12.590  0.7079 -0.7537 -0.2567
  724TMC3    C110750   2.047   1.902  11.031  0.0741 -0.0067 -0.0013
  724TMC3    C210751   2.002   1.975  10.922 -0.1500 -0.5018 -0.1056
  724TMC3    C310752   2.044   2.106  10.917  0.0195 -0.4932 -0.8127
  724TMC3    C410753   2.151   1.951  11.118 -0.3908 -0.8140 -0.7263
  724TMC3    C510754   2.194   2.084  11.099  0.7068  0.8047  0.0544
  724TMC3    C610755   2.136   2.166  11.005 -0.2070  0.7096 -0.7263
  724TMC3     C10756   2.025   1.755  11.040 -0.1828  0.0293 -0.6489
  724TMC3     O10757   2.084   1.693  11.127 -0.6452  0.4844  0.0102
  724TMC3     H10758   1.921   1.946  10.857  0.0033  2.3756 -1.5884
  724TMC3    H110759   2.184   1.893  11.203  0.7107  1.3810  0.3469
  724TMC3    H210760   2.170   2.268  10.991  0.9496  0.3809 -0.3414
  724TMC3    C710761   2.319   2.128  11.152  0.4040 -0.1478 -0.2795
  724TMC3    C810762   2.014   2.178  10.790  0.1942 -0.6367  0.0983
  724TMC3    O110763   2.351   2.244  11.125  0.1173  0.1358  0.1028
  724TMC3    O210764   1.901   2.152  10.749 -0.4280 -0.1019  0.1841
  725TMC3    C110765   4.078   0.922  13.092 -0.6065  0.0729 -0.0880
  725TMC3    C210766   3.938   0.922  13.089  0.4467  0.4716 -0.1565
  725TMC3    C310767   3.873   0.810  13.055  0.0418  0.1145  0.7932
  725TMC3    C410768   4.158   0.817  13.064 -0.3263 -0.8819 -0.1786
  725TMC3    C510769   4.084   0.708  13.020 -0.4420 -0.2381  0.2913
  725TMC3    C610770   3.949   0.696  13.022  0.4143  0.6979  0.1946
  725TMC3     C10771   4.141   1.055  13.087 -0.3939  0.0307  0.2288
  725TMC3     O10772   4.083   1.140  13.150 -0.0852  1.0221 -0.2140
  725TMC3     H10773   3.884   1.016  13.094 -1.9882 -0.9273 -0.0416
  725TMC3    H110774   4.266   0.811  13.060 -0.2246  1.8790 -1.8849
  725TMC3    H210775   3.901   0.613  12.972 -1.2783  0.7924  1.6327
  725TMC3    C710776   4.158   0.588  12.972 -0.8854  0.2352 -0.1492
  725TMC3    C810777   3.760   0.857  12.965 -0.0535  0.5683 -0.4169
  725TMC3    O110778   4.280   0.604  12.949 -0.5269  0.0264  0.6601
  725TMC3    O210779   3.754   0.972  12.933  0.1303  0.0249  0.1488
  726MPD2     C10780   1.366   2.727  10.522  0.2226 -0.4430  0.2279
  726MPD2    C110781   1.248   2.767  10.468  0.2369  0.2666 -0.0831
  726MPD2    C210782   1.135   2.690  10.513 -0.4038 -0.7814  1.0248
  726MPD2    C310783   1.144   2.583  10.600 -0.8641 -0.5833  0.2509
  726MPD2    C410784   1.275   2.548  10.645 -0.8716 -0.0710 -0.5272
  726MPD2    C510785   1.376   2.627  10.612 -0.0416  0.7088  0.2564
  726MPD2     H10786   1.038   2.718  10.473  0.7458  0.8656 -0.5935
  726MPD2    H110787   1.299   2.473  10.720  0.0225  2.6898  1.9142
  726MPD2    H210788   1.454   2.778  10.485  0.5054 -0.7121  0.5328
  726MPD2    H310789   1.476   2.604  10.648 -0.2103  1.0868  0.9607
  726MPD2     N10790   1.041   2.505  10.649 -0.0252 -0.0641 -0.1020
  726MPD2    H510791   1.068   2.433  10.715  0.3731 -0.3390 -0.5723
  726MPD2    N110792   1.232   2.874  10.372  0.2189  0.5193 -0.0043
  726MPD2    H710793   1.144   2.882  10.322  0.4037  2.5170  0.0158
  727TMC3    C110794   1.318   3.058  10.234 -0.4930 -0.4282 -0.7320
  727TMC3    C210795   1.441   3.105  10.191  0.1598  0.5097 -0.8562
  727TMC3    C310796   1.434   3.207  10.101  0.2050 -0.3336 -0.2843
  727TMC3    C410797   1.199   3.106  10.188  0.0567  0.0092 -0.1458
  727TMC3    C510798   1.199   3.222  10.116  0.5549 -1.2717  0.4617
  727TMC3    C610799   1.315   3.263  10.055 -0.5258 -0.0381  0.5567
  727TMC3     C10800   1.326   2.975  10.350 -0.4313  0.1840  0.0187
  727TMC3     O10801   1.424   2.999  10.419  0.0327 -0.9451  0.0497
  727TMC3     H10802   1.533   3.068  10.233 -0.1093  1.7225  0.7877
  727TMC3    H110803   1.113   3.078  10.247 -1.8315  0.1109 -2.8531
  727TMC3    H210804   1.318   3.346   9.986  0.7512 -0.9129 -0.4311
  727TMC3    C710805   1.074   3.269  10.059  0.2518 -0.3088 -0.0832
  727TMC3    C810806   1.560   3.279  10.091 -0.2828 -0.6014 -0.4512
  727TMC3    O110807   0.986   3.186  10.054 -0.3745  0.0781 -0.4418
  727TMC3    O210808   1.657   3.216  10.127  0.0720  0.1013  0.4627
  728TMC3    C110809   1.118   0.850  15.351  0.5040  0.1589 -0.1084
  728TMC3    C210810   1.253   0.867  15.344 -0.4371 -0.3666 -0.3530
  728TMC3    C310811   1.308   0.875  15.219  0.1081 -0.3767 -0.1078
  728TMC3    C410812   1.040   0.845  15.239  0.7314  0.3272 -0.3278
  728TMC3    C510813   1.102   0.848  15.119  1.1309 -0.6438  0.5624
  728TMC3    C610814   1.237   0.869  15.107 -0.6407 -0.4695  0.2624
  728TMC3     C10815   1.065   0.895  15.475 -1.0894 -0.2635 -0.3880
  728TMC3     O10816   1.136   0.962  15.546 -0.6310  0.3634 -0.1864
  728TMC3     H10817   1.321   0.868  15.428  0.8819 -1.8371 -1.3922
  728TMC3    H110818   0.932   0.853  15.237  0.7174 -0.0453 -0.9200
  728TMC3    H210819   1.284   0.866  15.010 -1.8728 -0.3833 -0.3343
  728TMC3    C710820   1.028   0.850  14.996  0.6775 -0.2657  1.5162
  728TMC3    C810821   1.444   0.911  15.204  0.0880  0.5705 -0.1161
  728TMC3    O110822   0.927   0.781  14.993 -0.4870 -0.0859  0.3960
  728TMC3    O210823   1.522   0.864  15.290 -0.0223  0.9508  0.3020
  729MPD2     C10824   3.002   2.057  16.618  0.0460 -0.1758  0.3785
  729MPD2    C110825   3.037   1.922  16.616 -0.3132 -0.0987  0.1353
  729MPD2    C210826   2.968   1.838  16.700  0.5656  0.1432  0.4018
  729MPD2    C310827   2.875   1.889  16.783  0.1211  0.4504  0.5784
  729MPD2    C410828   2.856   2.022  16.793 -0.0085 -0.2823  0.1851
  729MPD2    C510829   2.922   2.107  16.715  0.2917  0.3062  0.4576
  729MPD2     H10830   2.979   1.730  16.697 -1.3415 -0.0255  0.0099
  729MPD2    H110831   2.794   2.072  16.867  2.2092  0.7506  1.3618
  729MPD2    H210832   3.047   2.125  16.547  0.8745 -1.0039  0.1036
  729MPD2    H310833   2.897   2.213  16.711  0.5036  0.4219  2.0008
  729MPD2     N10834   2.806   1.814  16.883 -0.4627 -0.3259 -0.2352
  729MPD2    H510835   2.762   1.875  16.951 -1.6241 -0.4815 -0.8556
  729MPD2    N110836   3.140   1.883  16.528 -0.3300 -1.1988 -1.2409
  729MPD2    H710837   3.179   1.959  16.473  2.8363 -0.5905  1.8172
  730TMC3    C110838   2.747   1.652  17.029 -0.7769 -0.3461  0.3929
  730TMC3    C210839   2.847   1.615  17.113  0.4043 -0.6677 -0.0381
  730TMC3    C310840   2.866   1.684  17.229 -0.3691 -0.0068 -0.0155
  730TMC3    C410841   2.657   1.740  17.073 -0.1329 -0.3029 -0.1385
  730TMC3    C510842   2.664   1.797  17.194  0.8781  0.1799 -0.5082
  730TMC3    C610843   2.768   1.765  17.279  0.2488  0.3338 -0.6201
  730TMC3     C10844   2.800   1.681  16.903 -0.1213  0.8101  0.0904
  730TMC3     O10845   2.860   1.593  16.845 -0.0207 -0.1681 -0.6887
  730TMC3     H10846   2.938   1.563  17.086  1.3664 -0.4612  2.8413
  730TMC3    H110847   2.588   1.789  17.005  2.8677  2.7551 -0.9875
  730TMC3    H210848   2.792   1.809  17.375 -2.4242  0.4695 -0.0167
  730TMC3    C710849   2.658   1.944  17.181 -0.2749 -0.1315  0.0197
  730TMC3    C810850   2.998   1.751  17.217 -0.5728 -0.5071  0.4589
  730TMC3    O110851   2.702   1.991  17.077  0.2890 -0.4390 -0.3611
  730TMC3    O210852   3.086   1.684  17.171 -0.1226  0.2051 -0.2047
  731MPD2     C10853   3.831   0.209  12.407  0.6208  0.8460  0.2951
  731MPD2    C110854   3.711   0.254  12.350 -0.4150  0.1733  0.2781
  731MPD2    C210855   3.595   0.259  12.433  0.2583  0.3595 -0.9670
  731MPD2    C310856   3.606   0.217  12.567 -0.0086  0.3263  0.0754
  731MPD2    C410857   3.728   0.165  12.614  0.0250  0.0523  1.0212
  731MPD2    C510858   3.840   0.173  12.538 -0.3037 -0.1201  0.2927
  731MPD2     H10859   3.501   0.288  12.389 -0.7106 -2.3927 -0.7311
  731MPD2    H110860   3.742   0.143  12.719  1.8783 -1.2662  0.4992
  731MPD2    H210861   3.924   0.212  12.352  0.9516  0.6942  0.8514
  731MPD2    H310862   3.938   0.162  12.582 -0.7330  0.2242  1.3448
  731MPD2     N10863   3.492   0.235  12.651  0.8375  0.2859  0.2873
  731MPD2    H510864   3.417   0.292  12.613  0.6651 -0.7073 -0.8596
  731MPD2    N110865   3.714   0.288  12.207 -0.6465 -0.4005 -0.4331
  731MPD2    H710866   3.798   0.273  12.152 -0.0270  1.5079 -0.0078
  732TMC3    C110867   3.635   0.384  12.006  0.3096  0.3776  0.5034
  732TMC3    C210868   3.526   0.367  11.928  0.4361  0.1174  1.0021
  732TMC3    C310869   3.544   0.398  11.794 -1.0645 -0.1398 -0.1185
  732TMC3    C410870   3.758   0.439  11.977  0.3727 -0.0452 -0.2693
  732TMC3    C510871   3.769   0.478  11.844  0.0512 -0.7964  0.0243
  732TMC3    C610872   3.662   0.458  11.758 -0.5764  0.4197  0.4244
  732TMC3     C10873   3.609   0.353  12.144 -0.1198  0.2805  1.4425
  732TMC3     O10874   3.502   0.392  12.182  0.1821  0.4680 -0.1582
  732TMC3     H10875   3.438   0.320  11.969  0.1509 -1.5616 -1.5497
  732TMC3    H110876   3.834   0.460  12.052  1.8809  0.2209 -1.8520
  732TMC3    H210877   3.667   0.474  11.650  0.7557 -1.0062  0.2730
  732TMC3    C710878   3.897   0.500  11.776 -0.0330 -0.6489  0.0285
  732TMC3    C810879   3.447   0.346  11.692 -0.0602  0.3827  0.4250
  732TMC3    O110880   3.902   0.499  11.652 -0.0810  0.1838  0.1392
  732TMC3    O210881   3.478   0.362  11.576 -0.1348 -0.1806  0.5993
  733TMC3    C110882   4.198   2.965  12.893  0.3003  0.2289 -0.1638
  733TMC3    C210883   4.235   3.092  12.863 -0.2846  0.3483  0.0321
  733TMC3    C310884   4.254   3.126  12.736  0.7982 -0.2300  0.6006
  733TMC3    C410885   4.189   2.866  12.809  0.3552  0.2029 -0.8557
  733TMC3    C510886   4.224   2.900  12.681 -0.2960 -0.5332  0.0449
  733TMC3    C610887   4.246   3.031  12.638  0.1949 -0.2346 -0.0813
  733TMC3     C10888   4.084   2.966  12.977  0.0204  0.4142 -0.6815
  733TMC3     O10889   4.040   3.078  13.009 -0.7814  0.4464  0.0006
  733TMC3     H10890   4.235   3.176  12.932  2.8281  2.4520 -2.4816
  733TMC3    H110891   4.148   2.768  12.829  0.5151  0.3178  0.0267
  733TMC3    H210892   4.274   3.059  12.537 -2.2551  0.8200 -0.4490
  733TMC3    C710893   4.186   2.799  12.580 -0.0225 -0.6814  0.4141
  733TMC3    C810894   4.254   3.267  12.707  0.3972  0.1581 -0.1866
  733TMC3    O110895   4.103   2.708  12.614 -0.8250 -0.7956  0.3051
  733TMC3    O210896   4.306   3.341  12.786 -0.3823  0.0890 -0.3778
  734MPD2     C10897   1.443   0.767  12.890  0.5355  0.4450  0.0049
  734MPD2    C110898   1.332   0.753  12.809  0.7352 -0.0926  0.2538
  734MPD2    C210899   1.271   0.867  12.748  0.4808 -0.0273 -0.8185
  734MPD2    C310900   1.324   0.992  12.772 -0.1647 -0.3069  0.7917
  734MPD2    C410901   1.425   1.011  12.863 -0.3111  0.8798 -0.1584
  734MPD2    C510902   1.490   0.895  12.907 -0.0056  0.2828 -0.5654
  734MPD2     H10903   1.189   0.852  12.679  0.3040  0.1503 -0.6468
  734MPD2    H110904   1.466   1.106  12.893 -0.6084  0.5661  1.2770
  734MPD2    H210905   1.500   0.689  12.939  1.8328  1.7571  0.6051
  734MPD2    H310906   1.592   0.905  12.943 -0.3865 -1.6133  1.0139
  734MPD2     N10907   1.252   1.094  12.709 -0.2575 -0.1518  0.1519
  734MPD2    H510908   1.183   1.068  12.639 -0.6382 -0.9401  0.8223
  734MPD2    N110909   1.283   0.618  12.788 -0.2151  0.2587  0.5047
  734MPD2    H710910   1.335   0.540  12.827  0.1925  0.0606 -0.4327
  735TMC3    C110911   1.135   0.470  12.669  0.3597  0.0638 -1.1370
  735TMC3    C210912   1.008   0.448  12.648  0.1442 -0.3447 -0.1727
  735TMC3    C310913   0.978   0.415  12.516 -0.0709  0.2171  0.7972
  735TMC3    C410914   1.236   0.452  12.577 -0.1796 -0.0348  0.1619
  735TMC3    C510915   1.199   0.404  12.458 -0.2382  0.1259 -0.3635
  735TMC3    C610916   1.070   0.388  12.422 -0.7607 -0.7255  0.1851
  735TMC3     C10917   1.156   0.597  12.743  0.7155  0.2411 -0.2458
  735TMC3     O10918   1.062   0.672  12.729 -0.1905  0.5088 -0.5776
  735TMC3     H10919   0.936   0.469  12.726  0.7938 -0.1078  0.3629
  735TMC3    H110920   1.340   0.472  12.600 -0.0272 -0.9731  0.2922
  735TMC3    H210921   1.050   0.364  12.318 -3.1261 -0.9430  0.6836
  735TMC3    C710922   1.305   0.403  12.358 -0.4161  0.0174 -0.2225
  735TMC3    C810923   0.871   0.495  12.465  0.0775 -0.3241 -0.7000
  735TMC3    O110924   1.381   0.498  12.360 -0.4360  0.2300  0.0198
  735TMC3    O210925   0.813   0.472  12.358 -0.1375 -0.4100  0.1145
  736MPD2     C10926   1.339   0.202  12.044 -0.3329 -0.4791 -0.0982
  736MPD2    C110927   1.383   0.288  12.144  0.3253  0.4735  0.7189
  736MPD2    C210928   1.508   0.359  12.122  0.4454 -0.0550 -0.0303
  736MPD2    C310929   1.580   0.344  12.007 -0.0691  1.2267  0.6493
  736MPD2    C410930   1.532   0.254  11.911 -0.6700 -0.9804  0.1746
  736MPD2    C510931   1.417   0.181  11.936  0.0881  0.8746 -0.2294
  736MPD2     H10932   1.554   0.419  12.199 -0.2786 -0.4421  0.6990
  736MPD2    H110933   1.567   0.239  11.809 -0.5534  2.1571 -0.2479
  736MPD2    H210934   1.245   0.148  12.042  0.0631 -1.3193  3.0514
  736MPD2    H310935   1.370   0.115  11.864  0.8701  0.1013 -0.0335
  736MPD2     N10936   1.702   0.412  11.979 -0.7894  0.3426  0.6992
  736MPD2    H510937   1.756   0.374  11.902 -1.0458 -0.0750  0.7233
  736MPD2    N110938   1.299   0.299  12.260 -0.7444 -0.3633 -0.2377
  736MPD2    H710939   1.230   0.227  12.278  0.4832 -1.1336  1.3960
  737TMC3    C110940   1.894   0.553  11.986  0.3721  0.1490 -0.5640
  737TMC3    C210941   1.937   0.678  12.006  0.6746 -0.4729 -0.2996
  737TMC3    C310942   2.064   0.710  11.962 -0.4460 -0.3506 -0.7385
  737TMC3    C410943   1.972   0.457  11.920 -0.8424  0.7454 -0.5527
  737TMC3    C510944   2.093   0.503  11.861  0.3978  0.7035 -0.1054
  737TMC3    C610945   2.146   0.626  11.894  0.3471 -0.8679 -0.3045
  737TMC3     C10946   1.763   0.517  12.045  0.1120 -0.0516  0.4864
  737TMC3     O10947   1.715   0.593  12.129 -0.2305 -0.2473  0.7455
  737TMC3     H10948   1.870   0.749  12.052  2.2379  0.4499  0.5470
  737TMC3    H110949   1.932   0.359  11.898  0.4129  0.3082 -0.8793
  737TMC3    H210950   2.243   0.662  11.862  0.6465 -0.1861  1.3100
  737TMC3    C710951   2.168   0.406  11.781  0.3303  0.2742  0.2464
  737TMC3    C810952   2.094   0.854  11.961  0.7160 -0.5284  0.0213
  737TMC3    O110953   2.128   0.292  11.800  0.1301  0.5492 -0.1575
  737TMC3    O210954   2.202   0.888  12.005  1.1436 -0.1300 -0.2664
  738MPD2     C10955   2.563   3.844  15.377 -0.8378  0.2457  0.3609
  738MPD2    C110956   2.502   3.904  15.267  0.3464 -0.1806  0.7671
  738MPD2    C210957   2.574   4.004  15.197 -0.3530 -0.2987  0.2607
  738MPD2    C310958   2.705   4.033  15.235 -0.1271 -0.8948 -0.2779
  738MPD2    C410959   2.757   3.980  15.351 -0.0809  0.6987 -0.1638
  738MPD2    C510960   2.690   3.881  15.420  0.2153 -0.6969 -0.7063
  738MPD2     H10961   2.531   4.060  15.115  0.7755  1.0835  0.6068
  738MPD2    H110962   2.858   4.004  15.384 -0.7055  1.9718  0.8075
  738MPD2    H210963   2.526   3.754  15.425 -0.8074  1.8033  3.2973
  738MPD2    H310964   2.722   3.836  15.514  1.7172  0.8803 -0.4787
  738MPD2     N10965   2.789   4.120  15.154  0.5105 -0.4665  0.2104
  738MPD2    H510966   2.878   4.151  15.192  1.0894 -2.0011  0.0912
  738MPD2    N110967   2.366   3.879  15.231 -0.7008 -0.4341 -0.0905
  738MPD2    H710968   2.325   3.934  15.157  0.7399 -3.9215 -3.4572
  739TMC3    C110969   2.858   4.238  14.954 -0.0162 -0.2512  0.7204
  739TMC3    C210970   2.819   4.254  14.826 -0.0189  0.7295  0.8739
  739TMC3    C310971   2.862   4.357  14.744 -0.1595 -0.2195  0.2338
  739TMC3    C410972   2.928   4.335  15.019 -0.1392  0.6327  0.2077
  739TMC3    C510973   2.973   4.439  14.940  0.3775 -0.1352 -0.0621
  739TMC3    C610974   2.939   4.458  14.805  0.5223 -0.4469  0.1385
  739TMC3     C10975   2.757   4.155  15.027 -0.1512 -0.0878 -0.8022
  739TMC3     O10976   2.671   4.103  14.955 -1.0410  0.1879  0.2994
  739TMC3     H10977   2.781   4.170  14.767 -0.4853  0.9609  0.8443
  739TMC3    H110978   2.973   4.312  15.115 -0.1597  2.8214  0.7491
  739TMC3    H210979   2.953   4.550  14.751 -2.6270 -0.1395 -0.1450
  739TMC3    C710980   3.077   4.527  14.996 -0.7397 -0.2935 -0.4121
  739TMC3    C810981   2.797   4.379  14.618  0.2209  0.3116  0.3615
  739TMC3    O110982   3.079   4.541  15.120 -0.1248  0.4362  0.0770
  739TMC3    O210983   2.692   4.320  14.590  0.4343  0.4889  0.3597
  740TMC3    C110984   2.776   0.961  14.590 -0.3550 -0.0768 -0.1770
  740TMC3    C210985   2.812   0.970  14.722 -0.4919  0.0191  0.8002
  740TMC3    C310986   2.912   0.903  14.771 -0.4742 -0.3365  0.5589
  740TMC3    C410987   2.850   0.887  14.502 -0.3809 -0.7395  0.6263
  740TMC3    C510988   2.952   0.814  14.557  0.2613  0.2180  0.5625
  740TMC3    C610989   2.984   0.817  14.691  0.0822  0.2733  0.2326
  740TMC3     C10990   2.639   0.992  14.569 -0.8298  0.1926  0.1582
  740TMC3     O10991   2.614   1.021  14.452  0.3076 -0.1101 -0.1018
  740TMC3     H10992   2.762   1.033  14.795 -1.4359  0.5212 -0.2746
  740TMC3    H110993   2.826   0.866  14.398 -2.6871 -0.3575  1.0741
  740TMC3    H210994   3.071   0.769  14.732 -0.5061  0.3503  1.5612
  740TMC3    C710995   3.029   0.717  14.476 -0.3807 -0.0240 -0.6783
  740TMC3    C810996   2.927   0.904  14.918 -0.9348 -0.4321 -0.3401
  740TMC3    O110997   3.076   0.626  14.544 -0.2737 -0.1995  0.2386
  740TMC3    O210998   2.890   1.000  14.980  0.0682  0.2301 -0.4314
  741TMC3    C110999   2.421   0.141  14.481  0.0697  0.3446 -0.1209
  741TMC3    C211000   2.334   0.047  14.430 -0.0982  0.0949 -0.3092
  741TMC3    C311001   2.263   4.707  14.516  0.2765  0.3476 -0.3018
  741TMC3    C411002   2.432   0.152  14.618  0.1194 -0.2699  0.3349
  741TMC3    C511003   2.350   0.073  14.697  0.0366  0.0010  0.0926
  741TMC3    C611004   2.265   4.714  14.649 -0.7146  0.3431  0.4724
  741TMC3     C11005   2.547   0.169  14.409 -0.1029 -0.1967 -0.1212
  741TMC3     O11006   2.653   0.127  14.457 -0.5288  0.0807 -0.5078
  741TMC3     H11007   2.328   0.027  14.323  1.1715 -3.0399  0.2145
  741TMC3    H111008   2.504   0.222  14.659  1.3917 -1.1054 -0.4322
  741TMC3    H211009   2.194   4.661  14.712  0.9709 -0.3354  1.8198
  741TMC3    C711010   2.348   0.108  14.839  1.0507  0.1307 -0.5593
  741TMC3    C811011   2.162   4.624  14.456  0.2811 -0.7405 -0.0745
  741TMC3    O111012   2.407   0.208  14.875 -0.1747  0.0950  0.1523
  741TMC3    O211013   2.107   4.661  14.352 -0.2386 -0.1221  0.2733
  742TMC3    C111014   2.411   3.473  15.511 -0.1841  0.4634  0.2846
  742TMC3    C211015   2.316   3.466  15.414  0.1511  0.2877  0.0938
  742TMC3    C311016   2.358   3.431  15.290 -0.0985  0.0411 -0.2916
  742TMC3    C411017   2.521   3.392  15.503  0.1876  0.5742  0.4974
  742TMC3    C511018   2.564   3.356  15.378 -0.1538 -0.7188  0.7068
  742TMC3    C611019   2.485   3.378  15.271 -0.3672 -0.4924  0.2185
  742TMC3     C11020   2.357   3.488  15.644 -0.4630 -0.0754 -0.0077
  742TMC3     O11021   2.401   3.413  15.728  0.0147  0.2140 -0.1558
  742TMC3     H11022   2.218   3.510  15.427 -0.3983 -0.7696 -0.4846
  742TMC3    H111023   2.583   3.392  15.592 -2.3252 -0.1864  2.2522
  742TMC3    H211024   2.522   3.344  15.175 -1.8939 -0.5232 -0.3560
  742TMC3    C711025   2.653   3.242  15.366  0.1747 -0.1752 -0.1057
  742TMC3    C811026   2.285   3.418  15.175 -0.6789  0.2660  0.1295
  742TMC3    O111027   2.664   3.186  15.255 -0.4489  0.6548  0.6703
  742TMC3    O211028   2.339   3.431  15.063 -0.0106 -0.1156 -0.0439
  743MPD2     C11029   0.051   3.752   1.454  0.0962  0.6868  0.1825
  743MPD2    C111030   0.060   3.763   1.315  0.0231 -0.1054 -0.0173
  743MPD2    C211031   0.188   3.751   1.261  0.3760 -0.7505  0.1472
  743MPD2    C311032   0.302   3.750   1.339  0.2898  0.1179 -0.4810
  743MPD2    C411033   0.291   3.733   1.477  0.5109 -0.2592  0.0021
  743MPD2    C511034   0.166   3.741   1.533 -0.6759  0.0966  0.1749
  743MPD2     H11035   0.202   3.768   1.155  2.1250 -1.8010  0.2109
  743MPD2    H111036   0.376   3.725   1.543 -0.3850  0.7740  1.2741
  743MPD2    H211037   4.689   3.763   1.500 -1.2227 -0.9472 -2.2696
  743MPD2    H311038   0.151   3.740   1.640  0.3139 -1.0812  0.3083
  743MPD2     N11039   0.433   3.751   1.271 -0.0125 -0.1740 -0.4359
  743MPD2    H511040   0.427   3.744   1.169 -0.8763 -1.6004 -0.2953
  743MPD2    N111041   4.692   3.761   1.226 -0.2334  0.0203 -0.1377
  743MPD2    H711042   4.730   3.750   1.132  1.6045  0.3412  0.5527
  744TMC3    C111043   4.481   3.766   1.128 -0.6665  0.4593 -0.6191
  744TMC3    C211044   4.374   3.846   1.119 -0.0182  0.0145  0.8116
  744TMC3    C311045   4.319   3.858   0.989  0.3838  0.4851  0.7745
  744TMC3    C411046   4.519   3.682   1.027  0.1556  0.1205  0.0510
  744TMC3    C511047   4.453   3.688   0.903  0.0992  0.1744 -0.1656
  744TMC3    C611048   4.356   3.782   0.881  0.1334  0.1095  0.2452
  744TMC3     C11049   4.558   3.773   1.246 -0.0090  0.3992  0.4743
  744TMC3     O11050   4.502   3.812   1.348 -0.0921 -0.3252 -0.3448
  744TMC3     H11051   4.373   3.927   1.191 -0.8904 -0.6642  1.5584
  744TMC3    H111052   4.591   3.602   1.036 -2.5423 -2.2808  0.1890
  744TMC3    H211053   4.328   3.815   0.782  1.8712 -0.5160 -0.4535
  744TMC3    C711054   4.527   3.671   0.777 -0.2188 -0.4979  0.0307
  744TMC3    C811055   4.196   3.931   0.969  0.5958  0.6170  0.2413
  744TMC3    O111056   4.515   3.758   0.691 -0.3013  0.0488  0.2047
  744TMC3    O211057   4.149   3.962   0.857  0.1942  0.1261 -0.3041
  745TMC3    C111058   2.684   2.796  13.266  0.8256  0.0452 -0.1052
  745TMC3    C211059   2.617   2.857  13.366 -0.5076  0.0280 -0.4109
  745TMC3    C311060   2.500   2.916  13.331  0.1620 -0.4317 -0.2632
  745TMC3    C411061   2.634   2.784  13.137 -0.0576 -0.2841  0.6267
  745TMC3    C511062   2.517   2.849  13.108  0.6925 -0.5323  0.7275
  745TMC3    C611063   2.447   2.911  13.205  0.2400 -0.0191 -0.0259
  745TMC3     C11064   2.827   2.809  13.280  0.0835  0.5220 -0.6573
  745TMC3     O11065   2.896   2.765  13.186 -0.4815 -0.0599 -0.7355
  745TMC3     H11066   2.644   2.849  13.471 -3.8874 -0.8935  0.3702
  745TMC3    H111067   2.692   2.740  13.057  2.4509  3.5183  0.3549
  745TMC3    H211068   2.360   2.968  13.175  0.3171  0.9811  1.6427
  745TMC3    C711069   2.522   2.927  12.985  0.2376  0.1299  0.0150
  745TMC3    C811070   2.453   3.025  13.421 -0.4301 -0.2122 -0.3663
  745TMC3    O111071   2.419   2.969  12.935  0.2319 -0.7902 -0.4535
  745TMC3    O211072   2.343   3.064  13.401  0.0755  0.3842  0.0010
  746TMC3    C111073   0.215   0.219  10.792 -0.3880  0.6206  0.3200
  746TMC3    C211074   0.267   0.276  10.677 -1.1967  0.7098  0.0293
  746TMC3    C311075   0.269   0.197  10.560 -1.0012  0.5671  0.4214
  746TMC3    C411076   0.164   0.087  10.792  0.5172  0.4387  0.0870
  746TMC3    C511077   0.161   0.017  10.677  0.2962 -0.2031 -0.0555
  746TMC3    C611078   0.227   0.063  10.568  0.1994  0.4149 -0.2003
  746TMC3     C11079   0.168   0.311  10.888  0.5326 -0.2183  0.2625
  746TMC3     O11080   0.165   0.280  11.009  0.0666 -0.0933  0.2223
  746TMC3     H11081   0.306   0.377  10.683 -0.1813  0.2934  0.3629
  746TMC3    H111082   0.108   0.064  10.882  0.1871 -2.3695 -0.8428
  746TMC3    H211083   0.231   4.729  10.485 -2.1347  0.1292 -0.0760
  746TMC3    C711084   0.048   4.666  10.651 -0.1140 -0.8157  0.2777
  746TMC3    C811085   0.335   0.249  10.447  0.1202  0.2888 -0.7518
  746TMC3    O111086   0.022   4.650  10.529 -0.1333 -0.1522  0.1169
  746TMC3    O211087   0.410   0.169  10.392 -0.2963  0.4609  0.3842
  747TMC3    C111088   3.033   0.553  11.180 -0.1853  0.3181  0.6664
  747TMC3    C211089   2.968   0.448  11.233  0.4346  0.0857  0.2657
  747TMC3    C311090   2.871   0.489  11.321  0.0406  0.1806  0.0609
  747TMC3    C411091   3.022   0.687  11.222 -0.4079  0.1872  0.1743
  747TMC3    C511092   2.919   0.722  11.298  1.1306 -0.8841  0.1501
  747TMC3    C611093   2.841   0.616  11.350 -0.1984  0.1862  0.3600
  747TMC3     C11094   3.127   0.531  11.073 -0.3738 -0.7304  0.5704
  747TMC3     O11095   3.213   0.620  11.061 -0.1577 -0.0917  0.4064
  747TMC3     H11096   2.985   0.344  11.205 -4.1909 -0.5468 -0.3111
  747TMC3    H111097   3.084   0.765  11.180 -0.7148  1.5197  2.2209
  747TMC3    H211098   2.778   0.629  11.437 -0.6159  1.9613 -0.2012
  747TMC3    C711099   2.872   0.858  11.332  0.2621  0.2420 -0.7113
  747TMC3    C811100   2.785   0.387  11.384 -0.5701 -0.5107  0.3519
  747TMC3    O111101   2.949   0.936  11.381  0.1752 -0.8411  0.0290
  747TMC3    O211102   2.814   0.267  11.359 -0.7688 -0.0136  0.5037
  748MPD2     C11103   4.058   0.257   0.902  0.1302 -0.5707  1.2533
  748MPD2    C111104   4.036   0.366   0.817 -0.6489 -0.4253 -0.0260
  748MPD2    C211105   4.136   0.461   0.792  0.7240  0.1248  0.3329
  748MPD2    C311106   4.262   0.439   0.851  0.0684 -0.1351  0.5672
  748MPD2    C411107   4.278   0.323   0.931 -0.1429 -0.5534 -0.6378
  748MPD2    C511108   4.179   0.233   0.958 -0.0872  0.0082  0.0587
  748MPD2     H11109   4.119   0.538   0.718 -0.0579  0.3621  0.7626
  748MPD2    H111110   4.369   0.289   0.979  0.3103 -0.6326 -1.5629
  748MPD2    H211111   3.972   0.194   0.917 -1.1553  1.4288  2.2525
  748MPD2    H311112   4.196   0.146   1.021  0.5060  0.3785  0.4154
  748MPD2     N11113   4.366   0.538   0.826 -0.5307  0.4517  0.5900
  748MPD2    H511114   4.336   0.625   0.783  0.1617 -0.3415 -1.5148
  748MPD2    N111115   3.911   0.396   0.751 -0.7405 -0.0008  0.7528
  748MPD2    H711116   3.907   0.472   0.683 -2.0320  0.6248  1.5392
  749TMC3    C111117   4.579   0.630   0.869  0.2219 -0.2818 -0.5156
  749TMC3    C211118   4.694   0.625   0.941  0.3917 -0.8620 -0.4865
  749TMC3    C311119   0.028   0.740   0.960  0.1587 -0.8606  0.3083
  749TMC3    C411120   4.539   0.744   0.808  1.3314  0.4845  0.4836
  749TMC3    C511121   4.613   0.860   0.818 -0.1019 -0.1443  1.0311
  749TMC3    C611122   4.729   0.855   0.887  0.1147  0.1922  0.5184
  749TMC3     C11123   4.498   0.513   0.863 -0.2191 -0.2188  0.3496
  749TMC3     O11124   4.544   0.405   0.897 -0.1546  0.1028  0.2269
  749TMC3     H11125   4.723   0.529   0.983  0.8988 -0.1987  0.6741
  749TMC3    H111126   4.444   0.763   0.758  1.6322 -0.8955 -0.6375
  749TMC3    H211127   0.058   0.941   0.891 -0.0002  0.3393 -1.1275
  749TMC3    C711128   4.592   0.983   0.745 -0.1348 -0.7482  0.4010
  749TMC3    C811129   0.169   0.729   0.997 -0.0544 -0.4139 -0.8057
  749TMC3    O111130   4.673   1.076   0.766 -0.3658  0.4518  0.4173
  749TMC3    O211131   0.213   0.830   1.050  0.7020  0.7400 -0.1956
  750MPD2     C11132   4.415   2.079  11.321  0.3721  0.2039  0.0587
  750MPD2    C111133   4.376   2.004  11.427  0.6137 -0.4301 -0.0410
  750MPD2    C211134   4.416   1.872  11.436 -0.4984  0.1155  0.0005
  750MPD2    C311135   4.480   1.809  11.326  0.2898  0.0811 -0.2460
  750MPD2    C411136   4.527   1.894  11.227  0.0084 -0.6528  0.0214
  750MPD2    C511137   4.488   2.022  11.225  0.6210  0.2243  0.0815
  750MPD2     H11138   4.395   1.812  11.523 -1.4236  2.9501  1.7577
  750MPD2    H111139   4.596   1.861  11.150 -0.5673 -0.9311 -0.3808
  750MPD2    H211140   4.401   2.186  11.318  0.2727  0.1799 -0.3420
  750MPD2    H311141   4.511   2.080  11.136  0.6508 -1.7793 -1.2153
  750MPD2     N11142   4.527   1.680  11.330  0.1631 -0.1531  0.0525
  750MPD2    H511143   4.609   1.661  11.274 -0.2540 -1.1062 -0.2367
  750MPD2    N111144   4.323   2.069  11.539 -0.5247  0.8003  0.1281
  750MPD2    H711145   4.330   2.170  11.525  0.0502  0.8445  0.7445
  751TMC3    C111146   4.545   1.460  11.427  0.1496 -0.1972  0.9630
  751TMC3    C211147   4.474   1.356  11.476 -0.2902  0.8002 -0.1863
  751TMC3    C311148   4.527   1.227  11.460  0.7058 -0.0996  0.1327
  751TMC3    C411149   4.671   1.446  11.378 -0.2968  0.3762 -0.0808
  751TMC3    C511150   4.727   1.319  11.380  0.2279 -0.2575  0.6453
  751TMC3    C611151   4.655   1.206  11.419 -0.0905  0.0425  0.1070
  751TMC3     C11152   4.472   1.586  11.416  0.2716 -0.6698  0.6375
  751TMC3     O11153   4.361   1.593  11.463 -0.2205  0.3747  0.0152
  751TMC3     H11154   4.377   1.379  11.518  0.1891  0.0319  1.3466
  751TMC3    H111155   0.011   1.523  11.374  0.0028  0.0894  0.0680
  751TMC3    H211156   4.700   1.111  11.394  0.7136  0.1158  1.2479
  751TMC3    C711157   0.118   1.302  11.314  0.0022  0.2166 -0.3081
  751TMC3    C811158   4.435   1.121  11.428 -0.5099 -0.2446 -0.4063
  751TMC3    O111159   0.203   1.390  11.310 -0.0559  0.2362 -0.3658
  751TMC3    O211160   4.479   1.023  11.371  0.2979 -0.1999 -0.1447
  752TMC3    C111161   3.427   1.319  17.368 -0.2206  0.2807  0.8850
  752TMC3    C211162   3.459   1.251  17.480 -0.2008 -0.7493 -0.0040
  752TMC3    C311163   3.386   1.289  17.587 -0.4206  0.5735  0.3816
  752TMC3    C411164   3.344   1.427  17.368  1.2237  0.2606  0.8764
  752TMC3    C511165   3.272   1.462  17.478 -0.2567 -0.2925 -0.3712
  752TMC3    C611166   3.295   1.387  17.589  0.5511  0.5315 -0.6197
  752TMC3     C11167   3.521   1.289  17.255 -0.0164 -0.3225 -0.5890
  752TMC3     O11168   3.589   1.188  17.263 -0.0581  0.0990  0.5339
  752TMC3     H11169   3.535   1.174  17.484  2.6721  2.1275  0.8133
  752TMC3    H111170   3.322   1.493  17.285 -1.0690 -3.0543 -1.1603
  752TMC3    H211171   3.239   1.399  17.681  1.9245 -0.3433  0.3173
  752TMC3    C711172   3.203   1.584  17.486 -0.1315 -0.7227 -0.3358
  752TMC3    C811173   3.463   1.272  17.713  0.4287  0.5072 -0.3292
  752TMC3    O111174   3.249   1.682  17.424  0.0573  0.2895  0.1317
  752TMC3    O211175   3.486   1.156   0.009 -0.2735 -0.0329  0.0939
  753TMC3    C111176   0.761   2.873  13.861  0.3573  0.3177  0.1535
  753TMC3    C211177   0.829   2.837  13.973 -0.2718 -0.2942  0.5728
  753TMC3    C311178   0.854   2.705  13.996  0.7258 -0.2728 -0.2166
  753TMC3    C411179   0.731   2.778  13.763 -0.4206 -0.2256 -0.4324
  753TMC3    C511180   0.748   2.645  13.800 -0.6618 -0.1601 -0.0357
  753TMC3    C611181   0.809   2.610  13.915 -0.7167 -0.7726  0.8358
  753TMC3     C11182   0.727   3.014  13.847  0.5310  0.1910  0.0513
  753TMC3     O11183   0.654   3.067  13.928  0.3710 -0.3750 -0.3854
  753TMC3     H11184   0.851   2.909  14.051 -0.4544  1.1591 -0.6990
  753TMC3    H111185   0.667   2.808  13.682  2.3285  1.4479 -1.9864
  753TMC3    H211186   0.841   2.508  13.931  0.3517 -0.0580  3.4103
  753TMC3    C711187   0.690   2.553  13.702 -0.3391 -0.0259  0.2121
  753TMC3    C811188   0.968   2.664  14.078  0.3228 -0.0776  0.3153
  753TMC3    O111189   0.668   2.586  13.586 -0.3584  0.0290 -0.5794
  753TMC3    O211190   0.961   2.552  14.130 -0.6794  0.4064 -0.1912
  754MPD2     C11191   0.301   1.737  13.462  0.7797 -1.0605 -0.3834
  754MPD2    C111192   0.224   1.636  13.514  0.2698 -0.1780  0.8001
  754MPD2    C211193   0.088   1.644  13.489  0.0154  0.6605 -0.7562
  754MPD2    C311194   0.031   1.743  13.414 -0.6369 -0.6352 -0.0208
  754MPD2    C411195   0.114   1.838  13.353  0.2612  0.1659 -0.5022
  754MPD2    C511196   0.249   1.832  13.381  0.8474 -0.1537 -0.5325
  754MPD2     H11197   0.024   1.563  13.524  0.6104  0.2829 -0.5442
  754MPD2    H111198   0.070   1.908  13.284  0.0580 -0.7690 -1.3113
  754MPD2    H211199   0.408   1.731  13.478  0.9521  0.0302 -1.0950
  754MPD2    H311200   0.323   1.905  13.349 -0.5157  0.0752 -3.0938
  754MPD2     N11201   4.625   1.747  13.381 -0.5365 -0.3986  0.0671
  754MPD2    H511202   4.598   1.820  13.315  0.7366 -2.3871 -2.6467
  754MPD2    N111203   0.281   1.526  13.578 -0.7105 -0.9541 -0.0088
  754MPD2    H711204   0.382   1.516  13.578 -0.5706  0.5254 -0.6185
  755MPD2     C11205   3.602   2.084  13.488 -0.1802 -0.3873 -0.0224
  755MPD2    C111206   3.719   2.120  13.551 -0.0831  0.7121  0.5716
  755MPD2    C211207   3.824   2.037  13.526 -0.0893 -0.2133 -0.6096
  755MPD2    C311208   3.829   1.924  13.450  0.2769 -0.5142  0.0951
  755MPD2    C411209   3.709   1.888  13.393 -1.0238  0.3588  0.0292
  755MPD2    C511210   3.599   1.972  13.412  0.1389 -0.4537  0.0547
  755MPD2     H11211   3.916   2.069  13.575 -1.2613  0.5566  1.0999
  755MPD2    H111212   3.702   1.800  13.330 -0.7154  0.8227 -0.6520
  755MPD2    H211213   3.508   2.132  13.512  0.2941  0.1200  0.8356
  755MPD2    H311214   3.501   1.943  13.377 -0.1191  2.4818 -1.6283
  755MPD2     N11215   3.939   1.836  13.438  0.4153 -0.3594  0.0946
  755MPD2    H511216   3.922   1.757  13.376  0.8902  0.6472 -1.3048
  755MPD2    N111217   3.744   2.233  13.636  0.1696 -0.1222  0.1198
  755MPD2    H711218   3.825   2.230  13.698  0.2905 -2.1075 -0.1486
  756MPD2     C11219   0.214   2.692   9.864  0.0605  0.1806  0.1542
  756MPD2    C111220   0.116   2.641   9.951  1.0829  0.5104 -0.4873
  756MPD2    C211221   4.732   2.605   9.894 -0.0464  0.3960  0.4533
  756MPD2    C311222   4.703   2.626   9.753  0.0278  0.3453  0.4146
  756MPD2    C411223   0.069   2.670   9.673  0.5192 -0.1347 -0.2189
  756MPD2    C511224   0.193   2.708   9.730  0.3874  0.0636 -0.3087
  756MPD2     H11225   4.659   2.573   9.968 -0.4168  1.5525  0.5866
  756MPD2    H111226   0.052   2.677   9.567  1.0279  1.6401 -0.1866
  756MPD2    H211227   0.312   2.724   9.900  0.1589 -1.0648  1.0005
  756MPD2    H311228   0.280   2.729   9.669  0.3695 -1.3523 -0.8232
  756MPD2     N11229   4.571   2.596   9.704  0.0280  0.0072 -0.1915
  756MPD2    H511230   4.510   2.553   9.772  0.2777  0.2863  0.2059
  756MPD2    N111231   0.134   2.620  10.092 -0.4152 -0.2883  0.0557
  756MPD2    H711232   0.055   2.598  10.152  1.3861 -2.5062  1.6299
  757MPD2     C11233   4.051   1.980  10.015  0.1974 -0.2612 -0.2071
  757MPD2    C111234   4.183   2.010  10.017 -0.2406  0.8755 -0.6924
  757MPD2    C211235   4.231   2.128   9.959  0.0732  0.6545  0.4316
  757MPD2    C311236   4.135   2.208   9.892 -0.4150  0.2119  0.3437
  757MPD2    C411237   4.003   2.180   9.897  0.8728 -0.1914 -0.9622
  757MPD2    C511238   3.965   2.068   9.959  0.3422  0.2382  0.1168
  757MPD2     H11239   4.337   2.152   9.955  0.2575 -0.5145 -1.6603
  757MPD2    H111240   3.921   2.242   9.863  0.7605 -0.5641 -1.3735
  757MPD2    H211241   4.002   1.888  10.044  0.3432 -0.6925 -1.3237
  757MPD2    H311242   3.860   2.039   9.956  0.6586 -1.2070  3.0406
  757MPD2     N11243   4.184   2.311   9.802  0.3497 -0.3620  0.4120
  757MPD2    H511244   4.285   2.317   9.807  0.3392 -0.2344  0.4849
  757MPD2    N111245   4.267   1.908  10.070 -0.0824 -0.4424 -0.2216
  757MPD2    H711246   4.241   1.815  10.101 -0.9190  0.0128  0.4245
  758MPD2     C11247   4.605   1.620  15.690  0.0994  0.4910  0.3778
  758MPD2    C111248   4.686   1.545  15.778  0.1579 -0.0642 -0.2375
  758MPD2    C211249   4.625   1.510  15.898 -0.1548 -0.2384 -0.8665
  758MPD2    C311250   4.495   1.539  15.940 -0.9883  0.0073 -0.1104
  758MPD2    C411251   4.434   1.620  15.849 -0.7054 -0.3022 -0.4418
  758MPD2    C511252   4.478   1.662  15.728  0.4424  0.1194  0.0461
  758MPD2     H11253   4.689   1.454  15.965 -0.8321 -0.0457 -0.0493
  758MPD2    H111254   4.338   1.657  15.883 -0.0990  0.0150  0.8992
  758MPD2    H211255   4.633   1.646  15.589 -1.5612 -0.2329 -0.2704
  758MPD2    H311256   4.419   1.721  15.659  0.2948 -1.0415 -0.8190
  758MPD2     N11257   4.446   1.509  16.069  0.0767  0.3330  0.9866
  758MPD2    H511258   4.357   1.548  16.097 -1.5811 -2.1500 -0.7975
  758MPD2    N111259   0.082   1.493  15.744 -0.5324 -0.3267  0.1528
  758MPD2    H711260   0.132   1.434  15.810 -0.7288 -1.1258 -0.4179
  759MPD2     C11261   4.188   3.930   9.813 -0.1873 -0.6310 -0.7063
  759MPD2    C111262   4.070   3.915   9.891 -0.1592  0.7457 -0.0119
  759MPD2    C211263   3.980   4.017   9.881  0.6301  0.1493 -0.0128
  759MPD2    C311264   4.010   4.134   9.818  0.5750  0.2279  0.2784
  759MPD2    C411265   4.142   4.157   9.774 -0.7802 -0.7178 -0.3139
  759MPD2    C511266   4.227   4.054   9.770  0.1584 -0.1795  0.3737
  759MPD2     H11267   3.882   4.009   9.926  0.5238  1.0376 -0.0951
  759MPD2    H111268   4.174   4.249   9.726 -0.1708 -1.5635 -1.5158
  759MPD2    H211269   4.271   3.861   9.825 -0.1257 -0.6924 -1.5365
  759MPD2    H311270   4.330   4.078   9.748  0.1057  0.0500  0.3725
  759MPD2     N11271   3.904   4.228   9.806 -0.4858  0.3996  0.6325
  759MPD2    H511272   3.825   4.207   9.866 -0.7660 -0.8514 -0.1717
  759MPD2    N111273   4.032   3.788   9.948 -0.2341  0.2602 -0.9187
  759MPD2    H711274   3.934   3.784   9.973  0.1699 -1.1248  0.4594
  760MPD2     C11275   3.262   1.816  12.564  0.2707  0.4269 -0.8864
  760MPD2    C111276   3.364   1.821  12.478  0.8111  0.7933 -1.0307
  760MPD2    C211277   3.439   1.709  12.438  0.1075  0.6122 -0.3602
  760MPD2    C311278   3.392   1.579  12.483 -0.1651  0.2330 -1.0641
  760MPD2    C411279   3.274   1.576  12.557  0.0926 -0.5396  0.5175
  760MPD2    C511280   3.220   1.695  12.606  0.4380 -0.8922 -0.5136
  760MPD2     H11281   3.532   1.717  12.383  0.1335 -0.6511 -0.4999
  760MPD2    H111282   3.232   1.487  12.601  1.1182 -1.1148  0.3152
  760MPD2    H211283   3.204   1.901  12.600  0.3559  1.1297 -2.4218
  760MPD2    H311284   3.145   1.693  12.684  0.0732 -4.6423 -0.9876
  760MPD2     N11285   3.445   1.455  12.443 -0.7329 -0.4106  0.4102
  760MPD2    H511286   3.382   1.375  12.449 -2.2022  0.6818 -0.6516
  760MPD2    N111287   3.401   1.948  12.420  0.9494  0.4804  0.6016
  760MPD2    H711288   3.479   1.954  12.356 -0.2021 -1.4958 -0.9871
  761MPD2     C11289   3.990   0.963  11.229  0.2004  0.9290 -0.7959
  761MPD2    C111290   4.118   0.926  11.200  0.4682  0.2786  0.0586
  761MPD2    C211291   4.218   0.980  11.272 -0.0199  0.0163 -0.4803
  761MPD2    C311292   4.198   1.083  11.368  0.5102  0.5074 -0.3384
  761MPD2    C411293   4.067   1.124  11.392 -0.1956  0.2321  0.0396
  761MPD2    C511294   3.968   1.065  11.319 -0.0932 -0.6790 -0.4682
  761MPD2     H11295   4.315   0.939  11.251 -0.3094 -0.5949 -0.6075
  761MPD2    H111296   4.041   1.214  11.446 -0.3976 -0.0498  0.4114
  761MPD2    H211297   3.906   0.902  11.198 -0.9342  0.6490  2.8095
  761MPD2    H311298   3.865   1.089  11.338 -0.0353 -0.8551  0.0601
  761MPD2     N11299   4.303   1.161  11.425 -0.3184  0.5261  1.3606
  761MPD2    H511300   4.279   1.239  11.485 -0.1110  1.6555 -0.0142
  761MPD2    N111301   4.149   0.831  11.096 -0.2785 -0.7474  0.2804
  761MPD2    H711302   4.237   0.780  11.091  0.5787  0.7036  0.6335
  762MPD2     C11303   4.338   1.174  10.703  0.4144 -0.6746  0.2655
  762MPD2    C111304   4.393   1.057  10.671 -0.0326  0.0668 -0.7475
  762MPD2    C211305   4.526   1.051  10.636 -0.1050  0.0058 -0.5148
  762MPD2    C311306   4.608   1.160  10.636  0.1438 -1.0682 -0.6935
  762MPD2    C411307   4.557   1.282  10.674 -0.2386  0.4297 -0.2085
  762MPD2    C511308   4.423   1.280  10.703 -0.4231  0.2197  0.0496
  762MPD2     H11309   4.570   0.954  10.612  1.0729  0.2752  0.5549
  762MPD2    H111310   4.617   1.370  10.693  0.8842  0.1830 -2.6116
  762MPD2    H211311   4.235   1.199  10.727  1.3865  1.1193  2.5946
  762MPD2    H311312   4.378   1.377  10.721  0.7725  1.1089 -1.7397
  762MPD2     N11313   0.006   1.135  10.603  0.4684 -0.1975 -0.7319
  762MPD2    H511314   0.028   1.040  10.574  0.1061 -0.1619 -1.1176
  762MPD2    N111315   4.304   0.944  10.674  0.1867  0.3052 -0.3261
  762MPD2    H711316   4.215   0.968  10.717  0.1333 -2.5416  1.1536
  763MPD2     C11317   1.843   1.346  16.122  0.2865 -0.1532  0.1335
  763MPD2    C111318   1.731   1.412  16.072  0.5852 -0.0890  0.4416
  763MPD2    C211319   1.728   1.551  16.085 -0.0281 -0.1538 -0.6333
  763MPD2    C311320   1.845   1.612  16.121  0.4385 -0.6950  0.0546
  763MPD2    C411321   1.956   1.544  16.162  0.0412 -0.5241  0.2582
  763MPD2    C511322   1.956   1.408  16.176 -0.4481 -0.4306  0.3105
  763MPD2     H11323   1.646   1.608  16.045 -0.1993 -0.6914 -1.0477
  763MPD2    H111324   2.043   1.602  16.190  1.3651 -1.8725 -1.0132
  763MPD2    H211325   1.843   1.237  16.123 -1.5396 -0.1724 -1.2707
  763MPD2    H311326   2.038   1.344  16.208 -1.2594 -2.5920 -1.9855
  763MPD2     N11327   1.855   1.752  16.141  0.2872  0.4663 -0.0202
  763MPD2    H511328   1.946   1.793  16.162  0.9399  0.6788 -3.3260
  763MPD2    N111329   1.632   1.337  15.991  0.1755  0.1555  0.1726
  763MPD2    H711330   1.567   1.394  15.937 -0.3177 -0.3872  0.1990
  764MPD2     C11331   4.062   2.717  17.710  0.2314  0.5711  0.6034
  764MPD2    C111332   3.979   2.642  17.629 -0.1377  0.3841 -0.4457
  764MPD2    C211333   3.902   2.538  17.675 -0.1488  0.5129  0.4756
  764MPD2    C311334   3.894   2.521   0.071 -0.4206 -0.3492  0.1611
  764MPD2    C411335   3.980   2.591   0.152 -0.2594 -0.1030 -0.0471
  764MPD2    C511336   4.070   2.688   0.103  0.1495 -0.2400 -0.1723
  764MPD2     H11337   3.832   2.480  17.617  2.4448  0.7077 -2.8322
  764MPD2    H111338   3.975   2.581   0.260 -1.2247 -1.5659 -0.2216
  764MPD2    H211339   4.113   2.796  17.656  1.4205 -1.8604 -1.8430
  764MPD2    H311340   4.124   2.748   0.175 -2.1593 -1.6833  2.7657
  764MPD2     N11341   3.800   2.420   0.120 -0.5161  0.7228  0.1096
  764MPD2    H511342   3.746   2.363   0.057  1.5428 -0.8990 -0.2006
  764MPD2    N111343   3.982   2.682  17.490 -0.4079  0.4823 -0.2158
  764MPD2    H711344   4.040   2.763  17.470  0.9555 -0.5986 -0.7118
  765MPD2     C11345   4.278   0.974  15.984 -0.3170 -1.2696 -0.1491
  765MPD2    C111346   4.335   1.045  15.879  1.2325 -0.1632  0.3277
  765MPD2    C211347   4.463   1.003  15.846  0.2032 -0.1156  0.1518
  765MPD2    C311348   4.513   0.883  15.892 -0.6089 -0.7240  0.0752
  765MPD2    C411349   4.458   0.824  16.004 -0.6001  0.0119  0.2430
  765MPD2    C511350   4.338   0.863  16.045  0.6566  0.1469 -0.4919
  765MPD2     H11351   4.512   1.054  15.764  0.9811  0.7674  1.1679
  765MPD2    H111352   4.510   0.740  16.050  1.9790  0.5684 -1.6694
  765MPD2    H211353   4.180   1.001  16.020  0.3440 -0.1269  0.8039
  765MPD2    H311354   4.277   0.811  16.117  0.7916  1.2583  0.4180
  765MPD2     N11355   4.630   0.830  15.833 -1.0014  0.0538  0.0138
  765MPD2    H511356   4.676   0.883  15.760 -1.6399  0.5472 -0.0291
  765MPD2    N111357   4.260   1.143  15.818 -0.5784 -0.0403 -0.1536
  765MPD2    H711358   4.165   1.152  15.853 -0.8395 -1.4009 -0.5201
  766MPD2     C11359   3.625   1.170  15.513  0.3280  0.0676 -0.2476
  766MPD2    C111360   3.757   1.153  15.489  0.2144 -0.0817 -0.5441
  766MPD2    C211361   3.793   1.051  15.402 -0.5381  0.7012 -0.0963
  766MPD2    C311362   3.707   0.971  15.326 -1.0188  0.6799 -0.3410
  766MPD2    C411363   3.570   0.999  15.344  0.4366 -0.5356  0.3253
  766MPD2    C511364   3.538   1.088  15.449  0.0354  0.5378 -0.1354
  766MPD2     H11365   3.899   1.041  15.381 -0.4121  0.7364  0.5440
  766MPD2    H111366   3.497   0.938  15.292 -0.0947 -0.2018  0.6823
  766MPD2    H211367   3.588   1.245  15.582  1.8191  1.3257 -0.7963
  766MPD2    H311368   3.431   1.096  15.463 -0.3185  0.3589 -2.8317
  766MPD2     N11369   3.750   0.875  15.227 -0.2274 -0.0487 -0.3180
  766MPD2    H511370   3.677   0.840  15.166 -0.4527 -2.8698  1.5668
  766MPD2    N111371   3.860   1.224  15.548 -0.3637 -0.3762 -0.4133
  766MPD2    H711372   3.955   1.190  15.533 -0.8735 -3.1374  2.6064
  767MPD2     C11373   3.400   1.093  15.072  0.1780  0.2590  0.1445
  767MPD2    C111374   3.528   1.104  15.019 -0.0636 -0.4572  0.1783
  767MPD2    C211375   3.559   1.045  14.897  0.3229 -0.0330 -0.2424
  767MPD2    C311376   3.451   0.990  14.821 -0.4390  1.0785  0.7655
  767MPD2    C411377   3.324   0.994  14.865 -0.6255 -0.2393 -0.0752
  767MPD2    C511378   3.298   1.049  14.990  0.0734  0.2732  0.0459
  767MPD2     H11379   3.656   1.052  14.849 -0.4237  0.7439 -1.6422
  767MPD2    H111380   3.240   0.969  14.800 -0.6353 -2.6626  0.8778
  767MPD2    H211381   3.379   1.135  15.170 -1.7015  1.2135 -0.6697
  767MPD2    H311382   3.198   1.062  15.030  0.1811  2.0517 -0.2823
  767MPD2     N11383   3.483   0.951  14.687 -0.5214  0.3334 -0.2738
  767MPD2    H511384   3.581   0.943  14.662  0.0584  2.6468  1.2947
  767MPD2    N111385   3.627   1.177  15.088  0.4048 -0.1887 -0.0302
  767MPD2    H711386   3.590   1.217  15.174 -0.2503 -0.5947 -0.1226
  768MPD2     C11387   0.050   4.395  10.243  0.6310  0.7500 -0.3418
  768MPD2    C111388   4.718   4.317  10.337  0.1213  0.3182  0.0480
  768MPD2    C211389   0.031   4.301  10.462 -0.3159  0.0862 -0.0933
  768MPD2    C311390   0.155   4.356  10.497 -0.0619  0.5886  0.3407
  768MPD2    C411391   0.225   4.429  10.401  0.0348 -0.2353  0.1717
  768MPD2    C511392   0.176   4.441  10.276 -0.1057  0.7812  0.1612
  768MPD2     H11393   4.705   4.248  10.533 -0.9964 -0.2670 -0.9477
  768MPD2    H111394   0.321   4.477  10.417 -0.0886  0.6637 -1.7852
  768MPD2    H211395   0.015   4.418  10.143  0.3316 -1.4026 -0.7272
  768MPD2    H311396   0.237   4.494  10.205  1.5346  1.1099  1.8137
  768MPD2     N11397   0.208   4.348  10.625  0.5212  0.3364  0.8541
  768MPD2    H511398   0.302   4.386  10.627  1.2434 -1.5255  1.8923
  768MPD2    N111399   4.597   4.256  10.307  0.3342  0.3253 -0.0411
  768MPD2    H711400   4.547   4.199  10.375 -0.0947 -0.0790 -0.6900
  769MPD2     C11401   1.114   2.305  14.903 -0.8339 -0.4353  0.0575
  769MPD2    C111402   1.010   2.276  14.988 -0.0357  0.4517 -0.4645
  769MPD2    C211403   1.015   2.316  15.117 -0.2330  0.7803 -1.2258
  769MPD2    C311404   1.131   2.378  15.160  0.4114  0.1862 -0.3050
  769MPD2    C411405   1.233   2.406  15.074 -0.5560  0.4819  0.0921
  769MPD2    C511406   1.224   2.375  14.944 -0.9867  0.3402  0.2718
  769MPD2     H11407   0.946   2.296  15.198 -0.6922 -0.9208 -2.0371
  769MPD2    H111408   1.325   2.456  15.099  0.8232 -2.2024  0.4006
  769MPD2    H211409   1.116   2.267  14.802  1.0999  1.3482 -0.5788
  769MPD2    H311410   1.303   2.392  14.871 -0.0778 -1.8690  0.7355
  769MPD2     N11411   1.136   2.407  15.301  0.7888 -1.0109  1.0146
  769MPD2    H511412   1.056   2.392  15.362  1.1527  2.0411  2.2652
  769MPD2    N111413   0.903   2.195  14.940  0.2795  0.5781  0.1636
  769MPD2    H711414   0.903   2.159  14.845  1.1350  2.1566 -0.4356
  770MPD2     C11415   0.584   1.245  14.951 -0.0887 -0.6367 -0.3781
  770MPD2    C111416   0.474   1.294  14.878  0.2316  0.7626  0.6040
  770MPD2    C211417   0.474   1.431  14.848  0.4840  0.1493  0.5968
  770MPD2    C311418   0.582   1.516  14.883 -0.2291  0.0928 -0.6051
  770MPD2    C411419   0.678   1.464  14.963  0.1506  0.1334  0.2652
  770MPD2    C511420   0.683   1.326  14.993 -0.0256 -0.3479  0.8176
  770MPD2     H11421   0.391   1.468  14.789  1.6218  0.6228 -0.7043
  770MPD2    H111422   0.764   1.522  14.994  0.0123  1.5787 -2.0464
  770MPD2    H211423   0.589   1.141  14.983 -3.0358 -0.7533 -0.2419
  770MPD2    H311424   0.755   1.291  15.066 -0.3722  0.4409  1.5310
  770MPD2     N11425   0.578   1.658  14.840  0.4154  0.4473 -0.6526
  770MPD2    H511426   0.500   1.706  14.796  0.3149  1.0586  0.1952
  770MPD2    N111427   0.375   1.196  14.835 -0.0361 -0.2429  0.6500
  770MPD2    H711428   0.397   1.101  14.862 -1.2440 -0.5458  0.5558
  771MPD2     C11429   1.817   0.165  13.887  0.2049  0.3623  0.0871
  771MPD2    C111430   1.781   0.298  13.864 -0.1244 -0.1462  0.5121
  771MPD2    C211431   1.680   0.320  13.775 -0.0682 -0.3394 -0.3554
  771MPD2    C311432   1.610   0.215  13.712  0.2143 -0.2931 -0.9482
  771MPD2    C411433   1.646   0.088  13.745 -0.1239 -0.0316  0.3501
  771MPD2    C511434   1.741   0.063  13.833  0.1586  0.1355  0.0468
  771MPD2     H11435   1.657   0.424  13.757  1.2530 -0.1605 -1.0042
  771MPD2    H111436   1.601   0.001  13.698  1.4467  0.7288 -2.5126
  771MPD2    H211437   1.888   0.132  13.961 -0.4021 -0.8018  0.1475
  771MPD2    H311438   1.760   4.696  13.859 -1.1520  0.0605  0.7272
  771MPD2     N11439   1.517   0.244  13.609 -0.2614 -0.5636 -0.6705
  771MPD2    H511440   1.484   0.338  13.595 -1.7724 -0.6635  2.1735
  771MPD2    N111441   1.843   0.407  13.928  0.1797  0.4326  0.8526
  771MPD2    H711442   1.793   0.496  13.932 -1.3318 -0.3887  0.4817
  772MPD2     C11443   1.647   1.076  14.078  0.4151 -0.5055 -0.2122
  772MPD2    C111444   1.630   0.939  14.058  0.5786  0.9709 -0.1434
  772MPD2    C211445   1.502   0.899  14.065 -0.1942 -0.7072  0.7800
  772MPD2    C311446   1.390   0.976  14.065 -0.6593  0.1012 -0.6231
  772MPD2    C411447   1.408   1.110  14.064  0.2004  0.0492  0.3844
  772MPD2    C511448   1.534   1.157  14.080 -0.5886 -0.2108  0.7651
  772MPD2     H11449   1.483   0.792  14.071 -1.5876 -0.4485  1.0323
  772MPD2    H111450   1.329   1.182  14.051 -0.1495  0.2599  3.6227
  772MPD2    H211451   1.747   1.118  14.074  0.8145 -1.2945  1.7323
  772MPD2    H311452   1.553   1.263  14.093 -0.9368 -0.2096  1.2775
  772MPD2     N11453   1.257   0.935  14.073 -0.5198 -0.4461  0.0290
  772MPD2    H511454   1.189   1.010  14.081  0.0787  0.0670  0.2941
  772MPD2    N111455   1.738   0.847  14.042 -0.3037  0.0984  0.3911
  772MPD2    H711456   1.716   0.756  14.003  1.6294  0.2082 -0.9306
  773MPD2     C11457   0.525   1.153   0.503 -1.1670 -0.1533 -0.1180
  773MPD2    C111458   0.468   1.059   0.413  0.7406 -0.9029  0.1654
  773MPD2    C211459   0.550   0.958   0.364 -0.1423  0.0670  0.3746
  773MPD2    C311460   0.671   0.931   0.412 -0.5184  0.3618  0.1355
  773MPD2    C411461   0.726   1.033   0.490  0.2362 -0.3361 -1.3531
  773MPD2    C511462   0.655   1.137   0.544  0.3963 -0.3702 -0.1159
  773MPD2     H11463   0.504   0.889   0.295  0.1227 -0.3564  0.6208
  773MPD2    H111464   0.828   1.033   0.526  0.0118 -2.4191 -0.7019
  773MPD2    H211465   0.470   1.239   0.539  0.0364  0.9713 -0.9885
  773MPD2    H311466   0.704   1.209   0.608  2.7535 -0.4054 -1.8750
  773MPD2     N11467   0.746   0.817   0.370 -0.0616  0.2529 -0.1476
  773MPD2    H511468   0.705   0.753   0.303 -0.7072  0.2778  0.2191
  773MPD2    N111469   0.340   1.093   0.354 -0.0623 -0.7034 -0.0115
  773MPD2    H711470   0.319   1.035   0.274  0.1184  1.6304 -1.7594
  774MPD2     C11471   4.243   0.915  13.669 -0.2382  0.4116 -0.0652
  774MPD2    C111472   4.375   0.884  13.700  0.2994  0.0489  0.0231
  774MPD2    C211473   4.456   0.996  13.723 -0.0993 -0.4253  0.3280
  774MPD2    C311474   4.413   1.123  13.722  0.3910 -0.9884  0.3181
  774MPD2    C411475   4.280   1.150  13.685  0.5677 -0.4548  0.0129
  774MPD2    C511476   4.196   1.047  13.663  0.0994  0.2013 -0.8074
  774MPD2     H11477   4.558   0.983  13.757 -0.1115  1.8872  1.2504
  774MPD2    H111478   4.237   1.250  13.680  0.3765 -0.4748  1.2977
  774MPD2    H211479   4.175   0.837  13.636  0.6187 -0.0621 -0.7071
  774MPD2    H311480   4.094   1.075  13.640 -0.5164 -1.3142  0.0049
  774MPD2     N11481   4.510   1.220  13.752 -0.6134  0.3214  0.4279
  774MPD2    H511482   4.597   1.186  13.791  0.1180 -0.7247 -2.1209
  774MPD2    N111483   4.419   0.748  13.695 -0.1438 -0.1795  0.2114
  774MPD2    H711484   4.349   0.675  13.690 -0.8749  0.5509 -0.3841
  775MPD2     C11485   1.283   2.097  15.706  0.2065  0.3248 -1.0510
  775MPD2    C111486   1.258   2.193  15.803  0.1742  0.4927 -0.0245
  775MPD2    C211487   1.345   2.307  15.792  0.1207 -0.0499  0.1716
  775MPD2    C311488   1.440   2.325  15.690  0.3433  0.5987 -0.6850
  775MPD2    C411489   1.459   2.222  15.602  0.4912 -0.3623  0.0926
  775MPD2    C511490   1.379   2.113  15.609  0.1761 -0.1385 -0.4346
  775MPD2     H11491   1.341   2.386  15.865 -1.0277  0.3195 -0.2820
  775MPD2    H111492   1.536   2.232  15.526 -0.4893  1.0442 -0.7038
  775MPD2    H211493   1.219   2.010  15.701 -0.0189  0.5403 -1.8544
  775MPD2    H311494   1.392   2.034  15.536  0.9141  0.8468 -1.3693
  775MPD2     N11495   1.522   2.440  15.675 -0.2429  0.3989  0.0959
  775MPD2    H511496   1.600   2.438  15.610  0.7692  1.3497  1.2884
  775MPD2    N111497   1.161   2.179  15.904  0.8835 -0.3707 -0.4779
  775MPD2    H711498   1.095   2.103  15.894 -0.2849  0.7819 -1.5986
  776MPD2     C11499   0.055   2.456  12.118 -0.0167 -0.0086 -0.5275
  776MPD2    C111500   4.704   2.471  12.009  0.7807 -0.4680 -1.0396
  776MPD2    C211501   4.711   2.587  11.933 -0.2461 -0.1444  0.0326
  776MPD2    C311502   0.067   2.685  11.954 -0.5487  0.2608 -0.0436
  776MPD2    C411503   0.156   2.666  12.058  0.1464 -0.5189  0.2112
  776MPD2    C511504   0.151   2.553  12.142 -0.5425 -0.0569 -0.1432
  776MPD2     H11505   4.650   2.599  11.844 -0.4093  0.5985  0.2365
  776MPD2    H111506   0.236   2.734  12.082 -0.1925 -0.1441  0.2703
  776MPD2    H211507   0.052   2.366  12.177  1.7081  0.2803 -0.0132
  776MPD2    H311508   0.226   2.548  12.220  0.2725 -1.5604 -1.0140
  776MPD2     N11509   0.103   2.804  11.873 -1.0191  0.6136  0.3616
  776MPD2    H511510   0.193   2.846  11.894 -2.1319  2.2815  1.7468
  776MPD2    N111511   4.610   2.372  11.986  0.0188  0.3748  0.8800
  776MPD2    H711512   4.617   2.289  12.044 -0.8590 -0.1830  0.1924
  777MPD2     C11513   0.367   4.537   0.374  0.4009 -0.2444  1.1427
  777MPD2    C111514   0.432   4.454   0.461 -0.0208  0.1294  0.4388
  777MPD2    C211515   0.457   4.319   0.430 -0.6172  0.3249  0.4234
  777MPD2    C311516   0.418   4.276   0.303  0.0644 -0.3680 -0.5253
  777MPD2    C411517   0.361   4.365   0.205  0.0699  0.3890  0.1410
  777MPD2    C511518   0.341   4.494   0.244 -0.6168 -1.0234  0.4480
  777MPD2     H11519   0.495   4.246   0.500 -0.1823  2.9716  2.9726
  777MPD2    H111520   0.332   4.331   0.106  0.8006 -0.0699  0.0828
  777MPD2    H211521   0.342   4.640   0.398  1.4781  0.4271 -0.6815
  777MPD2    H311522   0.294   4.565   0.177 -0.4099 -0.4379  0.9238
  777MPD2     N11523   0.422   4.129   0.288  0.2955  0.2786 -0.8356
  777MPD2    H511524   0.451   4.068   0.364 -0.3003  0.5651 -0.3716
  777MPD2    N111525   0.457   4.515   0.591  0.1495  0.0995 -0.5949
  777MPD2    H711526   0.403   4.599   0.611  1.2379  0.7912 -0.5912
  778MPD2     C11527   1.780   0.584  14.420  0.2503 -0.1304 -0.3485
  778MPD2    C111528   1.854   0.497  14.497 -0.1228  0.5523 -0.4919
  778MPD2    C211529   1.994   0.520  14.509 -0.3233 -0.1015  0.1333
  778MPD2    C311530   2.054   0.627  14.441 -0.1801  0.1405 -0.1309
  778MPD2    C411531   1.969   0.726  14.376  0.0315  0.2027  0.2899
  778MPD2    C511532   1.836   0.696  14.363 -0.6779  0.0542  0.0250
  778MPD2     H11533   2.047   0.442  14.562  0.7316  0.7798  0.3715
  778MPD2    H111534   2.014   0.811  14.326 -1.7860  1.6903  1.2311
  778MPD2    H211535   1.681   0.556  14.388  0.3964 -2.6709  1.5040
  778MPD2    H311536   1.767   0.751  14.299 -2.0869 -2.0777 -0.2744
  778MPD2     N11537   2.198   0.635  14.427 -0.0579  0.2929 -0.1406
  778MPD2    H511538   2.245   0.558  14.473 -1.4130 -0.5049 -0.0769
  778MPD2    N111539   1.790   0.377  14.560  0.7846  0.3074 -0.3702
  778MPD2    H711540   1.847   0.321  14.622 -2.5034 -0.4033  2.0107
  779MPD2     C11541   1.140   3.750  14.399 -0.5692  0.0527 -0.0679
  779MPD2    C111542   1.273   3.738  14.353 -0.1360 -0.0524  0.4166
  779MPD2    C211543   1.338   3.841  14.294 -0.2818 -0.1205 -0.8560
  779MPD2    C311544   1.268   3.952  14.258 -0.1293 -0.0528  0.1824
  779MPD2    C411545   1.132   3.960  14.290 -0.5168  0.1746 -0.4629
  779MPD2    C511546   1.075   3.859  14.369 -0.2231  0.2661 -0.6951
  779MPD2     H11547   1.441   3.833  14.259 -1.1938  0.6724 -3.7261
  779MPD2    H111548   1.069   4.044  14.264  1.1571  0.3993 -3.7116
  779MPD2    H211549   1.092   3.668  14.451  0.6565 -0.9834 -0.5608
  779MPD2    H311550   0.972   3.858  14.404 -0.0165  3.2081 -0.0163
  779MPD2     N11551   1.341   4.055  14.206 -0.6471  0.2829 -0.0925
  779MPD2    H511552   1.442   4.054  14.219 -0.5950 -3.7064 -0.9086
  779MPD2    N111553   1.345   3.617  14.383  0.4024 -0.8145 -0.2233
  779MPD2    H711554   1.443   3.617  14.357  0.2871  1.8452 -0.6103
  780MPD2     C11555   1.340   3.151   1.728 -0.5865 -0.2937 -0.1514
  780MPD2    C111556   1.220   3.177   1.668  0.1699 -0.5394  0.4492
  780MPD2    C211557   1.217   3.250   1.550 -0.3734  0.0173  0.3358
  780MPD2    C311558   1.338   3.286   1.489  0.1492  0.2372  0.3494
  780MPD2    C411559   1.457   3.249   1.547  0.4427 -0.1132 -0.0232
  780MPD2    C511560   1.458   3.178   1.665 -0.1257 -0.4031 -0.4892
  780MPD2     H11561   1.121   3.267   1.504 -1.5553 -0.7198  2.5066
  780MPD2    H111562   1.554   3.267   1.501 -0.3469  0.7347 -1.3641
  780MPD2    H211563   1.346   3.090   1.818  0.5373  0.0606  0.0210
  780MPD2    H311564   1.555   3.165   1.711  0.9695  1.0967 -2.3786
  780MPD2     N11565   1.323   3.342   1.358 -0.1712  0.7534 -0.4962
  780MPD2    H511566   1.234   3.378   1.326 -0.7083  0.1875  0.3818
  780MPD2    N111567   1.110   3.131   1.744 -0.0945 -0.7666  0.2103
  780MPD2    H711568   1.123   3.136   1.845 -1.4976  0.5737  0.3233
  781MPD2     C11569   2.919   1.507  12.403  0.2157 -0.2009 -0.0558
  781MPD2    C111570   2.833   1.417  12.340  0.2497 -0.3568 -0.2148
  781MPD2    C211571   2.797   1.448  12.210  0.0556  0.1381 -0.5495
  781MPD2    C311572   2.839   1.571  12.146 -0.3378 -0.2810 -0.8034
  781MPD2    C411573   2.903   1.659  12.216  0.1996  0.3222 -0.4462
  781MPD2    C511574   2.950   1.631  12.343 -0.7227 -0.0518  0.3268
  781MPD2     H11575   2.735   1.375  12.160  0.7536 -0.0337 -1.1730
  781MPD2    H111576   2.933   1.751  12.166  0.2548  0.9347  0.7050
  781MPD2    H211577   2.958   1.488  12.503 -1.8389 -0.4483  0.6930
  781MPD2    H311578   3.016   1.709  12.379  1.0783 -0.8720 -1.2010
  781MPD2     N11579   2.820   1.591  12.010  0.4198 -0.0110 -0.2809
  781MPD2    H511580   2.852   1.677  11.969 -0.1534 -0.6638 -2.0856
  781MPD2    N111581   2.798   1.293  12.392 -0.3090  0.4594 -0.0323
  781MPD2    H711582   2.751   1.232  12.325 -0.7378  1.4821 -0.6474
  782MPD2     C11583   0.475   1.781  10.629  0.1438 -0.2387 -0.0679
  782MPD2    C111584   0.582   1.805  10.714 -0.0325  0.5964  0.3567
  782MPD2    C211585   0.615   1.936  10.754 -0.5570  0.0366 -0.3893
  782MPD2    C311586   0.544   2.042  10.697  0.8523  0.3161 -0.1553
  782MPD2    C411587   0.444   2.021  10.605  0.2538 -0.9802 -0.5215
  782MPD2    C511588   0.411   1.887  10.577  0.1982 -0.1769 -0.4991
  782MPD2     H11589   0.696   1.958  10.822 -1.0801 -1.3724  0.6996
  782MPD2    H111590   0.386   2.094  10.549 -0.5696 -0.0637  1.5252
  782MPD2    H211591   0.441   1.680  10.609  1.7551 -0.8497  0.2578
  782MPD2    H311592   0.335   1.865  10.503  0.7587  1.4978 -1.5683
  782MPD2     N11593   0.576   2.177  10.732  1.0795  0.4174 -0.3760
  782MPD2    H511594   0.650   2.183  10.802 -0.6616  1.1694  1.4093
  782MPD2    N111595   0.663   1.694  10.759 -0.5666  0.1898 -0.3466
  782MPD2    H711596   0.634   1.600  10.736 -0.7163 -0.0934  1.0104
  783MPD2     C11597   0.210   1.058  11.037  0.0792 -0.8039  0.2423
  783MPD2    C111598   0.215   1.176  11.121 -0.4798 -0.1459  0.0032
  783MPD2    C211599   0.330   1.259  11.094 -0.2865  0.0617 -0.3718
  783MPD2    C311600   0.431   1.215  11.011 -0.1980 -0.1161  0.2180
  783MPD2    C411601   0.418   1.109  10.931 -0.4097  0.0265  0.4950
  783MPD2    C511602   0.300   1.038  10.941 -0.1752  0.0308  0.6269
  783MPD2     H11603   0.343   1.351  11.150 -1.3001  1.4324 -2.3931
  783MPD2    H111604   0.491   1.069  10.862  2.2456  2.6706  1.7964
  783MPD2    H211605   0.121   0.996  11.044 -1.7007  1.6545 -0.3403
  783MPD2    H311606   0.301   0.958  10.867  0.0387 -0.7466  1.4816
  783MPD2     N11607   0.554   1.294  11.009  0.3566  0.4303 -0.1073
  783MPD2    H511608   0.557   1.385  11.053 -0.7224  1.7635 -2.8647
  783MPD2    N111609   0.113   1.200  11.223  0.4155 -0.2708  0.2317
  783MPD2    H711610   0.032   1.140  11.231  1.0331 -0.9700  1.2178
  784MPD2     C11611   3.040   1.491   0.593  0.3221 -0.0498 -0.2171
  784MPD2    C111612   3.018   1.527   0.724  0.9444 -0.1842  0.3092
  784MPD2    C211613   2.904   1.597   0.751  0.4823  0.5288 -0.0643
  784MPD2    C311614   2.804   1.610   0.652  0.0429  0.2134 -0.0771
  784MPD2    C411615   2.828   1.575   0.522  0.7070  1.0370 -0.2314
  784MPD2    C511616   2.945   1.520   0.496 -0.5304 -0.0196 -0.1137
  784MPD2     H11617   2.883   1.618   0.855  0.6303 -0.3987  0.1545
  784MPD2    H111618   2.757   1.594   0.442 -1.5795 -0.6820  1.3995
  784MPD2    H211619   3.134   1.443   0.565 -0.8585 -2.3021 -0.3329
  784MPD2    H311620   2.965   1.503   0.391  0.8965 -0.0753  0.1605
  784MPD2     N11621   2.678   1.656   0.696  0.2568  0.1540 -0.1579
  784MPD2    H511622   2.669   1.702   0.786 -0.0098 -0.5043  0.1480
  784MPD2    N111623   3.099   1.486   0.829 -0.5533 -0.7561  0.5796
  784MPD2    H711624   3.086   1.539   0.914  0.5496  1.3308 -0.5525
  785MPD2     C11625   2.427   1.176  10.465  0.0297 -0.2353  0.6476
  785MPD2    C111626   2.511   1.186  10.568 -0.1007 -0.4462  0.3090
  785MPD2    C211627   2.567   1.309  10.589  0.0182 -0.0489 -0.6973
  785MPD2    C311628   2.527   1.423  10.519  0.1378  0.5653  0.2535
  785MPD2    C411629   2.448   1.409  10.408 -0.5794 -0.0124  0.0469
  785MPD2    C511630   2.400   1.286  10.385  0.3470  0.5208 -0.6227
  785MPD2     H11631   2.630   1.318  10.677 -0.7771  0.6312 -0.1982
  785MPD2    H111632   2.406   1.491  10.351 -1.1850  0.7079  1.5577
  785MPD2    H211633   2.364   1.091  10.441 -0.9695  0.1576  1.8892
  785MPD2    H311634   2.330   1.282  10.302  0.0273  1.0069 -0.3803
  785MPD2     N11635   2.583   1.543  10.557  0.4487  0.4823 -0.7378
  785MPD2    H511636   2.632   1.538  10.646 -0.6235 -0.5089 -0.2025
  785MPD2    N111637   2.535   1.069  10.647 -0.0510 -0.4886 -0.1941
  785MPD2    H711638   2.500   0.984  10.605 -1.2834  0.5626 -1.2889
  786MPD2     C11639   1.914   3.138  14.956 -0.6247 -0.2325  0.3221
  786MPD2    C111640   2.034   3.187  14.900 -0.2314  0.3293  0.3536
  786MPD2    C211641   2.122   3.256  14.983 -0.5144  0.5247 -0.0665
  786MPD2    C311642   2.083   3.284  15.115  0.3541 -0.7371 -0.0309
  786MPD2    C411643   1.960   3.236  15.164 -0.5708  0.2192  0.7986
  786MPD2    C511644   1.877   3.161  15.085  0.0699  0.0195  0.7951
  786MPD2     H11645   2.213   3.294  14.939 -0.1220  0.2977  0.5564
  786MPD2    H111646   1.930   3.250  15.267  1.4213 -4.9992  2.0929
  786MPD2    H211647   1.846   3.079  14.896  2.3543 -1.4434 -1.9139
  786MPD2    H311648   1.783   3.123  15.122  1.3960 -3.8608  0.0998
  786MPD2     N11649   2.169   3.350  15.205 -0.1351 -0.1176 -0.2501
  786MPD2    H511650   2.146   3.330  15.302 -0.4516  0.7007 -0.1568
  786MPD2    N111651   2.073   3.158  14.774  0.4166  0.1973  0.3632
  786MPD2    H711652   2.166   3.190  14.748  0.2674 -0.0866 -0.5050
  787MPD2     C11653   2.357   2.713  14.915 -0.0344  0.1400 -0.2136
  787MPD2    C111654   2.335   2.680  14.778  0.1823 -0.0235 -0.1924
  787MPD2    C211655   2.346   2.549  14.743 -0.1970  0.3061 -0.7420
  787MPD2    C311656   2.382   2.457  14.842 -0.0391 -0.4069 -0.0212
  787MPD2    C411657   2.404   2.489  14.973 -0.4123  0.5766  0.6765
  787MPD2    C511658   2.404   2.620  15.002 -0.5221  0.2680  0.1444
  787MPD2     H11659   2.320   2.516  14.643 -3.6429 -0.6867  0.4674
  787MPD2    H111660   2.420   2.429  15.062  0.1115  0.5424  0.5609
  787MPD2    H211661   2.349   2.812  14.958  0.3382  0.6930 -1.4103
  787MPD2    H311662   2.406   2.641  15.109 -0.4187  1.2422 -0.0480
  787MPD2     N11663   2.401   2.317  14.803  0.4477 -0.3402  0.1411
  787MPD2    H511664   2.406   2.295  14.704  0.5570  0.0887  0.0503
  787MPD2    N111665   2.296   2.780  14.693 -0.6441 -0.2434 -0.2839
  787MPD2    H711666   2.300   2.873  14.734  1.3308 -1.0527  1.2935
  788MPD2     C11667   4.216   1.526   0.745  0.8584 -0.1871 -0.6534
  788MPD2    C111668   4.087   1.476   0.726  0.4303  0.3408  0.4227
  788MPD2    C211669   4.008   1.545   0.641 -0.2574 -0.0789 -0.5475
  788MPD2    C311670   4.058   1.658   0.579  0.4597  0.5590 -0.3674
  788MPD2    C411671   4.185   1.700   0.598 -0.1406 -0.3284 -0.2783
  788MPD2    C511672   4.266   1.638   0.684  0.1719  0.2863  0.0777
  788MPD2     H11673   3.906   1.515   0.622 -0.3876 -0.9274  1.5212
  788MPD2    H111674   4.217   1.788   0.544 -0.6325  1.7116  2.7586
  788MPD2    H211675   4.281   1.477   0.816 -0.2006  0.3605  0.6745
  788MPD2    H311676   4.366   1.678   0.691  0.0536  0.8226 -1.3099
  788MPD2     N11677   3.991   1.725   0.475 -0.5315  0.3981 -0.1066
  788MPD2    H511678   4.050   1.797   0.435  0.7751  0.7140  2.3626
  788MPD2    N111679   4.048   1.352   0.783 -0.4692 -0.0438  0.7198
  788MPD2    H711680   4.119   1.314   0.846  0.9749 -1.0051 -1.4811
  789MPD2     C11681   4.227   0.960  16.413 -0.4445 -0.2357  0.0385
  789MPD2    C111682   4.183   0.909  16.530  0.5390  0.1504  0.5641
  789MPD2    C211683   4.060   0.953  16.583  0.3987 -0.8258 -0.2905
  789MPD2    C311684   3.975   1.030  16.504 -0.0736  0.0330  0.7949
  789MPD2    C411685   4.026   1.076  16.385 -0.1024  0.7708  0.0016
  789MPD2    C511686   4.151   1.045  16.340  0.2058 -0.2170  0.2113
  789MPD2     H11687   4.034   0.906  16.677 -1.3722  1.3326  0.2908
  789MPD2    H111688   3.966   1.132  16.314 -0.0368  2.3304  1.1979
  789MPD2    H211689   4.328   0.932  16.384  0.3174  2.1352  0.3941
  789MPD2    H311690   4.190   1.080  16.245 -1.4199  0.4339 -0.2301
  789MPD2     N11691   3.844   1.055  16.539  0.1808  0.6758 -0.1226
  789MPD2    H511692   3.791   1.111  16.473 -2.6580  0.5472  2.0054
  789MPD2    N111693   4.237   0.799  16.598  0.5859 -0.2377  0.2714
  789MPD2    H711694   4.180   0.768  16.676 -0.6815 -0.4007 -0.7217
  790MPD2     C11695   0.234   2.738  13.981  0.3831 -0.2404  0.1352
  790MPD2    C111696   0.348   2.656  13.986 -0.0671  0.3119  0.2253
  790MPD2    C211697   0.390   2.609  13.864  0.1380  0.2829  0.0536
  790MPD2    C311698   0.323   2.628  13.745 -0.1432 -0.8582  0.3256
  790MPD2    C411699   0.209   2.705  13.742 -0.7523 -0.2558  1.1855
  790MPD2    C511700   0.174   2.765  13.861 -0.1115 -0.3306  0.1567
  790MPD2     H11701   0.480   2.549  13.858 -0.0850 -0.1123  0.7644
  790MPD2    H111702   0.152   2.718  13.651 -0.0865 -0.6653  0.7045
  790MPD2    H211703   0.203   2.786  14.073  1.0024 -0.7370  0.5951
  790MPD2    H311704   0.087   2.829  13.869  0.0257 -0.2229  0.8758
  790MPD2     N11705   0.375   2.574  13.620  0.6198  0.1160  0.2711
  790MPD2    H511706   0.469   2.537  13.619  1.5725  2.5971 -0.9280
  790MPD2    N111707   0.403   2.632  14.112 -0.1055 -0.0408  0.5231
  790MPD2    H711708   0.355   2.677  14.189 -3.1520 -0.7176 -0.9892
  791MPD2     C11709   4.733   2.698  12.868  0.3646 -0.2811 -0.1307
  791MPD2    C111710   0.031   2.575  12.918 -0.0716  0.7775  0.1615
  791MPD2    C211711   4.685   2.461  12.898  0.1159  0.5466 -0.0047
  791MPD2    C311712   4.562   2.485  12.836 -0.1939 -0.5901 -0.2984
  791MPD2    C411713   4.525   2.612  12.806  0.2037  0.3702  0.4535
  791MPD2    C511714   4.611   2.715  12.816  0.3082 -0.4824 -0.3193
  791MPD2     H11715   4.727   2.362  12.913  0.1513  0.2946 -1.7829
  791MPD2    H111716   4.431   2.643  12.762  0.5624 -0.9246 -1.2141
  791MPD2    H211717   0.051   2.791  12.882 -0.1331  0.4107 -2.6872
  791MPD2    H311718   4.566   2.810  12.788 -0.8028 -0.5859  1.1288
  791MPD2     N11719   4.479   2.374  12.803  0.3672  0.0506  0.5413
  791MPD2    H511720   4.517   2.281  12.817 -1.1115 -0.8302 -1.2672
  791MPD2    N111721   0.152   2.568  12.996  0.3254  0.9435 -0.7443
  791MPD2    H711722   0.193   2.659  13.017  1.2294  0.4560 -0.3850
  792MPD2     C11723   0.642   2.757  11.586 -0.0696  0.3773 -0.4535
  792MPD2    C111724   0.567   2.812  11.482 -0.3103 -0.2339 -0.6294
  792MPD2    C211725   0.437   2.778  11.477 -0.0650 -0.8773  0.4982
  792MPD2    C311726   0.383   2.692  11.576  0.1650  0.0311  0.7218
  792MPD2    C411727   0.459   2.642  11.675  0.1953  0.0724 -0.1684
  792MPD2    C511728   0.594   2.680  11.682  0.0012  0.6834 -0.5282
  792MPD2     H11729   0.378   2.798  11.388  1.2288 -2.1921 -0.6617
  792MPD2    H111730   0.426   2.578  11.755 -0.9504 -0.5507 -1.1532
  792MPD2    H211731   0.750   2.770  11.582 -0.0048 -0.3715 -1.1715
  792MPD2    H311732   0.655   2.646  11.765 -1.0259  0.5870  0.1861
  792MPD2     N11733   0.249   2.645  11.572 -0.0866  0.1284  0.1098
  792MPD2    H511734   0.223   2.568  11.633 -0.4788  2.1021  2.4199
  792MPD2    N111735   0.641   2.892  11.389 -0.3099 -0.4295  0.0102
  792MPD2    H711736   0.742   2.893  11.400 -0.1895 -4.4165 -0.4506
  793MPD2     C11737   4.516   2.418  10.730 -0.9065  0.0414  0.4911
  793MPD2    C111738   4.644   2.453  10.766  0.7348  0.2468 -0.8545
  793MPD2    C211739   4.682   2.469  10.894  0.2062 -0.1811 -0.3486
  793MPD2    C311740   4.590   2.447  10.997  0.3023  0.0341  0.1272
  793MPD2    C411741   4.461   2.412  10.959  0.4607 -0.5433  0.1513
  793MPD2    C511742   4.425   2.404  10.830  0.2437 -0.8950  0.1376
  793MPD2     H11743   0.047   2.502  10.919  0.2250 -0.7033  0.2388
  793MPD2    H111744   4.387   2.394  11.035 -0.3515 -1.5224 -0.8709
  793MPD2    H211745   4.475   2.381  10.636  2.6088 -2.7662  0.0576
  793MPD2    H311746   4.321   2.385  10.805 -0.6293  0.2983  2.9011
  793MPD2     N11747   4.628   2.462  11.133 -0.4072 -0.5706 -0.4395
  793MPD2    H511748   4.726   2.485  11.143 -0.5544 -0.7095  1.3479
  793MPD2    N111749   0.004   2.482  10.673  0.3749  0.0025 -0.1603
  793MPD2    H711750   0.100   2.482  10.707 -0.4830 -0.1848  2.3000
  794MPD2     C11751   4.614   1.775   0.028  0.3960 -0.1346 -0.0611
  794MPD2    C111752   4.635   1.659  17.698 -0.0236  0.0194 -0.8318
  794MPD2    C211753   4.603   1.654  17.559  0.7452 -0.3361 -0.3384
  794MPD2    C311754   4.534   1.761  17.498 -0.8167 -0.2701  0.2019
  794MPD2    C411755   4.499   1.872  17.578  0.0180  0.4204 -0.0971
  794MPD2    C511756   4.539   1.873  17.698  0.3535 -0.8890 -0.6874
  794MPD2     H11757   4.622   1.558  17.512  1.5291 -0.0759 -0.5582
  794MPD2    H111758   4.440   1.955  17.542  0.0777  1.2186  1.6578
  794MPD2    H211759   4.646   1.785   0.131  0.6745 -1.0767 -0.0541
  794MPD2    H311760   4.517   1.969  17.743  1.5859 -1.2640  0.7231
  794MPD2     N11761   4.511   1.766  17.363  0.1204  0.5133  0.7612
  794MPD2    H511762   4.452   1.844  17.338  0.5824  0.1578 -1.5075
  794MPD2    N111763   4.704   1.537  17.740  0.7448 -0.3653  0.5187
  794MPD2    H711764   4.694   1.451  17.686  0.0011 -0.0852  0.2188
  795MPD2     C11765   2.576   4.187  13.974 -0.0959  0.1906 -0.4030
  795MPD2    C111766   2.533   4.122  13.860 -0.7300  0.4124  0.3940
  795MPD2    C211767   2.609   4.024  13.803 -0.8839 -0.1652  0.1067
  795MPD2    C311768   2.721   3.974  13.877  0.7726  0.4991 -0.6324
  795MPD2    C411769   2.765   4.045  13.990  0.0372 -0.6217  0.6213
  795MPD2    C511770   2.692   4.155  14.038  0.6238  0.2168 -0.0461
  795MPD2     H11771   2.572   3.978  13.712 -1.4559  0.0703  0.2182
  795MPD2    H111772   2.862   4.019  14.031  0.9430  0.8771 -0.5617
  795MPD2    H211773   2.512   4.268  14.008  0.9006  0.2661  1.2828
  795MPD2    H311774   2.732   4.213  14.120 -0.0343  0.0636  0.3834
  795MPD2     N11775   2.806   3.881  13.828 -0.2181 -0.2779 -0.5119
  795MPD2    H511776   2.893   3.864  13.878 -0.7812  0.3938  0.6938
  795MPD2    N111777   2.411   4.156  13.797 -0.8771  0.2327  0.4708
  795MPD2    H711778   2.360   4.092  13.737 -1.0802  1.8282 -1.0427
  796MPD2     C11779   2.341   0.570  15.957  0.2695 -0.0763  0.5133
  796MPD2    C111780   2.280   0.614  16.071 -0.2585  0.3082 -0.0193
  796MPD2    C211781   2.199   0.729  16.070 -0.7383  0.3895  0.4964
  796MPD2    C311782   2.182   0.794  15.951 -0.4558 -0.3575 -0.0249
  796MPD2    C411783   2.241   0.741  15.834 -0.4438  0.1790  0.7240
  796MPD2    C511784   2.319   0.633  15.837  0.0312 -0.0517 -0.2805
  796MPD2     H11785   2.136   0.763  16.151  1.6212 -1.1063  2.9843
  796MPD2    H111786   2.221   0.782  15.736  1.5059 -1.1288 -0.2059
  796MPD2    H211787   2.400   0.479  15.959 -0.2632 -0.4065  0.8678
  796MPD2    H311788   2.361   0.590  15.747  1.4187  0.5294  0.0892
  796MPD2     N11789   2.114   0.921  15.950 -0.1822  1.0589 -0.5176
  796MPD2    H511790   2.081   0.959  16.038  1.2030  0.9886  0.0270
  796MPD2    N111791   2.298   0.547  16.196  0.2695  0.2062  0.0211
  796MPD2    H711792   2.385   0.497  16.213 -1.6011 -2.7978  0.8303
  797MPD2     C11793   3.008   4.727  17.707 -0.1280 -0.2098 -0.2745
  797MPD2    C111794   3.086   0.109  17.718 -0.4248  1.0646 -0.1969
  797MPD2    C211795   3.028   0.230  17.677 -0.4989 -0.1874  0.4186
  797MPD2    C311796   2.893   0.234  17.643 -0.8131 -0.6379  0.1848
  797MPD2    C411797   2.813   0.123  17.654 -0.4434  0.4490 -0.4581
  797MPD2    C511798   2.872   0.001  17.683  0.0990  0.1823 -0.9536
  797MPD2     H11799   3.094   0.315  17.667 -1.0979  0.4377  1.8094
  797MPD2    H111800   2.711   0.118  17.616 -1.7617 -0.3443  3.1547
  797MPD2    H211801   3.049   4.631  17.738  2.5872  0.7817 -0.8200
  797MPD2    H311802   2.809   4.650  17.693 -0.6662  0.8682  0.2867
  797MPD2     N11803   2.843   0.363  17.619  0.1836 -0.9580 -0.0955
  797MPD2    H511804   2.916   0.433  17.620  0.8488 -1.6667  0.5364
  797MPD2    N111805   3.228   0.117  17.726  0.2016  0.3117  0.3492
  797MPD2    H711806   3.265   0.212  17.722 -2.5581  1.3602 -0.4878
  798MPD2     C11807   3.358   0.842  17.661 -0.1597 -0.0382  0.2552
  798MPD2    C111808   3.273   0.737  17.661 -0.2100 -0.0508  0.1530
  798MPD2    C211809   3.320   0.613  17.687  0.7306  0.5546 -0.0629
  798MPD2    C311810   3.454   0.587  17.700 -0.1737  0.0459  0.2339
  798MPD2    C411811   3.540   0.690  17.699  0.5601  0.1034 -0.0677
  798MPD2    C511812   3.493   0.816  17.679 -0.5562 -0.6904  0.0050
  798MPD2     H11813   3.249   0.531  17.692  0.6411  0.7278  1.5285
  798MPD2    H111814   3.648   0.678  17.710  0.6872  0.2441 -1.1689
  798MPD2    H211815   3.331   0.942  17.631 -2.7280 -0.6059  0.7220
  798MPD2    H311816   3.559   0.901  17.681 -1.3994 -0.0010 -1.0502
  798MPD2     N11817   3.487   0.451  17.717  0.1002 -0.3437  0.2509
  798MPD2    H511818   3.411   0.385  17.733 -0.5269  0.4111  0.4152
  798MPD2    N111819   3.134   0.764  17.642 -0.1341 -0.0820  0.6034
  798MPD2    H711820   3.106   0.861  17.639  0.5713  0.0687 -1.9185
  799MPD2     C11821   2.081   2.150  14.726  0.5341 -0.2302  0.2454
  799MPD2    C111822   2.002   2.079  14.636  0.8518  0.0935  0.6275
  799MPD2    C211823   1.917   2.156  14.558 -1.0188  0.4199  0.5221
  799MPD2    C311824   1.922   2.297  14.554 -0.0954 -0.6432 -0.7665
  799MPD2    C411825   2.015   2.359  14.635 -0.1124 -0.0158 -0.4055
  799MPD2    C511826   2.091   2.286  14.726  0.2714 -0.2278  0.0370
  799MPD2     H11827   1.845   2.103  14.496  0.6140 -0.5134 -0.5613
  799MPD2    H111828   2.007   2.467  14.633 -0.2137  0.0003  0.7588
  799MPD2    H211829   2.140   2.099  14.802 -0.9688  0.1724  1.6816
  799MPD2    H311830   2.165   2.339  14.786  0.7790  0.8796 -1.5762
  799MPD2     N11831   1.843   2.373  14.470 -0.5007 -0.7490  0.0442
  799MPD2    H511832   1.867   2.472  14.465 -0.1970 -0.6821  2.5329
  799MPD2    N111833   1.981   1.939  14.647  0.4867  0.3535 -0.0401
  799MPD2    H711834   1.891   1.901  14.623  1.1733 -1.7054  0.6816
  800MPD2     C11835   2.519   3.415  13.750 -0.5152  0.3365  0.4017
  800MPD2    C111836   2.615   3.322  13.781 -0.0198 -0.1110 -0.3818
  800MPD2    C211837   2.627   3.212  13.702 -0.1981 -0.2653  0.2720
  800MPD2    C311838   2.537   3.189  13.598 -0.1727 -0.4014 -0.8214
  800MPD2    C411839   2.433   3.273  13.579  0.1011 -0.3000  0.2645
  800MPD2    C511840   2.425   3.385  13.653  0.0187 -0.4325  0.0067
  800MPD2     H11841   2.720   3.157  13.708 -0.3934 -1.0081 -2.9727
  800MPD2    H111842   2.358   3.259  13.502 -0.4946 -1.4072  1.0445
  800MPD2    H211843   2.505   3.515  13.789 -1.8265  0.3825 -0.1744
  800MPD2    H311844   2.362   3.467  13.622 -0.0050 -1.4948 -2.7076
  800MPD2     N11845   2.545   3.073  13.518  0.5561 -0.5884  0.0575
  800MPD2    H511846   2.628   3.017  13.533 -0.3167 -2.1977 -1.1083
  800MPD2    N111847   2.703   3.365  13.878 -0.0396  0.2160  0.0791
  800MPD2    H711848   2.672   3.445  13.933  1.3769  1.9435 -1.6467
  801MPD2     C11849   2.972   3.983  14.268 -0.2994  0.4495  0.2070
  801MPD2    C111850   2.897   3.874  14.311 -0.3563  0.1410  0.5995
  801MPD2    C211851   2.796   3.886  14.407 -0.4734  0.2637  0.8687
  801MPD2    C311852   2.757   4.013  14.445 -0.2001 -0.1772 -0.0539
  801MPD2    C411853   2.822   4.116  14.391  0.2911 -0.2512  0.9661
  801MPD2    C511854   2.927   4.104  14.302  0.0978 -0.1902 -0.1868
  801MPD2     H11855   2.736   3.799  14.433  0.7971 -0.8561  0.0908
  801MPD2    H111856   2.797   4.219  14.416 -0.1766 -0.0183 -0.4370
  801MPD2    H211857   3.058   3.974  14.202 -1.8043  1.3863 -1.8627
  801MPD2    H311858   2.975   4.194  14.266 -0.7014 -0.2080 -1.2963
  801MPD2     N11859   2.650   4.043  14.540 -0.2598 -0.2366 -0.0040
  801MPD2    H511860   2.640   4.142  14.558 -1.8798 -0.7187  1.6711
  801MPD2    N111861   2.923   3.743  14.259 -0.1552 -0.8863 -0.4571
  801MPD2    H711862   2.905   3.657  14.308  2.0276 -0.8737  0.4091
  802MPD2     C11863   1.441   4.045  17.478  0.3423 -0.3728  0.4351
  802MPD2    C111864   1.546   4.046  17.566  0.0505  0.0290 -0.8045
  802MPD2    C211865   1.662   3.983  17.532 -0.0242  0.1428 -0.1368
  802MPD2    C311866   1.669   3.889  17.425  1.1179 -0.0968 -0.6735
  802MPD2    C411867   1.563   3.885  17.341 -0.2107 -0.1692  0.2697
  802MPD2    C511868   1.453   3.962  17.372  0.1223  0.1879  0.3380
  802MPD2     H11869   1.736   3.976  17.611  0.4990  0.0897 -0.6334
  802MPD2    H111870   1.557   3.831  17.248  0.3325 -0.3213  0.3203
  802MPD2    H211871   1.353   4.107  17.493  1.6810  1.2257  1.7179
  802MPD2    H311872   1.364   3.964  17.311  0.7216 -1.1712 -0.5739
  802MPD2     N11873   1.785   3.819  17.398  0.5967  0.3001  0.5272
  802MPD2    H511874   1.866   3.849  17.450  0.8393  2.2832 -0.9718
  802MPD2    N111875   1.549   4.108  17.694 -0.2174 -0.2256 -0.4508
  802MPD2    H711876   1.641   4.100  17.736 -0.6797  0.6440  0.7497
  803MPD2     C11877   2.475   2.687  12.774  0.4043 -0.3855  0.1357
  803MPD2    C111878   2.565   2.742  12.690  0.1236  1.0663 -0.5026
  803MPD2    C211879   2.691   2.700  12.683 -0.6172  0.2882 -0.3169
  803MPD2    C311880   2.737   2.601  12.766 -0.5889  0.5691  0.9182
  803MPD2    C411881   2.648   2.544  12.850  0.7189  0.3972  0.6302
  803MPD2    C511882   2.516   2.586  12.859  0.4520  0.1682  0.5752
  803MPD2     H11883   2.752   2.759  12.616  0.4917 -1.3695 -0.7575
  803MPD2    H111884   2.681   2.468  12.920 -2.0512 -1.2098  0.2047
  803MPD2    H211885   2.371   2.714  12.764  0.2092 -1.5411 -0.9101
  803MPD2    H311886   2.436   2.536  12.912  1.2269 -2.0141 -0.2983
  803MPD2     N11887   2.876   2.576  12.776 -0.4517 -0.1038 -0.1431
  803MPD2    H511888   2.914   2.492  12.818 -1.1473  0.0942  0.8928
  803MPD2    N111889   2.539   2.852  12.609  0.0006 -0.4595  0.8716
  803MPD2    H711890   2.613   2.896  12.554 -2.5725 -0.2976 -2.4129
  804MPD2     C11891   2.567   3.479  17.141 -0.0531  0.1184 -0.0016
  804MPD2    C111892   2.576   3.443  17.278 -0.0073 -0.4912  0.9610
  804MPD2    C211893   2.621   3.534  17.373  0.1149  0.8649  0.0500
  804MPD2    C311894   2.649   3.665  17.338 -0.2641 -0.0899  0.1232
  804MPD2    C411895   2.641   3.688  17.203  0.0056  0.3652 -0.3100
  804MPD2    C511896   2.601   3.606  17.103  0.1772  0.4715 -0.1649
  804MPD2     H11897   2.624   3.498  17.475 -1.0195  0.1760 -0.1545
  804MPD2    H111898   2.662   3.790  17.172 -0.6167  0.5777 -0.0267
  804MPD2    H211899   2.543   3.413  17.059 -0.1342  0.6687 -0.4182
  804MPD2    H311900   2.594   3.639  17.000  0.9892 -0.0760 -0.3991
  804MPD2     N11901   2.704   3.767  17.422 -0.6445 -0.7130 -0.5219
  804MPD2    H511902   2.691   3.754  17.522 -0.5157  0.6561 -0.3313
  804MPD2    N111903   2.557   3.305  17.320 -0.3883 -0.2368 -0.4506
  804MPD2    H711904   2.585   3.290  17.416 -0.3667  2.1780 -0.0825
  805MPD2     C11905   1.899   2.298  15.674  0.2068  0.1823  0.0049
  805MPD2    C111906   1.989   2.275  15.573  0.4560  0.5893 -0.3728
  805MPD2    C211907   2.121   2.244  15.617  0.2232  0.5282  0.2266
  805MPD2    C311908   2.154   2.244  15.753 -0.3989 -0.3918 -0.3406
  805MPD2    C411909   2.059   2.261  15.844 -0.4853  0.0036  0.3662
  805MPD2    C511910   1.936   2.302  15.805  0.0641  0.5677  0.2361
  805MPD2     H11911   2.191   2.212  15.541  0.7402 -0.0062  0.9223
  805MPD2    H111912   2.077   2.269  15.951  0.5248  1.3103  0.0880
  805MPD2    H211913   1.793   2.314  15.657  0.1358 -0.7962 -0.4275
  805MPD2    H311914   1.863   2.329  15.880 -0.3833  1.4380 -0.5096
  805MPD2     N11915   2.288   2.221  15.795 -0.6572 -0.0457  0.2873
  805MPD2    H511916   2.363   2.224  15.726 -1.2847 -1.4373 -0.4566
  805MPD2    N111917   1.963   2.267  15.433  0.4336 -0.5562 -0.6762
  805MPD2    H711918   2.036   2.256  15.363  2.7412 -0.2372  1.6881
  806MPD2     C11919   1.512   1.548   0.474  0.2890 -0.0194  0.2326
  806MPD2    C111920   1.644   1.550   0.518  0.1366  0.2521  0.4381
  806MPD2    C211921   1.736   1.624   0.440 -0.1856 -0.9262  0.4389
  806MPD2    C311922   1.699   1.694   0.324  0.4029  0.3563 -0.0387
  806MPD2    C411923   1.567   1.691   0.281  1.2369 -0.2610  0.2272
  806MPD2    C511924   1.480   1.619   0.360 -0.4959  0.3927  0.0779
  806MPD2     H11925   1.840   1.638   0.466 -0.3288  1.5706 -0.2684
  806MPD2    H111926   1.528   1.749   0.198 -0.0556 -0.5191  0.6545
  806MPD2    H211927   1.425   1.497   0.513  1.0548 -1.0443  0.5861
  806MPD2    H311928   1.377   1.612   0.330 -0.5150  1.6037 -0.1795
  806MPD2     N11929   1.800   1.765   0.261 -0.1947 -0.6111 -0.3304
  806MPD2    H511930   1.895   1.750   0.293 -0.0179  0.2988 -0.4233
  806MPD2    N111931   1.679   1.477   0.636 -0.2616  0.3607  0.6802
  806MPD2    H711932   1.599   1.435   0.682 -0.8221  0.7168  0.0276
  807MPD2     C11933   1.543   0.923   1.188 -0.1729  1.1783 -0.4524
  807MPD2    C111934   1.670   0.906   1.128  0.0751 -0.5433 -0.1832
  807MPD2    C211935   1.733   0.793   1.164  0.5371  0.0497  0.0331
  807MPD2    C311936   1.675   0.697   1.240 -0.0812  0.2212 -0.6627
  807MPD2    C411937   1.545   0.711   1.286  0.0846  0.1492 -0.3415
  807MPD2    C511938   1.487   0.832   1.274  0.1915 -0.2487  0.0723
  807MPD2     H11939   1.839   0.788   1.142  0.8890 -0.5076  1.8846
  807MPD2    H111940   1.487   0.638   1.341  1.5139 -1.5504 -1.1157
  807MPD2    H211941   1.493   1.018   1.173 -0.3746  1.4643  2.0909
  807MPD2    H311942   1.390   0.853   1.317  0.2603 -1.7230  0.9451
  807MPD2     N11943   1.748   0.580   1.258  0.0041  0.2717 -0.2237
  807MPD2    H511944   1.845   0.597   1.233 -0.3080  3.0600  0.4297
  807MPD2    N111945   1.729   0.996   1.041  0.6357  0.1321 -0.2242
  807MPD2    H711946   1.827   0.987   1.016 -0.4836 -1.7422 -3.9685
  808MPD2     C11947   2.440   3.235  10.063 -0.3565 -0.5466 -0.2731
  808MPD2    C111948   2.532   3.235  10.167  0.3212 -0.0804  0.6574
  808MPD2    C211949   2.613   3.349  10.179  0.1013 -0.1585  0.6980
  808MPD2    C311950   2.608   3.451  10.083  0.6469 -0.1763  0.2193
  808MPD2    C411951   2.515   3.449   9.981  0.0933 -0.5872 -0.6472
  808MPD2    C511952   2.431   3.342   9.972 -0.3604  0.8340 -0.0687
  808MPD2     H11953   2.685   3.354  10.260  1.9482 -2.6774 -0.7830
  808MPD2    H111954   2.493   3.524   9.905  2.0717 -1.0925 -1.7191
  808MPD2    H211955   2.369   3.154  10.051 -0.4374 -0.3508 -1.1424
  808MPD2    H311956   2.351   3.352   9.900  1.1308  0.8322 -1.7251
  808MPD2     N11957   2.686   3.575  10.096 -0.1126 -0.2508 -0.4604
  808MPD2    H511958   2.679   3.643  10.021 -0.1270 -0.4557 -0.6435
  808MPD2    N111959   2.547   3.129  10.260  0.3311 -0.2789 -0.5155
  808MPD2    H711960   2.617   3.145  10.332  1.0043 -0.1042 -1.2085
  809MPD2     C11961   2.696   4.271   9.577  0.2911 -0.4637  0.0734
  809MPD2    C111962   2.809   4.293   9.654 -0.6764  0.1585 -0.5217
  809MPD2    C211963   2.840   4.201   9.746 -0.2516  0.2194  0.3389
  809MPD2    C311964   2.769   4.087   9.770  0.1457  0.3015  0.0144
  809MPD2    C411965   2.669   4.059   9.685 -0.8206 -0.2381  0.1335
  809MPD2    C511966   2.630   4.153   9.595 -0.0655 -0.3324 -0.0766
  809MPD2     H11967   2.921   4.233   9.811  0.3164 -1.2516  0.3570
  809MPD2    H111968   2.617   3.964   9.695 -1.0571 -0.0452  0.7895
  809MPD2    H211969   2.662   4.335   9.496 -0.5840 -1.5654 -0.4262
  809MPD2    H311970   2.542   4.140   9.533  2.4446 -2.5379 -3.1458
  809MPD2     N11971   2.792   3.999   9.878  0.1947  0.0290 -0.4000
  809MPD2    H511972   2.730   3.918   9.882  1.7337 -0.9780  2.2616
  809MPD2    N111973   2.880   4.415   9.641  0.9575 -0.0363  0.4752
  809MPD2    H711974   2.972   4.418   9.684  0.0956  0.6566  2.2823
  810MPD2     C11975   2.442   2.858  10.763  0.3729  0.2202  0.5195
  810MPD2    C111976   2.318   2.887  10.715 -0.2312  0.6469 -0.3360
  810MPD2    C211977   2.305   3.008  10.648 -0.7152  0.0602 -0.6504
  810MPD2    C311978   2.410   3.102  10.635  0.0256  0.2513 -0.2885
  810MPD2    C411979   2.524   3.068  10.688  0.5137 -1.1005 -0.1660
  810MPD2    C511980   2.538   2.950  10.756  1.1065  0.2604 -0.2058
  810MPD2     H11981   2.208   3.022  10.602 -0.3616 -0.9725 -1.7299
  810MPD2    H111982   2.612   3.127  10.666  0.0506 -0.7965 -1.2158
  810MPD2    H211983   2.462   2.774  10.829  1.8440  1.3357  1.4794
  810MPD2    H311984   2.635   2.926  10.798 -0.0766 -1.5689  1.4590
  810MPD2     N11985   2.405   3.224  10.553  0.8016  0.6263 -0.0496
  810MPD2    H511986   2.474   3.297  10.567  0.6978  0.5276  1.0077
  810MPD2    N111987   2.194   2.813  10.740 -0.0523 -0.0973  0.1835
  810MPD2    H711988   2.115   2.839  10.682  0.7109 -0.1245 -0.8827
  811MPD2     C11989   1.548   2.434  10.365  0.6420  0.0210  0.3152
  811MPD2    C111990   1.636   2.538  10.369 -0.0260 -0.5320 -0.0112
  811MPD2    C211991   1.626   2.653  10.279 -0.2474 -0.2227  0.3448
  811MPD2    C311992   1.528   2.643  10.180  0.1895  0.6683 -0.1933
  811MPD2    C411993   1.444   2.532  10.173 -0.1589  0.0387 -0.3110
  811MPD2    C511994   1.456   2.429  10.264  0.0116  0.9387 -0.2161
  811MPD2     H11995   1.683   2.744  10.291 -0.1295 -0.2591  0.0575
  811MPD2    H111996   1.376   2.514  10.092 -0.6903  0.0103  0.1436
  811MPD2    H211997   1.539   2.353  10.436  2.2150 -0.3054  0.1312
  811MPD2    H311998   1.387   2.347  10.250  1.3629 -0.2042 -0.1388
  811MPD2     N11999   1.514   2.752  10.094 -0.0872 -0.0883 -0.2203
  811MPD2    H512000   1.588   2.821  10.105 -0.2553 -0.3507  2.7280
  811MPD2    N112001   1.723   2.537  10.481  0.1464  0.4904 -0.9258
  811MPD2    H712002   1.705   2.456  10.540 -1.1134  2.6118  1.6125
  812MPD2     C12003   1.173   2.467  12.448 -0.2316  0.0417 -0.1042
  812MPD2    C112004   1.052   2.530  12.486 -0.0379  0.1414 -0.1199
  812MPD2    C212005   0.995   2.508  12.614  0.2382 -0.4582  0.2808
  812MPD2    C312006   1.064   2.430  12.703  0.9594  0.4456  0.5374
  812MPD2    C412007   1.192   2.378  12.674 -0.3444 -0.6674  0.0891
  812MPD2    C512008   1.239   2.392  12.545  0.5360 -0.5371 -0.2112
  812MPD2     H12009   0.903   2.550  12.653 -0.5122 -2.3246  0.5010
  812MPD2    H112010   1.246   2.308  12.737  1.2333 -1.0684 -1.7217
  812MPD2    H212011   1.211   2.494  12.350  0.7698 -2.5098 -0.4062
  812MPD2    H312012   1.331   2.346  12.513  2.7866  2.5551  1.7515
  812MPD2     N12013   1.009   2.413  12.830  0.9446 -1.0267 -0.2457
  812MPD2    H512014   0.919   2.455  12.851  1.5169  0.4419 -0.7560
  812MPD2    N112015   0.988   2.624  12.398  0.0482  0.0287  0.5645
  812MPD2    H712016   1.030   2.633  12.305  1.6330 -2.2167  1.0627
  813MPD2     C12017   0.332   4.399  12.750 -0.1453 -0.3407 -0.3871
  813MPD2    C112018   0.381   4.513  12.817  0.3132  0.6557 -0.0015
  813MPD2    C212019   0.319   4.545  12.933  0.1568 -0.0773 -0.1598
  813MPD2    C312020   0.210   4.469  12.986  0.1580 -0.4558  0.4150
  813MPD2    C412021   0.176   4.352  12.917 -0.1413 -0.1183  0.9564
  813MPD2    C512022   0.234   4.318  12.800  0.6431  0.5503 -0.1398
  813MPD2     H12023   0.363   4.626  12.990 -0.3009 -0.2904  0.4895
  813MPD2    H112024   0.098   4.286  12.953 -1.0792  1.0242  0.9875
  813MPD2    H212025   0.392   4.377  12.662 -0.0703 -1.3378 -0.0866
  813MPD2    H312026   0.182   4.236  12.752  1.0242 -0.3988  1.0611
  813MPD2     N12027   0.147   4.517  13.103  0.6215 -0.5545 -0.1474
  813MPD2    H512028   0.177   4.610  13.130  1.7090 -0.7941 -0.5094
  813MPD2    N112029   0.497   4.579  12.775 -0.3128 -0.1818 -0.5528
  813MPD2    H712030   0.548   4.543  12.694 -0.1863  3.1769 -1.9768
  814MPD2     C12031   0.752   0.909  12.842 -0.1948 -0.1850 -0.3209
  814MPD2    C112032   0.718   1.040  12.810  0.1249  0.2924  0.7576
  814MPD2    C212033   0.796   1.146  12.843 -0.3269 -0.1360  0.9799
  814MPD2    C312034   0.917   1.128  12.910  0.1105  0.6569 -0.1885
  814MPD2    C412035   0.957   1.000  12.930 -0.5977 -0.2542  0.0778
  814MPD2    C512036   0.875   0.894  12.896 -0.4656 -0.3467  0.3667
  814MPD2     H12037   0.760   1.247  12.825 -2.4311 -1.3415 -1.7199
  814MPD2    H112038   1.056   0.979  12.968 -0.1608 -0.1057 -0.9644
  814MPD2    H212039   0.688   0.824  12.820 -1.2226  0.6155 -0.4331
  814MPD2    H312040   0.915   0.794  12.909  0.4647  0.0027  0.1561
  814MPD2     N12041   0.993   1.231  12.953 -0.0081  0.1646  0.2478
  814MPD2    H512042   0.963   1.324  12.926 -0.4094 -0.3819 -1.1644
  814MPD2    N112043   0.611   1.073  12.722 -0.3790 -0.0574  0.1168
  814MPD2    H712044   0.596   1.172  12.705 -1.3738 -0.3054 -0.4275
  815MPD2     C12045   1.015   4.128  11.925  0.4555  0.9169 -0.0434
  815MPD2    C112046   0.991   4.018  11.844 -0.2645 -0.4089 -0.4459
  815MPD2    C212047   0.864   3.964  11.842  0.5846  0.3261  0.7571
  815MPD2    C312048   0.773   4.004  11.941 -0.3109  0.4108  0.5402
  815MPD2    C412049   0.797   4.118  12.022 -0.0016 -0.2445  0.0168
  815MPD2    C512050   0.918   4.183  12.002  0.1870 -0.0453  0.4131
  815MPD2     H12051   0.828   3.887  11.774  0.0617  1.3610 -0.1310
  815MPD2    H112052   0.732   4.149  12.104 -0.7304  1.1515 -1.0868
  815MPD2    H212053   1.114   4.172  11.923  0.3038  1.1139 -2.5350
  815MPD2    H312054   0.935   4.268  12.067  2.6938 -0.9610  0.9598
  815MPD2     N12055   0.652   3.932  11.949  0.0006 -0.4339  0.2457
  815MPD2    H512056   0.636   3.865  11.874 -0.6521 -1.3869  1.2280
  815MPD2    N112057   1.097   3.956  11.780 -0.5369  0.1224 -0.6132
  815MPD2    H712058   1.190   3.997  11.772  0.3880 -2.1407 -1.3344
  816MPD2     C12059   0.879   3.151  17.419  0.1224 -0.4674  0.1287
  816MPD2    C112060   0.993   3.218  17.457  0.0408 -0.4581 -0.3867
  816MPD2    C212061   1.115   3.180  17.400  0.1898 -0.1623  0.6052
  816MPD2    C312062   1.126   3.075  17.312  0.2758 -0.4454 -0.0515
  816MPD2    C412063   1.013   2.995  17.300 -1.0859 -0.7826  0.3008
  816MPD2    C512064   0.895   3.039  17.348  0.1907 -0.0040  0.0231
  816MPD2     H12065   1.205   3.234  17.426  0.7687 -1.4178  1.2363
  816MPD2    H112066   1.016   2.907  17.237  1.2925 -0.6646  0.2318
  816MPD2    H212067   0.782   3.183  17.457 -0.1735 -2.8649  1.3949
  816MPD2    H312068   0.817   2.966  17.330  0.9311 -1.6146  3.4887
  816MPD2     N12069   1.241   3.061  17.236 -0.2404  0.0784 -0.5026
  816MPD2    H512070   1.311   3.134  17.239  0.2410 -0.4029 -0.2326
  816MPD2    N112071   0.980   3.336  17.532  0.2349  0.3789  0.0968
  816MPD2    H712072   0.886   3.369  17.550 -0.3799 -0.6122 -1.2917
  817MPD2     C12073   1.094   0.649  10.508  0.0504 -0.5989  0.3564
  817MPD2    C112074   1.180   0.732  10.444  0.2083 -0.0087 -0.0487
  817MPD2    C212075   1.138   0.844  10.374  0.2274 -0.1714 -0.3387
  817MPD2    C312076   1.006   0.880  10.374 -0.0015 -0.3244 -0.9212
  817MPD2    C412077   0.915   0.801  10.445 -0.3690  1.2345 -0.2241
  817MPD2    C512078   0.958   0.686  10.507  0.0522  0.9121  0.2804
  817MPD2     H12079   1.206   0.910  10.321  1.8796  0.5099  2.6172
  817MPD2    H112080   0.814   0.837  10.462 -1.1371 -0.7920 -0.3911
  817MPD2    H212081   1.121   0.557  10.558 -2.6028 -0.9045  1.2423
  817MPD2    H312082   0.882   0.620  10.548  0.3090  1.1293  1.1066
  817MPD2     N12083   0.963   0.997  10.306  0.4381 -0.1437 -0.3192
  817MPD2    H512084   1.038   1.042  10.256  1.4610 -0.0890  1.2799
  817MPD2    N112085   1.320   0.702  10.435  0.3028 -0.1665 -0.2097
  817MPD2    H712086   1.380   0.758  10.377 -1.4132  0.3003 -1.5455
  818MPD2     C12087   4.628   0.411   9.689  0.6116 -0.4634  0.2111
  818MPD2    C112088   4.535   0.310   9.682  0.5570 -0.5426  0.1882
  818MPD2    C212089   4.587   0.184   9.651 -1.0585 -0.2943 -0.6198
  818MPD2    C312090   4.729   0.161   9.644  1.0093 -0.4070 -0.0537
  818MPD2    C412091   0.080   0.266   9.653  0.0487 -0.2803  0.1566
  818MPD2    C512092   0.026   0.384   9.669 -0.9633  0.1235  0.0394
  818MPD2     H12093   4.516   0.103   9.647  0.1690 -1.4364  0.8544
  818MPD2    H112094   0.187   0.246   9.646  0.3730  0.7222  2.2648
  818MPD2    H212095   4.595   0.511   9.713  1.1421 -0.3946  0.6625
  818MPD2    H312096   0.088   0.472   9.666 -0.0110 -0.5348  0.3723
  818MPD2     N12097   0.044   0.035   9.620  0.0927  0.3699 -0.5116
  818MPD2    H512098   0.145   0.030   9.622  0.1710  1.5573 -1.5583
  818MPD2    N112099   4.394   0.317   9.711 -0.1502  0.0612 -0.0143
  818MPD2    H712100   4.344   0.229   9.703  1.3411 -0.9143  1.2886
  819MPD2     C12101   2.271   1.722  15.657 -0.3639 -0.5212 -0.5968
  819MPD2    C112102   2.307   1.591  15.627 -0.3982 -0.6440 -0.2904
  819MPD2    C212103   2.417   1.533  15.684 -0.2962  0.2213  0.2402
  819MPD2    C312104   2.486   1.603  15.778  0.0754  0.1069  0.0400
  819MPD2    C412105   2.449   1.739  15.806 -0.3617  0.4557  0.4279
  819MPD2    C512106   2.340   1.791  15.751  0.0696  0.2466 -0.2554
  819MPD2     H12107   2.460   1.440  15.649 -2.6165  0.0214 -2.0815
  819MPD2    H112108   2.503   1.789  15.885  1.7234  0.2998 -0.8859
  819MPD2    H212109   2.192   1.774  15.604 -0.2155  0.0755 -0.2364
  819MPD2    H312110   2.308   1.892  15.774  0.0553  0.1349  0.2098
  819MPD2     N12111   2.616   1.544  15.814 -0.2066 -0.1025  0.5600
  819MPD2    H512112   2.630   1.448  15.782 -0.7322 -0.3299  1.0042
  819MPD2    N112113   2.220   1.527  15.534  0.7418  0.2815  0.1228
  819MPD2    H712114   2.155   1.590  15.489  0.2994 -0.3380 -0.0979
  820MPD2     C12115   1.641   1.815  14.880  0.4428 -0.1830 -0.3995
  820MPD2    C112116   1.765   1.838  14.938  0.4692  0.3185  0.0585
  820MPD2    C212117   1.826   1.731  15.000  0.2923 -0.0475 -0.1397
  820MPD2    C312118   1.761   1.608  15.012 -0.3981  0.6308  0.4668
  820MPD2    C412119   1.633   1.597  14.969 -0.9564  0.5158  0.2988
  820MPD2    C512120   1.574   1.698  14.901  0.5588  0.2795 -0.1084
  820MPD2     H12121   1.916   1.747  15.059 -0.4242 -1.1355  1.2460
  820MPD2    H112122   1.574   1.508  14.986  0.6087 -1.0031 -2.2389
  820MPD2    H212123   1.587   1.890  14.823  0.7395 -1.2244 -2.0306
  820MPD2    H312124   1.475   1.690  14.856  0.3431 -0.2142  0.4564
  820MPD2     N12125   1.818   1.504  15.099  0.6144  0.3293  0.0163
  820MPD2    H512126   1.755   1.430  15.131 -1.1109  0.6394 -2.6111
  820MPD2    N112127   1.804   1.977  14.946  0.2316  0.2475 -0.5015
  820MPD2    H712128   1.743   2.039  14.894  2.1326  1.1206 -1.7203
  821MPD2     C12129   2.632   3.155  12.807  0.0507 -0.2160 -0.2312
  821MPD2    C112130   2.704   3.071  12.883  0.1335 -0.5579  0.7755
  821MPD2    C212131   2.841   3.092  12.892  0.2562 -0.7503 -0.3439
  821MPD2    C312132   2.909   3.193  12.825 -0.3537  0.4980  0.0829
  821MPD2    C412133   2.838   3.269  12.740 -0.2651 -0.0149 -0.3721
  821MPD2    C512134   2.702   3.253  12.735  0.8764  0.2835 -0.6356
  821MPD2     H12135   2.900   3.043  12.969  0.1759  0.8302  0.7394
  821MPD2    H112136   2.885   3.357  12.698 -1.6089  1.1663  0.6037
  821MPD2    H212137   2.525   3.146  12.796  0.3374 -0.9231 -2.5429
  821MPD2    H312138   2.661   3.327  12.668  0.6284  1.1250  0.4503
  821MPD2     N12139   3.049   3.211  12.836  0.2386 -0.8685  0.1046
  821MPD2    H512140   3.088   3.298  12.800  1.4910 -2.3158 -2.0450
  821MPD2    N112141   2.656   2.968  12.966 -0.3863 -0.5053  0.5925
  821MPD2    H712142   2.725   2.933  13.032  0.4092  1.2947  0.6998
  822MPD2     C12143   3.261   3.017  15.929 -0.7375  0.2859  0.3188
  822MPD2    C112144   3.281   3.001  16.072 -0.3569  0.3921  0.2775
  822MPD2    C212145   3.196   3.069  16.155  0.0199  0.3445  0.7643
  822MPD2    C312146   3.099   3.158  16.111 -0.1608  0.1546  0.0648
  822MPD2    C412147   3.087   3.174  15.974  0.7250 -0.7489 -0.0870
  822MPD2    C512148   3.157   3.095  15.888 -0.0516  0.0402  0.3459
  822MPD2     H12149   3.219   3.054  16.260  3.2418 -1.3329 -0.1784
  822MPD2    H112150   3.019   3.249  15.934  0.8215 -0.2747  0.6244
  822MPD2    H212151   3.323   2.968  15.854 -0.0400 -0.4273  1.3490
  822MPD2    H312152   3.142   3.106  15.782  0.8798  2.4957  0.4527
  822MPD2     N12153   3.042   3.246  16.205 -0.0228  0.2141  0.7009
  822MPD2    H512154   3.079   3.237  16.299  0.8754 -1.0187  0.2268
  822MPD2    N112155   3.378   2.919  16.131  0.1982 -0.1517 -0.1065
  822MPD2    H712156   3.365   2.909  16.231 -3.7030  1.2663 -0.4937
  823MPD2     C12157   2.857   3.365  17.014  0.2004  0.1721  0.8281
  823MPD2    C112158   2.868   3.286  16.900 -0.1463 -0.0069  0.2160
  823MPD2    C212159   2.909   3.146  16.906 -0.2151  0.1746  0.9123
  823MPD2    C312160   2.934   3.098  17.033  0.8326  0.3338 -0.5650
  823MPD2    C412161   2.900   3.170  17.145 -0.1872  0.2593  0.5225
  823MPD2    C512162   2.863   3.305  17.137  0.7934 -0.1163  0.0357
  823MPD2     H12163   2.918   3.085  16.817  1.5870  0.4786  0.8865
  823MPD2    H112164   2.905   3.122  17.243  0.0199 -1.8134 -0.5055
  823MPD2    H212165   2.828   3.469  17.001  2.3442  0.4923 -1.4049
  823MPD2    H312166   2.857   3.368  17.225 -3.2208  1.9791 -1.7021
  823MPD2     N12167   2.979   2.967  17.055 -0.7799 -0.3677 -0.4450
  823MPD2    H512168   2.966   2.922  17.145 -0.9361  0.4948 -0.0308
  823MPD2    N112169   2.840   3.349  16.785  0.1128  0.1342 -0.2714
  823MPD2    H712170   2.836   3.451  16.785 -0.0756  0.1302 -0.8458
  824MPD2     C12171   3.910   2.270  15.991 -0.2158 -0.0015 -0.0129
  824MPD2    C112172   3.859   2.388  15.931 -0.8153 -0.4760  0.3266
  824MPD2    C212173   3.865   2.407  15.794 -0.3778  0.0635 -0.5741
  824MPD2    C312174   3.918   2.310  15.712  0.4675 -0.0044 -0.1935
  824MPD2    C412175   3.954   2.186  15.767 -0.2150 -0.8013  0.1033
  824MPD2    C512176   3.954   2.171  15.908 -0.2984  0.2806 -0.3541
  824MPD2     H12177   3.826   2.496  15.746 -0.2641  0.9375  0.9480
  824MPD2    H112178   3.989   2.100  15.712  1.2681  1.0698 -1.9066
  824MPD2    H212179   3.891   2.245  16.095 -0.8930 -1.7453 -0.5542
  824MPD2    H312180   3.977   2.075  15.952  0.1337  0.9839  0.9844
  824MPD2     N12181   3.911   2.332  15.572 -0.4299 -0.0441 -0.1783
  824MPD2    H512182   3.877   2.421  15.540  0.9084  0.8029  0.7496
  824MPD2    N112183   3.806   2.500  15.999 -0.2514  0.1191 -0.6827
  824MPD2    H712184   3.769   2.577  15.945 -1.4786 -1.2507 -1.7965
  825MPD2     C12185   4.482   2.746  15.117 -0.3753 -1.0292 -0.4936
  825MPD2    C112186   4.366   2.738  15.190  0.0782  0.5297 -0.9621
  825MPD2    C212187   4.335   2.846  15.276  0.4600  0.0491 -0.1126
  825MPD2    C312188   4.411   2.958  15.286  0.5367  0.9802  0.2133
  825MPD2    C412189   4.527   2.959  15.217 -0.3058  0.3888 -0.2159
  825MPD2    C512190   4.569   2.854  15.134 -0.5786 -0.3850 -0.2374
  825MPD2     H12191   4.245   2.849  15.337 -0.7860 -1.1737 -1.9021
  825MPD2    H112192   4.599   3.039  15.230 -1.5501  1.3360  0.9363
  825MPD2    H212193   4.505   2.667  15.047  1.8470 -0.7152 -0.0974
  825MPD2    H312194   4.666   2.855  15.084  1.0446 -0.0610  2.9120
  825MPD2     N12195   4.363   3.060  15.375  0.9771 -0.0426  0.5943
  825MPD2    H512196   4.269   3.063  15.414  0.5774  0.6266 -0.4142
  825MPD2    N112197   4.291   2.616  15.191 -0.0557 -0.2023 -0.0591
  825MPD2    H712198   4.336   2.537  15.146 -1.6886 -0.1860 -1.7652
  826MPD2     C12199   4.165   2.718  13.418  0.5819  0.1597  0.6495
  826MPD2    C112200   4.061   2.631  13.432  0.2718  0.4664 -0.0270
  826MPD2    C212201   3.937   2.694  13.440 -0.1854 -0.0662 -0.0371
  826MPD2    C312202   3.928   2.832  13.446  0.8690 -0.5652  0.1005
  826MPD2    C412203   4.036   2.910  13.429 -0.5464  0.3286  0.5763
  826MPD2    C512204   4.151   2.851  13.416  1.3236 -0.2687  0.4932
  826MPD2     H12205   3.848   2.633  13.451 -1.0782  0.9234 -1.6845
  826MPD2    H112206   4.039   3.018  13.421 -1.4228  0.3512  0.6131
  826MPD2    H212207   4.266   2.679  13.405  0.9936  1.3884  0.1243
  826MPD2    H312208   4.233   2.922  13.412  2.1758 -1.2603  0.2617
  826MPD2     N12209   3.809   2.902  13.454 -0.0516 -0.0165  0.0255
  826MPD2    H512210   3.820   3.003  13.459 -2.7490  0.3092 -0.5117
  826MPD2    N112211   4.086   2.491  13.424  0.0378 -0.3838  0.8666
  826MPD2    H712212   4.183   2.473  13.401 -0.1381 -1.1204  0.6776
  827MPD2     C12213   0.232   3.483   9.924  0.3777 -0.0815 -0.0332
  827MPD2    C112214   0.200   3.441  10.049 -0.6221 -0.0612  0.3194
  827MPD2    C212215   0.081   3.382  10.073  0.1700  0.0898  0.0134
  827MPD2    C312216   4.726   3.370   9.975 -0.3172 -0.2769 -0.9667
  827MPD2    C412217   0.015   3.432   9.852  0.1875 -0.1709 -0.1666
  827MPD2    C512218   0.137   3.481   9.823  0.1228  0.0595  0.3739
  827MPD2     H12219   0.056   3.351  10.174  1.2271 -0.9638 -0.0349
  827MPD2    H112220   4.686   3.428   9.765  1.1117 -0.9728 -0.8105
  827MPD2    H212221   0.331   3.524   9.915  0.3573  0.1702  0.8783
  827MPD2    H312222   0.164   3.525   9.728 -1.3069  1.5369  0.6547
  827MPD2     N12223   4.604   3.294  10.001  0.5330 -0.1466 -0.0872
  827MPD2    H512224   4.594   3.263  10.097  0.4778 -1.5147 -0.5245
  827MPD2    N112225   0.295   3.461  10.151 -0.3272  0.3463  0.2212
  827MPD2    H712226   0.365   3.532  10.130  0.8333 -0.5963  0.8750
  828MPD2     C12227   3.401   3.808  12.087  0.2030 -0.4346 -0.1599
  828MPD2    C112228   3.289   3.863  12.027  0.0619 -1.2636 -0.0014
  828MPD2    C212229   3.281   3.867  11.893  0.3640 -0.3116 -0.4272
  828MPD2    C312230   3.374   3.799  11.814 -0.0454 -0.5248 -0.2945
  828MPD2    C412231   3.484   3.741  11.876  0.0181  0.3538  0.6524
  828MPD2    C512232   3.502   3.759  12.016  0.4253  0.0669  0.2530
  828MPD2     H12233   3.195   3.918  11.851  0.7932  2.0467  1.5647
  828MPD2    H112234   3.559   3.685  11.822  1.4157  2.3409  0.5190
  828MPD2    H212235   3.406   3.792  12.194  2.5699  1.9390  0.0881
  828MPD2    H312236   3.580   3.707  12.070 -0.8157 -0.0349  1.9340
  828MPD2     N12237   3.358   3.770  11.673  0.3376 -0.0009 -0.7562
  828MPD2    H512238   3.424   3.710  11.626  1.2302  0.7876 -0.5162
  828MPD2    N112239   3.187   3.931  12.095 -0.2499 -0.6625  0.2238
  828MPD2    H712240   3.096   3.946  12.052  0.4655 -1.1791 -1.4518
  829MPD2     C12241   2.557   4.277  11.686 -0.0885  1.2651  0.7787
  829MPD2    C112242   2.490   4.227  11.799  0.2839  0.4050  0.4193
  829MPD2    C212243   2.560   4.192  11.910  0.2633 -0.5141  0.6044
  829MPD2    C312244   2.700   4.212  11.914 -0.1353  0.4848  0.5771
  829MPD2    C412245   2.766   4.265  11.805  0.3959  0.2993  0.0851
  829MPD2    C512246   2.688   4.297  11.693 -0.8742  0.0997 -0.1435
  829MPD2     H12247   2.513   4.173  12.006  1.0541  2.4615  1.5908
  829MPD2    H112248   2.874   4.278  11.803  0.4870 -0.0141  2.5585
  829MPD2    H212249   2.503   4.299  11.595 -1.2732  1.1816  1.4584
  829MPD2    H312250   2.745   4.343  11.613 -0.6238  0.5038  0.2629
  829MPD2     N12251   2.780   4.186  12.027 -0.0525 -0.1094 -0.4642
  829MPD2    H512252   2.878   4.211  12.024 -0.3090  0.6542 -2.1476
  829MPD2    N112253   2.349   4.213  11.788 -0.1993 -0.2671  0.1177
  829MPD2    H712254   2.298   4.220  11.700  0.5593 -0.6951 -0.3511
  830MPD2     C12255   2.880   1.201  15.375 -0.3786 -0.0377  0.0918
  830MPD2    C112256   2.978   1.234  15.470  0.3182 -0.5308  0.0741
  830MPD2    C212257   3.100   1.276  15.427  0.3376 -0.1215  0.1940
  830MPD2    C312258   3.130   1.296  15.292 -0.2570 -0.3548 -0.0920
  830MPD2    C412259   3.040   1.250  15.198 -0.6259 -0.0618  0.4191
  830MPD2    C512260   2.913   1.203  15.240  0.9549  0.8298  0.8379
  830MPD2     H12261   3.167   1.310  15.506  3.5969 -0.3490 -2.5008
  830MPD2    H112262   3.062   1.253  15.092 -2.8695  2.7704  0.0476
  830MPD2    H212263   2.784   1.160  15.405  0.5651 -0.2342  2.8331
  830MPD2    H312264   2.830   1.185  15.174  0.7235  2.2527  0.7276
  830MPD2     N12265   3.242   1.369  15.242 -0.1270  0.0869  0.0047
  830MPD2    H512266   3.244   1.371  15.141  0.5270  1.9916  0.0612
  830MPD2    N112267   2.931   1.242  15.604  0.1106  0.1077 -0.1091
  830MPD2    H712268   2.834   1.215  15.618  0.0169 -0.1018 -1.1728
  831MPD2     C12269   3.278   3.359  16.515 -0.2149  0.6204 -0.4056
  831MPD2    C112270   3.342   3.263  16.440  0.2173 -0.1467  0.3551
  831MPD2    C212271   3.324   3.124  16.470 -0.3186 -0.7817  0.6412
  831MPD2    C312272   3.218   3.089  16.554  0.4810 -0.2057 -0.2202
  831MPD2    C412273   3.161   3.187  16.634  0.1210 -0.0645 -0.3215
  831MPD2    C512274   3.194   3.317  16.615 -0.6805  0.5017  0.6409
  831MPD2     H12275   3.390   3.059  16.415  0.6759 -0.5661  1.5703
  831MPD2    H112276   3.091   3.158  16.711 -0.6030 -0.4465 -1.1230
  831MPD2    H212277   3.304   3.464  16.502  1.3500  0.2879  0.0328
  831MPD2    H312278   3.151   3.384  16.689  0.0050  0.4615  1.0749
  831MPD2     N12279   3.169   2.957  16.559  0.0740  0.3500  0.3228
  831MPD2    H512280   3.094   2.933  16.623  1.2336 -2.2949  0.6830
  831MPD2    N112281   3.430   3.299  16.331 -0.2173 -0.0007 -0.1446
  831MPD2    H712282   3.421   3.395  16.298  0.6501  0.7323  1.7597
  832MPD2     C12283   1.860   4.364   0.058  0.2441 -0.6627  0.2865
  832MPD2    C112284   1.820   4.496   0.079  0.9300  0.5408  0.4860
  832MPD2    C212285   1.724   4.553  17.738 -0.1915  0.1175 -0.3264
  832MPD2    C312286   1.676   4.479  17.627  1.0135 -0.2698 -0.3238
  832MPD2    C412287   1.715   4.346  17.618  0.2700 -0.2522 -0.5034
  832MPD2    C512288   1.807   4.286  17.703 -0.4479  0.8587  0.2163
  832MPD2     H12289   1.696   4.658  17.737  2.8147  0.8849 -1.1447
  832MPD2    H112290   1.675   4.276  17.545  1.1390 -2.1561  0.8653
  832MPD2    H212291   1.932   4.327   0.131  2.2339  0.4220 -1.1179
  832MPD2    H312292   1.843   4.184  17.692  0.5788  1.2661 -0.1358
  832MPD2     N12293   1.578   4.518  17.538  0.6968  0.1075 -0.0206
  832MPD2    H512294   1.535   4.451  17.475 -2.5787 -0.0891  2.4193
  832MPD2    N112295   1.892   4.558   0.179  0.6271 -0.3745 -0.6713
  832MPD2    H712296   1.971   4.509   0.220 -0.0477 -0.7994  0.1283
  833MPD2     C12297   3.717   0.698  12.329 -0.3848 -0.0572 -0.1002
  833MPD2    C112298   3.829   0.777  12.315  1.1553 -0.6540 -0.7239
  833MPD2    C212299   3.861   0.818  12.188  0.5563  0.8113 -0.1040
  833MPD2    C312300   3.785   0.797  12.075 -0.1345 -0.4043  0.5114
  833MPD2    C412301   3.670   0.724  12.086 -0.1232  0.2778 -0.2898
  833MPD2    C512302   3.641   0.677  12.213 -0.0461 -0.5311 -0.3152
  833MPD2     H12303   3.949   0.880  12.177 -0.8485  2.5494 -1.5848
  833MPD2    H112304   3.600   0.703  12.006  0.1147  3.2133 -1.2671
  833MPD2    H212305   3.693   0.662  12.428  0.9359 -2.3086 -0.6033
  833MPD2    H312306   3.543   0.634  12.225 -0.4617  0.7404  0.8520
  833MPD2     N12307   3.838   0.854  11.955 -0.7735 -0.7543 -0.2442
  833MPD2    H512308   3.919   0.915  11.967  0.3251 -1.9261 -1.8330
  833MPD2    N112309   3.898   0.826  12.432 -0.5055 -0.2130  0.1809
  833MPD2    H712310   3.867   0.798  12.524  1.0811  2.9945  1.6882
  834MPD2     C12311   4.194   0.349  11.222 -0.2180 -0.5561  0.2063
  834MPD2    C112312   4.076   0.408  11.186  0.4764 -0.4269 -0.1936
  834MPD2    C212313   4.036   0.519  11.268  0.8763  0.1525 -0.0456
  834MPD2    C312314   4.116   0.571  11.370 -0.3558  0.0491  0.4337
  834MPD2    C412315   4.238   0.510  11.392 -0.8124 -0.6226  0.1355
  834MPD2    C512316   4.279   0.407  11.320 -0.0398 -0.6404 -0.4948
  834MPD2     H12317   3.939   0.565  11.254 -0.0828 -1.6080  0.9380
  834MPD2    H112318   4.307   0.547  11.467 -2.2677 -1.0879  1.7089
  834MPD2    H212319   4.236   0.264  11.169 -0.8606 -0.5809 -0.2732
  834MPD2    H312320   4.370   0.363  11.358 -1.4314 -3.4603 -0.4528
  834MPD2     N12321   4.070   0.676  11.444 -0.2578  0.1550  0.0378
  834MPD2    H512322   3.976   0.708  11.421 -0.2548 -0.1436 -0.4002
  834MPD2    N112323   3.999   0.360  11.081  0.0848  0.3826 -0.1159
  834MPD2    H712324   4.045   0.289  11.025  2.5714 -0.3047  2.8102
  835MPD2     C12325   4.351   3.754  10.729 -0.2883  0.3894 -0.9315
  835MPD2    C112326   4.241   3.745  10.810 -0.0800  0.1860 -0.1388
  835MPD2    C212327   4.256   3.692  10.939  0.2978 -0.2009  0.2972
  835MPD2    C312328   4.376   3.660  10.988  0.1166  0.5442  0.7669
  835MPD2    C412329   4.488   3.685  10.912 -0.6174 -0.3270 -0.4834
  835MPD2    C512330   4.472   3.727  10.782 -0.1465  0.0221  0.3150
  835MPD2     H12331   4.167   3.689  11.001 -0.1682 -1.9614 -0.4592
  835MPD2    H112332   4.589   3.661  10.943 -0.8604  0.8848  1.2173
  835MPD2    H212333   4.345   3.788  10.626 -1.2062 -0.5541 -1.1846
  835MPD2    H312334   4.560   3.734  10.718  1.4166 -0.4824  2.4165
  835MPD2     N12335   4.400   3.596  11.113  0.4538  0.5078  0.8738
  835MPD2    H512336   4.499   3.585  11.133 -0.0169 -0.7060  2.5205
  835MPD2    N112337   4.116   3.796  10.770  0.6790 -0.9762 -0.3736
  835MPD2    H712338   4.033   3.777  10.826  1.3129 -0.0564  0.8667
  836MPD2     C12339   3.863   3.762  11.498  0.6645 -0.4103  0.0629
  836MPD2    C112340   3.965   3.725  11.595 -0.7151 -0.0933  0.3739
  836MPD2    C212341   3.942   3.763  11.726  0.7134 -0.4820  0.6449
  836MPD2    C312342   3.827   3.826  11.767  0.3039  0.0450  0.3878
  836MPD2    C412343   3.723   3.855  11.671 -0.3767 -0.6751 -0.4825
  836MPD2    C512344   3.746   3.826  11.539 -0.9226 -0.0852  0.6049
  836MPD2     H12345   4.023   3.753  11.797 -0.1940 -2.0946  1.4707
  836MPD2    H112346   3.628   3.899  11.699  0.0199  0.3353 -0.7330
  836MPD2    H212347   3.862   3.740  11.392  1.4252 -2.6265  0.5141
  836MPD2    H312348   3.672   3.846  11.461  1.7411 -2.1781 -2.4725
  836MPD2     N12349   3.791   3.863  11.897 -0.9259  0.0655  0.4820
  836MPD2    H512350   3.698   3.901  11.911 -0.8911  0.5670 -0.6281
  836MPD2    N112351   4.075   3.650  11.544  0.0831  0.6005  0.3744
  836MPD2    H712352   4.070   3.618  11.448  2.4289  0.9239  0.1468
  837MPD2     C12353   1.979   3.148   9.961 -0.0294  0.3101 -0.2258
  837MPD2    C112354   1.876   3.174   9.871 -0.0323  0.0305 -1.3472
  837MPD2    C212355   1.856   3.295   9.820 -0.1242 -0.2701 -0.0090
  837MPD2    C312356   1.959   3.394   9.838 -0.2076 -0.0839 -0.1797
  837MPD2    C412357   2.071   3.368   9.917  0.5166  0.4021 -0.3209
  837MPD2    C512358   2.067   3.248   9.985  0.1249  0.3581 -0.4002
  837MPD2     H12359   1.771   3.315   9.756 -0.5086  0.6766  0.7932
  837MPD2    H112360   2.141   3.443   9.951 -0.6199  0.9095  0.9020
  837MPD2    H212361   1.992   3.050  10.005 -0.7846 -0.0251 -0.7495
  837MPD2    H312362   2.158   3.225  10.039 -2.2955 -0.3371  3.3089
  837MPD2     N12363   1.940   3.524   9.774  0.3906 -0.1389 -0.0926
  837MPD2    H512364   1.850   3.532   9.727 -0.8189 -0.6157  2.0812
  837MPD2    N112365   1.789   3.068   9.842 -0.4257 -0.0553 -0.1579
  837MPD2    H712366   1.795   2.984   9.899 -0.2926  0.3884  0.4779
  838MPD2     C12367   0.879   2.088  12.147 -0.3321  0.8237  0.2325
  838MPD2    C112368   0.772   2.018  12.082  0.4689  0.4499  0.3458
  838MPD2    C212369   0.672   1.970  12.165 -0.2315  0.1853 -0.1695
  838MPD2    C312370   0.684   1.981  12.306  0.3781  0.0454  0.1702
  838MPD2    C412371   0.793   2.038  12.363  0.8105 -0.3874 -0.3227
  838MPD2    C512372   0.890   2.090  12.278  0.2214  0.0068 -0.1644
  838MPD2     H12373   0.588   1.911  12.129 -0.8896  0.6372  0.6138
  838MPD2    H112374   0.799   2.060  12.469  2.5539 -0.1997 -0.4689
  838MPD2    H212375   0.959   2.127  12.083 -1.1804  0.4554 -1.0525
  838MPD2    H312376   0.971   2.144  12.325 -0.9449  1.1791  0.4847
  838MPD2     N12377   0.576   1.928  12.382 -0.2244 -0.0850  0.1772
  838MPD2    H512378   0.497   1.900  12.324 -0.0755 -0.1992  0.0320
  838MPD2    N112379   0.784   2.000  11.942 -0.1521 -0.6243 -0.2879
  838MPD2    H712380   0.875   2.006  11.899  1.3437  0.1544  3.0052
  839MPD2     C12381   0.709   1.116  11.336  0.3031  0.6014  0.2848
  839MPD2    C112382   0.600   1.185  11.393  0.4026  0.5085 -0.1433
  839MPD2    C212383   0.611   1.319  11.425 -0.2311  0.3039 -0.6829
  839MPD2    C312384   0.729   1.392  11.408  0.5090 -0.2652 -0.0167
  839MPD2    C412385   0.831   1.316  11.354 -1.4678  0.0144 -0.4214
  839MPD2    C512386   0.826   1.181  11.320 -0.2827 -0.1646 -0.4170
  839MPD2     H12387   0.526   1.366  11.474  0.6786  2.3256 -1.0314
  839MPD2    H112388   0.925   1.369  11.359 -1.1459 -0.4293 -1.6199
  839MPD2    H212389   0.688   1.020  11.290 -0.8536  0.0741  1.9561
  839MPD2    H312390   0.911   1.130  11.276  0.6998  0.6362  0.5431
  839MPD2     N12391   0.752   1.528  11.442  0.4579  0.2159 -0.2973
  839MPD2    H512392   0.845   1.563  11.421 -0.4378  2.7357 -0.0062
  839MPD2    N112393   0.472   1.131  11.422 -0.2869  0.0215 -0.3523
  839MPD2    H712394   0.405   1.184  11.476 -1.5851 -0.3472 -1.5877
  840MPD2     C12395   0.697   3.927  10.195  0.4510 -0.3454  0.2756
  840MPD2    C112396   0.696   3.882  10.324  0.1276 -0.3725  0.5191
  840MPD2    C212397   0.781   3.936  10.419  0.0632 -0.1988 -0.1246
  840MPD2    C312398   0.863   4.045  10.391  0.0399  0.2530  0.0737
  840MPD2    C412399   0.856   4.095  10.261  0.5706  0.2683 -0.8910
  840MPD2    C512400   0.774   4.033  10.168  0.1173 -0.2582  0.0803
  840MPD2     H12401   0.791   3.902  10.521  1.5396  0.3923 -0.0754
  840MPD2    H112402   0.919   4.174  10.221 -0.7869  0.4903 -2.5971
  840MPD2    H212403   0.636   3.888  10.113 -2.8940  2.1296  1.6106
  840MPD2    H312404   0.768   4.072  10.067 -3.6898 -0.3845  0.2470
  840MPD2     N12405   0.957   4.107  10.483 -1.2841 -0.4894 -0.4147
  840MPD2    H512406   1.004   4.189  10.446 -2.9133  0.9099  0.6415
  840MPD2    N112407   0.614   3.768  10.351 -0.1397 -0.0591 -0.2744
  840MPD2    H712408   0.562   3.722  10.277 -2.1214  0.1422  1.0191
  841MPD2     C12409   0.671   3.501  14.428 -0.2251  0.5630 -0.2515
  841MPD2    C112410   0.654   3.637  14.455 -0.3697  0.2362 -0.4564
  841MPD2    C212411   0.739   3.694  14.544  0.6506  0.0692  0.1213
  841MPD2    C312412   0.845   3.628  14.600 -0.1692 -0.6661  0.6155
  841MPD2    C412413   0.861   3.496  14.570  0.2315  0.1078 -0.6387
  841MPD2    C512414   0.772   3.437  14.489  0.2630  0.4790  0.3062
  841MPD2     H12415   0.735   3.800  14.568  0.7666 -0.3313  1.9308
  841MPD2    H112416   0.948   3.441  14.605  1.3091  2.0318 -0.2244
  841MPD2    H212417   0.602   3.434  14.378  0.3470  0.0388 -0.3347
  841MPD2    H312418   0.787   3.330  14.480 -1.2477  0.2419  0.6137
  841MPD2     N12419   0.926   3.699  14.690  0.5883 -0.2926  0.3621
  841MPD2    H512420   0.905   3.798  14.694 -1.3538 -0.6142 -1.4625
  841MPD2    N112421   0.552   3.716  14.399 -0.1193 -0.5165  0.4236
  841MPD2    H712422   0.552   3.812  14.431  0.4209 -0.3508 -0.0741
  842MPD2     C12423   0.960   4.726  17.058  0.2754 -0.0518 -0.7122
  842MPD2    C112424   0.866   0.010  16.963 -0.6875 -0.0592  0.1438
  842MPD2    C212425   0.730   4.719  17.007 -0.3109  0.0717 -0.1020
  842MPD2    C312426   0.707   4.656  17.127 -0.0310  0.1070  0.0144
  842MPD2    C412427   0.804   4.636  17.213 -0.3962  0.2807 -0.6036
  842MPD2    C512428   0.928   4.677  17.180  0.2631  0.3171  0.4020
  842MPD2     H12429   0.638   0.008  16.955 -0.5162  0.3871  0.4140
  842MPD2    H112430   0.783   4.593  17.310  0.4824  0.6684 -0.2342
  842MPD2    H212431   1.062   0.001  17.024  0.2555  2.7481  0.1307
  842MPD2    H312432   1.010   4.664  17.250 -0.3430  1.1056  1.2554
  842MPD2     N12433   0.575   4.632  17.159 -0.3480 -0.4123  0.6839
  842MPD2    H512434   0.508   4.643  17.083 -0.3931 -0.6442  0.6894
  842MPD2    N112435   0.898   0.045  16.834 -0.4414 -0.3496 -0.1401
  842MPD2    H712436   0.996   0.062  16.814 -0.6747  1.7924  0.5663
  843MPD2     C12437   2.603   0.528   0.276  0.2954  0.2333 -0.4218
  843MPD2    C112438   2.718   0.455   0.263 -0.5060 -0.3830 -0.1573
  843MPD2    C212439   2.840   0.521   0.273  0.4007 -0.2212 -0.2309
  843MPD2    C312440   2.847   0.659   0.267 -0.4789  0.0717  0.3884
  843MPD2    C412441   2.733   0.731   0.276  0.4811  0.9037 -0.4099
  843MPD2    C512442   2.610   0.665   0.282 -0.1058  0.0467 -0.0513
  843MPD2     H12443   2.933   0.467   0.278 -0.0597 -0.7910  1.8482
  843MPD2    H112444   2.723   0.839   0.278  0.2313  0.8633  0.8277
  843MPD2    H212445   2.502   0.488   0.275  0.3569  0.0720 -0.1423
  843MPD2    H312446   2.517   0.722   0.282  0.8575  1.6234  1.3921
  843MPD2     N12447   2.971   0.732   0.264  0.3349 -0.2899 -0.4325
  843MPD2    H512448   2.968   0.831   0.288  0.3780 -1.0792  2.8295
  843MPD2    N112449   2.702   0.318   0.242 -0.2051 -0.3320  0.1029
  843MPD2    H712450   2.606   0.288   0.236 -0.6181  1.3604 -1.7392
  844MPD2     C12451   1.511   4.244  17.117  0.8297 -0.6051  0.1355
  844MPD2    C112452   1.494   4.295  16.994  0.4316  0.1772  0.1577
  844MPD2    C212453   1.559   4.416  16.965 -0.0698 -0.0949 -0.4302
  844MPD2    C312454   1.622   4.494  17.067  1.0120 -0.4380  0.3803
  844MPD2    C412455   1.623   4.444  17.195  0.1294  0.3382 -0.8591
  844MPD2    C512456   1.569   4.320  17.215  0.4913  0.3912 -1.2312
  844MPD2     H12457   1.568   4.447  16.862 -0.7765  2.0651  0.1463
  844MPD2    H112458   1.678   4.494  17.274 -1.2986  0.9281 -0.2440
  844MPD2    H212459   1.471   4.146  17.139 -1.0365  0.1012 -0.0959
  844MPD2    H312460   1.587   4.272  17.311  0.4081 -0.8302 -1.8217
  844MPD2     N12461   1.701   4.602  17.026  0.5318  0.6927  0.1895
  844MPD2    H512462   1.714   4.627  16.928  2.4273  0.2508  0.3262
  844MPD2    N112463   1.419   4.223  16.899  0.5735  0.1358 -0.7127
  844MPD2    H712464   1.412   4.122  16.907 -1.2079  0.5094  2.5395
  845MPD2     C12465   2.251   0.616  17.481 -0.6420  0.0467  0.0493
  845MPD2    C112466   2.146   0.559  17.533  0.1994 -0.1115 -0.1555
  845MPD2    C212467   2.097   0.448  17.470  0.1083 -0.5860 -1.1163
  845MPD2    C312468   2.154   0.395  17.356 -0.0801  0.1948 -0.6387
  845MPD2    C412469   2.270   0.449  17.308  0.1605  0.5026  0.4633
  845MPD2    C512470   2.316   0.563  17.374  0.4538  0.3455 -0.2324
  845MPD2     H12471   2.009   0.402  17.513 -1.0219  1.1424 -1.5996
  845MPD2    H112472   2.323   0.418  17.219  1.3481 -0.8217  1.6305
  845MPD2    H212473   2.288   0.703  17.534 -0.8673  0.2544 -0.1342
  845MPD2    H312474   2.402   0.623  17.347 -0.3209  1.8288  0.5566
  845MPD2     N12475   2.105   0.277  17.300  0.2105 -0.3863  0.3003
  845MPD2    H512476   2.021   0.236  17.339 -1.0348  3.0262  1.1532
  845MPD2    N112477   2.074   0.625  17.637 -0.0063  0.2186  0.4484
  845MPD2    H712478   2.110   0.714  17.671  0.9931 -0.0078 -0.0135
  846MPD2     C12479   3.177   0.472  14.054  0.9786 -0.5370 -0.3545
  846MPD2    C112480   3.114   0.587  14.012 -0.1821  0.6516  0.3851
  846MPD2    C212481   3.072   0.674  14.108  0.4760 -0.1451  1.2107
  846MPD2    C312482   3.079   0.645  14.241  0.5746 -0.1345 -0.8018
  846MPD2    C412483   3.137   0.524  14.282  0.2707  0.6217 -0.3689
  846MPD2    C512484   3.189   0.444  14.185 -0.0075 -0.4590 -0.5794
  846MPD2     H12485   3.035   0.773  14.084 -1.1668 -1.2091 -0.6241
  846MPD2    H112486   3.135   0.487  14.384  0.7047 -0.7857 -0.8788
  846MPD2    H212487   3.219   0.399  13.985  0.2602 -3.1335  1.9304
  846MPD2    H312488   3.231   0.348  14.213  0.1058 -0.7794 -1.8736
  846MPD2     N12489   3.030   0.739  14.340  0.0311 -0.3739  0.3708
  846MPD2    H512490   2.982   0.821  14.304 -0.7079 -1.1134 -0.3369
  846MPD2    N112491   3.101   0.622  13.875 -0.2210 -0.8639 -0.5022
  846MPD2    H712492   3.066   0.714  13.853  3.3762  0.7475  0.5290
  847MPD2     C12493   3.433   1.436  14.035 -0.4124 -0.3386  0.4557
  847MPD2    C112494   3.488   1.547  14.086 -0.6675  0.8967 -0.7613
  847MPD2    C212495   3.581   1.528  14.190 -0.2217 -0.2088  0.2224
  847MPD2    C312496   3.601   1.407  14.248  0.4205  0.2162 -0.8892
  847MPD2    C412497   3.556   1.294  14.181 -0.3661  0.1719 -0.0917
  847MPD2    C512498   3.480   1.315  14.068 -0.3097 -0.3103 -0.4208
  847MPD2     H12499   3.629   1.614  14.235 -1.1339  0.0588  0.6892
  847MPD2    H112500   3.576   1.194  14.217 -1.1054  0.8759  2.2710
  847MPD2    H212501   3.360   1.442  13.955 -0.4623  1.7761  0.6856
  847MPD2    H312502   3.439   1.224  14.025 -0.0191 -0.3711 -0.5693
  847MPD2     N12503   3.680   1.397  14.360  0.1195 -0.1797  0.5745
  847MPD2    H512504   3.717   1.484  14.399 -1.8131  0.4315  1.0258
  847MPD2    N112505   3.440   1.677  14.070  0.1813  0.1195 -0.6792
  847MPD2    H712506   3.490   1.752  14.116  0.0731 -1.7259  2.4708
  848MPD2     C12507   1.528   0.111  16.818  0.0717  0.8088 -0.5039
  848MPD2    C112508   1.528   0.177  16.937 -0.0828 -0.0552 -0.3909
  848MPD2    C212509   1.594   0.303  16.941 -0.4379 -0.8643 -0.1667
  848MPD2    C312510   1.647   0.353  16.824  0.5227  0.1380  0.3546
  848MPD2    C412511   1.651   0.270  16.716  0.1051  0.3187  0.3692
  848MPD2    C512512   1.602   0.142  16.709 -0.2108  0.3076 -0.8567
  848MPD2     H12513   1.585   0.367  17.028 -2.5073 -0.3973 -0.7231
  848MPD2    H112514   1.696   0.302  16.622 -1.5447  0.3279 -0.4299
  848MPD2    H212515   1.477   0.015  16.810 -1.0558  1.2594  1.4939
  848MPD2    H312516   1.609   0.078  16.622 -0.6830 -0.5999 -0.2251
  848MPD2     N12517   1.716   0.472  16.813 -0.2689 -0.2985 -0.3084
  848MPD2    H512518   1.761   0.491  16.725  2.1306 -2.3072  0.5130
  848MPD2    N112519   1.467   0.129  17.055 -0.4556 -0.2127  0.1167
  848MPD2    H712520   1.473   0.179  17.143  3.6313  1.2085 -0.9918
  849MPD2     C12521   0.798   4.564  13.641 -0.2214 -0.2957 -0.4746
  849MPD2    C112522   0.830   4.443  13.695  0.3823  0.5551 -0.3095
  849MPD2    C212523   0.751   4.383  13.795 -0.1643  0.4280  0.4234
  849MPD2    C312524   0.637   4.450  13.845 -0.4437  1.6099  0.5344
  849MPD2    C412525   0.614   4.572  13.787  0.0870 -0.2486  0.2458
  849MPD2    C512526   0.688   4.630  13.688  0.0835  0.5836 -0.2759
  849MPD2     H12527   0.783   4.288  13.836  0.0712 -0.1809 -1.1681
  849MPD2    H112528   0.526   4.620  13.827 -0.5816 -1.2109 -0.0788
  849MPD2    H212529   0.848   4.609  13.555 -2.3870  0.8316 -1.1538
  849MPD2    H312530   0.665   4.730  13.653 -0.7108  1.1119  1.7562
  849MPD2     N12531   0.557   4.404  13.954 -0.9655 -0.3541  0.0173
  849MPD2    H512532   0.503   4.473  14.005 -1.4246 -0.6737 -0.0409
  849MPD2    N112533   0.939   4.372  13.641  0.0353  0.2641 -0.1596
  849MPD2    H712534   0.979   4.407  13.555 -1.7121  2.1246 -0.2011
  850MPD2     C12535   3.428   2.565  14.689 -0.5187  0.1972 -0.4374
  850MPD2    C112536   3.416   2.601  14.821 -0.1188  0.4968  0.2039
  850MPD2    C212537   3.529   2.656  14.881 -0.5118  0.6270  0.2142
  850MPD2    C312538   3.653   2.666  14.822  0.7049 -0.5870 -0.1209
  850MPD2    C412539   3.670   2.614  14.694 -0.2570 -0.1834  0.3251
  850MPD2    C512540   3.550   2.582  14.628 -0.0376 -0.6709  0.1243
  850MPD2     H12541   3.516   2.673  14.988  1.4633 -3.8720  1.1923
  850MPD2    H112542   3.760   2.623  14.634 -0.8466 -2.5698 -0.9164
  850MPD2    H212543   3.348   2.512  14.638 -1.0913  1.3024 -0.6918
  850MPD2    H312544   3.557   2.539  14.529 -0.5180  0.5170 -0.4343
  850MPD2     N12545   3.761   2.727  14.884 -0.5266 -0.5656  0.2427
  850MPD2    H512546   3.844   2.718  14.826 -0.2496  0.2164  0.5170
  850MPD2    N112547   3.293   2.574  14.884 -0.8501  0.1567 -0.0574
  850MPD2    H712548   3.229   2.518  14.828 -2.6179  1.1437  0.9927
  851MPD2     C12549   3.192   2.188  15.531 -0.3982  0.2911 -0.2400
  851MPD2    C112550   3.183   2.159  15.397 -0.6065 -0.1715  0.2173
  851MPD2    C212551   3.255   2.060  15.341  0.0317  0.3119  0.0688
  851MPD2    C312552   3.345   1.991  15.420 -0.2045  0.5277  0.3117
  851MPD2    C412553   3.352   2.018  15.554  0.4778 -0.2118  0.1249
  851MPD2    C512554   3.271   2.115  15.610 -0.1318 -1.2652 -0.5907
  851MPD2     H12555   3.246   2.038  15.235  1.1367  0.4603 -0.0564
  851MPD2    H112556   3.418   1.968  15.623  0.0550 -0.4639  0.3427
  851MPD2    H212557   3.138   2.277  15.562  0.5266  0.3988  1.0607
  851MPD2    H312558   3.282   2.138  15.715  0.3121  2.2821 -1.4390
  851MPD2     N12559   3.422   1.897  15.350 -0.4389  0.4660 -0.6829
  851MPD2    H512560   3.391   1.885  15.254  2.2696  0.9051 -1.6421
  851MPD2    N112561   3.101   2.251  15.326  0.0327  0.4848 -0.3977
  851MPD2    H712562   3.046   2.315  15.382 -0.3539  0.0283 -0.2592
  852MPD2     C12563   3.214   1.869  10.327  0.2960  0.4529  1.3422
  852MPD2    C112564   3.184   1.768  10.410  0.1041  0.5518  0.0664
  852MPD2    C212565   3.252   1.652  10.395  0.0852  0.0035 -0.6138
  852MPD2    C312566   3.352   1.634  10.302  1.0456  0.3345 -0.5156
  852MPD2    C412567   3.379   1.736  10.212  0.2268 -0.5958 -0.3530
  852MPD2    C512568   3.308   1.856  10.225 -0.4400  0.0146 -0.0440
  852MPD2     H12569   3.206   1.572  10.450 -1.2592  1.8776  1.0027
  852MPD2    H112570   3.444   1.721  10.127  1.4920 -0.7900  0.6545
  852MPD2    H212571   3.180   1.971  10.334 -0.4827  0.2567  0.3858
  852MPD2    H312572   3.330   1.937  10.157  0.1409  0.0987  0.2451
  852MPD2     N12573   3.406   1.505  10.290  0.3609  0.2570  0.3023
  852MPD2    H512574   3.389   1.430  10.357  1.2665  0.0517  0.3030
  852MPD2    N112575   3.081   1.772  10.504 -0.0871 -0.5673 -0.4477
  852MPD2    H712576   3.065   1.686  10.554 -1.5021 -1.6050 -2.6887
  853MPD2     C12577   0.125   0.061  12.365 -0.1642 -0.4801 -0.6992
  853MPD2    C112578   0.100   0.191  12.320  0.4913  0.2595 -0.1822
  853MPD2    C212579   0.061   0.213  12.186  1.1538 -0.7645  1.0588
  853MPD2    C312580   0.078   0.106  12.090  0.2163  0.2537 -0.6660
  853MPD2    C412581   0.126   4.719  12.141 -0.0039  0.7002 -0.1283
  853MPD2    C512582   0.139   4.699  12.275 -0.0158  0.3735 -0.1066
  853MPD2     H12583   0.034   0.312  12.152  0.5067 -1.4363 -0.3929
  853MPD2    H112584   0.136   4.632  12.078  1.8551  1.4497 -0.8701
  853MPD2    H212585   0.147   0.038  12.469  0.2652  1.7974 -0.2935
  853MPD2    H312586   0.155   4.597  12.308 -0.5432 -0.2396 -1.7830
  853MPD2     N12587   0.058   0.121  11.956  0.2674  0.5496  0.4514
  853MPD2    H512588   0.090   0.045  11.896  0.4432  2.1089 -1.4542
  853MPD2    N112589   0.091   0.290  12.424  0.5765  0.1091  0.2747
  853MPD2    H712590   0.093   0.262  12.522  0.8279  0.3948  0.3518
  854MPD2     C12591   1.710   0.441  12.448 -0.1498 -0.7282 -1.2032
  854MPD2    C112592   1.770   0.498  12.558 -0.1437  0.2583 -0.3128
  854MPD2    C212593   1.834   0.420  12.648 -0.7985 -0.0924  0.2328
  854MPD2    C312594   1.858   0.289  12.621 -0.7433 -0.0092  1.6675
  854MPD2    C412595   1.806   0.230  12.505  0.6233 -0.3566 -0.2335
  854MPD2    C512596   1.732   0.310  12.418 -0.0657 -0.0190 -0.5690
  854MPD2     H12597   1.876   0.454  12.742  0.1454  1.8283 -0.8687
  854MPD2    H112598   1.816   0.128  12.470  2.5643 -1.0651  2.3825
  854MPD2    H212599   1.652   0.491  12.371 -0.8501  0.7634  0.3099
  854MPD2    H312600   1.693   0.276  12.322 -0.7614  1.8040 -0.9384
  854MPD2     N12601   1.927   0.203  12.709 -0.2006 -0.4158  0.1106
  854MPD2    H512602   1.956   0.114  12.670 -3.0509 -0.6030 -1.5500
  854MPD2    N112603   1.758   0.636  12.577 -0.9373  0.3240 -0.2096
  854MPD2    H712604   1.696   0.683  12.512 -0.1815 -0.4381 -1.4623
  855MPD2     C12605   2.273   0.314  13.665 -0.3692 -0.6479 -0.1923
  855MPD2    C112606   2.238   0.187  13.639  0.3579  0.1133  0.0634
  855MPD2    C212607   2.206   0.150  13.508  0.1557 -0.3061 -0.3571
  855MPD2    C312608   2.226   0.229  13.401  0.6871  0.1594  0.0377
  855MPD2    C412609   2.265   0.354  13.434  0.4705 -0.3914 -0.1738
  855MPD2    C512610   2.287   0.399  13.561  0.6114  0.4250 -0.7286
  855MPD2     H12611   2.186   0.046  13.485 -3.1112  0.3603 -0.6349
  855MPD2    H112612   2.282   0.431  13.359  1.2513 -0.4007  0.0023
  855MPD2    H212613   2.285   0.353  13.766 -1.9268 -1.2330  0.2253
  855MPD2    H312614   2.322   0.500  13.578 -0.2909  0.5006  0.6760
  855MPD2     N12615   2.206   0.189  13.265 -0.6189  0.1903 -0.1989
  855MPD2    H512616   2.192   0.263  13.197 -2.0747  1.6996  1.7456
  855MPD2    N112617   2.210   0.097  13.744  0.3107 -0.0492 -0.0495
  855MPD2    H712618   2.149   0.017  13.728  0.6857 -0.5486  1.0381
  856MPD2     C12619   4.126   0.961  13.981 -0.3013 -0.1049 -0.3899
  856MPD2    C112620   4.160   1.096  14.006  0.8192  0.2010 -0.0717
  856MPD2    C212621   4.072   1.195  13.969  0.5281  0.5015  0.0644
  856MPD2    C312622   3.936   1.165  13.925  0.5119 -0.3117 -0.2460
  856MPD2    C412623   3.903   1.021  13.924  0.3787 -0.5138  0.4815
  856MPD2    C512624   3.998   0.922  13.951  0.5052 -0.0282 -0.0403
  856MPD2     H12625   4.096   1.301  13.978 -1.1807  1.1353 -2.9628
  856MPD2    H112626   3.802   0.989  13.905 -0.0494 -1.0497  3.6633
  856MPD2    H212627   4.203   0.887  13.999 -0.6140  0.3470  2.9123
  856MPD2    H312628   3.964   0.819  13.946  1.6985 -0.3010 -2.4452
  856MPD2     N12629   3.837   1.265  13.894  0.3292 -0.1430  0.1479
  856MPD2    H512630   3.743   1.234  13.870  0.2797 -0.5428  0.8513
  856MPD2    N112631   4.286   1.133  14.063  0.2358 -0.0864  0.1028
  856MPD2    H712632   4.299   1.234  14.062 -0.3718 -0.0084  0.2620
  857MPD2     C12633   1.263   3.489  12.361 -0.3433 -0.1952 -0.2808
  857MPD2    C112634   1.232   3.446  12.492  0.1970 -0.8332  0.9012
  857MPD2    C212635   1.237   3.539  12.601  0.3391 -0.4327  0.8085
  857MPD2    C312636   1.284   3.664  12.577 -0.2658  0.1165  0.4534
  857MPD2    C412637   1.330   3.693  12.447 -0.0324 -0.2585 -0.5417
  857MPD2    C512638   1.319   3.612  12.339  0.4470  0.3196  0.0759
  857MPD2     H12639   1.205   3.519  12.702 -0.5841 -1.7938  0.2470
  857MPD2    H112640   1.366   3.792  12.422  1.0534 -0.9405 -1.6536
  857MPD2    H212641   1.265   3.412  12.285 -0.1448 -1.4864  1.0313
  857MPD2    H312642   1.369   3.648  12.250  0.9318 -0.9470 -0.1561
  857MPD2     N12643   1.290   3.757  12.688 -0.0890  0.9938 -0.1164
  857MPD2    H512644   1.251   3.726  12.777  3.3142 -3.4722 -0.2252
  857MPD2    N112645   1.197   3.313  12.504 -0.3583 -0.1276 -0.1363
  857MPD2    H712646   1.203   3.256  12.420  0.0833  0.6143 -0.6053
  858MPD2     C12647   1.677   2.492  16.427 -0.6384  0.3934  0.4106
  858MPD2    C112648   1.760   2.397  16.485 -0.0104 -0.2276 -0.3311
  858MPD2    C212649   1.776   2.389  16.626  0.8353  0.4131  0.1291
  858MPD2    C312650   1.718   2.479  16.712 -0.1265 -0.2997 -0.2486
  858MPD2    C412651   1.650   2.579  16.652 -0.0234 -0.1984 -0.4937
  858MPD2    C512652   1.626   2.583  16.514 -0.5492  0.3769 -0.0845
  858MPD2     H12653   1.826   2.299  16.660  0.1320  1.5243  4.1017
  858MPD2    H112654   1.606   2.650  16.721  2.8982  1.1315 -0.0138
  858MPD2    H212655   1.662   2.507  16.321  0.7893 -1.4566 -0.0473
  858MPD2    H312656   1.580   2.677  16.485  0.7789  1.6238  1.8229
  858MPD2     N12657   1.704   2.466  16.855 -0.0911 -0.2829  0.5814
  858MPD2    H512658   1.639   2.532  16.896 -1.2496 -0.3153 -1.2102
  858MPD2    N112659   1.789   2.286  16.400 -0.3095  0.5148 -0.3645
  858MPD2    H712660   1.761   2.297  16.303 -2.2642 -0.7571  0.0451
  859MPD2     C12661   0.260   4.572  15.443  0.2511 -0.0360 -0.3341
  859MPD2    C112662   0.356   4.487  15.387 -0.7959  0.2951  0.1143
  859MPD2    C212663   0.395   4.381  15.468 -0.3576  0.1613  1.2370
  859MPD2    C312664   0.354   4.356  15.600  0.4601 -0.5115 -0.5315
  859MPD2    C412665   0.252   4.432  15.645 -0.3373  0.0383 -0.4417
  859MPD2    C512666   0.211   4.545  15.569  0.0788  0.2355 -0.4499
  859MPD2     H12667   0.462   4.305  15.429 -1.8659 -1.0113  0.9635
  859MPD2    H112668   0.203   4.400  15.737  0.9866 -0.6248  0.0350
  859MPD2    H212669   0.222   4.655  15.385 -1.2266 -1.1867 -1.0381
  859MPD2    H312670   0.130   4.607  15.605 -0.2837 -0.6311  0.2377
  859MPD2     N12671   0.423   4.267  15.692 -0.4613  0.1656  0.0238
  859MPD2    H512672   0.385   4.253  15.784 -0.0596  0.2487  0.2028
  859MPD2    N112673   0.413   4.518  15.265 -0.2024  0.1035  0.0488
  859MPD2    H712674   0.388   4.610  15.231 -0.7384  0.5686  1.6890
  860MPD2     C12675   3.216   0.202  11.560 -0.0382  0.5388  0.1251
  860MPD2    C112676   3.215   0.257  11.687  0.0419  0.4730  0.0475
  860MPD2    C212677   3.099   0.253  11.769 -0.0047 -0.0623  0.7256
  860MPD2    C312678   2.985   0.194  11.721 -0.4246  0.4813 -0.5241
  860MPD2    C412679   2.983   0.148  11.591 -0.1866 -0.0670  0.3396
  860MPD2    C512680   3.095   0.152  11.513 -0.1633 -0.0727 -0.2263
  860MPD2     H12681   3.100   0.300  11.866 -0.0921 -0.0240  0.7072
  860MPD2    H112682   2.892   0.112  11.543 -0.6549 -0.5311  1.5811
  860MPD2    H212683   3.302   0.197  11.494  0.7336 -1.4307  1.2705
  860MPD2    H312684   3.077   0.107  11.416  0.8797 -1.4476  0.2217
  860MPD2     N12685   2.860   0.204  11.793 -0.4557  0.5502 -0.0172
  860MPD2    H512686   2.856   0.266  11.873  0.7258 -0.9969  1.2128
  860MPD2    N112687   3.329   0.309  11.744 -0.8089 -0.0556  0.3005
  860MPD2    H712688   3.316   0.319  11.844 -1.2050 -3.0542  0.5561
  861MPD2     C12689   2.100   3.243  10.904  0.0212  0.7060 -0.9705
  861MPD2    C112690   1.981   3.243  10.976 -0.3891 -0.3926  0.1047
  861MPD2    C212691   1.868   3.297  10.908 -0.2065 -0.4828  0.0824
  861MPD2    C312692   1.872   3.352  10.777 -0.4399  0.0516 -0.4054
  861MPD2    C412693   1.999   3.355  10.721 -0.1314  0.5348  0.2023
  861MPD2    C512694   2.105   3.304  10.788  0.1446  0.1057 -0.6602
  861MPD2     H12695   1.773   3.298  10.959 -1.1441  2.1703 -1.6763
  861MPD2    H112696   2.027   3.413  10.633  1.0997 -0.9646 -0.3994
  861MPD2    H212697   2.197   3.205  10.934  0.1948  0.8698 -1.3208
  861MPD2    H312698   2.201   3.313  10.740  0.8444  4.0801  1.5160
  861MPD2     N12699   1.756   3.413  10.722 -0.1019 -0.2369  1.3160
  861MPD2    H512700   1.668   3.412  10.773 -1.0277  0.3172 -0.2646
  861MPD2    N112701   1.966   3.185  11.109 -0.5747  0.2679 -0.3474
  861MPD2    H712702   1.879   3.206  11.157 -0.8884  0.0070 -0.7966
  862MPD2     C12703   1.134   3.458  10.348 -0.2108 -0.4489  0.4889
  862MPD2    C112704   1.246   3.411  10.411 -0.4816 -0.2147 -1.1542
  862MPD2    C212705   1.238   3.309  10.504  0.3172 -0.4277  0.3206
  862MPD2    C312706   1.120   3.243  10.523 -0.6864  0.4181  0.4934
  862MPD2    C412707   1.010   3.279  10.450 -0.6228 -0.7027 -0.4883
  862MPD2    C512708   1.019   3.390  10.381 -0.0888 -0.7055 -0.1020
  862MPD2     H12709   1.328   3.274  10.554  0.3669  0.8372  1.0999
  862MPD2    H112710   0.910   3.239  10.446 -0.9201 -0.1802  1.7888
  862MPD2    H212711   1.126   3.546  10.287  0.7451 -2.0153 -1.8822
  862MPD2    H312712   0.929   3.419  10.327  0.3994  1.3863  0.2297
  862MPD2     N12713   1.107   3.145  10.617  0.1977 -0.0631  0.2061
  862MPD2    H512714   1.027   3.083  10.605 -0.3057  0.4301  1.0127
  862MPD2    N112715   1.370   3.475  10.397 -0.1380 -0.4661 -0.2033
  862MPD2    H712716   1.443   3.428  10.450 -0.8183 -0.4500  0.7501
  863MPD2     C12717   4.416   0.979  16.832  0.4835 -0.1270 -0.1731
  863MPD2    C112718   4.492   1.051  16.743  0.1974 -0.1812 -0.0714
  863MPD2    C212719   4.628   1.063  16.753 -0.0493 -0.8533 -0.4846
  863MPD2    C312720   4.691   0.985  16.849  0.7086 -0.6112  0.4866
  863MPD2    C412721   4.624   0.891  16.919  0.4870 -0.5510 -0.2981
  863MPD2    C512722   4.484   0.894  16.915 -0.0785  0.6912  0.7979
  863MPD2     H12723   4.682   1.126  16.683 -0.3971  1.6920  1.5540
  863MPD2    H112724   4.665   0.813  16.982 -1.5566 -0.6774  0.8523
  863MPD2    H212725   4.309   0.994  16.842  0.2204 -1.6969 -0.6311
  863MPD2    H312726   4.427   0.831  16.982  1.8495 -2.3408 -0.4132
  863MPD2     N12727   0.095   0.986  16.865 -0.3324 -0.0491 -0.0720
  863MPD2    H512728   0.138   0.919  16.928 -2.1508 -2.3831 -1.3114
  863MPD2    N112729   4.423   1.135  16.648 -0.4005  0.0627  0.1647
  863MPD2    H712730   4.326   1.163  16.661 -0.5225  0.6719 -1.9998
  864MPD2     C12731   0.417   2.062  17.224 -0.3949 -0.5603 -0.4663
  864MPD2    C112732   0.436   2.033  17.092  0.1902 -0.1274  0.6684
  864MPD2    C212733   0.522   2.113  17.018  1.2230  0.5048 -0.1940
  864MPD2    C312734   0.581   2.225  17.067 -0.1873  0.4021 -0.1721
  864MPD2    C412735   0.552   2.252  17.195  0.1749  0.3680  0.1848
  864MPD2    C512736   0.471   2.175  17.272  0.0213 -0.7421  0.5305
  864MPD2     H12737   0.534   2.079  16.916  0.9099  0.7387 -0.3083
  864MPD2    H112738   0.596   2.343  17.234  0.0777  1.0873 -1.3686
  864MPD2    H212739   0.352   1.997  17.281 -0.5415 -0.8625 -0.9702
  864MPD2    H312740   0.447   2.208  17.373  0.0102 -1.6526  0.8220
  864MPD2     N12741   0.676   2.304  16.997  1.0353  0.3516 -0.3572
  864MPD2    H512742   0.713   2.383  17.048 -0.1287  0.9295 -0.4003
  864MPD2    N112743   0.373   1.914  17.035  0.5169 -0.5270  0.2779
  864MPD2    H712744   0.320   1.851  17.095 -0.1428 -1.9753 -1.8419
  865MPD2     C12745   0.923   2.756  16.288  0.0345  0.0822  0.4717
  865MPD2    C112746   0.884   2.652  16.366  0.1644 -0.2232 -0.3549
  865MPD2    C212747   0.874   2.666  16.499  0.2802  0.4882 -1.0116
  865MPD2    C312748   0.899   2.794  16.557 -0.2195 -0.3364 -0.0770
  865MPD2    C412749   0.941   2.898  16.476 -0.8255  0.5431  0.4993
  865MPD2    C512750   0.946   2.878  16.337  0.7007 -0.1024 -0.1554
  865MPD2     H12751   0.834   2.584  16.559 -1.6509  2.5202  0.4699
  865MPD2    H112752   0.963   2.999  16.509 -2.3316  1.8324 -2.4866
  865MPD2    H212753   0.932   2.746  16.180  2.7194 -1.1455  0.8095
  865MPD2    H312754   0.958   2.965  16.272 -1.1696 -0.7584 -1.3651
  865MPD2     N12755   0.892   2.818  16.694 -0.1810  0.0950 -0.1743
  865MPD2    H512756   0.893   2.915  16.724  0.9651  0.2022 -0.5612
  865MPD2    N112757   0.865   2.522  16.306 -0.2208  0.0896 -0.6147
  865MPD2    H712758   0.877   2.519  16.205  0.7116  1.6225 -0.5570
  866MPD2     C12759   2.170   3.749  11.829  0.1591  0.3929  0.6703
  866MPD2    C112760   2.242   3.789  11.718 -0.2206 -1.2345  0.5519
  866MPD2    C212761   2.171   3.777  11.595 -0.5996  0.4987 -0.2646
  866MPD2    C312762   2.041   3.722  11.596  0.6754 -0.7653  0.1707
  866MPD2    C412763   1.978   3.686  11.711 -0.7692  0.4445  0.3326
  866MPD2    C512764   2.046   3.697  11.821 -0.0561 -0.0166  0.2065
  866MPD2     H12765   2.207   3.825  11.505 -1.4566  2.3589  0.3744
  866MPD2    H112766   1.883   3.636  11.722 -0.5228 -0.7850 -2.9684
  866MPD2    H212767   2.217   3.752  11.926  1.3204  1.0760  0.0894
  866MPD2    H312768   1.990   3.664  11.908  1.4147 -1.4483  0.6097
  866MPD2     N12769   1.965   3.682  11.480  0.3314  0.1426 -0.2636
  866MPD2    H512770   1.875   3.640  11.500  0.3213 -0.3016 -1.2394
  866MPD2    N112771   2.372   3.838  11.732  0.7684  0.1912 -0.0616
  866MPD2    H712772   2.406   3.856  11.825  0.2118  1.5136 -0.1175
  867MPD2     C12773   4.198   2.132  16.632  0.2455  0.4418 -0.4480
  867MPD2    C112774   4.238   2.128  16.770 -0.7120 -0.2610 -0.0365
  867MPD2    C212775   4.225   2.247  16.846  0.6169 -0.4400 -0.3007
  867MPD2    C312776   4.167   2.360  16.797 -0.3809  0.5311  0.0577
  867MPD2    C412777   4.140   2.363  16.663 -0.8123  0.3885  0.1678
  867MPD2    C512778   4.159   2.253  16.577  0.5234 -0.7429  0.5646
  867MPD2     H12779   4.252   2.246  16.951  1.0311  1.6642 -0.3815
  867MPD2    H112780   4.111   2.457  16.618  0.0750  0.8051  0.4748
  867MPD2    H212781   4.214   2.050  16.563  0.6363  0.1453 -0.0066
  867MPD2    H312782   4.143   2.265  16.471 -0.4484 -2.2987  0.5388
  867MPD2     N12783   4.145   2.468  16.880  0.0714 -0.8244  0.6148
  867MPD2    H512784   4.112   2.554  16.838  2.3632 -0.6661 -0.8433
  867MPD2    N112785   4.291   2.005  16.823  0.3961 -0.3726 -0.3885
  867MPD2    H712786   4.314   1.927  16.762  0.6402 -0.3365 -0.3413
  868MPD2     C12787   1.503   1.722  13.300 -1.2667 -0.0240  0.5889
  868MPD2    C112788   1.572   1.633  13.386 -0.0124 -1.4846 -0.2646
  868MPD2    C212789   1.532   1.638  13.518 -0.2556 -0.0906 -0.8137
  868MPD2    C312790   1.437   1.723  13.568  0.0936  0.1272 -0.9879
  868MPD2    C412791   1.375   1.802  13.474 -0.7788 -0.4427 -0.1419
  868MPD2    C512792   1.404   1.802  13.340 -0.6503 -0.7944  0.8128
  868MPD2     H12793   1.595   1.583  13.588  0.4781 -0.9953 -2.1690
  868MPD2    H112794   1.291   1.867  13.497 -0.3380  0.1458 -0.2113
  868MPD2    H212795   1.538   1.732  13.198 -1.4199 -0.6177  0.4772
  868MPD2    H312796   1.350   1.870  13.275  1.5169  0.3100  0.1515
  868MPD2     N12797   1.419   1.729  13.706 -0.0905  0.7993  0.3747
  868MPD2    H512798   1.460   1.662  13.770  3.2600  2.3600 -0.1604
  868MPD2    N112799   1.690   1.567  13.340  0.5025  0.0516  0.2734
  868MPD2    H712800   1.718   1.579  13.243  0.1540  0.8951  0.2747
  869MPD2     C12801   2.397   3.565   0.297 -0.9486 -0.1686  0.1606
  869MPD2    C112802   2.338   3.632   0.399 -0.0196 -0.4090  0.1585
  869MPD2    C212803   2.409   3.668   0.510 -0.1313 -0.7084  0.0296
  869MPD2    C312804   2.548   3.656   0.507 -0.3942  0.2046  0.3766
  869MPD2    C412805   2.613   3.601   0.404 -0.0463  0.6803 -0.4464
  869MPD2    C512806   2.535   3.548   0.305 -0.1641  0.1691 -0.2225
  869MPD2     H12807   2.368   3.726   0.592 -0.5721 -1.0966  0.0837
  869MPD2    H112808   2.721   3.597   0.390  0.2312  0.2866  1.8344
  869MPD2    H212809   2.354   3.529   0.205 -0.0645 -1.0143  0.0777
  869MPD2    H312810   2.585   3.498   0.223 -1.8049 -0.3877 -0.8888
  869MPD2     N12811   2.631   3.688   0.619 -0.3610  0.4769 -0.3959
  869MPD2    H512812   2.731   3.673   0.607 -0.5398  0.5377 -2.0101
  869MPD2    N112813   2.203   3.659   0.375 -0.0306  0.0286  0.6580
  869MPD2    H712814   2.155   3.648   0.286  0.3912  1.0570  0.3031
  870MPD2     C12815   2.525   2.845   1.978 -0.7840 -0.2400 -0.3200
  870MPD2    C112816   2.458   2.765   1.886 -0.3248  0.9899  0.6029
  870MPD2    C212817   2.352   2.827   1.820  0.0507 -0.1465  0.5486
  870MPD2    C312818   2.314   2.954   1.847  0.3544  0.4315  0.8314
  870MPD2    C412819   2.385   3.034   1.931 -0.5853  0.3844  0.3909
  870MPD2    C512820   2.492   2.976   1.986  0.3319  0.4556 -0.0177
  870MPD2     H12821   2.304   2.770   1.741 -0.1090  3.0692 -1.6342
  870MPD2    H112822   2.366   3.138   1.956  0.1328  0.4187  0.8061
  870MPD2    H212823   2.607   2.802   2.034  0.0634  0.0627 -1.3278
  870MPD2    H312824   2.549   3.031   2.061  0.8066 -1.7474  1.2219
  870MPD2     N12825   2.204   3.002   1.785 -0.4632  0.0178 -0.6654
  870MPD2    H512826   2.155   2.937   1.724 -0.3383  0.1492 -0.9011
  870MPD2    N112827   2.511   2.629   1.867 -0.7863  0.5148 -0.7583
  870MPD2    H712828   2.583   2.594   1.929 -1.7642  1.2657  0.7895
  871MPD2     C12829   3.394   2.543  16.544  0.1398  0.4145  0.1813
  871MPD2    C112830   3.348   2.461  16.643  0.0032  0.2411  0.3466
  871MPD2    C212831   3.371   2.328  16.628  0.2984 -0.5509  0.1348
  871MPD2    C312832   3.441   2.279  16.520 -0.5253  0.3287 -0.0439
  871MPD2    C412833   3.487   2.364  16.418 -0.0909  0.1605 -0.1680
  871MPD2    C512834   3.455   2.497  16.434 -0.4548 -1.1752  0.4111
  871MPD2     H12835   3.341   2.257  16.703  1.0727 -0.8066  0.1984
  871MPD2    H112836   3.533   2.333  16.325  1.7752  1.7133  0.2301
  871MPD2    H212837   3.387   2.651  16.542  3.4111  0.6577  0.3841
  871MPD2    H312838   3.488   2.565  16.355 -1.1407  2.0131  2.8701
  871MPD2     N12839   3.456   2.134  16.500 -0.0555 -0.2541  0.0146
  871MPD2    H512840   3.413   2.078  16.573  1.7115 -1.0529  0.4276
  871MPD2    N112841   3.279   2.520  16.753  0.2182 -0.4971 -0.6163
  871MPD2    H712842   3.266   2.619  16.739 -0.4770 -0.4805  0.1303
  872MPD2     C12843   4.348   0.015  13.880  0.1992 -0.0577 -0.3638
  872MPD2    C112844   4.324   0.144  13.920 -0.7026 -0.3896 -0.7008
  872MPD2    C212845   4.196   0.168  13.974  0.0059 -0.4304  0.1785
  872MPD2    C312846   4.100   0.064  13.993 -0.1618 -0.1482 -0.0947
  872MPD2    C412847   4.136   4.672  13.950  0.2605  0.3394  0.1676
  872MPD2    C512848   4.261   4.652  13.899 -0.3635 -0.0440  0.2023
  872MPD2     H12849   4.167   0.269  13.998  1.0328 -0.9538  3.5140
  872MPD2    H112850   4.057   4.598  13.957  0.1430  0.3274 -1.2588
  872MPD2    H212851   4.450   4.727  13.851  0.9753 -0.0806  2.3248
  872MPD2    H312852   4.291   4.553  13.865  1.9102  1.0004 -0.7905
  872MPD2     N12853   3.972   0.080  14.054 -0.4104  0.7413 -1.0154
  872MPD2    H512854   3.920   4.729  14.051  1.2158 -0.2590  0.0445
  872MPD2    N112855   4.410   0.256  13.892 -0.1860  0.2233  0.2998
  872MPD2    H712856   4.389   0.345  13.936  1.9067 -0.3047  2.4111
  873MPD2     C12857   0.834   0.021   0.511  0.6730 -0.1645 -0.9615
  873MPD2    C112858   0.836   4.638   0.585  0.0635 -0.3716  0.6385
  873MPD2    C212859   0.808   4.518   0.521  0.2582 -0.1846  0.1630
  873MPD2    C312860   0.764   4.504   0.383 -0.2229  0.4716 -0.4097
  873MPD2    C412861   0.751   4.629   0.322  0.2625  0.1609  1.3783
  873MPD2    C512862   0.810   0.003   0.377 -0.3329 -0.6756 -0.0608
  873MPD2     H12863   0.808   4.419   0.566 -0.2404  0.0235  0.6146
  873MPD2    H112864   0.729   4.635   0.216 -0.1164  0.2921  1.4652
  873MPD2    H212865   0.874   0.112   0.553 -2.5917  0.7968  0.0697
  873MPD2    H312866   0.810   0.094   0.319 -0.2316 -1.3010 -1.0501
  873MPD2     N12867   0.751   4.374   0.327 -1.1445 -0.5285 -0.8650
  873MPD2    H512868   0.781   4.299   0.388  2.2252  0.4254 -1.3425
  873MPD2    N112869   0.889   4.655   0.715 -0.3444 -0.1729  0.1272
  873MPD2    H712870   0.923   0.012   0.737 -1.4038  0.3896 -0.5987
  874MPD2     C12871   1.102   0.706  16.309  0.2558 -0.2892  0.0290
  874MPD2    C112872   1.118   0.616  16.410  0.1035  0.5449 -0.1398
  874MPD2    C212873   1.228   0.635  16.497  0.7682  0.0347  0.0426
  874MPD2    C312874   1.309   0.741  16.476 -1.0261 -0.1915  0.4755
  874MPD2    C412875   1.279   0.830  16.378  0.2805 -0.3944  0.3039
  874MPD2    C512876   1.181   0.812  16.292 -0.1821  0.1555 -0.8373
  874MPD2     H12877   1.261   0.571  16.577  1.2925  0.2396 -0.0075
  874MPD2    H112878   1.326   0.926  16.359 -0.5226  0.2178  1.4011
  874MPD2    H212879   1.026   0.701  16.231 -1.1703 -1.2774  1.5018
  874MPD2    H312880   1.152   0.890  16.222  0.8751 -0.3219 -1.7800
  874MPD2     N12881   1.422   0.765  16.565  0.5718  0.2418  0.9266
  874MPD2    H512882   1.422   0.690  16.634  0.3153 -0.4712  0.1513
  874MPD2    N112883   1.022   0.512  16.421 -0.0901 -0.8152  0.1798
  874MPD2    H712884   0.932   0.517  16.375  0.4295 -1.4847 -0.9048
  875MPD2     C12885   2.055   3.416  14.527 -0.0140 -0.9087  0.4240
  875MPD2    C112886   1.934   3.421  14.596 -0.6933 -0.3263  0.0061
  875MPD2    C212887   1.945   3.473  14.723  0.3890  0.4048 -0.3285
  875MPD2    C312888   2.065   3.525  14.780 -0.8063  0.4432 -0.1125
  875MPD2    C412889   2.170   3.535  14.695  0.3372  0.1354  0.3803
  875MPD2    C512890   2.167   3.477  14.570  0.2385 -0.1949 -0.1533
  875MPD2     H12891   1.858   3.463  14.786  0.3833  0.0675 -0.3870
  875MPD2    H112892   2.265   3.573  14.730  0.6915  0.6633 -1.1638
  875MPD2    H212893   2.052   3.372  14.428  0.5450  0.1249 -0.0578
  875MPD2    H312894   2.239   3.493  14.491 -1.5266  0.7930 -1.5652
  875MPD2     N12895   2.075   3.588  14.907  0.8051 -0.2963  0.1642
  875MPD2    H512896   2.160   3.637  14.932  1.1211  0.7300 -2.9639
  875MPD2    N112897   1.803   3.377  14.555  0.7028 -0.1534 -0.0546
  875MPD2    H712898   1.729   3.387  14.624  1.1715 -1.4969  0.6463
  876MPD2     C12899   1.259   0.250  16.086 -0.1532 -0.4649 -0.1402
  876MPD2    C112900   1.210   0.168  15.985  0.1894  0.6672  0.0717
  876MPD2    C212901   1.132   0.058  16.021 -0.5652 -0.0156  1.2001
  876MPD2    C312902   1.103   0.027  16.153  0.4044 -0.5698  0.1748
  876MPD2    C412903   1.161   0.106  16.253 -0.4767 -0.6972  0.7000
  876MPD2    C512904   1.229   0.218  16.212 -0.4778  0.1683  0.0193
  876MPD2     H12905   1.084   0.009  15.937 -0.5320 -1.5603  2.0884
  876MPD2    H112906   1.151   0.077  16.357  0.3831 -1.3218  0.6127
  876MPD2    H212907   1.303   0.347  16.065 -2.4739  0.4838 -0.5882
  876MPD2    H312908   1.254   0.288  16.291 -2.1710  0.6228  0.1649
  876MPD2     N12909   1.022   4.645  16.182  0.0403  0.6640 -0.5149
  876MPD2    H512910   0.983   4.596  16.102 -0.9651  0.0870  0.3425
  876MPD2    N112911   1.227   0.209  15.851 -0.4632  0.1539 -0.0020
  876MPD2    H712912   1.270   0.300  15.844  2.3910 -1.0168  2.2824
  877MPD2     C12913   0.930   0.320  15.247  0.1346 -0.6394  0.2182
  877MPD2    C112914   1.030   0.406  15.197  0.8248  0.0814 -0.1351
  877MPD2    C212915   1.041   0.446  15.060 -0.0448  0.1797  0.0520
  877MPD2    C312916   0.950   0.385  14.977 -0.0334  0.2375 -0.9369
  877MPD2    C412917   0.858   0.295  15.022 -0.4816 -0.9888 -0.1104
  877MPD2    C512918   0.853   0.259  15.152  0.2269  0.0471  0.4524
  877MPD2     H12919   1.124   0.510  15.032  1.3732 -0.9618  1.7180
  877MPD2    H112920   0.791   0.238  14.959 -0.3444 -0.2913 -0.8952
  877MPD2    H212921   0.923   0.290  15.352 -0.3626  2.9020  1.1792
  877MPD2    H312922   0.779   0.184  15.178  0.0488  0.8298  2.1836
  877MPD2     N12923   0.936   0.416  14.838  0.1857  0.1263 -0.6446
  877MPD2    H512924   0.850   0.378  14.798  1.0832 -2.4055 -0.1575
  877MPD2    N112925   1.139   0.440  15.278  0.8996 -0.0499 -0.5603
  877MPD2    H712926   1.218   0.479  15.226  2.8079  0.3106  2.5879
  878MPD2     C12927   0.986   4.227  12.871  0.2884 -0.1386 -0.7795
  878MPD2    C112928   0.997   4.334  12.956  0.0764  0.3179  0.1766
  878MPD2    C212929   1.047   4.312  13.077 -0.5073  0.3035  0.5735
  878MPD2    C312930   1.077   4.188  13.124 -0.5230 -0.9524 -0.1787
  878MPD2    C412931   1.062   4.078  13.038 -0.7530 -0.2708 -0.4952
  878MPD2    C512932   1.023   4.100  12.911 -0.6341  0.2743  0.1814
  878MPD2     H12933   1.061   4.394  13.146  1.6422  0.8634 -0.5203
  878MPD2    H112934   1.094   3.976  13.059  1.5555  0.1131 -2.1123
  878MPD2    H212935   0.944   4.233  12.771  0.1974  0.2580 -0.7179
  878MPD2    H312936   1.013   4.026  12.833  2.2519 -1.1371  1.1449
  878MPD2     N12937   1.126   4.168  13.256  0.2751  0.0321  0.3065
  878MPD2    H512938   1.144   4.259  13.298  0.5767 -1.0063  2.3861
  878MPD2    N112939   0.944   4.458  12.915 -0.3454 -0.4388  0.2781
  878MPD2    H712940   0.908   4.468  12.820  0.8623 -1.0934 -0.2385
  879MPD2     C12941   0.908   0.442  17.064 -0.1593  0.0363  0.2701
  879MPD2    C112942   0.933   0.536  16.968 -0.7366  1.0634  1.0177
  879MPD2    C212943   0.843   0.551  16.859  0.0459 -0.1757 -0.7432
  879MPD2    C312944   0.742   0.459  16.840  0.3076 -0.5228 -0.4300
  879MPD2    C412945   0.731   0.361  16.934 -0.2935  0.0290 -0.6290
  879MPD2    C512946   0.811   0.345  17.037  0.5650 -0.0952 -0.4614
  879MPD2     H12947   0.850   0.635  16.791 -0.4224 -0.0566 -0.6474
  879MPD2    H112948   0.661   0.278  16.937 -1.7151  1.2040 -1.4024
  879MPD2    H212949   0.981   0.412  17.139 -0.2429 -1.9416 -0.4213
  879MPD2    H312950   0.799   0.253  17.094 -0.6812 -0.6493 -1.6199
  879MPD2     N12951   0.653   0.464  16.733 -0.2869 -0.4091 -0.3008
  879MPD2    H512952   0.578   0.395  16.738  0.7184 -1.4283  0.6868
  879MPD2    N112953   1.047   0.618  16.987 -0.3400 -0.6225  0.4692
  879MPD2    H712954   1.113   0.584  17.056 -0.0964 -0.7147  0.1901
  880MPD2     C12955   1.969   2.229   0.438 -0.3193 -0.4129  0.8153
  880MPD2    C112956   2.061   2.262   0.532 -0.5025  0.0994  0.3654
  880MPD2    C212957   2.120   2.154   0.591  0.6858  0.1416 -1.2340
  880MPD2    C312958   2.077   2.020   0.557  0.4284  0.1619  0.0041
  880MPD2    C412959   1.968   2.005   0.473  0.0491  0.3607 -0.0373
  880MPD2    C512960   1.930   2.108   0.400 -0.9514 -0.3390  0.5799
  880MPD2     H12961   2.203   2.167   0.660  0.2289  1.7509 -0.9885
  880MPD2    H112962   1.919   1.910   0.454  0.7808  0.2583 -1.3578
  880MPD2    H212963   1.906   2.308   0.398 -1.1802 -0.9237  1.1377
  880MPD2    H312964   1.838   2.105   0.343 -0.1279 -1.9733 -0.6720
  880MPD2     N12965   2.132   1.913   0.619 -0.3715  0.1676  0.1630
  880MPD2    H512966   2.206   1.940   0.683 -1.2960 -1.7135  2.0360
  880MPD2    N112967   2.091   2.393   0.574  0.8380  0.4829  0.1805
  880MPD2    H712968   2.050   2.461   0.511 -1.3074  0.4563  1.5239
  881MPD2     C12969   2.294   3.199   0.100  0.3805  0.5260  0.2899
  881MPD2    C112970   2.356   3.079   0.091 -0.1426 -0.9822  0.5006
  881MPD2    C212971   2.319   2.977   0.183  0.0817  0.1357  0.3442
  881MPD2    C312972   2.244   3.012   0.300 -0.3024  0.4373 -0.1730
  881MPD2    C412973   2.211   3.140   0.316  0.4181  0.2477 -0.1882
  881MPD2    C512974   2.230   3.233   0.217 -0.2118  0.4970 -0.1605
  881MPD2     H12975   2.343   2.873   0.163 -1.8934 -0.1487 -0.5577
  881MPD2    H112976   2.155   3.174   0.403  1.3710  0.5965  0.2883
  881MPD2    H212977   2.309   3.285   0.036  2.0404  0.7712  1.0130
  881MPD2    H312978   2.187   3.332   0.227  0.8068  1.0668 -1.3473
  881MPD2     N12979   2.217   2.933   0.413 -0.1108  0.4924 -0.1603
  881MPD2    H512980   2.158   2.970   0.487  0.8219  0.4470  0.6062
  881MPD2    N112981   2.413   3.057  17.710  0.9876  0.1712 -1.1514
  881MPD2    H712982   2.423   3.137  17.648  0.9012  0.3892 -0.8840
  882MPD2     C12983   0.696   0.964  14.394 -0.9909 -0.4035 -0.3474
  882MPD2    C112984   0.702   0.830  14.359  0.3102  0.6581 -0.3351
  882MPD2    C212985   0.581   0.761  14.338 -0.3597  0.3805  0.0162
  882MPD2    C312986   0.461   0.827  14.351 -0.0866 -0.4199  0.0453
  882MPD2    C412987   0.458   0.959  14.388  0.0825  0.2560  0.8615
  882MPD2    C512988   0.577   1.028  14.395  0.6624  0.3791 -0.0797
  882MPD2     H12989   0.590   0.655  14.321 -1.7787 -0.0469  1.8967
  882MPD2    H112990   0.364   1.003  14.419 -0.8236 -0.0409 -1.4112
  882MPD2    H212991   0.785   1.023  14.414 -2.6741  3.1928 -3.2713
  882MPD2    H312992   0.571   1.133  14.421 -1.3140  0.2436  0.0351
  882MPD2     N12993   0.344   0.751  14.333 -0.1369  0.4594 -0.2446
  882MPD2    H512994   0.257   0.804  14.344 -1.8529 -2.2480 -0.8380
  882MPD2    N112995   0.831   0.770  14.370  0.5335  0.5293 -0.1274
  882MPD2    H712996   0.913   0.814  14.410 -0.5190  0.3590  2.2178
  883MPD2     C12997   2.869   0.042  16.375  0.2815 -0.5342  0.1453
  883MPD2    C112998   2.896   0.159  16.311  0.0930  0.6220  0.7593
  883MPD2    C212999   2.975   0.257  16.384 -0.3515  0.2326 -0.0337
  883MPD2    C313000   3.012   0.232  16.519  0.0681 -0.2233 -0.1184
  883MPD2    C413001   2.974   0.110  16.579  0.4895 -0.0909  0.1577
  883MPD2    C513002   2.895   0.021  16.507 -0.5658 -0.9065  0.1291
  883MPD2     H13003   3.011   0.346  16.333  0.9167  0.3328  1.0465
  883MPD2    H113004   2.997   0.079  16.680  1.0688 -2.0850 -0.5657
  883MPD2    H213005   2.809   4.703  16.325 -2.6723  0.6005  2.0450
  883MPD2    H313006   2.874   4.658  16.545 -0.3265  0.2895  3.4516
  883MPD2     N13007   3.090   0.324  16.586 -0.2734 -0.2725  0.6371
  883MPD2    H513008   3.115   0.406  16.531  1.2344  0.6590  2.7108
  883MPD2    N113009   2.854   0.184  16.177 -0.3686  0.4794  0.6165
  883MPD2    H713010   2.886   0.270  16.135  1.1919 -1.4023 -2.0871
  884MPD2     C13011   4.610   1.015  15.213 -0.7734  0.4666 -0.0732
  884MPD2    C113012   4.557   1.027  15.091 -0.2871  0.4813  0.7861
  884MPD2    C213013   4.429   1.081  15.074  0.3568 -0.1581 -0.3396
  884MPD2    C313014   4.358   1.122  15.187 -0.2029  0.2106  0.0268
  884MPD2    C413015   4.404   1.100  15.312 -0.7604  0.1737 -0.0789
  884MPD2    C513016   4.535   1.051  15.320 -0.1733 -0.2580  0.3793
  884MPD2     H13017   4.383   1.097  14.977  0.0927 -3.3195 -0.7368
  884MPD2    H113018   4.364   1.137  15.405  2.9646  0.4294  1.4491
  884MPD2    H213019   4.704   0.966  15.236 -1.9944 -1.6815  0.3849
  884MPD2    H313020   4.578   1.045  15.419  0.2215 -2.3644  0.0899
  884MPD2     N13021   4.237   1.188  15.176 -0.6274  0.7264  0.2920
  884MPD2    H513022   4.193   1.180  15.085 -0.6656  3.3739  0.0806
  884MPD2    N113023   4.618   0.984  14.976  0.3799 -0.3644 -0.5499
  884MPD2    H713024   4.580   0.995  14.883  0.6832  2.7321 -0.3116
  885MPD2     C13025   2.438   1.451   0.233 -0.8463 -0.1682 -0.1660
  885MPD2    C113026   2.543   1.371   0.209 -0.3350 -0.6600  0.8475
  885MPD2    C213027   2.580   1.351   0.073  0.4427  0.0090 -1.1277
  885MPD2    C313028   2.515   1.416  17.712 -0.7942 -0.4780  0.5824
  885MPD2    C413029   2.409   1.505  17.744  0.6363 -0.5141 -0.1059
  885MPD2    C513030   2.370   1.522   0.137  0.5311  0.0978 -0.0890
  885MPD2     H13031   2.666   1.291   0.043  0.6196 -0.5213  0.4500
  885MPD2    H113032   2.340   1.554  17.676 -0.2006 -0.7876  0.5550
  885MPD2    H213033   2.421   1.485   0.334 -2.9356 -0.8286 -0.2963
  885MPD2    H313034   2.285   1.585   0.160 -0.7627 -1.5820 -0.3100
  885MPD2     N13035   2.558   1.392  17.580  0.3254 -0.3447 -0.4540
  885MPD2    H513036   2.631   1.321  17.571 -0.1160 -0.6214 -1.8474
  885MPD2    N113037   2.607   1.315   0.322  0.3235  0.3675 -0.3218
  885MPD2    H713038   2.558   1.317   0.411  0.6199  1.0047 -0.1774
  886MPD2     C13039   4.107   0.025  15.659  0.3572  0.2827 -0.1723
  886MPD2    C113040   4.219   4.715  15.599 -0.2892 -0.2064 -0.7169
  886MPD2    C213041   4.282   0.051  15.499 -0.2135  0.0071  0.2989
  886MPD2    C313042   4.217   0.163  15.452  1.0602 -0.7699  0.2628
  886MPD2    C413043   4.100   0.206  15.511 -0.5014 -0.7857 -0.6855
  886MPD2    C513044   4.049   0.138  15.623  0.0239 -0.7782  0.6638
  886MPD2     H13045   4.372   0.009  15.456 -0.9939  1.1277 -2.4203
  886MPD2    H113046   4.042   0.292  15.481  1.0706  0.7624  0.7067
  886MPD2    H213047   4.068   4.717  15.750 -1.7302 -1.1101 -1.7366
  886MPD2    H313048   3.962   0.172  15.678 -0.0172  0.1321  0.0459
  886MPD2     N13049   4.268   0.216  15.334  0.1428  0.0685 -0.1763
  886MPD2    H513050   4.353   0.175  15.297 -0.9031 -1.4072 -0.9510
  886MPD2    N113051   4.290   4.592  15.636 -0.4339  0.0596 -0.0709
  886MPD2    H713052   4.379   4.573  15.592 -0.6381  0.1082 -0.5023
  887MPD2     C13053   0.208   4.612  15.909 -0.2053  0.0182  0.1399
  887MPD2    C113054   0.080   4.664  15.880 -0.0722  0.6540 -0.4830
  887MPD2    C213055   0.069   0.060  15.837 -0.3755  0.3571 -1.0072
  887MPD2    C313056   0.182   0.143  15.826 -0.3594 -0.0577  0.3928
  887MPD2    C413057   0.306   0.095  15.864 -0.6096  0.4664 -0.6507
  887MPD2    C513058   0.318   4.696  15.918  0.3948  0.5473 -0.1365
  887MPD2     H13059   4.711   0.092  15.795 -1.3596 -0.8583  0.3049
  887MPD2    H113060   0.395   0.156  15.863 -0.6549  0.5933  1.9334
  887MPD2    H213061   0.218   4.511  15.948 -0.7397  0.2803  0.9749
  887MPD2    H313062   0.410   4.643  15.942 -0.6324 -1.4733 -0.7383
  887MPD2     N13063   0.162   0.281  15.789 -0.1138 -0.0028 -0.3794
  887MPD2    H513064   0.069   0.321  15.781 -1.0112 -1.8325  0.8114
  887MPD2    N113065   4.700   4.583  15.868  0.6377 -0.6790 -0.3192
  887MPD2    H713066   4.618   4.631  15.831  0.5300 -1.3658 -0.9502
  888MPD2     C13067   1.818   4.467  14.797  0.5308 -0.3719  0.7652
  888MPD2    C113068   1.853   4.483  14.924 -0.2593  0.6503  0.4143
  888MPD2    C213069   1.901   4.605  14.966 -0.3369 -0.3157  0.3298
  888MPD2    C313070   1.911   4.707  14.873 -0.2092 -0.2327 -0.5231
  888MPD2    C413071   1.894   4.683  14.738 -0.2485  0.4764  0.2117
  888MPD2    C513072   1.838   4.569  14.700 -0.7754 -0.3085  0.3347
  888MPD2     H13073   1.935   4.618  15.068  4.2147 -2.3474 -0.9010
  888MPD2    H113074   1.918   0.016  14.658 -1.4470  0.9203  0.2341
  888MPD2    H213075   1.784   4.375  14.750  2.5037 -1.1595  0.8883
  888MPD2    H313076   1.807   4.549  14.598  1.6304 -1.5595 -0.1424
  888MPD2     N13077   1.955   0.095  14.918 -0.1116  0.0870  0.3904
  888MPD2    H513078   1.964   0.094  15.020 -1.8458  0.2243  0.5463
  888MPD2    N113079   1.857   4.378  15.026 -0.1872 -0.0011  0.2648
  888MPD2    H713080   1.891   4.400  15.119 -0.5092 -0.8682  0.5827
  889MPD2     C13081   1.234   4.549  12.714  0.3973  0.6466  0.3820
  889MPD2    C113082   1.300   4.495  12.825 -0.2234 -0.0772  0.1609
  889MPD2    C213083   1.300   4.569  12.942 -0.5441  0.0358  0.1052
  889MPD2    C313084   1.288   4.705  12.938  0.4435 -0.2306 -0.8816
  889MPD2    C413085   1.237   0.028  12.824 -0.2945  0.5153  0.2873
  889MPD2    C513086   1.209   4.686  12.710  0.4352 -0.3864 -0.7683
  889MPD2     H13087   1.361   4.541  13.027  0.7921  1.3741 -0.4167
  889MPD2    H113088   1.232   0.135  12.812 -1.7352  0.4887  0.6194
  889MPD2    H213089   1.243   4.496  12.620 -2.0861  0.5361  0.2088
  889MPD2    H313090   1.165   4.729  12.621  1.0893 -2.0076 -1.8719
  889MPD2     N13091   1.300   0.038  13.069 -0.2329 -0.6376  0.5175
  889MPD2    H513092   1.323   4.712  13.146 -0.5329 -0.8357  0.4480
  889MPD2    N113093   1.320   4.354  12.834 -0.6784 -0.0940 -0.3077
  889MPD2    H713094   1.270   4.298  12.765  0.3015 -0.5344 -0.6578
  890MPD2     C13095   0.806   1.181  14.664 -0.3064  0.3083 -0.4879
  890MPD2    C113096   0.900   1.250  14.732 -0.5684 -0.2658 -0.0134
  890MPD2    C213097   0.974   1.183  14.824  0.2238  0.0105  0.3206
  890MPD2    C313098   0.959   1.047  14.849  0.7235 -0.5047 -0.1341
  890MPD2    C413099   0.858   0.973  14.787  0.1329 -1.1421  0.3603
  890MPD2    C513100   0.780   1.046  14.700  0.2838  0.1695  0.0189
  890MPD2     H13101   1.054   1.236  14.875  2.6885 -0.9146 -2.5303
  890MPD2    H113102   0.831   0.870  14.808  0.4306 -1.2591  0.1520
  890MPD2    H213103   0.740   1.224  14.589 -2.0807 -3.3095 -1.0374
  890MPD2    H313104   0.695   0.994  14.657  1.0052 -0.4182 -0.6889
  890MPD2     N13105   1.041   0.980  14.945 -0.2465  0.2160  0.3532
  890MPD2    H513106   1.119   1.035  14.981 -0.0798  0.4759 -0.3953
  890MPD2    N113107   0.899   1.392  14.707 -0.6913 -0.5079 -0.0004
  890MPD2    H713108   0.845   1.430  14.631 -0.7046 -1.9222 -0.6880
  891MPD2     C13109   3.863   4.609  17.088  0.4383  1.0305 -0.6187
  891MPD2    C113110   3.753   4.529  17.100  0.1076 -0.6162  0.7954
  891MPD2    C213111   3.760   4.400  17.155 -0.1632 -0.0713 -0.1999
  891MPD2    C313112   3.881   4.344  17.189 -0.5145  0.9650 -1.0733
  891MPD2    C413113   3.989   4.424  17.170 -0.1031 -0.1706 -0.0172
  891MPD2    C513114   3.983   4.556  17.124 -0.2374 -0.0407  1.1356
  891MPD2     H13115   3.670   4.346  17.182 -0.2547 -0.1856 -0.7473
  891MPD2    H113116   4.083   4.393  17.216 -1.4891 -0.3580  2.6733
  891MPD2    H213117   3.858   4.710  17.048  2.0581  0.9421 -1.0191
  891MPD2    H313118   4.076   4.611  17.121 -0.5165  0.1650 -3.6499
  891MPD2     N13119   3.875   4.222  17.259 -0.1215 -0.3381  0.0903
  891MPD2    H513120   3.790   4.182  17.299 -0.0724 -0.6727 -0.1395
  891MPD2    N113121   3.628   4.594  17.058  0.2177  0.2772  0.1222
  891MPD2    H713122   3.624   4.693  17.034  2.2605  0.2882 -0.2228
  892MPD2     C13123   4.535   0.594  14.977  0.2206  0.0047 -0.1666
  892MPD2    C113124   4.465   0.643  14.870  0.6541  0.5566 -0.1611
  892MPD2    C213125   4.521   0.645  14.747 -0.8642  0.1451  0.2437
  892MPD2    C313126   4.654   0.610  14.727 -0.0863 -0.5510 -0.6086
  892MPD2    C413127   4.732   0.568  14.837 -0.6538 -0.3013  0.5605
  892MPD2    C513128   4.670   0.567  14.959 -0.8068 -0.2065  0.8532
  892MPD2     H13129   4.469   0.677  14.658  1.0213  0.3307 -0.8016
  892MPD2    H113130   0.100   0.542  14.829 -0.3210  1.0183  0.6543
  892MPD2    H213131   4.494   0.587  15.077 -0.4657  0.1359 -0.4407
  892MPD2    H313132   4.708   0.524  15.051  0.4473 -0.5888  0.1528
  892MPD2     N13133   4.710   0.596  14.596 -0.2321  0.1693  0.0906
  892MPD2    H513134   0.069   0.562  14.588 -0.9110 -1.0820 -2.7488
  892MPD2    N113135   4.339   0.696  14.880 -0.6004 -0.0634  0.2003
  892MPD2    H713136   4.298   0.725  14.792  0.2059  0.0641 -0.1349
  893MPD2     C13137   1.215   3.496   1.831  1.1234  0.0540 -0.5696
  893MPD2    C113138   1.204   3.559   1.706 -0.7013  0.5288 -0.1348
  893MPD2    C213139   1.077   3.551   1.651 -0.5652  0.0387 -0.2394
  893MPD2    C313140   0.969   3.483   1.715 -0.5633  0.1091  0.9960
  893MPD2    C413141   0.984   3.430   1.845  0.5739 -0.9839  0.3591
  893MPD2    C513142   1.106   3.447   1.900  0.2020 -0.0640  0.0657
  893MPD2     H13143   1.047   3.601   1.560 -2.4260 -0.0689  0.2999
  893MPD2    H113144   0.900   3.376   1.886 -1.4205  2.0432  0.3147
  893MPD2    H213145   1.311   3.509   1.880  0.2312 -0.7704  1.3679
  893MPD2    H313146   1.123   3.408   2.000 -0.3212 -0.1007  0.1408
  893MPD2     N13147   0.841   3.457   1.659  1.0716  0.1627  0.1343
  893MPD2    H513148   0.774   3.432   1.732  0.3156  1.0142 -0.2707
  893MPD2    N113149   1.318   3.617   1.653  0.0622 -0.1815  0.7680
  893MPD2    H713150   1.395   3.628   1.717 -0.4709  2.5747  0.9421
  894MPD2     C13151   4.312   0.944   1.045 -0.2512  0.8865 -0.8509
  894MPD2    C113152   4.187   0.940   1.092  0.0678  0.3059 -0.5113
  894MPD2    C213153   4.109   1.054   1.119  0.2770 -0.3745  0.0776
  894MPD2    C313154   4.165   1.176   1.086 -0.9327 -0.3129 -0.1421
  894MPD2    C413155   4.299   1.184   1.043  0.0821 -0.1256 -0.2323
  894MPD2    C513156   4.372   1.068   1.029  0.8209 -0.1844  0.1037
  894MPD2     H13157   4.014   1.047   1.172 -0.3564  1.3150 -0.8383
  894MPD2    H113158   4.345   1.280   1.021  2.0028 -1.7749 -3.2469
  894MPD2    H213159   4.368   0.854   1.025  0.0798  0.4463  2.1645
  894MPD2    H313160   4.472   1.065   0.989  1.5972  0.1949  1.9976
  894MPD2     N13161   4.090   1.294   1.118  0.1458  0.0359 -0.8671
  894MPD2    H513162   3.995   1.283   1.151  1.0563  1.6768  2.3236
  894MPD2    N113163   4.134   0.816   1.137 -0.0318  0.7322 -0.0728
  894MPD2    H713164   4.035   0.826   1.158 -0.6296 -0.1353 -2.4369
  895MPD2     C13165   4.058   0.050  13.603  0.3503 -0.3974  0.1267
  895MPD2    C113166   3.927   0.061  13.560  0.5101  0.2900  0.6637
  895MPD2    C213167   3.869   4.677  13.523  0.1212 -0.1147  0.1199
  895MPD2    C313168   3.933   4.558  13.513  0.3534 -0.5239  0.0764
  895MPD2    C413169   4.069   4.558  13.543 -0.7035 -0.0687 -0.4853
  895MPD2    C513170   4.127   4.669  13.595 -0.0548 -0.2114  0.6264
  895MPD2     H13171   3.773   4.694  13.475  0.0356 -0.3025  0.2257
  895MPD2    H113172   4.125   4.465  13.546 -1.3029 -0.3271  3.0146
  895MPD2    H213173   4.112   0.142  13.622  0.5697  0.1241 -2.9058
  895MPD2    H313174   4.230   4.662  13.628 -0.1190  1.5351  1.1595
  895MPD2     N13175   3.868   4.449  13.450 -0.0837  0.3064 -0.0526
  895MPD2    H513176   3.929   4.373  13.422 -0.5969 -0.4384  0.8886
  895MPD2    N113177   3.838   0.179  13.570  0.1273 -0.1082 -0.2532
  895MPD2    H713178   3.742   0.168  13.539  0.3422  0.3903 -1.1023
  896MPD2     C13179   1.640   1.512   1.127  0.6038  0.3869 -0.6749
  896MPD2    C113180   1.617   1.625   1.047 -0.3434  0.4849  0.5530
  896MPD2    C213181   1.490   1.637   0.994 -0.3055  0.4998 -0.1723
  896MPD2    C313182   1.395   1.543   1.021  0.0491  1.0684 -0.8305
  896MPD2    C413183   1.428   1.434   1.097  0.4547  0.7878  0.4042
  896MPD2    C513184   1.548   1.416   1.153 -0.9979 -0.7507  0.5521
  896MPD2     H13185   1.457   1.719   0.932  1.1186  1.0596 -0.1730
  896MPD2    H113186   1.357   1.354   1.116  0.7513  1.2545  3.4505
  896MPD2    H213187   1.734   1.494   1.178 -0.6190  0.4326  1.6018
  896MPD2    H313188   1.571   1.321   1.200  0.4153 -2.1049 -2.8549
  896MPD2     N13189   1.265   1.570   0.975 -0.1633  0.1292  0.0927
  896MPD2    H513190   1.262   1.660   0.929  0.9349 -0.2119 -0.6381
  896MPD2    N113191   1.731   1.707   1.017  0.5710 -0.8547 -0.6231
  896MPD2    H713192   1.820   1.672   1.051  0.8726 -0.9182 -1.4825
  897MPD2     C13193   2.823   4.386  10.922  0.3164 -0.4708 -0.2810
  897MPD2    C113194   2.766   4.394  10.795 -0.3621  0.1794  0.1479
  897MPD2    C213195   2.646   4.337  10.774 -0.1086 -0.1029 -0.5493
  897MPD2    C313196   2.555   4.306  10.875 -0.0452  0.9743 -0.6905
  897MPD2    C413197   2.617   4.288  10.998  0.8996  0.3899 -0.1098
  897MPD2    C513198   2.746   4.336  11.020  0.3216  0.0349  0.5208
  897MPD2     H13199   2.606   4.348  10.674  3.6085  1.1198 -1.8700
  897MPD2    H113200   2.565   4.251  11.086 -0.9855  0.4978 -1.1789
  897MPD2    H213201   2.918   4.433  10.942 -0.3421 -0.2805  2.3119
  897MPD2    H313202   2.794   4.321  11.116 -1.0934 -2.3523  0.8361
  897MPD2     N13203   2.420   4.275  10.864 -0.4427 -0.8889 -1.0299
  897MPD2    H513204   2.381   4.221  10.941 -0.5507  1.1625  0.3601
  897MPD2    N113205   2.853   4.442  10.694 -0.6384  0.5669  0.4948
  897MPD2    H713206   2.932   4.497  10.725 -0.8058  1.3125 -0.4125
  898MPD2     C13207   3.985   4.420  17.528  0.6751 -0.6546  0.4154
  898MPD2    C113208   4.115   4.455  17.504  0.0413  0.0125  0.0900
  898MPD2    C213209   4.149   4.594  17.495 -0.1809 -0.0062 -0.7596
  898MPD2    C313210   4.052   4.695  17.511 -0.2438  0.0883  0.4374
  898MPD2    C413211   3.930   4.654  17.554  0.2605  0.2993  0.1720
  898MPD2    C513212   3.895   4.524  17.554 -0.0496 -1.0302 -0.0417
  898MPD2     H13213   4.249   4.630  17.475 -0.3480  0.5496 -0.5928
  898MPD2    H113214   3.852   4.726  17.577  0.5995  1.9630 -3.9530
  898MPD2    H213215   3.949   4.318  17.531  0.4217 -0.5955 -0.9226
  898MPD2    H313216   3.789   4.504  17.568 -0.5049 -1.2369 -3.7794
  898MPD2     N13217   4.089   0.095  17.502 -0.3942 -0.4176 -0.0004
  898MPD2    H513218   4.186   0.118  17.486 -0.5512  0.5952  0.5279
  898MPD2    N113219   4.223   4.361  17.489 -0.0758  0.3284  0.5915
  898MPD2    H713220   4.306   4.394  17.440 -2.8362  0.8881 -3.7468
  899MPD2     C13221   0.841   0.876  17.227  0.2123 -0.1030  0.7899
  899MPD2    C113222   0.702   0.861  17.246  0.1260 -0.3887  0.4349
  899MPD2    C213223   0.655   0.765  17.335 -0.4921 -1.0205  0.3162
  899MPD2    C313224   0.746   0.676  17.391 -0.3399 -0.9083 -0.0799
  899MPD2    C413225   0.879   0.700  17.382  0.0380  0.2447 -0.2257
  899MPD2    C513226   0.924   0.795  17.307  0.1139  0.4295 -0.1463
  899MPD2     H13227   0.549   0.747  17.349 -0.9692  0.5301 -1.2697
  899MPD2    H113228   0.951   0.633  17.428 -0.4237 -1.1863 -1.5998
  899MPD2    H213229   0.883   0.948  17.159  1.5904 -3.0238 -1.4719
  899MPD2    H313230   1.030   0.815  17.312 -0.6101  4.6793 -1.7634
  899MPD2     N13231   0.703   0.568  17.470  0.2834  0.1280 -0.4490
  899MPD2    H513232   0.769   0.521  17.531  0.6863  2.3630  0.8712
  899MPD2    N113233   0.617   0.933  17.161 -0.7932 -0.1214  0.3729
  899MPD2    H713234   0.654   0.975  17.076  0.0618 -1.3152  0.1656
  900MPD2     C13235   0.385   2.438  12.762  1.0159  0.0971 -1.0491
  900MPD2    C113236   0.300   2.337  12.731  0.5611  0.1101 -0.0974
  900MPD2    C213237   0.204   2.357  12.635 -1.2902 -0.7452  0.3629
  900MPD2    C313238   0.173   2.488  12.599  0.1298  0.5023 -0.7913
  900MPD2    C413239   0.249   2.592  12.641  0.1021  0.7064 -0.4317
  900MPD2    C513240   0.362   2.570  12.724  0.1831  0.1377  0.2275
  900MPD2     H13241   0.129   2.281  12.614 -1.6070 -0.8795  1.9831
  900MPD2    H113242   0.235   2.693  12.605  1.2519  1.6222  1.6973
  900MPD2    H213243   0.465   2.425  12.834 -1.0525 -0.6487  1.1249
  900MPD2    H313244   0.433   2.644  12.758  1.5135 -0.0484 -2.1762
  900MPD2     N13245   0.053   2.517  12.522 -0.8359  0.8392  0.2015
  900MPD2    H513246   4.726   2.438  12.514  2.3928 -1.9736  2.5870
  900MPD2    N113247   0.334   2.217  12.799 -0.0302 -0.4257 -0.0630
  900MPD2    H713248   0.412   2.225  12.865  0.0356  1.4619 -0.3748
  901MPD2     C13249   0.009   1.312  13.322 -0.1019  0.7716 -0.1553
  901MPD2    C113250   0.150   1.309  13.322 -0.5003 -0.2806  0.0109
  901MPD2    C213251   0.222   1.412  13.272  0.1413 -0.4715  0.0027
  901MPD2    C313252   0.161   1.503  13.189 -0.2889 -0.2602 -0.4023
  901MPD2    C413253   0.023   1.501  13.183  0.3004  0.5037 -0.6522
  901MPD2    C513254   4.683   1.408  13.247  0.1290  1.0163  0.2491
  901MPD2     H13255   0.330   1.418  13.278 -0.0377  0.9711  1.6175
  901MPD2    H113256   4.694   1.569  13.130  0.4076  2.5711  1.8641
  901MPD2    H213257   4.691   1.230  13.369  1.7434 -0.9138 -0.9712
  901MPD2    H313258   4.575   1.410  13.235  0.0033 -0.0341  1.2423
  901MPD2     N13259   0.242   1.596  13.115  0.1138  0.5206  0.4756
  901MPD2    H513260   0.342   1.581  13.119 -0.1846 -2.1799 -1.3237
  901MPD2    N113261   0.210   1.191  13.361 -0.4954  0.2478 -0.0088
  901MPD2    H713262   0.151   1.111  13.383 -1.7226  1.3107  0.5983
  902MPD2     C13263   4.050   0.231  12.943  0.3246  0.0505 -0.1860
  902MPD2    C113264   4.130   0.341  12.929  0.1134  0.2408  0.6984
  902MPD2    C213265   4.243   0.333  12.841  0.0394 -0.0665 -0.1737
  902MPD2    C313266   4.269   0.218  12.776 -0.5377 -0.2752 -0.5843
  902MPD2    C413267   4.194   0.102  12.803  0.6100 -0.4795  0.0877
  902MPD2    C513268   4.086   0.108  12.893 -0.9608  0.5848  0.3527
  902MPD2     H13269   4.299   0.418  12.805 -2.6469  1.7964  0.0176
  902MPD2    H113270   4.219   0.007  12.757  0.3396 -1.0698  1.1468
  902MPD2    H213271   3.955   0.242  12.995  0.1727  0.7443 -0.6076
  902MPD2    H313272   4.011   0.030  12.899 -0.8795  0.5783  1.3620
  902MPD2     N13273   4.367   0.206  12.669 -0.0305 -0.8851  0.2172
  902MPD2    H513274   4.373   0.116  12.622 -0.4677 -0.3392 -0.9067
  902MPD2    N113275   4.084   0.466  12.974 -0.0491  0.1192 -0.3729
  902MPD2    H713276   3.998   0.465  13.029 -0.6851 -1.0091 -1.3525
  903MPD2     C13277   4.396   0.352  11.810 -0.2179 -0.7335 -0.1256
  903MPD2    C113278   4.352   0.382  11.936  0.0470  0.2524  0.0973
  903MPD2    C213279   4.220   0.427  11.950 -0.2095  0.6557 -0.7142
  903MPD2    C313280   4.137   0.443  11.844  0.0817 -0.2479 -0.0987
  903MPD2    C413281   4.186   0.419  11.720 -0.2520  0.8000  0.8560
  903MPD2    C513282   4.312   0.369  11.706 -0.0339  0.2672  0.2580
  903MPD2     H13283   4.169   0.448  12.043 -1.1816  1.2897 -1.4009
  903MPD2    H113284   4.127   0.428  11.629 -1.2422 -1.0181  1.3174
  903MPD2    H213285   4.494   0.307  11.799  1.0620  2.0133 -0.1116
  903MPD2    H313286   4.341   0.338  11.606 -0.5432 -0.6030  0.3786
  903MPD2     N13287   4.002   0.483  11.868  0.0579  0.1116 -0.2779
  903MPD2    H513288   3.967   0.493  11.963  1.1053  0.3333  0.0825
  903MPD2    N113289   4.431   0.352  12.047  1.0402 -0.1450  0.1698
  903MPD2    H713290   4.525   0.319  12.028  2.1710  1.5199  2.8843
  904MPD2     C13291   3.723   3.821  13.935  0.1194  0.3089 -0.3752
  904MPD2    C113292   3.700   3.943  13.998 -0.1581  0.1385  0.6007
  904MPD2    C213293   3.810   4.004  14.068  0.2577 -0.0302 -0.2864
  904MPD2    C313294   3.933   3.940  14.066 -0.1289 -0.7054 -0.6045
  904MPD2    C413295   3.949   3.826  13.992 -0.1707  0.8225  0.7202
  904MPD2    C513296   3.850   3.766  13.930 -0.8861 -0.9288 -0.0283
  904MPD2     H13297   3.795   4.096  14.123  1.5968  0.9874 -1.6175
  904MPD2    H113298   4.033   3.757  13.993 -0.0751  0.9366  0.5764
  904MPD2    H213299   3.645   3.768  13.881 -0.8384 -0.5040  1.8242
  904MPD2    H313300   3.866   3.671  13.880  0.0135 -1.0111  0.4292
  904MPD2     N13301   4.042   4.002  14.140 -0.0263  0.0725  0.3229
  904MPD2    H513302   4.017   4.076  14.204 -1.2625 -0.9423  1.0113
  904MPD2    N113303   3.575   4.004  14.008 -1.1634 -0.3824  0.5041
  904MPD2    H713304   3.575   4.103  14.031  1.0470 -0.5728  1.2579
  905MPD2     C13305   3.039   4.307  13.528 -0.3203 -0.0011  0.0406
  905MPD2    C113306   3.137   4.210  13.553  0.2939 -0.0588 -0.4347
  905MPD2    C213307   3.235   4.186  13.457  0.4139 -0.0898  0.4811
  905MPD2    C313308   3.234   4.257  13.337  0.7093 -0.3931 -0.1107
  905MPD2    C413309   3.138   4.352  13.318 -0.0309 -0.4696 -0.3244
  905MPD2    C513310   3.036   4.369  13.406 -0.3099  0.2628 -0.2800
  905MPD2     H13311   3.319   4.120  13.476  1.6925  0.5920 -2.7468
  905MPD2    H113312   3.131   4.416  13.230  1.5992  0.6499  0.3596
  905MPD2    H213313   2.968   4.338  13.605  2.4137  0.8044  2.2470
  905MPD2    H313314   2.972   4.455  13.389 -1.8644 -0.6076  1.2247
  905MPD2     N13315   3.343   4.244  13.248  0.3097  0.3060 -0.1510
  905MPD2    H513316   3.364   4.321  13.185  1.1829  1.3332  1.3819
  905MPD2    N113317   3.145   4.149  13.679 -0.6609  0.0197 -0.4434
  905MPD2    H713318   3.217   4.078  13.684 -1.3844 -0.7183 -0.4720
  906MPD2     C13319   1.035   4.258  11.329  0.0823  0.1629  0.3451
  906MPD2    C113320   1.027   4.159  11.232  0.7772 -0.3996 -0.4088
  906MPD2    C213321   0.984   4.038  11.267 -0.4394 -0.9070  0.5869
  906MPD2    C313322   0.935   4.011  11.402  0.1007 -0.4758 -0.0241
  906MPD2    C413323   0.939   4.112  11.489 -0.4906  0.7876  0.0674
  906MPD2    C513324   0.991   4.236  11.452 -0.1576 -0.1546  0.7397
  906MPD2     H13325   0.988   3.952  11.202  3.2720 -0.6469  0.5073
  906MPD2    H113326   0.901   4.110  11.590  1.2885 -0.0408  0.7170
  906MPD2    H213327   1.078   4.355  11.307 -3.1964  0.8621 -2.8486
  906MPD2    H313328   1.003   4.309  11.531 -1.3316 -0.1241  0.8910
  906MPD2     N13329   0.890   3.887  11.454  0.5443  0.2194 -0.5783
  906MPD2    H513330   0.836   3.890  11.540 -0.1915  0.3350 -1.0403
  906MPD2    N113331   1.060   4.177  11.093  0.2619 -0.8507  0.5007
  906MPD2    H713332   1.058   4.094  11.034  0.0408  0.3856 -1.2445
  907MPD2     C13333   4.579   3.517  16.061 -0.4830  0.3148  0.0201
  907MPD2    C113334   4.580   3.391  16.000  0.6478 -0.1114  0.1898
  907MPD2    C213335   4.632   3.281  16.077  0.4950  0.0967 -0.7006
  907MPD2    C313336   4.682   3.300  16.204 -0.4257 -0.4240  0.6650
  907MPD2    C413337   4.688   3.430  16.259 -0.6055  0.7424  0.3414
  907MPD2    C513338   4.641   3.536  16.183 -0.5701 -0.3108 -0.3463
  907MPD2     H13339   4.630   3.179  16.042  1.0088 -1.1141  2.8065
  907MPD2    H113340   4.731   3.464  16.353 -1.2159  4.8201 -0.8803
  907MPD2    H213341   4.516   3.594  16.019  1.0100  2.4377  1.6849
  907MPD2    H313342   4.657   3.638  16.217  2.3375 -0.2812 -1.8288
  907MPD2     N13343   4.724   3.183  16.281  0.0714 -0.6175 -0.4523
  907MPD2    H513344   4.726   3.100  16.223  1.3471  0.9553 -2.6525
  907MPD2    N113345   4.511   3.368  15.875 -0.5846  0.2155 -0.4002
  907MPD2    H713346   4.488   3.272  15.852 -0.0900 -0.1480  0.6571
  908MPD2     C13347   2.482   4.487   9.815  0.1652 -1.1732  0.1241
  908MPD2    C113348   2.524   4.375   9.882 -0.9634  0.2399 -0.5435
  908MPD2    C213349   2.634   4.388   9.959  0.1892 -0.7097 -0.0569
  908MPD2    C313350   2.691   4.512   9.995  0.1882 -0.2929  0.4776
  908MPD2    C413351   2.641   4.624   9.927 -0.1701  0.5589  0.5139
  908MPD2    C513352   2.538   4.607   9.840 -0.3258 -0.4753  0.1421
  908MPD2     H13353   2.666   4.303  10.018 -1.0281  0.5650  2.4626
  908MPD2    H113354   2.682   4.724   9.938 -0.3859  0.7825 -0.7690
  908MPD2    H213355   2.394   4.487   9.753  0.8867 -1.3466 -0.8928
  908MPD2    H313356   2.503   4.702   9.800  1.8753  0.7604  1.1243
  908MPD2     N13357   2.802   4.516  10.086  0.5567 -0.2252 -0.4340
  908MPD2    H513358   2.841   4.429  10.122 -1.8866 -1.4447 -0.7243
  908MPD2    N113359   2.453   4.249   9.884 -0.9556  0.0414  0.4509
  908MPD2    H713360   2.487   4.172   9.941  2.0527  0.9028 -0.2002
  909MPD2     C13361   2.976   2.093  12.310 -0.3750  0.1145  0.0081
  909MPD2    C113362   2.959   2.210  12.242  0.1402  0.6099 -0.1403
  909MPD2    C213363   2.861   2.296  12.279  0.2114 -0.2185 -0.0360
  909MPD2    C313364   2.776   2.264  12.385  0.0986  0.2403  0.1564
  909MPD2    C413365   2.791   2.147  12.461 -0.5506  0.5768 -0.7573
  909MPD2    C513366   2.891   2.063  12.420 -0.7755 -0.0295  1.2656
  909MPD2     H13367   2.831   2.381  12.219  2.1642  1.4705  1.4109
  909MPD2    H113368   2.728   2.122  12.545  1.3945 -2.2741 -0.1229
  909MPD2    H213369   3.058   2.024  12.293  1.1694  1.6512  1.2169
  909MPD2    H313370   2.904   1.971  12.476 -0.1305 -0.5092  0.3270
  909MPD2     N13371   2.676   2.361  12.409 -0.2551 -0.4366  0.1476
  909MPD2    H513372   2.684   2.446  12.352  1.2447 -0.7906 -0.1692
  909MPD2    N113373   3.018   2.242  12.118 -0.5381 -0.0673  1.0686
  909MPD2    H713374   2.985   2.328  12.076  0.0418  0.0473  0.8570
  910MPD2     C13375   3.776   3.636  16.074  0.1786  0.2629 -0.1304
  910MPD2    C113376   3.874   3.619  15.970  0.2046 -0.2294  0.7213
  910MPD2    C213377   3.864   3.693  15.851 -0.6589  0.5165 -0.0972
  910MPD2    C313378   3.766   3.792  15.844  0.2136  0.5195  0.2344
  910MPD2    C413379   3.676   3.815  15.944 -0.2698  0.3130  0.3564
  910MPD2    C513380   3.687   3.741  16.063 -0.2472  0.4469  0.2622
  910MPD2     H13381   3.927   3.672  15.765  1.9270  3.0712  1.1678
  910MPD2    H113382   3.604   3.896  15.941 -1.7772 -1.0608 -1.0532
  910MPD2    H213383   3.775   3.588  16.171 -0.0217 -2.8194 -1.6814
  910MPD2    H313384   3.615   3.748  16.143 -0.5020  2.4266 -0.1431
  910MPD2     N13385   3.740   3.871  15.729  0.1206  0.2212  0.8422
  910MPD2    H513386   3.653   3.923  15.732  0.1214  0.2243  0.8039
  910MPD2    N113387   3.973   3.518  15.974 -0.3088 -0.1433  0.0639
  910MPD2    H713388   4.042   3.520  15.899 -0.1955  1.4872  0.2030
  911MPD2     C13389   1.780   4.350  16.673  0.1858  0.4158  0.1186
  911MPD2    C113390   1.912   4.398  16.672  0.0903  0.8755 -0.0474
  911MPD2    C213391   1.931   4.513  16.602 -0.3326  0.4291 -0.0859
  911MPD2    C313392   1.832   4.584  16.529  0.2579  0.1299 -0.2922
  911MPD2    C413393   1.702   4.539  16.547 -0.7982 -0.2723 -0.2479
  911MPD2    C513394   1.677   4.427  16.617 -0.3715 -0.1643  0.2195
  911MPD2     H13395   2.029   4.559  16.591  0.4996 -1.1088  0.9541
  911MPD2    H113396   1.618   4.594  16.505 -0.8021  0.6420  0.9579
  911MPD2    H213397   1.756   4.265  16.735  1.7127  3.7019  5.2047
  911MPD2    H313398   1.575   4.391  16.625 -1.7287  3.4881 -0.7006
  911MPD2     N13399   1.843   4.716  16.470  0.4075 -0.0714  0.2181
  911MPD2    H513400   1.762   0.012  16.418  1.1128 -0.2973 -1.0116
  911MPD2    N113401   2.012   4.325  16.744  0.3265 -0.0615 -0.3935
  911MPD2    H713402   1.985   4.233  16.776 -0.5926 -0.0753 -1.2064
  912MPD2     C13403   1.415   4.662  16.006 -0.5269 -0.8232 -0.7476
  912MPD2    C113404   1.476   4.686  16.129 -0.3653 -0.3520  0.7774
  912MPD2    C213405   1.445   4.599  16.229 -0.0825 -0.3255 -0.4048
  912MPD2    C313406   1.376   4.479  16.210  0.0252  0.3369 -0.7789
  912MPD2    C413407   1.334   4.447  16.085  0.2273 -0.1248  0.1150
  912MPD2    C513408   1.356   4.541  15.984  0.0487  0.1076  0.4560
  912MPD2     H13409   1.480   4.623  16.329 -0.7523  2.6981 -0.9124
  912MPD2    H113410   1.290   4.352  16.058 -0.3976  0.1343  0.2343
  912MPD2    H213411   1.438   4.710  15.912 -0.9241  1.9037  0.5488
  912MPD2    H313412   1.318   4.517  15.886 -1.3320  2.2234  0.4758
  912MPD2     N13413   1.354   4.396  16.325 -0.3144 -0.1611 -0.0975
  912MPD2    H513414   1.377   4.433  16.416 -3.2080  0.9162  0.1654
  912MPD2    N113415   1.568   0.060  16.129  0.2190  0.5459  0.0285
  912MPD2    H713416   1.574   0.107  16.039 -0.6902 -0.2851 -0.4631
  913MPD2     C13417   1.938   0.819  11.272  0.0956  0.5507  0.6139
  913MPD2    C113418   2.046   0.902  11.267 -0.1264  0.5579 -0.0751
  913MPD2    C213419   2.100   0.955  11.144 -0.7451  0.2085 -0.4055
  913MPD2    C313420   2.034   0.930  11.024  0.7791 -0.0995  0.5931
  913MPD2    C413421   1.919   0.853  11.032  0.0321  0.2869 -0.3353
  913MPD2    C513422   1.872   0.803  11.153 -0.1729 -0.1928  0.5522
  913MPD2     H13423   2.185   1.022  11.139 -0.8714  0.6384  3.2514
  913MPD2    H113424   1.857   0.829  10.946 -0.0577  1.0552 -0.4856
  913MPD2    H213425   1.909   0.768  11.363 -0.3512 -0.5931 -0.1823
  913MPD2    H313426   1.783   0.742  11.149  0.4063 -1.2047  3.5467
  913MPD2     N13427   2.073   0.976  10.895 -0.1552  0.0525 -0.3825
  913MPD2    H513428   2.017   0.944  10.816  0.0673 -0.1705 -0.4517
  913MPD2    N113429   2.118   0.924  11.380 -0.1025 -0.2674 -0.9928
  913MPD2    H713430   2.104   0.867  11.463 -0.4235  1.1917 -0.0478
  914MPD2     C13431   0.112   1.231  12.643 -0.2557  0.1264  1.0296
  914MPD2    C113432   0.224   1.298  12.695  0.1245 -0.1613 -0.2201
  914MPD2    C213433   0.293   1.231  12.796  0.8419 -0.0950 -0.1823
  914MPD2    C313434   0.256   1.105  12.844  0.2988  0.6884  0.5690
  914MPD2    C413435   0.151   1.046  12.782  0.0736 -0.1094 -0.1000
  914MPD2    C513436   0.082   1.104  12.681  0.0371 -0.4293 -0.3318
  914MPD2     H13437   0.383   1.267  12.844  0.0920  1.9775 -0.3456
  914MPD2    H113438   0.108   0.950  12.807  1.0796 -0.6674 -0.5502
  914MPD2    H213439   0.061   1.273  12.557  1.4409 -0.3537 -0.2025
  914MPD2    H313440   0.002   1.050  12.632  0.8638  0.9259 -3.1983
  914MPD2     N13441   0.333   1.040  12.942 -0.6900  0.3508  0.6793
  914MPD2    H513442   0.408   1.093  12.984 -0.9737  0.9124  0.4734
  914MPD2    N113443   0.263   1.425  12.645  0.8776  0.2082  0.2969
  914MPD2    H713444   0.207   1.460  12.568  2.2204  2.5527  0.4088
  915MPD2     C13445   2.760   0.556  15.668 -0.8811 -0.2975  0.1154
  915MPD2    C113446   2.712   0.670  15.626 -0.7106  0.4232  0.6525
  915MPD2    C213447   2.655   0.766  15.716  0.1451 -0.1478 -0.0695
  915MPD2    C313448   2.649   0.743  15.852 -0.2806  0.4959 -0.4537
  915MPD2    C413449   2.694   0.618  15.893 -0.2654 -0.2154 -0.0433
  915MPD2    C513450   2.746   0.526  15.804 -0.2620 -0.0784  0.0187
  915MPD2     H13451   2.630   0.862  15.672  0.3988 -0.3408 -0.6428
  915MPD2    H113452   2.684   0.585  15.995 -1.6484  0.7335  0.1233
  915MPD2    H213453   2.794   0.477  15.601 -3.3726 -0.7746 -0.5984
  915MPD2    H313454   2.784   0.432  15.844  1.8161  0.9938  0.5862
  915MPD2     N13455   2.592   0.837  15.936  0.0448  0.0183  0.8995
  915MPD2    H513456   2.559   0.922  15.891  2.7443 -0.5371 -2.1326
  915MPD2    N113457   2.736   0.693  15.487  0.4367  0.6115 -0.5714
  915MPD2    H713458   2.783   0.621  15.434 -1.3446 -0.5170 -0.6230
  916MPD2     C13459   1.148   4.290  15.741  0.6982 -0.5432  0.1152
  916MPD2    C113460   1.120   4.195  15.834  0.0685  0.0281 -1.4605
  916MPD2    C213461   1.166   4.068  15.807 -0.1850  0.4472  0.5954
  916MPD2    C313462   1.247   4.036  15.700 -0.3948 -0.2021  0.4971
  916MPD2    C413463   1.272   4.138  15.612  0.7052  0.1505  0.6450
  916MPD2    C513464   1.217   4.263  15.625  0.4386 -0.1051  0.5240
  916MPD2     H13465   1.150   3.995  15.885  1.0330  1.4904  1.8251
  916MPD2    H113466   1.329   4.129  15.520 -0.5622  0.4654 -0.1694
  916MPD2    H213467   1.118   4.393  15.756 -1.3509 -1.4217  2.1261
  916MPD2    H313468   1.246   4.342  15.557  0.1355  0.9331  1.5961
  916MPD2     N13469   1.296   3.906  15.692  0.3412  0.0951 -0.0924
  916MPD2    H513470   1.252   3.846  15.761 -0.2653 -0.4669 -0.9687
  916MPD2    N113471   1.049   4.233  15.947  0.2877  0.1171  0.0695
  916MPD2    H713472   1.027   4.332  15.953  0.8895  0.2806 -0.3849
  917MPD2     C13473   1.179   2.276  11.842 -0.9648 -0.2324  0.3128
  917MPD2    C113474   1.292   2.203  11.874 -0.3876 -0.1067 -0.3253
  917MPD2    C213475   1.417   2.247  11.826  0.5298 -0.8402 -0.3278
  917MPD2    C313476   1.424   2.353  11.733 -0.1088 -0.0524 -0.4745
  917MPD2    C413477   1.306   2.418  11.706 -0.2986  0.4026  0.2966
  917MPD2    C513478   1.187   2.390  11.774  0.4302 -0.1110 -0.2020
  917MPD2     H13479   1.507   2.193  11.853  0.1445 -0.0789  2.4909
  917MPD2    H113480   1.292   2.503  11.640  0.7639 -0.1719 -0.6767
  917MPD2    H213481   1.084   2.246  11.884 -0.3676 -1.3847  0.8536
  917MPD2    H313482   1.109   2.464  11.761  0.7337  0.6795  2.4755
  917MPD2     N13483   1.541   2.391  11.660 -0.1835  0.2601 -0.0400
  917MPD2    H513484   1.522   2.471  11.600  0.3838 -0.3810 -1.0592
  917MPD2    N113485   1.308   2.090  11.951 -0.8996  0.8220  0.3148
  917MPD2    H713486   1.386   2.083  12.016 -0.2749  0.5422 -0.4698
  918MPD2     C13487   1.632   2.184  12.739  0.1540 -0.4840 -0.4093
  918MPD2    C113488   1.696   2.173  12.613  0.1245  0.0860  0.2250
  918MPD2    C213489   1.617   2.136  12.506 -0.5669  0.2259  0.8152
  918MPD2    C313490   1.482   2.108  12.524 -0.1169 -0.0425 -0.4224
  918MPD2    C413491   1.431   2.124  12.652  0.4410  0.6275 -0.6264
  918MPD2    C513492   1.497   2.177  12.754  0.1955  0.0397 -0.4921
  918MPD2     H13493   1.661   2.130  12.406 -0.6767 -0.0883  0.7853
  918MPD2    H113494   1.325   2.105  12.667  0.9732 -1.5456  0.3373
  918MPD2    H213495   1.686   2.216  12.828 -1.6710  1.3554  0.0479
  918MPD2    H313496   1.453   2.194  12.851  1.8701 -0.7824  0.4165
  918MPD2     N13497   1.402   2.058  12.420 -0.2129 -0.0735 -0.1668
  918MPD2    H513498   1.442   2.059  12.327  1.8705 -1.1845  0.7178
  918MPD2    N113499   1.833   2.182  12.597 -0.2925 -0.0955  0.7667
  918MPD2    H713500   1.877   2.147  12.513 -1.7598 -2.1339  0.8309
  919MPD2     C13501   2.024   1.148  11.942 -0.3161  0.2160  0.1786
  919MPD2    C113502   1.980   1.047  11.861 -0.3396 -0.5746 -0.0740
  919MPD2    C213503   1.935   1.088  11.730 -0.1664  0.6442 -0.5758
  919MPD2    C313504   1.926   1.222  11.688  0.3105  0.1479 -0.2553
  919MPD2    C413505   1.986   1.315  11.773  0.7095  0.3347 -0.1685
  919MPD2    C513506   2.022   1.280  11.900 -0.0649 -0.1626  0.1543
  919MPD2     H13507   1.903   1.010  11.662 -1.8074  0.7993  0.0009
  919MPD2    H113508   1.991   1.417  11.737  1.8567  0.4136  0.2142
  919MPD2    H213509   2.062   1.129  12.041  0.4148 -1.4884 -0.4422
  919MPD2    H313510   2.069   1.355  11.963 -0.3780 -0.5301  0.8203
  919MPD2     N13511   1.881   1.266  11.565  0.2006 -0.2353 -0.3392
  919MPD2    H513512   1.908   1.359  11.535  0.1080 -0.7657 -2.0562
  919MPD2    N113513   1.990   0.910  11.887 -0.2942 -1.1587  0.3506
  919MPD2    H713514   1.945   0.850  11.819 -1.8773 -0.7609  1.0556
  920MPD2     C13515   1.504   1.975  10.942  0.2219 -0.1162  0.6097
  920MPD2    C113516   1.429   1.861  10.911  0.5950 -0.6199 -0.1200
  920MPD2    C213517   1.462   1.739  10.957 -0.4036  0.5033 -0.5616
  920MPD2    C313518   1.564   1.721  11.053  0.4901 -0.0066  0.4775
  920MPD2    C413519   1.647   1.828  11.075 -0.3757  0.0448  0.2927
  920MPD2    C513520   1.618   1.949  11.020 -0.1292 -0.3008 -0.1202
  920MPD2     H13521   1.401   1.652  10.939  2.7476 -1.8115 -0.0934
  920MPD2    H113522   1.732   1.823  11.143 -0.4993  0.1377  0.4549
  920MPD2    H213523   1.496   2.075  10.902  1.7722 -1.1110 -2.1749
  920MPD2    H313524   1.677   2.039  11.037  1.4077 -1.1567 -0.9544
  920MPD2     N13525   1.586   1.596  11.100 -0.1674 -0.3419 -0.5824
  920MPD2    H513526   1.535   1.518  11.061 -0.4405 -0.9004  0.8775
  920MPD2    N113527   1.334   1.857  10.806  0.7189 -0.5898 -0.3487
  920MPD2    H713528   1.296   1.765  10.787 -0.9746  0.1664 -0.5846
  921MPD2     C13529   3.050   4.173  17.118 -0.0730 -0.1935  0.1692
  921MPD2    C113530   2.992   4.291  17.074 -0.2160  0.1986  0.7083
  921MPD2    C213531   2.857   4.282  17.033  0.7615 -0.3546  0.4017
  921MPD2    C313532   2.789   4.160  17.022 -0.1629  0.2513 -0.2499
  921MPD2    C413533   2.861   4.045  17.048 -0.1037  0.6763  0.4757
  921MPD2    C513534   2.980   4.056  17.110 -0.0929 -0.0763  0.2626
  921MPD2     H13535   2.805   4.375  17.017 -0.1443 -0.7272  1.1990
  921MPD2    H113536   2.818   3.946  17.033  0.6092  0.6449 -1.3342
  921MPD2    H213537   3.143   4.170  17.174  0.4232  0.0531 -0.6449
  921MPD2    H313538   3.027   3.960  17.128 -0.6107 -0.0849  1.5661
  921MPD2     N13539   2.650   4.153  16.981 -0.3364 -0.0067 -0.3594
  921MPD2    H513540   2.606   4.061  16.985  1.8123 -1.0801 -1.9465
  921MPD2    N113541   3.072   4.409  17.067  0.4235  0.0803 -0.1034
  921MPD2    H713542   3.162   4.391  17.110 -0.3443 -2.6938  0.3403
  922MPD2     C13543   3.290   2.165  17.234 -0.2369  0.4111 -0.6202
  922MPD2    C113544   3.186   2.185  17.315  0.3826 -0.7761 -0.3758
  922MPD2    C213545   3.083   2.093  17.316  0.3476 -0.2628 -0.5788
  922MPD2    C313546   3.089   1.979  17.243  0.9209  0.0887  0.1995
  922MPD2    C413547   3.189   1.959  17.156 -0.1645  0.0465 -0.1864
  922MPD2    C513548   3.287   2.055  17.152 -0.4694  0.4191  0.1631
  922MPD2     H13549   3.004   2.120  17.386  1.4215 -1.0179  0.9317
  922MPD2    H113550   3.198   1.873  17.091  0.0655 -1.2081  1.5067
  922MPD2    H213551   3.367   2.240  17.228 -0.2302  0.4631  0.1226
  922MPD2    H313552   3.365   2.040  17.078 -1.2099 -2.0035 -0.1065
  922MPD2     N13553   2.986   1.882  17.260  0.0747 -0.5367  0.3271
  922MPD2    H513554   2.902   1.909  17.310  0.2322 -0.9260  0.7945
  922MPD2    N113555   3.173   2.297  17.410  0.0493 -0.1121 -0.1391
  922MPD2    H713556   3.093   2.289  17.472 -0.4047 -1.4969 -0.9190
  923MPD2     C13557   4.712   4.596   9.090 -0.3289  0.1982  0.0529
  923MPD2    C113558   0.027   4.684   9.182  0.2928 -0.0206 -0.0267
  923MPD2    C213559   0.141   4.652   9.253  0.6201 -0.4709  0.9025
  923MPD2    C313560   0.209   4.529   9.235  0.3954 -0.7933 -0.5195
  923MPD2    C413561   0.149   4.433   9.149  0.2302 -0.9979 -0.8714
  923MPD2    C513562   0.043   4.472   9.076 -0.1029  0.8415  0.4477
  923MPD2     H13563   0.167   4.707   9.342  2.0482 -0.5069  0.5194
  923MPD2    H113564   0.191   4.334   9.134  1.3738 -0.6364 -0.0449
  923MPD2    H213565   4.618   4.603   9.038 -0.5208 -0.3210  0.3242
  923MPD2    H313566   4.735   4.399   9.010 -2.3195 -0.1168  3.0072
  923MPD2     N13567   0.333   4.499   9.303  0.3526 -0.1875  0.0242
  923MPD2    H513568   0.374   4.410   9.280  0.2987 -0.1853 -0.0787
  923MPD2    N113569   4.703   0.071   9.201  0.1079 -0.4093 -0.0114
  923MPD2    H713570   4.619   0.080   9.145 -0.2602  3.1197  1.1413
  924MPD2     C13571   0.350   2.481  15.868 -0.4988 -0.0175  0.5211
  924MPD2    C113572   0.265   2.458  15.968 -0.0570 -0.7177 -0.1536
  924MPD2    C213573   0.259   2.539  16.074  0.4817  0.1976  0.2676
  924MPD2    C313574   0.340   2.658  16.078 -0.4909  0.6347 -0.2498
  924MPD2    C413575   0.426   2.680  15.970  0.4440 -0.2125 -0.0655
  924MPD2    C513576   0.433   2.586  15.867  0.2038  0.5611 -0.0788
  924MPD2     H13577   0.179   2.536  16.147  0.4106 -1.5310  0.1150
  924MPD2    H113578   0.470   2.779  15.969  0.9806 -0.4449  1.6510
  924MPD2    H213579   0.341   2.414  15.783  1.4545  0.0062  0.3022
  924MPD2    H313580   0.508   2.592  15.789 -1.6649 -0.1611 -1.9281
  924MPD2     N13581   0.316   2.766  16.172 -0.7082  0.3351 -0.5158
  924MPD2    H513582   0.374   2.848  16.159 -1.2413  0.8082  0.0963
  924MPD2    N113583   0.176   2.345  15.965 -0.1568  0.1092  0.6149
  924MPD2    H713584   0.171   2.306  15.871 -0.2670 -0.3531  0.8107
  925MPD2     C13585   3.447   0.506  14.578  0.2493  0.0892  0.2256
  925MPD2    C113586   3.560   0.424  14.591 -0.0248 -0.3349  0.0391
  925MPD2    C213587   3.628   0.428  14.710 -0.1489 -0.3681  0.6739
  925MPD2    C313588   3.588   0.501  14.818  0.0598 -0.5130  0.5494
  925MPD2    C413589   3.475   0.576  14.808  0.1884 -0.2974  0.3390
  925MPD2    C513590   3.408   0.581  14.686  0.2773  0.0293 -0.2242
  925MPD2     H13591   3.710   0.359  14.725 -0.7394 -1.0305  0.8980
  925MPD2    H113592   3.432   0.638  14.886 -0.5862  0.2929 -0.5634
  925MPD2    H213593   3.384   0.511  14.490 -0.4166 -0.3773  0.6727
  925MPD2    H313594   3.316   0.639  14.688 -0.0063 -0.2548 -4.2664
  925MPD2     N13595   3.647   0.481  14.949 -0.0736  0.4428 -0.7986
  925MPD2    H513596   3.710   0.402  14.956  2.9049  2.8061 -0.4385
  925MPD2    N113597   3.603   0.343  14.488 -0.0222  0.2163 -0.0320
  925MPD2    H713598   3.691   0.294  14.499  0.5925  1.4127  0.4553
  926MPD2     C13599   1.511   3.440  13.569  0.1699 -0.5962  0.4636
  926MPD2    C113600   1.618   3.492  13.640 -0.0828 -0.9520 -0.3537
  926MPD2    C213601   1.740   3.524  13.568  0.2954 -0.1538 -0.2130
  926MPD2    C313602   1.741   3.535  13.429  0.4731 -0.5014 -0.6991
  926MPD2    C413603   1.625   3.494  13.365 -0.6304 -0.2520  0.3234
  926MPD2    C513604   1.516   3.443  13.437 -0.0386 -0.1640  1.0102
  926MPD2     H13605   1.824   3.563  13.625 -0.1085  0.1531  0.1719
  926MPD2    H113606   1.613   3.498  13.258 -0.0498  2.1148  0.3576
  926MPD2    H213607   1.422   3.407  13.620  0.2019 -1.8172 -0.2647
  926MPD2    H313608   1.422   3.418  13.387  2.4862 -1.5430 -3.0566
  926MPD2     N13609   1.850   3.590  13.362 -0.3587 -0.1378  0.2776
  926MPD2    H513610   1.838   3.614  13.264  0.6199 -0.5580  0.0510
  926MPD2    N113611   1.618   3.495  13.780  0.0931 -0.0599 -0.9295
  926MPD2    H713612   1.710   3.516  13.819 -0.1486 -0.0585 -0.3563
  927MPD2     C13613   1.509   1.071   0.629 -0.5249 -0.2277 -0.2032
  927MPD2    C113614   1.588   0.960   0.640  0.4803 -0.0341 -0.4179
  927MPD2    C213615   1.702   0.957   0.558  0.3001 -0.2391  0.3067
  927MPD2    C313616   1.735   1.062   0.472 -0.5512  0.1556 -0.5887
  927MPD2    C413617   1.651   1.170   0.467  0.3301  0.5009  0.3345
  927MPD2    C513618   1.540   1.167   0.541  0.1025 -0.1555 -0.3364
  927MPD2     H13619   1.772   0.875   0.553  0.8328  0.2249  0.1922
  927MPD2    H113620   1.660   1.258   0.404  0.8137 -1.2403 -2.0075
  927MPD2    H213621   1.425   1.076   0.696 -0.4479 -0.6365 -0.0729
  927MPD2    H313622   1.467   1.246   0.532  1.7101  1.3229 -0.5139
  927MPD2     N13623   1.847   1.049   0.385 -0.2760 -0.9041  0.3122
  927MPD2    H513624   1.891   0.957   0.381  0.6205 -0.4452 -0.2865
  927MPD2    N113625   1.563   0.863   0.741 -0.2589 -0.2418 -0.3850
  927MPD2    H713626   1.485   0.884   0.803 -0.0084 -1.3910  0.3333
  928MPD2     C13627   4.674   3.350   0.671  1.0080  0.3419 -0.2063
  928MPD2    C113628   4.669   3.492   0.684  0.2881 -0.4463 -0.5525
  928MPD2    C213629   0.011   3.570   0.602 -0.3243 -0.4462  0.7830
  928MPD2    C313630   0.093   3.505   0.509 -0.1320 -0.9591 -0.4300
  928MPD2    C413631   0.086   3.372   0.482  0.2227 -0.3814 -0.5548
  928MPD2    C513632   0.022   3.292   0.579  0.4918 -0.1072  0.2567
  928MPD2     H13633   0.032   3.671   0.635 -2.2356  1.3266 -3.4496
  928MPD2    H113634   0.152   3.320   0.413  0.4655 -0.4075 -0.3011
  928MPD2    H213635   4.613   3.276   0.722 -0.7774  1.4078 -0.7889
  928MPD2    H313636   0.018   3.185   0.564  3.2155 -0.4019  1.5995
  928MPD2     N13637   0.183   3.570   0.416 -0.2058 -0.2676 -0.1147
  928MPD2    H513638   0.211   3.509   0.340 -1.1733 -0.4822 -0.3006
  928MPD2    N113639   4.577   3.544   0.772  0.6776 -0.5419 -0.6806
  928MPD2    H713640   4.543   3.476   0.839  1.2332 -0.2199 -0.0697
  929MPD2     C13641   0.556   4.467  10.235  0.5896  0.8221 -0.1473
  929MPD2    C113642   0.483   4.362  10.189 -0.6314 -0.0380 -0.4160
  929MPD2    C213643   0.422   4.364  10.067 -0.0363  0.1835  0.4821
  929MPD2    C313644   0.413   4.480   9.995 -0.1163 -0.2879 -0.1381
  929MPD2    C413645   0.469   4.592  10.056  0.4911 -0.3563 -0.7664
  929MPD2    C513646   0.536   4.588  10.175  0.1374 -0.4019  0.4609
  929MPD2     H13647   0.354   4.284  10.041 -0.1497 -0.2306  2.0763
  929MPD2    H113648   0.463   4.688  10.005 -0.1736 -0.4415 -0.8562
  929MPD2    H213649   0.602   4.465  10.333  0.7450 -2.2417 -0.2916
  929MPD2    H313650   0.578   4.674  10.224 -0.2666 -0.8635  1.6271
  929MPD2     N13651   0.342   4.494   9.878 -0.4236 -0.0621  0.0139
  929MPD2    H513652   0.312   4.588   9.853  1.3348  0.5737  0.2436
  929MPD2    N113653   0.477   4.246  10.279 -0.3439  0.3611 -0.0621
  929MPD2    H713654   0.517   4.274  10.368  1.0735  2.5537 -1.3783
  930MPD2     C13655   1.855   1.347  14.152 -0.7306  0.1182  0.4484
  930MPD2    C113656   1.802   1.476  14.156  0.1575  0.8854 -0.1416
  930MPD2    C213657   1.823   1.559  14.050  0.6960  0.2335 -0.5907
  930MPD2    C313658   1.907   1.515  13.946 -0.7394  0.3953  0.6170
  930MPD2    C413659   1.963   1.397  13.944 -0.2079 -0.7453  0.5871
  930MPD2    C513660   1.935   1.307  14.048  0.4992 -0.2400 -0.2753
  930MPD2     H13661   1.793   1.663  14.043  0.1137  0.1912  1.2713
  930MPD2    H113662   2.036   1.367  13.870 -1.3283  0.6229 -1.0817
  930MPD2    H213663   1.845   1.277  14.234  0.0860 -0.8991 -0.3187
  930MPD2    H313664   1.993   1.216  14.049 -1.5419 -1.5546  0.0572
  930MPD2     N13665   1.912   1.591  13.829 -0.1170 -0.3496  0.3028
  930MPD2    H513666   1.988   1.558  13.770 -0.0597 -1.3092  0.8971
  930MPD2    N113667   1.731   1.521  14.263  0.0215  0.3415  0.5087
  930MPD2    H713668   1.678   1.456  14.320 -3.3157  3.8511  1.3298
  931MPD2     C13669   2.038   0.222   0.825 -0.2625  0.2322  0.1183
  931MPD2    C113670   1.936   0.216   0.921 -0.5741  0.7124 -0.3273
  931MPD2    C213671   1.944   0.128   1.028  0.0867  0.3664 -0.0771
  931MPD2    C313672   2.034   0.019   1.025  0.1023 -0.1377 -0.0201
  931MPD2    C413673   2.130   0.027   0.930 -0.1739 -0.4537 -1.1008
  931MPD2    C513674   2.134   0.128   0.836 -0.3758  0.8753 -0.3231
  931MPD2     H13675   1.863   0.112   1.098 -2.6643  0.4495 -3.2470
  931MPD2    H113676   2.209   4.689   0.929 -0.9358 -1.2775  0.4236
  931MPD2    H213677   2.044   0.300   0.750  1.6859 -1.1091 -1.1115
  931MPD2    H313678   2.222   0.134   0.773 -1.2457 -0.8078 -1.6823
  931MPD2     N13679   2.041   4.645   1.118 -0.0354 -0.5319  0.1209
  931MPD2    H513680   2.090   4.564   1.082 -0.2426 -0.7782  0.3983
  931MPD2    N113681   1.831   0.315   0.912  0.2602  0.0988  0.6796
  931MPD2    H713682   1.830   0.380   0.834 -0.7847 -2.0833 -1.1390
  932MPD2     C13683   3.963   4.436  10.855 -0.1431 -0.6093 -0.3535
  932MPD2    C113684   3.943   4.513  10.967 -0.0518 -0.2967  0.0151
  932MPD2    C213685   3.991   4.482  11.088  0.2231  0.0868  0.0402
  932MPD2    C313686   4.057   4.360  11.101 -0.0762  0.5518 -0.5634
  932MPD2    C413687   4.073   4.274  10.989 -0.7595  0.6188  0.2767
  932MPD2    C513688   4.017   4.309  10.867 -0.1463  0.0571 -0.2482
  932MPD2     H13689   3.981   4.554  11.168 -1.0603  0.5491 -0.5363
  932MPD2    H113690   4.139   4.188  10.991  0.4007  1.4447 -1.5898
  932MPD2    H213691   3.927   4.460  10.756  1.7763 -2.3094 -1.4750
  932MPD2    H313692   4.032   4.231  10.793 -0.0056  1.2182 -1.4448
  932MPD2     N13693   4.133   4.331  11.221  0.0809 -0.1734  0.3808
  932MPD2    H513694   4.197   4.254  11.205 -2.0611 -2.0195  0.6148
  932MPD2    N113695   3.877   4.636  10.955  0.3949  0.2511  0.4392
  932MPD2    H713696   3.850   4.678  11.044 -3.0579 -0.9346 -0.0526
  933MPD2     C13697   3.958   4.027   1.225 -0.3724  0.4297 -0.0124
  933MPD2    C113698   4.033   4.039   1.112  0.0567  0.2795  0.4415
  933MPD2    C213699   4.002   4.139   1.022  0.3595 -0.6368 -0.4901
  933MPD2    C313700   3.901   4.232   1.058 -0.1299 -0.1650  0.3545
  933MPD2    C413701   3.824   4.212   1.167 -0.4216  0.2187 -0.1837
  933MPD2    C513702   3.850   4.109   1.254  0.3197 -0.0373 -0.5431
  933MPD2     H13703   4.056   4.156   0.929  0.9392  1.4162  0.2239
  933MPD2    H113704   3.734   4.269   1.187 -2.1223 -1.8658 -1.9806
  933MPD2    H213705   3.976   3.947   1.295  1.7977 -1.2710 -2.5337
  933MPD2    H313706   3.790   4.088   1.342  0.8921 -0.0681 -0.1569
  933MPD2     N13707   3.884   4.341   0.967  0.2876 -0.1710  0.2326
  933MPD2    H513708   3.964   4.345   0.906 -0.4555  0.8917 -0.6595
  933MPD2    N113709   4.134   3.949   1.090 -0.1925  1.0651 -0.1936
  933MPD2    H713710   4.163   3.886   1.165  2.3960  1.2227 -1.0566
  934MPD2     C13711   0.416   2.508   1.196 -0.2238 -0.2129 -0.4016
  934MPD2    C113712   0.509   2.406   1.190 -0.2096  0.2916 -0.1115
  934MPD2    C213713   0.473   2.291   1.123 -0.0109 -0.2247  0.6222
  934MPD2    C313714   0.349   2.273   1.070  0.1393  0.0395 -0.3924
  934MPD2    C413715   0.258   2.369   1.084 -0.4142  0.0884  0.6459
  934MPD2    C513716   0.294   2.482   1.146  0.0715  0.2087  0.0298
  934MPD2     H13717   0.553   2.217   1.126  0.7639  0.5963  0.0196
  934MPD2    H113718   0.157   2.350   1.050  0.3456  1.4166 -2.2893
  934MPD2    H213719   0.437   2.603   1.244  0.8250 -0.2476 -0.7976
  934MPD2    H313720   0.223   2.565   1.149 -0.5676 -0.2811 -1.8135
  934MPD2     N13721   0.301   2.163   1.001 -0.4431  0.0618 -0.2865
  934MPD2    H513722   0.203   2.158   0.975 -0.3934 -0.9512 -0.3124
  934MPD2    N113723   0.639   2.401   1.248 -0.2179  0.2393 -0.2086
  934MPD2    H713724   0.694   2.319   1.226 -0.4245 -0.8188  3.2446
  935MPD2     C13725   0.783   1.304   1.068 -0.3092  0.0283  0.3195
  935MPD2    C113726   0.697   1.265   0.961 -0.7155 -0.0386  0.0591
  935MPD2    C213727   0.585   1.349   0.935 -0.7078 -0.5028  0.2456
  935MPD2    C313728   0.577   1.479   0.988 -0.9168  0.3468 -0.2892
  935MPD2    C413729   0.673   1.510   1.087  0.0141  0.4396 -0.1504
  935MPD2    C513730   0.772   1.427   1.129  0.1575  0.4597  0.0940
  935MPD2     H13731   0.513   1.324   0.857  0.6551  1.1739 -1.5524
  935MPD2    H113732   0.668   1.607   1.136  0.8010 -0.5469  1.9021
  935MPD2    H213733   0.863   1.242   1.107 -1.3708 -1.0293  0.7994
  935MPD2    H313734   0.849   1.469   1.193 -0.2196 -2.3084  2.3457
  935MPD2     N13735   0.482   1.577   0.954  0.3530  0.3799 -0.1404
  935MPD2    H513736   0.501   1.667   0.998  2.0577  0.4597 -1.0293
  935MPD2    N113737   0.717   1.139   0.895 -0.3169 -0.1413  0.1386
  935MPD2    H713738   0.641   1.102   0.838  0.0947  1.8625 -1.7079
  936MPD2     C13739   4.064   2.688  12.320 -0.6819 -0.9274 -0.5961
  936MPD2    C113740   4.141   2.806  12.335  0.2508 -0.3456  0.2346
  936MPD2    C213741   4.149   2.892  12.228 -0.3703  0.3770  0.1888
  936MPD2    C313742   4.076   2.872  12.118  0.8705 -0.0062  0.4556
  936MPD2    C413743   3.996   2.764  12.106 -0.7206  0.4530  0.3551
  936MPD2    C513744   3.988   2.670  12.206 -0.3656 -0.7831  0.0196
  936MPD2     H13745   4.203   2.985  12.238 -0.5177  0.5674 -0.8056
  936MPD2    H113746   3.926   2.745  12.026 -1.2565 -2.1638  1.4391
  936MPD2    H213747   4.052   2.621  12.405  2.8717 -1.7332 -0.7165
  936MPD2    H313748   3.917   2.588  12.210  1.7346 -2.6176 -0.1307
  936MPD2     N13749   4.076   2.952  12.001  0.3543  0.2314 -0.1816
  936MPD2    H513750   3.989   2.947  11.950 -0.6179  0.0043  1.4916
  936MPD2    N113751   4.204   2.850  12.446  0.0435 -0.6156  0.1904
  936MPD2    H713752   4.261   2.933  12.434  1.4786 -1.2323  2.5574
  937MPD2     C13753   2.368   0.238  11.636 -0.1509 -0.2598 -0.3128
  937MPD2    C113754   2.379   0.377  11.647 -0.0991  0.3535  0.6142
  937MPD2    C213755   2.470   0.438  11.566 -0.8490  0.2453 -0.0788
  937MPD2    C313756   2.564   0.365  11.488 -0.2835  0.0593 -0.2585
  937MPD2    C413757   2.549   0.231  11.476 -0.2018 -0.2982  0.2356
  937MPD2    C513758   2.449   0.168  11.550 -0.3347 -0.4541 -0.2523
  937MPD2     H13759   2.476   0.546  11.565  2.6163  0.0609  4.4673
  937MPD2    H113760   2.615   0.170  11.416  0.6045 -1.6652  2.4934
  937MPD2    H213761   2.294   0.176  11.685 -1.3369 -0.5126 -2.4321
  937MPD2    H313762   2.432   0.061  11.545  0.5445 -0.6673  1.5351
  937MPD2     N13763   2.664   0.443  11.420  0.1006 -0.1649 -0.0751
  937MPD2    H513764   2.656   0.544  11.415  0.2566 -0.1828 -0.6143
  937MPD2    N113765   2.285   0.458  11.718  0.0766 -0.2987  0.1701
  937MPD2    H713766   2.305   0.557  11.724  0.4284 -0.5066  2.3930
  938MPD2     C13767   4.474   1.249   0.325 -0.1727 -0.2212  0.1388
  938MPD2    C113768   4.517   1.284   0.450  0.3176 -0.7925 -0.0774
  938MPD2    C213769   4.524   1.194   0.556  0.6525 -0.1249 -0.0029
  938MPD2    C313770   4.499   1.060   0.535 -0.0633  0.7985  0.1898
  938MPD2    C413771   4.463   1.021   0.413  0.8354  0.1301 -0.6163
  938MPD2    C513772   4.450   1.111   0.307 -1.1216  0.0174  0.0496
  938MPD2     H13773   4.540   1.229   0.657  2.2622  1.7218 -0.9018
  938MPD2    H113774   4.441   0.917   0.394  0.5122 -0.0224  0.5803
  938MPD2    H213775   4.456   1.316   0.242  0.2251  0.7774  0.8591
  938MPD2    H313776   4.417   1.072   0.211 -2.6663 -2.3879  1.5580
  938MPD2     N13777   4.507   0.963   0.638  0.7418 -0.5564 -0.4447
  938MPD2    H513778   4.493   0.866   0.611  2.2311 -0.0202 -3.0703
  938MPD2    N113779   4.536   1.425   0.463  0.1681 -0.2536  0.6546
  938MPD2    H713780   4.566   1.455   0.555  0.7281  0.2053  0.3219
  939MPD2     C13781   1.274   1.769   0.660  0.6853 -0.0758 -0.2170
  939MPD2    C113782   1.230   1.900   0.667 -0.0104  0.2570  0.0297
  939MPD2    C213783   1.112   1.927   0.584  0.0454  0.3489  0.2989
  939MPD2    C313784   1.062   1.832   0.503  0.6842 -0.4904  0.1514
  939MPD2    C413785   1.105   1.703   0.510  0.1418 -0.2689 -0.1598
  939MPD2    C513786   1.216   1.677   0.583 -0.0959  0.8198 -0.1414
  939MPD2     H13787   1.075   2.028   0.574 -1.7714 -0.0273  3.2111
  939MPD2    H113788   1.070   1.621   0.449 -2.3921  2.4946 -2.4557
  939MPD2    H213789   1.367   1.752   0.714  0.4432  1.1436  0.5708
  939MPD2    H313790   1.262   1.579   0.593 -0.6286  0.7994  2.0652
  939MPD2     N13791   0.968   1.879   0.409  0.0164 -0.7018 -0.4527
  939MPD2    H513792   0.948   1.978   0.418  1.2107 -0.4306 -0.7648
  939MPD2    N113793   1.304   1.995   0.734 -0.5461 -0.6833 -0.4856
  939MPD2    H713794   1.382   1.951   0.782  0.4013  1.9869  0.4390
  940MPD2     C13795   4.501   3.602  13.383 -0.8133 -0.4374  0.3987
  940MPD2    C113796   4.517   3.510  13.484 -0.2399  0.2800  0.1790
  940MPD2    C213797   4.638   3.439  13.496 -0.6971  0.3751 -0.2797
  940MPD2    C313798   0.007   3.466  13.405 -0.0824 -0.2183  0.2798
  940MPD2    C413799   4.724   3.563  13.314  0.6251 -0.0162 -0.4542
  940MPD2    C513800   4.602   3.635  13.299  0.2383  0.0265  0.1721
  940MPD2     H13801   4.636   3.355  13.564  2.5967  0.3514 -0.1791
  940MPD2    H113802   0.071   3.601  13.257  1.9964 -1.2487  0.7485
  940MPD2    H213803   4.408   3.659  13.378 -1.1084 -0.8372  1.2299
  940MPD2    H313804   4.590   3.714  13.227 -0.2483  0.3548  0.6191
  940MPD2     N13805   0.135   3.402  13.396  0.0398  0.2559  0.2571
  940MPD2    H513806   0.193   3.440  13.323  1.7262 -1.1227  0.8800
  940MPD2    N113807   4.417   3.474  13.564 -0.2424  0.3692 -0.1322
  940MPD2    H713808   4.440   3.417  13.645 -1.8936  0.1917  0.2183
  941MPD2     C13809   4.290   2.902   9.751  0.5185 -0.3551  0.9671
  941MPD2    C113810   4.375   2.843   9.850  0.9150 -0.0872  0.2434
  941MPD2    C213811   4.323   2.746   9.932  0.4307  0.7563  0.5852
  941MPD2    C313812   4.191   2.708   9.924 -0.7031 -0.1449  0.5294
  941MPD2    C413813   4.113   2.770   9.830  0.1264  0.5831  0.1935
  941MPD2    C513814   4.162   2.863   9.746  0.1744  0.1331  0.0241
  941MPD2     H13815   4.387   2.696  10.003  0.6766  1.4376  0.8503
  941MPD2    H113816   4.006   2.753   9.833  0.1597  0.3631  0.1423
  941MPD2    H213817   4.315   2.985   9.685 -0.5063  0.4324  1.5654
  941MPD2    H313818   4.101   2.900   9.664  2.6816  2.1967 -0.9013
  941MPD2     N13819   4.126   2.618  10.004 -0.8659  0.5257  0.2200
  941MPD2    H513820   4.026   2.605   9.987 -0.7155  0.0832 -0.3326
  941MPD2    N113821   4.504   2.885   9.871  0.1499 -0.6054  0.8544
  941MPD2    H713822   4.551   2.833   9.945  0.6171 -0.0542  0.9475
  942MPD2     C13823   0.572   0.392   9.589  0.2802  0.3652 -1.1731
  942MPD2    C113824   0.653   0.314   9.512  0.3475 -0.3962 -0.1492
  942MPD2    C213825   0.591   0.245   9.406 -0.7393  0.0541  0.2272
  942MPD2    C313826   0.459   0.266   9.368 -0.3262 -0.1793 -0.3859
  942MPD2    C413827   0.387   0.354   9.441 -0.4609  0.3603 -0.3198
  942MPD2    C513828   0.441   0.411   9.555 -0.1754 -0.0679 -0.3074
  942MPD2     H13829   0.649   0.168   9.355 -0.3837  1.2115 -1.1059
  942MPD2    H113830   0.291   0.396   9.411 -0.4882 -1.6913 -3.0172
  942MPD2    H213831   0.610   0.451   9.672  1.6236 -0.1597 -1.4052
  942MPD2    H313832   0.382   0.484   9.610  1.1909  0.1035  0.9273
  942MPD2     N13833   0.398   0.217   9.252  0.5444 -0.4516 -0.4584
  942MPD2    H513834   0.299   0.238   9.245  0.6721  0.8088  1.5494
  942MPD2    N113835   0.788   0.291   9.543  0.3678 -0.3380  0.5201
  942MPD2    H713836   0.828   0.213   9.492  0.0893  0.4262 -0.8645
  943MPD2     C13837   2.887   2.451  10.304  0.3738 -0.2252  0.1282
  943MPD2    C113838   2.814   2.394  10.406  0.5724  0.3553 -0.1426
  943MPD2    C213839   2.854   2.406  10.534  0.1648 -1.1300  0.2066
  943MPD2    C313840   2.973   2.472  10.565 -0.2204  0.5382 -0.3169
  943MPD2    C413841   3.048   2.532  10.454 -0.1049 -0.4753  0.0862
  943MPD2    C513842   2.996   2.529  10.323 -0.2941  0.1903 -0.0276
  943MPD2     H13843   2.793   2.359  10.611 -0.4708 -0.9625 -0.1918
  943MPD2    H113844   3.142   2.583  10.465 -0.5217  0.6621 -1.6946
  943MPD2    H213845   2.856   2.438  10.201  0.3427  3.0029 -0.2755
  943MPD2    H313846   3.052   2.577  10.244 -0.0013 -1.0694 -0.5989
  943MPD2     N13847   3.028   2.479  10.697  0.2435 -0.4271 -0.3199
  943MPD2    H513848   3.117   2.527  10.705  0.3497 -0.7489  0.4087
  943MPD2    N113849   2.690   2.343  10.369  0.0117 -0.7935  0.1124
  943MPD2    H713850   2.682   2.333  10.269  0.1758  0.6865 -0.0465
  944MPD2     C13851   3.241   2.324  11.516 -0.5774 -0.0978 -0.4598
  944MPD2    C113852   3.159   2.229  11.567 -0.7274  0.5365 -0.3218
  944MPD2    C213853   3.034   2.264  11.610  0.1140 -0.5296 -0.6431
  944MPD2    C313854   2.986   2.388  11.590  0.0411  0.6897  0.0042
  944MPD2    C413855   3.068   2.483  11.542  0.1849  0.1366 -0.3856
  944MPD2    C513856   3.199   2.454  11.516  0.1467  0.7300  0.2404
  944MPD2     H13857   2.969   2.185  11.647 -2.3502  0.5451 -2.7092
  944MPD2    H113858   3.030   2.583  11.524 -0.8235  0.2741  2.4723
  944MPD2    H213859   3.334   2.296  11.467  0.0988  1.0114  0.1818
  944MPD2    H313860   3.264   2.530  11.474  0.1072  1.2681  1.1404
  944MPD2     N13861   2.852   2.411  11.628  0.2698 -0.0607 -0.8646
  944MPD2    H513862   2.802   2.327  11.657  0.5120  0.0952  0.0082
  944MPD2    N113863   3.198   2.092  11.555 -0.4281 -1.1504 -0.2274
  944MPD2    H713864   3.278   2.079  11.494  1.5080 -0.3714  2.1692
    1TMC1    C113865   1.122   2.714  14.909  0.6208  0.0663  0.4364
    1TMC1    C213866   1.002   2.654  14.906  0.4092  0.5827  0.1870
    1TMC1    C313867   0.932   2.654  15.017  0.2874 -0.1504  0.3473
    1TMC1    C413868   1.183   2.765  15.024 -0.0500 -0.1461  0.2453
    1TMC1    C513869   1.100   2.768  15.131  0.7589  0.2301  0.2367
    1TMC1    C613870   0.978   2.709  15.134  0.5644 -0.0364 -0.1028
    1TMC1     C13871   1.186   2.774  14.788 -0.9792  0.6173  0.3625
    1TMC1     O13872   1.309   2.788  14.784 -0.4319 -0.3107  0.3553
    1TMC1     H13873   0.970   2.603  14.816  1.3969  0.3806 -0.0565
    1TMC1    H113874   1.283   2.804  15.012  0.7922 -2.3030  0.1818
    1TMC1    H213875   0.913   2.708  15.221  0.3790  0.0366 -0.2389
    1TMC1    C713876   1.160   2.815  15.255  0.4121 -0.7939  0.3293
    1TMC1    C813877   0.792   2.615  15.023 -0.1201 -0.2531  0.5315
    1TMC1    O113878   1.278   2.809  15.279 -0.3603  0.1175 -0.0563
    1TMC1    O213879   0.728   2.602  15.125 -0.6449 -0.4985 -0.0961
    1TMC1    O313880   1.065   2.815  15.359  0.1766 -0.0477  0.1225
    1TMC1    H313881   0.987   2.866  15.328 -2.0166 -2.4665  1.6132
    1TMC1    O513882   0.738   2.635  14.895 -0.5306  0.1230 -0.4304
    1TMC1    H513883   0.790   2.698  14.841 -0.2719  1.9189  1.9357
    2MPD2     C13884   1.151   3.091  14.390  0.0680 -0.2203 -0.2595
    2MPD2    C113885   1.025   3.042  14.417  0.0489 -0.1436  0.2488
    2MPD2    C213886   1.005   2.949  14.518 -0.7082 -0.9166  0.6367
    2MPD2    C313887   1.114   2.901  14.593 -0.1208 -0.8319 -1.0493
    2MPD2    C413888   1.242   2.948  14.561  0.0951 -0.5947 -0.2727
    2MPD2    C513889   1.256   3.045  14.460  0.3414  0.8909  0.2430
    2MPD2     H13890   0.909   2.917  14.557 -1.7176  2.0092  0.5771
    2MPD2    H113891   1.334   2.920  14.612  0.0128 -1.5960 -0.6799
    2MPD2    H213892   1.163   3.172  14.319  1.6233 -1.2261 -1.1587
    2MPD2    H313893   1.354   3.082  14.434  0.5163  1.0672  1.1621
    2MPD2     N13894   1.090   2.815  14.695  0.3425 -0.4720  1.1376
    2MPD2    H513895   0.993   2.795  14.717  0.7823 -2.0455  1.6755
    2MPD2    N113896   0.917   3.095  14.339 -0.0550 -0.1462  0.6470
    2MPD2    H713897   0.938   3.167  14.270  1.2416 -1.0196  0.1354
    3TMC2    C113898   0.695   3.145  14.276 -0.0647 -0.0186  0.6118
    3TMC2    C213899   0.561   3.130  14.294 -0.3246  0.4919  0.4265
    3TMC2    C313900   0.480   3.228  14.233 -0.3011  0.9930 -0.6037
    3TMC2    C413901   0.749   3.232  14.187 -1.3618 -0.2535  0.6030
    3TMC2    C513902   0.659   3.317  14.121  0.5366  0.8664  0.1509
    3TMC2    C613903   0.526   3.327  14.147  0.0781 -0.3109  0.3668
    3TMC2     C13904   0.784   3.067  14.361  0.6627 -0.0685 -0.8122
    3TMC2     O13905   0.733   2.997  14.450  0.3482  0.1709 -0.0788
    3TMC2     H13906   0.530   3.052  14.362 -1.4414 -0.1009 -0.7714
    3TMC2    H113907   0.850   3.240  14.149 -0.8263 -0.9072  1.8848
    3TMC2    H213908   0.454   3.378  14.085  0.7078  1.2446  0.9001
    3TMC2    C713909   0.706   3.401  14.014 -0.0000  0.3927 -0.3368
    3TMC2    C813910   0.340   3.220  14.273  0.3864  0.4258 -0.0557
    3TMC2    O113911   0.802   3.367  13.943  0.3381  0.0233 -0.2843
    3TMC2    O213912   0.287   3.124  14.326  0.7041 -0.3883 -0.3504
    3TMC2    O513913   0.309   3.349  14.293  0.0790 -0.5458  0.6274
    3TMC2    H513914   0.383   3.402  14.257  0.6559 -2.4910 -1.0414
    4TMC2    C113915   0.043   4.008  13.753 -1.1375 -0.2224  0.3191
    4TMC2    C213916   0.074   4.099  13.658 -0.8259 -0.4078  0.3303
    4TMC2    C313917   0.200   4.159  13.660  0.6166 -0.2365 -0.0081
    4TMC2    C413918   0.128   3.980  13.855 -0.1138  0.2303  0.0181
    4TMC2    C513919   0.250   4.024  13.845 -0.2255 -0.7019  0.9654
    4TMC2    C613920   0.292   4.123  13.754 -0.3215  0.0866  0.4416
    4TMC2     C13921   4.649   3.946  13.760 -0.8824 -0.6490 -0.4256
    4TMC2     O13922   4.626   3.872  13.853 -0.1180  0.2037 -0.2265
    4TMC2     H13923   4.727   4.141  13.604 -0.6078 -1.7360 -1.0399
    4TMC2    H113924   0.109   3.896  13.921  0.8222  0.2347  0.2983
    4TMC2    H213925   0.393   4.160  13.740 -0.1950  0.2990  1.9312
    4TMC2    C713926   0.354   3.931  13.891 -0.8449 -0.4669 -0.4267
    4TMC2    C813927   0.241   4.269  13.572 -0.3720 -0.6092 -0.3304
    4TMC2    O113928   0.337   3.889  14.006 -0.4197 -0.6623  0.0825
    4TMC2    O213929   0.308   4.364  13.612 -0.1355 -0.8993 -0.6082
    4TMC2    O513930   0.151   4.259  13.466  0.1202 -0.5277  0.0743
    4TMC2    H513931   0.101   4.174  13.465  0.9226 -1.0462  3.2587
    5MPD2     C13932   4.182   3.836  13.561  0.1297  0.5290 -0.1516
    5MPD2    C113933   4.264   3.879  13.457  0.2414  0.1450 -0.5166
    5MPD2    C213934   4.397   3.910  13.483 -0.6449  0.7493  0.4333
    5MPD2    C313935   4.447   3.916  13.615 -0.0225 -0.3988 -0.1547
    5MPD2    C413936   4.361   3.872  13.715 -0.1344  0.4718 -0.5403
    5MPD2    C513937   4.231   3.830  13.685 -0.5019 -0.3520  0.0634
    5MPD2     H13938   4.458   3.940  13.399 -0.2993 -1.0913  0.0150
    5MPD2    H113939   4.390   3.876  13.819  0.7429  1.9709 -0.8389
    5MPD2    H213940   4.084   3.798  13.532 -0.7251  2.0017  0.8187
    5MPD2    H313941   4.163   3.790  13.759 -1.0559 -0.3727 -0.4587
    5MPD2     N13942   4.582   3.959  13.642  0.0222  0.1712 -0.7548
    5MPD2    H513943   4.629   4.001  13.563  2.0565 -1.3426 -0.3713
    5MPD2    N113944   4.201   3.911  13.331  0.8813  0.1867  0.6106
    5MPD2    H713945   4.099   3.915  13.331  0.7585 -2.9231  0.5981
    6MPD1     C13946   4.581   1.029  13.176 -0.3267  0.2158 -0.2364
    6MPD1    C113947   4.515   0.986  13.291  0.4639 -0.0450  0.5014
    6MPD1    C213948   4.503   0.854  13.307  0.7323  0.5209 -0.2264
    6MPD1    C313949   4.529   0.766  13.200 -0.1065 -0.0376 -0.2820
    6MPD1    C413950   4.597   0.808  13.087 -0.6407  0.3301 -0.9858
    6MPD1    C513951   4.621   0.943  13.078  0.5025 -0.3559 -0.2133
    6MPD1     H13952   4.458   0.822  13.401  0.1266  2.8273  0.2770
    6MPD1    H113953   4.617   0.744  13.001 -2.8112 -0.3284 -0.9814
    6MPD1    H213954   4.583   1.136  13.163  1.7873 -0.0716 -2.2617
    6MPD1    H313955   4.687   0.985  13.002 -0.0837 -2.5484 -1.9414
    6MPD1     N13956   4.489   0.628  13.199 -0.5847 -0.1249  0.1769
    6MPD1    H513957   4.511   0.571  13.119 -0.4969 -0.2507  0.2915
    6MPD1    N113958   4.487   1.076  13.390 -0.5531 -0.0678  0.0893
    6MPD1    H613959   4.428   1.024  13.455 -2.2159  1.7473  0.0293
    6MPD1    H713960   4.441   1.162  13.359 -0.4064 -0.6778 -1.8175
    7MPD2     C13961   3.860   0.065  13.175  0.7194 -0.3444 -0.4670
    7MPD2    C113962   3.989   0.014  13.197  0.5539 -0.2884 -0.6110
    7MPD2    C213963   4.011   4.617  13.184 -0.6348 -0.3473 -0.5712
    7MPD2    C313964   3.916   4.538  13.127  1.4217  0.9161 -0.1759
    7MPD2    C413965   3.795   4.591  13.092 -0.5572  0.1449  0.4751
    7MPD2    C513966   3.762   4.720  13.117 -0.3624  0.1422  0.4006
    7MPD2     H13967   4.107   4.576  13.211 -0.6242 -0.4334 -0.7427
    7MPD2    H113968   3.721   4.523  13.052 -0.0444  0.2557 -0.6767
    7MPD2    H213969   3.839   0.169  13.195  0.6580 -0.6402  1.0343
    7MPD2    H313970   3.659   0.013  13.104 -0.7744 -0.3392  2.6072
    7MPD2     N13971   3.939   4.402  13.100  0.5732  0.1633 -0.0479
    7MPD2    H513972   3.870   4.356  13.040 -0.2054 -1.4207  2.0416
    7MPD2    N113973   4.098   0.088  13.240  0.1967  0.9513 -0.3437
    7MPD2    H713974   4.184   0.037  13.254 -1.0136 -1.1068 -0.4434
    8TMC3    C113975   4.062   4.196  13.076  0.3434 -0.3360 -0.4113
    8TMC3    C213976   4.102   4.093  13.162  0.3070 -0.1014  1.0032
    8TMC3    C313977   4.205   4.009  13.117 -0.3558 -0.4282  0.3954
    8TMC3    C413978   4.120   4.211  12.951 -0.6252 -0.1569 -0.7842
    8TMC3    C513979   4.219   4.123  12.913 -0.0190 -0.1227  0.9246
    8TMC3    C613980   4.258   4.020  12.987 -0.1605 -0.6275  0.4277
    8TMC3     C13981   4.043   4.326  13.139 -0.0441  0.5041  0.2745
    8TMC3     O13982   4.134   4.354  13.217 -0.3265  0.1912  0.5941
    8TMC3     H13983   4.091   4.117  13.268  1.3600 -0.6210  1.2227
    8TMC3    H113984   4.100   4.298  12.889 -0.6883 -0.4569 -1.1867
    8TMC3    H213985   4.333   3.944  12.966  0.4327 -0.7557  3.0273
    8TMC3    C713986   4.335   4.204  12.867  0.1946  0.4359  0.1015
    8TMC3    C813987   4.279   3.932  13.216  0.0135 -0.0607 -0.3972
    8TMC3    O113988   4.428   4.144  12.814 -0.4221 -0.2445  0.1250
    8TMC3    O213989   4.397   3.914  13.189 -0.0440 -0.7506 -0.2046
    9TMC3    C113990   4.401   0.430  13.260 -0.1574  0.7218  0.7517
    9TMC3    C213991   4.495   0.357  13.188  0.4135  0.5983  0.2528
    9TMC3    C313992   4.461   0.228  13.151 -0.5677  0.1686  0.1908
    9TMC3    C413993   4.282   0.380  13.288 -0.3199  0.3994 -0.1662
    9TMC3    C513994   4.252   0.257  13.247  0.7500  0.4384  0.4725
    9TMC3    C613995   4.331   0.180  13.170  0.1553 -0.3596 -0.9698
    9TMC3     C13996   4.419   0.567  13.297 -0.9543 -0.0475 -1.4741
    9TMC3     O13997   4.360   0.608  13.394 -0.0969  0.5268 -0.2348
    9TMC3     H13998   4.589   0.397  13.152 -0.1767  1.0090 -0.8370
    9TMC3    H113999   4.206   0.446  13.329  0.9197  0.5691  1.8596
    9TMC3    H214000   4.299   0.088  13.124  2.6027 -1.3228 -0.7464
    9TMC3    C714001   4.110   0.222  13.260  0.4961 -0.3534  0.1506
    9TMC3    C814002   4.556   0.129  13.080  0.5433  0.2148 -0.0025
    9TMC3    O114003   4.026   0.304  13.239  0.5175 -0.1663  0.2195
    9TMC3    O214004   4.645   0.169  13.007  0.1853  0.1640 -0.3346
   10MPD2     C14005   4.521   4.422  12.815 -0.3668 -0.4938 -0.4743
   10MPD2    C114006   4.429   4.424  12.918  0.1358  0.4562 -1.2764
   10MPD2    C214007   4.423   4.536  13.001 -0.9373  0.3911  0.7604
   10MPD2    C314008   4.514   4.640  12.990 -0.1052  0.1619  0.2503
   10MPD2    C414009   4.611   4.629  12.892 -0.2626  0.3589 -0.5924
   10MPD2    C514010   4.606   4.529  12.805 -1.1486 -0.4732 -0.4954
   10MPD2     H14011   4.345   4.538  13.076 -2.2007 -0.8625 -0.5323
   10MPD2    H114012   4.687   4.706  12.876  0.1002 -0.3331 -2.1974
   10MPD2    H214013   4.527   4.336  12.748  1.9372 -0.8018  0.1300
   10MPD2    H314014   4.669   4.530  12.717 -1.7139  2.1594 -0.8867
   10MPD2     N14015   4.496   0.009  13.079  0.4323  0.1168 -0.4095
   10MPD2    H514016   4.426   4.729  13.150  0.4510  0.3705 -0.3336
   10MPD2    N114017   4.337   4.324  12.944  0.3507 -0.4238  0.0751
   10MPD2    H714018   4.276   4.339  13.023 -0.1438 -1.2623 -0.1494
   11MPD2     C14019   0.741   3.601  13.800  0.7592  0.2135  0.1773
   11MPD2    C114020   0.645   3.610  13.902 -0.3231  0.5738  0.2923
   11MPD2    C214021   0.553   3.709  13.903  0.0222  0.0202  0.0187
   11MPD2    C314022   0.537   3.788  13.794 -0.8334 -0.7561 -0.2807
   11MPD2    C414023   0.627   3.775  13.688 -0.9924  0.3361  0.1689
   11MPD2    C514024   0.718   3.681  13.688 -0.7620 -0.5764 -0.5791
   11MPD2     H14025   0.471   3.707  13.975  0.5303 -0.1788  0.5896
   11MPD2    H114026   0.613   3.829  13.595 -2.3125  0.4867  0.4631
   11MPD2    H214027   0.829   3.538  13.811  0.7980  0.0518 -1.1252
   11MPD2    H314028   0.798   3.682  13.615  0.6848  0.7537  1.0045
   11MPD2     N14029   0.440   3.893  13.789  0.4778 -0.6329  0.0370
   11MPD2    H514030   0.423   3.943  13.702 -1.0550  1.6103  1.6127
   11MPD2    N114031   0.635   3.518  14.009 -0.5276  0.3060  0.4451
   11MPD2    H714032   0.564   3.535  14.079 -0.1467 -0.7549  1.1040
    1MPD1     C14033   2.181   0.031  17.648 -0.7941  0.2293  0.6132
    1MPD1    C114034   2.255   4.655  17.613 -1.1434  0.4604  0.5415
    1MPD1    C214035   2.363   4.676  17.526 -0.3071  0.2048  0.0412
    1MPD1    C314036   2.418   0.062  17.510 -0.3852 -0.4356 -0.3897
    1MPD1    C414037   2.347   0.174  17.559  0.5035 -0.2722 -0.3108
    1MPD1    C514038   2.230   0.157  17.621  0.0130  0.3787  0.0259
    1MPD1     H14039   2.407   4.589  17.478 -0.6572  0.1707 -0.2144
    1MPD1    H114040   2.383   0.277  17.555  0.8166 -0.4375 -1.7730
    1MPD1    H214041   2.103   0.026  17.724 -2.6776 -1.2818 -1.4279
    1MPD1    H314042   2.193   0.254  17.653 -2.2366 -1.9892  4.6400
    1MPD1     N14043   2.530   0.085  17.430 -0.3216  0.4517  0.0666
    1MPD1    H514044   2.558   0.183  17.424 -1.5734  0.9087  1.8014
    1MPD1    N114045   2.202   4.524  17.632  0.2843  0.1857  0.7338
    1MPD1    H614046   2.161   4.519  17.725 -1.5173  1.3434  0.0084
    1MPD1    H714047   2.276   4.454  17.627  0.4237  0.3236  0.8281
    2MPD1     C14048   3.094   0.785  16.983 -0.0078  0.1120  0.1167
    2MPD1    C114049   2.969   0.727  16.964  0.6403 -0.1154  0.0815
    2MPD1    C214050   2.927   0.625  17.048 -0.1254  0.0370 -0.2027
    2MPD1    C314051   3.008   0.565  17.141  0.3529  0.5651 -0.3424
    2MPD1    C414052   3.131   0.622  17.161 -0.0927 -0.1018 -0.1703
    2MPD1    C514053   3.170   0.732  17.084  0.0945 -0.3952  0.7315
    2MPD1     H14054   2.831   0.583  17.019  1.3561 -2.2924 -1.7329
    2MPD1    H114055   3.195   0.591  17.242 -0.5777 -1.3457 -0.2552
    2MPD1    H214056   3.136   0.870  16.929 -0.8316 -0.4110 -1.3492
    2MPD1    H314057   3.266   0.777  17.109  1.4916 -2.1996 -1.4107
    2MPD1     N14058   2.971   0.446  17.223 -0.2560 -0.0179 -0.4449
    2MPD1    H514059   3.048   0.408  17.278 -0.0479 -0.5732 -1.1101
    2MPD1    N114060   2.876   0.766  16.863  0.1914 -0.4792 -0.4162
    2MPD1    H614061   2.787   0.777  16.912  1.7588 -1.3383  2.6486
    2MPD1    H714062   2.911   0.860  16.843 -1.0954 -0.0249 -0.4962
    3TMC3    C114063   2.856   0.243  17.263 -0.0741  0.9114 -0.3253
    3TMC3    C214064   2.974   0.177  17.298  0.4712  0.3016  0.3166
    3TMC3    C314065   2.961   0.041  17.332  0.1212  0.4775 -0.2236
    3TMC3    C414066   2.735   0.177  17.270  0.4015  0.5094  0.1907
    3TMC3    C514067   2.727   0.045  17.308  0.3265 -0.1499  0.0553
    3TMC3    C614068   2.845   4.715  17.336  0.2653  0.8290  1.2583
    3TMC3     C14069   2.853   0.378  17.208  0.2931 -0.3478 -0.5867
    3TMC3     O14070   2.750   0.419  17.158  0.2951 -0.3163 -0.3022
    3TMC3     H14071   3.068   0.231  17.297  0.4157  0.3904  0.0818
    3TMC3    H114072   2.648   0.241  17.267 -0.9608 -1.3353  0.4106
    3TMC3    H214073   2.851   4.610  17.365 -0.1893  1.0088  1.9881
    3TMC3    C714074   2.609   4.729  17.373  0.2430  0.5428  0.4228
    3TMC3    C814075   3.080   4.697  17.358 -0.1775 -0.1583 -0.0015
    3TMC3    O114076   2.628   4.616  17.418  0.3273 -0.2941  0.0967
    3TMC3    O214077   3.078   4.574  17.358  0.2463  0.0580  0.2141
    4MPD1     C14078   3.582   4.696  17.380 -0.1550 -0.2713  1.1618
    4MPD1    C114079   3.539   0.087  17.376 -0.7431  0.2754 -0.1822
    4MPD1    C214080   3.402   0.110  17.374 -0.6105  0.1807 -0.0048
    4MPD1    C314081   3.317   0.005  17.388 -0.2685  0.6533  1.0665
    4MPD1    C414082   3.360   4.616  17.414  0.0719  1.0227 -0.6701
    4MPD1    C514083   3.496   4.595  17.403  0.0798  0.6299  0.4756
    4MPD1     H14084   3.355   0.208  17.377 -1.1667 -0.0402 -1.9851
    4MPD1    H114085   3.298   4.531  17.440  1.7316  0.9925  3.2277
    4MPD1    H214086   3.687   4.671  17.384 -0.4310 -1.3903  1.2744
    4MPD1    H314087   3.531   4.493  17.414  2.0110  1.2972  0.5284
    4MPD1     N14088   3.183   0.046  17.381  0.7324  0.5867 -1.0720
    4MPD1    H514089   3.166   0.146  17.393 -2.8445 -0.4298  2.6411
    4MPD1    N114090   3.627   0.194  17.349 -0.6650 -0.0466 -0.3374
    4MPD1    H614091   3.724   0.168  17.368 -0.1096  2.3796  0.0709
    4MPD1    H714092   3.598   0.282  17.389  0.3471  0.8614 -1.6146
    1TCq1    O114093   0.241   4.451  11.791  0.4687  0.8484  0.3926
    1TCq1    C114094   0.117   4.511  11.812 -0.3652  0.0918  0.3593
    1TCq1    O214095   0.097   4.631  11.824 -0.1548  0.7745  0.0603
    1TCq1    C214096   0.032   4.428  11.732 -0.3036  0.0241 -0.2589
    1TCq1    C314097   0.024   4.294  11.757  0.1518  0.3649 -0.0324
    1TCq1    C414098   4.697   4.219  11.660  0.8335 -0.2563  0.3852
    1TCq1    C514099   4.626   4.280  11.557  0.4745 -0.9654 -0.5231
    1TCq1    C614100   4.643   4.416  11.545 -0.2808 -0.0982  0.9041
    1TCq1    C714101   4.717   4.496  11.622  0.0511 -0.2012  0.0183
    1TCq1    C814102   4.578   4.473  11.426  0.0217  0.3486 -0.2039
    1TCq1    O414103   4.570   4.401  11.327  0.1469 -0.2857  0.5834
    1TCq1    C914104   4.642   4.095  11.709 -0.9349  0.2055  0.9139
    1TCq1    O514105   4.702   4.048  11.808 -0.7724  0.2764 -0.0456
    1TCq1    O614106   4.526   4.065  11.675 -0.6329 -0.2973 -0.3387
    1TCq1    H114107   0.236   4.361  11.752 -1.0082  1.1057 -0.0148
    1TCq1    H214108   0.044   4.259  11.858  0.4824 -2.5416 -1.0947
    1TCq1    H314109   4.555   4.221  11.500 -1.8702 -0.5442  1.9184
    1TCq1    H414110   4.731   4.603  11.608 -3.0551  0.5535  2.7552
    2MPD1     C14111   4.183   4.725  11.217 -0.4448 -0.1489  0.4652
    2MPD1    C114112   4.190   0.023  11.353 -0.8528 -0.5777  0.3460
    2MPD1    C214113   4.294   4.713  11.430 -0.0724  0.1418  0.6793
    2MPD1    C314114   4.391   4.628  11.374 -0.2992  0.6452 -1.0429
    2MPD1    C414115   4.382   4.603  11.236  0.0110 -0.3245 -0.3065
    2MPD1    C514116   4.281   4.650  11.157  0.6805  0.2766  0.9254
    2MPD1     H14117   4.294   4.726  11.538 -0.7649  0.4426  0.6446
    2MPD1    H114118   4.451   4.542  11.180  0.5386  0.3260 -0.3663
    2MPD1    H214119   4.097   0.011  11.155 -0.5010 -1.2830  0.1478
    2MPD1    H314120   4.281   4.624  11.052 -0.6528  2.4659  0.3846
    2MPD1     N14121   4.492   4.576  11.461 -0.1788  0.3118 -0.2662
    2MPD1    H514122   4.490   4.611  11.557 -1.2283  0.9311 -0.5083
    2MPD1    N114123   4.092   0.101  11.415 -0.0322 -0.3727 -0.7400
    2MPD1    H614124   4.016   0.129  11.353 -0.5999 -3.1408 -1.2725
    2MPD1    H714125   4.127   0.183  11.464 -0.3909 -0.3198 -0.5703
    1TMC1    C114126   2.731   0.582   0.637 -0.1037 -0.0989  0.2606
    1TMC1    C214127   2.839   0.580   0.718 -0.0104  0.3285  0.2867
    1TMC1    C314128   2.849   0.700   0.793  0.0625  0.2982 -0.0965
    1TMC1    C414129   2.645   0.691   0.625  0.3341  1.0138 -0.1735
    1TMC1    C514130   2.675   0.810   0.681 -0.8383 -0.1864 -0.0983
    1TMC1    C614131   2.775   0.814   0.776  0.5871 -0.0864 -0.2374
    1TMC1     C14132   2.658   0.460   0.622 -0.5347 -0.2655  0.4568
    1TMC1     O14133   2.536   0.464   0.638 -0.0314 -1.0208  0.0393
    1TMC1     H14134   2.918   0.506   0.724  0.7154  0.9803 -1.3348
    1TMC1    H114135   2.566   0.682   0.551 -1.0475 -2.2984  1.7241
    1TMC1    H214136   2.790   0.905   0.832  2.5127 -0.1752 -0.6107
    1TMC1    C714137   2.564   0.899   0.694  0.3945  0.0224 -0.3213
    1TMC1    C814138   2.969   0.725   0.872  0.5439  0.1124  0.0181
    1TMC1    O114139   2.475   0.886   0.610 -0.1244  0.3771  0.3283
    1TMC1    O214140   3.001   0.832   0.919  0.8239 -0.1108  0.1173
    1TMC1    O314141   2.534   0.902   0.827  0.0082 -0.1410 -0.0405
    1TMC1    H314142   2.599   0.917   0.899  1.6603  0.3806 -1.6356
    1TMC1    O514143   2.991   0.610   0.943  0.0617 -0.6701 -0.1478
    1TMC1    H514144   2.928   0.541   0.914  1.3174 -1.8361 -0.1508
    2MPD1     C14145   2.591   4.694   0.558 -0.1023 -0.1955 -0.4000
    2MPD1    C114146   2.707   4.710   0.628 -0.5053  0.5993  0.3603
    2MPD1    C214147   2.758   0.104   0.643 -0.2400  0.5889  0.1278
    2MPD1    C314148   2.685   0.219   0.605  0.1582 -1.1527 -0.3695
    2MPD1    C414149   2.563   0.194   0.538 -0.2651 -0.9200 -0.1391
    2MPD1    C514150   2.520   0.065   0.515  0.1276  0.1881  0.5112
    2MPD1     H14151   2.851   0.127   0.692  0.8772 -1.4726 -1.0356
    2MPD1    H114152   2.507   0.276   0.494 -2.0787 -2.3763 -0.5273
    2MPD1    H214153   2.539   4.599   0.547  0.5660 -0.8122  1.9189
    2MPD1    H314154   2.436   0.044   0.450 -1.1043 -0.6911  2.3909
    2MPD1     N14155   2.737   0.345   0.635 -0.1259 -0.1139  0.4376
    2MPD1    H514156   2.837   0.349   0.647 -0.0653 -0.8615  0.2117
    2MPD1    N114157   2.769   4.598   0.683 -0.2800 -0.1996  0.3506
    2MPD1    H614158   2.749   4.507   0.641  1.3523 -0.4851  0.1601
    2MPD1    H714159   2.870   4.612   0.690 -0.0897 -1.4384  0.0210
    1MPD1     C14160   0.439   0.030  12.467  0.2479  0.2548 -0.5440
    1MPD1    C114161   0.431   0.160  12.517 -0.9177 -0.1679 -0.0158
    1MPD1    C214162   0.439   0.266  12.424  0.2361 -0.4572  0.2584
    1MPD1    C314163   0.452   0.240  12.292  0.5850  0.5130 -0.3878
    1MPD1    C414164   0.465   0.111  12.247  0.3819 -0.9966  0.8373
    1MPD1    C514165   0.462   0.007  12.335  0.1535 -0.3313 -0.0259
    1MPD1     H14166   0.428   0.365  12.466 -0.3100 -0.1292 -0.6644
    1MPD1    H114167   0.500   0.091  12.147  0.3773  2.3290  0.1847
    1MPD1    H214168   0.417   4.689  12.539  2.1540  0.5632  0.3798
    1MPD1    H314169   0.459   4.639  12.305 -0.2503 -0.3124 -0.0583
    1MPD1     N14170   0.445   0.354  12.203  0.0261  0.5857  0.0929
    1MPD1    H514171   0.426   0.445  12.244 -2.2894 -0.4397  1.2653
    1MPD1    N114172   0.382   0.186  12.649  0.0291  0.4102  0.2146
    1MPD1    H614173   0.402   0.113  12.717 -3.2517  1.0182  1.8309
    1MPD1    H714174   0.417   0.275  12.685  0.5181  0.2420  0.1599
    2MPD1     C14175   0.456   4.248  11.770 -0.2016  0.5004 -0.4155
    2MPD1    C114176   0.431   4.246  11.635 -0.2882  0.2933 -0.2756
    2MPD1    C214177   0.527   4.305  11.555 -0.7813 -0.1761  0.6840
    2MPD1    C314178   0.643   4.369  11.599 -0.2966  0.3583 -0.9769
    2MPD1    C414179   0.667   4.361  11.733 -0.6032 -0.5663  0.4044
    2MPD1    C514180   0.575   4.302  11.815  0.0449 -0.4271  0.1882
    2MPD1     H14181   0.486   4.302  11.455 -0.1931  0.1093  0.4386
    2MPD1    H114182   0.746   4.424  11.771  0.2070 -1.0776 -0.4238
    2MPD1    H214183   0.384   4.199  11.834  0.0281  1.0387  0.2661
    2MPD1    H314184   0.596   4.295  11.921 -1.3359  1.0723  0.5663
    2MPD1     N14185   0.732   4.444  11.521  0.7242  0.1717  0.1288
    2MPD1    H514186   0.819   4.472  11.565  1.2997  0.3414 -1.1427
    2MPD1    N114187   0.301   4.221  11.586  0.2051  0.0923 -0.2259
    2MPD1    H614188   0.263   4.147  11.644  0.7707  0.5626  0.7557
    2MPD1    H714189   0.300   4.180  11.493  1.6582  1.1907 -0.7216
    3MPD1     C14190   0.843   4.486  10.517  0.1110 -0.1712 -0.1838
    3MPD1    C114191   0.780   4.405  10.598 -0.4129 -0.0288  0.4388
    3MPD1    C214192   0.784   4.434  10.727  0.4459 -0.3856  0.2648
    3MPD1    C314193   0.858   4.533  10.785  0.7799  0.4284 -0.5744
    3MPD1    C414194   0.936   4.609  10.699  0.5871  0.1322  0.5890
    3MPD1    C514195   0.926   4.581  10.564 -0.5453  0.1435  0.2886
    3MPD1     H14196   0.735   4.376  10.804 -1.5425  0.2928 -0.4916
    3MPD1    H114197   1.004   4.688  10.731  0.9761 -0.7730  2.0288
    3MPD1    H214198   0.831   4.489  10.409  0.9543  3.4241 -0.1769
    3MPD1    H314199   0.992   4.637  10.499 -0.2817 -0.0669  0.3775
    3MPD1     N14200   0.865   4.530  10.930  0.0865 -0.6550  0.0919
    3MPD1    H514201   0.813   4.459  10.982 -1.0250 -0.6601 -1.0140
    3MPD1    N114202   0.699   4.304  10.551 -0.3434  0.2926  0.0172
    3MPD1    H614203   0.672   4.237  10.623  0.3909 -1.0900 -0.9944
    3MPD1    H714204   0.744   4.253  10.476 -1.0790  0.3437 -0.4609
    4MPD2     C14205   0.566   0.576  11.399  0.5208 -0.1969 -0.5655
    4MPD2    C114206   0.583   0.653  11.512  0.8177 -0.0514 -0.5138
    4MPD2    C214207   0.686   0.747  11.510  0.9402 -0.1827 -0.1695
    4MPD2    C314208   0.775   0.747  11.410 -0.0975  0.4287  0.2428
    4MPD2    C414209   0.761   0.664  11.306 -0.0440  0.5398 -0.7024
    4MPD2    C514210   0.650   0.582  11.295 -0.3134 -0.3573  0.3057
    4MPD2     H14211   0.698   0.815  11.594  0.8991 -2.9198  2.0611
    4MPD2    H114212   0.840   0.647  11.235  1.7539  1.2830  1.1117
    4MPD2    H214213   0.479   0.512  11.397  0.6045 -0.2967 -1.2535
    4MPD2    H314214   0.644   0.514  11.211  0.9873  0.4595 -0.4438
    4MPD2     N14215   0.881   0.840  11.415  0.5234  0.1803  0.4161
    4MPD2    H514216   0.884   0.893  11.502  0.1605 -2.3267  1.9508
    4MPD2    N114217   0.496   0.654  11.625 -0.1590 -0.1421 -0.1503
    4MPD2    H714218   0.529   0.712  11.701 -1.9274 -0.5888  0.9727
    5TMC3    C114219   0.349   0.574  11.798  0.4728 -0.1487 -0.7872
    5TMC3    C214220   0.372   0.455  11.869  0.3654  0.1587 -0.0292
    5TMC3    C314221   0.419   0.469  11.999  0.1580  0.4482 -0.0179
    5TMC3    C414222   0.377   0.695  11.855 -0.1113  0.0713  0.0325
    5TMC3    C514223   0.436   0.700  11.984  0.4978 -0.1577  0.0474
    5TMC3    C614224   0.456   0.587  12.056  0.2598 -0.4070  0.1660
    5TMC3     C14225   0.394   0.563  11.658  0.1473  0.0122  0.5675
    5TMC3     O14226   0.352   0.468  11.598 -0.1434 -1.2925 -0.2462
    5TMC3     H14227   0.348   0.357  11.830 -0.0270  0.1467  0.2348
    5TMC3    H114228   0.353   0.785  11.800  1.7126  1.1545  1.0125
    5TMC3    H214229   0.502   0.598  12.153 -1.8925 -1.0054  1.2282
    5TMC3    C714230   0.536   0.801  11.991 -0.3483  0.2749 -0.6932
    5TMC3    C814231   0.437   0.339  12.065  0.6495 -1.0065 -0.2315
    5TMC3    O114232   0.650   0.756  12.006 -0.2213  0.1953 -0.4376
    5TMC3    O214233   0.442   0.237  11.996 -0.3267 -0.0512 -0.3738
    6TMC3    C114234   0.813   4.542  11.326  0.9682 -0.0712  1.0329
    6TMC3    C214235   0.852   4.522  11.201 -0.7861  0.5764 -0.0364
    6TMC3    C314236   0.935   4.619  11.146 -0.0256 -0.2393  0.4261
    6TMC3    C414237   0.861   4.642  11.409 -0.0326 -0.1778  0.4299
    6TMC3    C514238   0.936   4.735  11.348 -0.4056  0.2884  0.2827
    6TMC3    C614239   0.979   4.724  11.217 -0.5218 -0.2738  0.3800
    6TMC3     C14240   0.720   4.447  11.384  0.0348 -0.4851  0.1398
    6TMC3     O14241   0.636   4.392  11.319 -0.0644 -0.7880  0.0944
    6TMC3     H14242   0.794   4.442  11.158  1.3786 -1.0901  0.0988
    6TMC3    H114243   0.832   4.657  11.513  0.1904 -0.5480  0.5431
    6TMC3    H214244   1.021   0.075  11.169  1.7638 -0.7541  1.5001
    6TMC3    C714245   0.978   0.118  11.420  0.1971  0.4413  0.0055
    6TMC3    C814246   0.944   4.617  10.998 -1.1207 -0.7168 -0.0499
    6TMC3    O114247   1.081   0.172  11.383 -0.3796  0.6376 -0.1971
    6TMC3    O214248   1.022   4.702  10.952 -0.1250 -0.1826  0.0339
    7MPD2     C14249   0.721   1.212  11.731  0.2070 -0.2889  0.1366
    7MPD2    C114250   0.781   1.099  11.774  0.4589  0.0315 -0.0399
    7MPD2    C214251   0.714   1.013  11.861 -0.5494  0.1162  0.5149
    7MPD2    C314252   0.579   1.027  11.887  0.1587 -0.5960  0.2314
    7MPD2    C414253   0.520   1.141  11.838  0.6150 -0.2786  0.2097
    7MPD2    C514254   0.592   1.238  11.773  0.2137 -0.4836 -0.3143
    7MPD2     H14255   0.764   0.924  11.899  0.0429 -0.5427 -1.7918
    7MPD2    H114256   0.416   1.152  11.864  0.4885 -0.4676 -0.2143
    7MPD2    H214257   0.778   1.285  11.675 -2.3583  0.2032 -1.8722
    7MPD2    H314258   0.545   1.332  11.744 -0.8876 -0.6028  1.1084
    7MPD2     N14259   0.499   0.935  11.959  0.0977  0.0922  0.1904
    7MPD2    H514260   0.399   0.949  11.961  0.2309  1.4088 -2.0076
    7MPD2    N114261   0.912   1.079  11.729  0.3983  0.5745 -0.2569
    7MPD2    H714262   0.953   1.155  11.676 -0.5990  2.1597  1.2718
    8TMC3    C114263   1.087   0.948  11.648 -0.4535 -0.3738  0.6227
    8TMC3    C214264   1.135   0.823  11.669 -0.0987 -0.8745  0.2238
    8TMC3    C314265   1.191   0.758  11.562 -0.3492  0.4089  0.8447
    8TMC3    C414266   1.064   0.986  11.519  0.0880 -0.3574  0.4003
    8TMC3    C514267   1.095   0.904  11.414  0.0959  0.0799 -0.3371
    8TMC3    C614268   1.179   0.807  11.437 -0.3026  0.4664  0.1096
    8TMC3     C14269   0.994   0.970  11.754  0.1130  0.2274 -0.1088
    8TMC3     O14270   0.968   0.873  11.825  0.1595  0.5563  0.1035
    8TMC3     H14271   1.169   0.790  11.766 -1.2342 -0.9296  0.6018
    8TMC3    H114272   0.997   1.068  11.497  0.5655 -0.4539 -1.4384
    8TMC3    H214273   1.192   0.748  11.347 -1.9850  0.3666 -0.0724
    8TMC3    C714274   0.988   0.851  11.333  0.2984 -0.2250  0.2802
    8TMC3    C814275   1.140   0.618  11.555  0.0182 -0.8136 -0.3481
    8TMC3    O114276   1.003   0.811  11.217 -0.2850 -0.2958 -0.1443
    8TMC3    O214277   1.174   0.547  11.462 -0.3174  0.0593  0.3089
    9MPD2     C14278   0.844   0.505  11.747  1.0364  0.4397 -0.4554
    9MPD2    C114279   0.950   0.496  11.658 -0.0998 -0.5928  0.0706
    9MPD2    C214280   0.965   0.387  11.577 -0.2465 -0.0132 -0.1902
    9MPD2    C314281   0.884   0.280  11.592  0.5077 -0.9145 -0.2240
    9MPD2    C414282   0.786   0.285  11.684  0.0064 -0.3919  0.3016
    9MPD2    C514283   0.757   0.399  11.750 -0.3954  0.8352 -0.0437
    9MPD2     H14284   1.042   0.385  11.501  0.7284 -0.1115  0.8023
    9MPD2    H114285   0.708   0.209  11.688 -0.6178  0.3317  2.1289
    9MPD2    H214286   0.818   0.585  11.815 -0.4240 -1.4927  1.2240
    9MPD2    H314287   0.673   0.401  11.819  0.9107  0.3261  1.5566
    9MPD2     N14288   0.884   0.160  11.518 -0.3254 -0.7374  0.0829
    9MPD2    H514289   0.798   0.107  11.530  1.2227 -2.3764  4.0171
    9MPD2    N114290   1.036   0.609  11.646 -0.4383 -1.3329  0.6693
    9MPD2    H714291   1.019   0.677  11.720 -0.7195  1.5862 -2.0862
    1MPD1     C14292   2.003   4.014  17.042 -0.5717 -0.1782 -0.1620
    1MPD1    C114293   1.875   4.070  17.036  0.4303 -0.2181 -0.2913
    1MPD1    C214294   1.762   4.001  16.997 -0.0582 -0.2812  0.1521
    1MPD1    C314295   1.777   3.865  16.969 -0.4268  0.1030  0.0582
    1MPD1    C414296   1.908   3.809  16.965 -0.2447 -0.1253 -0.2872
    1MPD1    C514297   2.021   3.890  16.998 -0.6989  0.6273 -0.3348
    1MPD1     H14298   1.668   4.055  16.995  1.6973  2.7019 -1.0559
    1MPD1    H114299   1.922   3.710  16.923 -2.7974 -1.3740  1.8020
    1MPD1    H214300   2.087   4.072  17.077  0.5842 -0.2582 -2.8280
    1MPD1    H314301   2.122   3.852  16.991 -1.6452 -1.8989 -0.4587
    1MPD1     N14302   1.665   3.783  16.948  0.6723 -0.2811  0.0455
    1MPD1    H514303   1.688   3.685  16.942 -0.9663 -0.7595  1.4646
    1MPD1    N114304   1.861   4.185  17.098 -0.1977 -0.4453  0.2356
    1MPD1    H614305   1.926   4.260  17.076  1.5501 -2.0703 -0.1239
    1MPD1    H714306   1.767   4.222  17.084  0.0009  0.5903  1.5776
    2TMC2    C114307   1.445   3.489  17.116 -0.1705  0.4122  0.2652
    2TMC2    C214308   1.314   3.504  17.149 -0.4484  0.2950  0.1297
    2TMC2    C314309   1.261   3.624  17.103 -0.3978 -0.0108  0.0455
    2TMC2    C414310   1.522   3.589  17.050 -0.2827 -0.7876  0.0773
    2TMC2    C514311   1.458   3.704  17.012  0.5865 -0.3850  0.7605
    2TMC2    C614312   1.330   3.728  17.043 -0.4174  0.4122 -0.5355
    2TMC2     C14313   1.503   3.363  17.157  0.0050 -0.1843  0.1149
    2TMC2     O14314   1.428   3.282  17.215  0.1692  0.7820 -0.4829
    2TMC2     H14315   1.251   3.425  17.187  0.0078 -0.1775 -0.0999
    2TMC2    H114316   1.618   3.557  17.010 -1.1320 -0.3006 -2.3323
    2TMC2    H214317   1.291   3.823  17.008 -0.3039  0.1887 -1.2831
    2TMC2    C714318   1.533   3.818  16.965  0.1828  0.3405  0.1524
    2TMC2    C814319   1.123   3.644  17.146  0.0391  0.1945  0.7622
    2TMC2    O114320   1.483   3.933  16.979  0.0650 -0.4723 -0.3111
    2TMC2    O214321   1.068   3.588  17.241  0.3852  0.2819 -1.0965
    2TMC2    O514322   1.056   3.682  17.033 -0.0837  0.1304 -0.3705
    2TMC2    H514323   1.123   3.703  16.964 -1.2629 -0.9104 -1.8185
    3MPD1     C14324   1.897   3.038  17.093 -0.9835  0.3608 -0.4029
    3MPD1    C114325   1.930   3.167  17.053 -0.0891  0.3250 -0.5056
    3MPD1    C214326   1.847   3.268  17.076  0.6596 -0.7815  0.3013
    3MPD1    C314327   1.727   3.255  17.138  0.6876 -0.3373 -0.7490
    3MPD1    C414328   1.688   3.129  17.180  0.0901  0.1598  0.1367
    3MPD1    C514329   1.778   3.024  17.156 -0.2225  0.0601 -0.1042
    3MPD1     H14330   1.871   3.368  17.042 -0.1313 -0.7572 -0.1742
    3MPD1    H114331   1.592   3.107  17.225  1.1199 -2.8710  0.8701
    3MPD1    H214332   1.949   2.949  17.058  1.1362  0.3108  2.9109
    3MPD1    H314333   1.745   2.929  17.199  1.0005 -0.0858  0.4975
    3MPD1     N14334   1.639   3.364  17.135  0.0628 -0.1107 -0.3820
    3MPD1    H514335   1.670   3.454  17.099  0.2626 -0.4142 -0.9678
    3MPD1    N114336   2.038   3.182  16.968 -0.4252 -0.1709  0.0514
    3MPD1    H614337   2.093   3.098  16.948  0.6662  0.2247  1.3304
    3MPD1    H714338   2.104   3.259  16.979 -1.6299  0.7030  1.0968
    1TMC1    C114339   4.714   2.276  13.431 -0.5579 -0.0800  0.5670
    1TMC1    C214340   4.630   2.387  13.427  0.4886  0.0183 -0.3956
    1TMC1    C314341   4.553   2.405  13.318  0.0536 -0.1636  0.1659
    1TMC1    C414342   4.727   2.191  13.323 -0.3303  0.5105  0.3463
    1TMC1    C514343   4.647   2.218  13.217 -0.1996 -0.2231  0.2015
    1TMC1    C614344   4.556   2.319  13.214  0.9806  0.2436  0.0929
    1TMC1     C14345   0.069   2.251  13.545  0.3923  0.1604  0.4794
    1TMC1     O14346   0.169   2.177  13.534  0.1285  0.0717 -0.0938
    1TMC1     H14347   4.622   2.452  13.513  0.0847 -1.1827  0.4828
    1TMC1    H114348   0.066   2.114  13.320 -0.2286  0.6175  0.2149
    1TMC1    H214349   4.487   2.332  13.131 -1.6706  1.9677  2.5836
    1TMC1    C714350   4.659   2.135  13.099 -0.2955  0.9147 -0.2407
    1TMC1    C814351   4.444   2.500  13.314  0.4075  0.0525 -0.2049
    1TMC1    O114352   4.561   2.130  13.026 -0.0251  0.6084  0.4523
    1TMC1    O214353   4.335   2.457  13.301 -0.5851 -0.1596  0.1597
    1TMC1    O314354   0.048   2.087  13.071 -0.0848 -0.0983 -0.3058
    1TMC1    H314355   0.123   2.119  13.124 -0.8266  2.3931 -0.7618
    1TMC1    O514356   4.493   2.590  13.232  0.3171  0.3621 -0.4106
    1TMC1    H514357   4.588   2.607  13.251  0.2031 -0.1604  0.6313
    2MPD2     C14358   0.231   2.265  13.796 -0.0128 -0.6362 -0.0232
    2MPD2    C114359   0.104   2.325  13.780 -0.3755  0.3695 -0.1578
    2MPD2    C214360   0.041   2.371  13.893  0.3269 -0.4624 -0.4544
    2MPD2    C314361   0.098   2.371  14.016 -0.4569  0.3134  1.0256
    2MPD2    C414362   0.230   2.340  14.026 -0.0067  0.7137 -0.6384
    2MPD2    C514363   0.296   2.285  13.918  0.2983  0.0147  0.5981
    2MPD2     H14364   4.673   2.398  13.887  0.3996 -0.4403 -1.5508
    2MPD2    H114365   0.291   2.353  14.115  0.1601  0.9727 -0.7883
    2MPD2    H214366   0.290   2.208  13.725 -1.1088 -3.0929  1.0377
    2MPD2    H314367   0.393   2.239  13.929 -0.1069 -1.3682 -1.5044
    2MPD2     N14368   0.029   2.430  14.128  0.0335 -0.0745  0.0264
    2MPD2    H514369   4.671   2.459  14.103 -0.0451 -0.6639 -0.3469
    2MPD2    N114370   0.038   2.323  13.658  0.2900  0.1650  0.3199
    2MPD2    H714371   4.681   2.362  13.665  0.3192  0.6858 -2.0943
    3TCq1    O114372   4.480   2.896  14.346  0.6333  0.3667 -0.0420
    3TCq1    C114373   4.584   2.881  14.262  0.2937 -0.1482  0.8091
    3TCq1    O214374   4.581   2.904  14.140 -0.6149  0.0269  0.4232
    3TCq1    C214375   4.643   2.773  14.330 -0.4869 -0.5265  0.0208
    3TCq1    C314376   4.676   2.774  14.464 -0.5311  0.3900 -0.5427
    3TCq1    C414377   0.020   2.675  14.523 -0.6755  0.0334  0.6636
    3TCq1    C514378   0.059   2.570  14.445 -0.5076 -0.1550  0.1186
    3TCq1    C614379   0.025   2.560  14.318 -0.4217  0.3611  0.7891
    3TCq1    C714380   4.688   2.659  14.253 -0.1731 -0.1941  0.4005
    3TCq1    C814381   0.077   2.442  14.255 -0.1850  1.0683 -1.0448
    3TCq1    O414382   0.159   2.374  14.313  0.2478 -0.2738 -0.1610
    3TCq1    C914383   0.036   2.682  14.657 -0.3436  0.6730 -0.4797
    3TCq1    O514384   0.077   2.577  14.710 -0.3401  0.4863 -0.3275
    3TCq1    O614385   0.012   2.790  14.711 -0.2323 -0.4508  0.1286
    3TCq1    H114386   4.484   2.835  14.422 -0.1032  0.8156  0.3613
    3TCq1    H214387   4.654   2.854  14.534 -0.9573 -0.4073  0.2265
    3TCq1    H314388   0.105   2.489  14.500 -0.4784 -1.2169 -1.4736
    3TCq1    H414389   4.673   2.655  14.146  1.9632  2.4583 -0.0127
    1MPD2     C14390   3.410   3.682  15.524 -0.0879 -0.0525  0.5959
    1MPD2    C114391   3.332   3.617  15.425  0.0045  0.2558 -0.7350
    1MPD2    C214392   3.385   3.498  15.378  0.0631  0.2417  0.0626
    1MPD2    C314393   3.505   3.445  15.423  0.0752 -0.1100 -0.4365
    1MPD2    C414394   3.573   3.504  15.530  0.0307 -0.2570 -0.3382
    1MPD2    C514395   3.523   3.624  15.578  0.6362  0.1780  0.6255
    1MPD2     H14396   3.335   3.441  15.300  1.1985  0.8589 -1.1041
    1MPD2    H114397   3.665   3.463  15.569 -0.7405 -3.5733 -1.9807
    1MPD2    H214398   3.371   3.775  15.565  1.9442  0.6623  0.9108
    1MPD2    H314399   3.565   3.673  15.665 -0.0961 -0.4394  1.3330
    1MPD2     N14400   3.553   3.331  15.364  0.0482  0.0146  0.2052
    1MPD2    H514401   3.483   3.307  15.294  0.2067  2.0958 -0.6504
    1MPD2    N114402   3.202   3.669  15.385 -0.6614 -0.2823  0.3247
    1MPD2    H714403   3.163   3.752  15.430 -1.0529 -0.0835 -0.3714
    2TMC3    C114404   2.993   3.686  15.280  0.4868 -0.7057  0.7719
    2TMC3    C214405   2.903   3.582  15.267 -0.4985 -0.7863 -0.6163
    2TMC3    C314406   2.824   3.574  15.164 -0.5620 -0.7324 -0.2186
    2TMC3    C414407   3.003   3.786  15.194  0.1572  0.4844 -0.3064
    2TMC3    C514408   2.924   3.770  15.088 -0.1792  0.0157 -0.1439
    2TMC3    C614409   2.827   3.682  15.074 -0.5017 -0.6171  0.1922
    2TMC3     C14410   3.125   3.619  15.284  0.7365 -0.0128  0.2455
    2TMC3     O14411   3.144   3.513  15.219  0.4635  0.0578  0.0008
    2TMC3     H14412   2.908   3.506  15.343  0.4909  0.2725  0.3838
    2TMC3    H114413   3.091   3.849  15.199  0.0692  0.7003 -1.7441
    2TMC3    H214414   2.774   3.663  14.982 -2.0423  1.4586  0.6535
    2TMC3    C714415   2.945   3.847  14.970  0.3474 -0.3080 -0.6119
    2TMC3    C814416   2.817   3.448  15.095 -0.1245  0.2226 -0.2623
    2TMC3    O114417   2.874   3.815  14.876 -0.2114  0.3475 -0.1969
    2TMC3    O214418   2.723   3.432  15.018  0.2876  0.2322 -0.1641
    3TCq1    O114419   3.607   4.607  15.250  0.5198 -0.4809 -0.5816
    3TCq1    C114420   3.623   4.480  15.221  0.2288  0.5473  0.3851
    3TCq1    O214421   3.573   4.387  15.287  0.5427 -0.4111  0.2192
    3TCq1    C214422   3.624   4.494  15.077 -0.5516  0.0871 -0.4255
    3TCq1    C314423   3.691   4.596  15.017 -0.2028 -0.2146  0.7259
    3TCq1    C414424   3.680   4.627  14.882  0.1245  0.5303  0.6386
    3TCq1    C514425   3.595   4.553  14.810  0.5704  0.0079  0.3715
    3TCq1    C614426   3.516   4.457  14.874 -0.5006 -0.1788  0.6776
    3TCq1    C714427   3.529   4.423  15.006 -0.2392  0.3725  0.4096
    3TCq1    C814428   3.429   4.376  14.788 -0.1563  0.4244 -0.7055
    3TCq1    O414429   3.416   4.411  14.670  0.1812 -0.4182 -0.2247
    3TCq1    C914430   3.767   4.724  14.822  0.4582 -0.7135  0.3465
    3TCq1    O514431   3.854   0.042  14.892 -0.4578  0.4534 -0.0796
    3TCq1    O614432   3.734   0.012  14.702 -0.5587  0.6877  0.4502
    3TCq1    H114433   3.593   4.658  15.168  1.3593 -0.9398 -1.0078
    3TCq1    H214434   3.769   4.653  15.066  0.9582 -1.2743  0.0981
    3TCq1    H314435   3.585   4.579  14.706 -1.1050  0.4885  0.6456
    3TCq1    H414436   3.470   4.348  15.058 -1.0395  0.9165  0.2897
    4MPD2     C14437   3.202   4.184  14.683 -0.7307  0.1488 -0.5180
    4MPD2    C114438   3.248   4.196  14.809 -0.2771  0.0294 -0.3252
    4MPD2    C214439   3.200   4.106  14.899  0.2519 -0.0461 -0.0787
    4MPD2    C314440   3.086   4.026  14.875 -0.2302 -0.3888  0.6105
    4MPD2    C414441   3.032   4.027  14.747 -0.0397  0.1950 -0.3558
    4MPD2    C514442   3.091   4.107  14.655  0.3630 -0.4657  0.5375
    4MPD2     H14443   3.244   4.098  14.997 -1.0350 -0.2159  0.4915
    4MPD2    H114444   2.944   3.969  14.722  1.5726 -2.5668  0.4077
    4MPD2    H214445   3.244   4.247  14.607  0.3134 -0.9006 -0.8074
    4MPD2    H314446   3.051   4.121  14.555  1.5020 -0.4915  0.0756
    4MPD2     N14447   3.035   3.948  14.981 -0.2267 -0.0734  0.4691
    4MPD2    H514448   3.081   3.957  15.071  0.9924  1.9066 -0.3361
    4MPD2    N114449   3.354   4.284  14.857 -0.0330  0.0174 -0.3210
    4MPD2    H714450   3.384   4.270  14.953  0.9898  0.1488 -0.6139
    5TMC2    C114451   3.506   3.065  15.160 -0.4289  0.2605  0.2528
    5TMC2    C214452   3.488   2.946  15.236  0.9407  1.0923 -0.2125
    5TMC2    C314453   3.555   2.935  15.349  0.3435 -0.7547  0.1249
    5TMC2    C414454   3.601   3.152  15.202  0.2310 -0.2929  0.0807
    5TMC2    C514455   3.666   3.136  15.319  0.8295 -0.1923 -0.1227
    5TMC2    C614456   3.637   3.030  15.396 -0.4270  0.8681  0.6402
    5TMC2     C14457   3.393   3.136  15.102  0.0955  0.8699  1.1010
    5TMC2     O14458   3.400   3.260  15.097  0.5846 -0.7707 -0.5833
    5TMC2     H14459   3.419   2.871  15.203  1.4060 -0.3525  2.0514
    5TMC2    H114460   3.618   3.244  15.147  0.8589 -0.8620 -0.6819
    5TMC2    H214461   3.701   3.015  15.482  2.1197 -0.9428 -1.5794
    5TMC2    C714462   3.665   3.258  15.400 -0.2926  0.1308  0.5397
    5TMC2    C814463   3.578   2.807  15.405  1.0405 -0.8405  0.1083
    5TMC2    O114464   3.737   3.264  15.500 -0.0914 -0.0145 -0.0952
    5TMC2    O214465   3.639   2.801  15.510 -0.1935  0.5446 -0.2172
    5TMC2    O514466   3.582   2.714  15.309  0.1972  0.5144 -0.2374
    5TMC2    H514467   3.577   2.747  15.216 -0.0752  2.9904  0.6668
    6MPD2     C14468   2.897   3.174  15.005 -0.1860  0.1293 -0.2015
    6MPD2    C114469   2.982   3.264  15.056 -0.4142 -0.1440 -0.5492
    6MPD2    C214470   3.111   3.231  15.083 -0.0425  0.2464  0.5115
    6MPD2    C314471   3.159   3.101  15.046 -0.5891  0.3386  0.1580
    6MPD2    C414472   3.074   3.013  14.982  0.3144 -0.2910 -0.3483
    6MPD2    C514473   2.944   3.050  14.965 -0.5229  0.3806  0.2347
    6MPD2     H14474   3.172   3.301  15.140 -0.6370  2.2086 -1.2921
    6MPD2    H114475   3.115   2.922  14.941 -0.3426 -1.1665  0.9465
    6MPD2    H214476   2.793   3.200  14.992 -0.6895 -1.2482  1.0503
    6MPD2    H314477   2.872   2.996  14.904 -0.6113  0.9012 -0.1197
    6MPD2     N14478   3.291   3.051  15.071  0.5953  0.4408  0.3651
    6MPD2    H514479   3.308   2.953  15.053  1.3160  0.8136 -1.0633
    6MPD2    N114480   2.941   3.389  15.100 -0.6189 -0.3173  0.3136
    6MPD2    H714481   3.014   3.434  15.155 -0.4497  0.1739 -0.3116
  945NH4     N114482   2.163   4.227   2.781 -0.2531  0.3663  0.3392
  945NH4     H214483   2.149   4.238   2.679 -0.2691  0.4087  0.3461
  945NH4     H314484   2.176   4.317   2.832 -0.0940 -0.0597  1.0617
  945NH4     H414485   2.248   4.171   2.799  0.8142  2.3880  1.5217
  945NH4     H514486   2.085   4.170   2.822 -0.6575  0.1710 -0.6941
  946SOD     NA14487   0.021   2.754   7.931 -0.1198 -0.0014 -0.2147
  947SOD     NA14488   4.155   3.791  15.539  0.3229 -0.0691 -0.2293
  948SOD     NA14489   2.041   1.921  13.116 -0.1309 -0.2981  0.0384
  949SOD     NA14490   0.072   4.071  16.349  0.1444  0.0159 -0.1544
  950SOD     NA14491   3.737   3.786   0.850  0.0524 -0.0935 -0.1917
  951SOD     NA14492   0.261   2.546  14.807  0.6143  0.3579  0.2468
  952SOD     NA14493   4.502   3.044  11.929  0.6054  0.2741 -0.2415
  953SOL     OW14494   4.349   0.057   4.252  0.1848  0.0610 -0.1376
  953SOL    HW114495   4.402   0.011   4.187 -0.1967 -0.3233 -0.1731
  953SOL    HW214496   4.330   0.138   4.204 -1.6086  0.2681  0.9212
  954SOL     OW14497   4.385   1.900   5.728 -0.1345  0.4874 -0.2999
  954SOL    HW114498   4.381   1.827   5.666 -0.5572  0.1371  0.1398
  954SOL    HW214499   4.289   1.903   5.736  0.0391 -0.2806  2.2142
  955SOL     OW14500   3.228   0.947   6.800 -0.4418  0.7760  0.0312
  955SOL    HW114501   3.135   0.959   6.780 -0.8829  0.1080  1.6949
  955SOL    HW214502   3.265   1.009   6.737  0.0398 -2.8991 -3.2464
  956SOL     OW14503   0.350   2.882  14.285  0.2103 -0.2415  0.1858
  956SOL    HW114504   0.319   2.973  14.286 -1.3102 -0.7683  1.6203
  956SOL    HW214505   0.406   2.905  14.210  1.5565 -0.3557  1.1583
  957SOL     OW14506   0.292   1.332   1.468 -0.0303  0.1137  0.5924
  957SOL    HW114507   0.199   1.312   1.479 -0.2575  1.0613  0.3618
  957SOL    HW214508   0.336   1.298   1.546 -1.9783 -0.0339  1.6097
  958SOL     OW14509   3.286   1.856   5.895  0.1008  0.1811 -0.0818
  958SOL    HW114510   3.226   1.816   5.958  1.7003  0.2249  1.4638
  958SOL    HW214511   3.271   1.796   5.822 -0.3348 -0.3523  0.4475
  959SOL     OW14512   1.559   1.151   4.539 -0.2714 -0.2418 -0.1214
  959SOL    HW114513   1.549   1.245   4.556  0.3227  0.6930 -4.7938
  959SOL    HW214514   1.628   1.150   4.473  0.6040  2.6451  0.7619
  960SOL     OW14515   3.719   4.159  10.013 -0.1772  0.3036  0.1198
  960SOL    HW114516   3.664   4.091  10.052  1.9121 -3.4883 -3.5720
  960SOL    HW214517   3.773   4.179  10.090 -1.2998 -0.1392  1.0142
  961SOL     OW14518   1.715   4.487   5.347 -0.2223 -0.1879 -0.7891
  961SOL    HW114519   1.779   4.453   5.285  3.3367  0.6797  2.4028
  961SOL    HW214520   1.631   4.449   5.322 -1.1452  1.7745 -0.6273
  962SOL     OW14521   2.674   2.818   9.159  0.4743  0.0987  0.3963
  962SOL    HW114522   2.749   2.804   9.101 -0.6605 -0.5120 -0.9311
  962SOL    HW214523   2.658   2.729   9.188 -0.8549 -0.2239 -1.3108
  963SOL     OW14524   1.872   3.555   5.222  0.7513 -0.0983 -0.0000
  963SOL    HW114525   1.952   3.550   5.274 -0.6629 -0.0203  2.2395
  963SOL    HW214526   1.835   3.469   5.243 -0.0456  0.5767  1.4321
  964SOL     OW14527   4.268   0.198   8.290  0.0774 -0.1425 -0.1542
  964SOL    HW114528   4.197   0.196   8.355  1.1594 -2.0527  0.9882
  964SOL    HW214529   4.328   0.126   8.312  0.3005 -0.7497 -2.7590
  965SOL     OW14530   0.505   0.875   4.713  0.3272 -0.2226 -0.1044
  965SOL    HW114531   0.457   0.845   4.791  0.1789  0.8972  0.2444
  965SOL    HW214532   0.572   0.929   4.754 -0.5089  0.8731 -0.1557
  966SOL     OW14533   3.793   0.123   6.376  0.3072 -0.6524 -0.3140
  966SOL    HW114534   3.778   0.188   6.306 -2.3646 -1.3718 -0.4171
  966SOL    HW214535   3.702   0.096   6.387 -0.7378  2.4707 -1.1122
  967SOL     OW14536   3.064   4.436   9.252  0.3114  0.1955  0.3406
  967SOL    HW114537   2.970   4.448   9.262  0.3565  1.2748 -0.4931
  967SOL    HW214538   3.098   4.520   9.219 -0.9092  0.2279 -0.8043
  968SOL     OW14539   0.101   0.066  17.704 -0.0595  0.0761 -0.6808
  968SOL    HW114540   0.151   0.102  17.631  1.5459 -0.0746  0.3511
  968SOL    HW214541   0.097   4.710  17.679 -0.7278 -0.1811  0.3513
  969SOL     OW14542   1.964   0.308  14.301 -0.2103  0.3600  0.0554
  969SOL    HW114543   1.963   0.216  14.327 -0.2185  0.3805  0.1306
  969SOL    HW214544   1.894   0.344  14.356  0.7590  1.1972  0.7305
  970SOL     OW14545   4.190   2.320   4.057 -0.1779  0.3590 -0.4672
  970SOL    HW114546   4.164   2.411   4.040 -1.6065  0.3353  1.5927
  970SOL    HW214547   4.283   2.338   4.052  0.0646 -1.0351 -0.8709
  971SOL     OW14548   3.820   3.439   1.745 -0.1164  0.0485 -0.7603
  971SOL    HW114549   3.800   3.529   1.769  0.3819  0.1952 -0.8961
  971SOL    HW214550   3.909   3.428   1.778  0.0864  1.3222 -0.8728
  972SOL     OW14551   1.925   0.877   9.136  0.1566 -0.1087 -0.2669
  972SOL    HW114552   1.934   0.781   9.131  1.5847  0.0109 -0.0632
  972SOL    HW214553   1.829   0.882   9.133  0.0966  0.6946  3.4776
  973SOL     OW14554   0.807   2.780   9.915 -0.1911 -0.2673 -0.6191
  973SOL    HW114555   0.875   2.847   9.908 -0.4095 -0.1944 -2.1720
  973SOL    HW214556   0.760   2.825   9.985  0.6337  0.6402 -0.6434
  974SOL     OW14557   0.382   1.357   6.680 -0.2132 -0.6179  0.3037
  974SOL    HW114558   0.412   1.431   6.734 -1.1601 -0.0801  0.0953
  974SOL    HW214559   0.443   1.343   6.607 -0.2118  2.3357 -0.2871
  975SOL     OW14560   0.614   0.815   7.560 -0.1128 -0.5860  0.1790
  975SOL    HW114561   0.689   0.874   7.550  0.6803 -1.4669  0.9416
  975SOL    HW214562   0.566   0.831   7.478 -1.3047  2.4716  1.4797
  976SOL     OW14563   2.302   2.442   2.649  0.2235  0.3240 -0.0391
  976SOL    HW114564   2.206   2.441   2.653  0.2193  0.3793 -0.1254
  976SOL    HW214565   2.312   2.533   2.677 -1.8501  0.9762 -1.4235
  977SOL     OW14566   0.465   1.468   4.870 -0.1033 -0.4390  0.2051
  977SOL    HW114567   0.398   1.495   4.807  0.6207  1.7396  0.3781
  977SOL    HW214568   0.481   1.541   4.929  0.5628  0.3509 -0.9388
  978SOL     OW14569   3.006   1.492   1.949 -0.1522  0.1808  0.3221
  978SOL    HW114570   3.009   1.481   1.854  3.5983 -2.1261  0.6944
  978SOL    HW214571   2.916   1.467   1.966  0.0454  1.9597  3.9822
  979SOL     OW14572   2.044   1.164   2.852  0.1078  0.4623 -0.0810
  979SOL    HW114573   2.131   1.166   2.891 -0.3236 -0.8170  0.9440
  979SOL    HW214574   2.046   1.245   2.802 -1.6178 -0.1436 -1.1311
  980SOL     OW14575   2.846   3.011   7.548  0.2712  0.4963  0.3195
  980SOL    HW114576   2.867   2.918   7.559  0.1109  0.1684 -2.0910
  980SOL    HW214577   2.772   3.029   7.606  0.6456  1.4664  0.4798
  981SOL     OW14578   4.302   2.234   8.737  0.3429 -0.1190  0.3294
  981SOL    HW114579   4.225   2.254   8.684  0.7617 -0.3321 -0.3553
  981SOL    HW214580   4.270   2.150   8.768 -0.3742  0.3266  0.7972
  982SOL     OW14581   2.273   2.676  15.738 -0.1105  0.3405  0.1206
  982SOL    HW114582   2.284   2.632  15.822 -0.4370  0.8514  0.4384
  982SOL    HW214583   2.181   2.660  15.718 -0.0943 -0.4341  0.6787
  983SOL     OW14584   4.621   1.896   4.576 -0.1451 -0.1665 -0.3296
  983SOL    HW114585   4.619   1.848   4.659 -1.7124 -2.1405 -1.5086
  983SOL    HW214586   4.647   1.984   4.603 -1.0423  1.0954 -3.5434
  984SOL     OW14587   1.632   1.659   8.653 -0.1659 -0.2796 -0.0844
  984SOL    HW114588   1.633   1.732   8.714 -2.6692  0.5444 -1.0167
  984SOL    HW214589   1.537   1.650   8.645 -0.0026 -1.5473 -0.7002
  985SOL     OW14590   4.144   3.336   1.606 -0.3467  0.1591  0.0104
  985SOL    HW114591   4.183   3.252   1.630 -0.5335 -0.1869 -0.9057
  985SOL    HW214592   4.159   3.381   1.689  1.4418  0.4725 -0.4827
  986SOL     OW14593   3.579   2.663   8.350 -0.2598 -0.0230 -0.3385
  986SOL    HW114594   3.598   2.619   8.433  0.0965  0.5009 -0.1380
  986SOL    HW214595   3.497   2.625   8.318  0.2930 -0.4115 -1.3002
  987SOL     OW14596   4.577   0.278   2.593  0.0770 -0.4668 -0.3840
  987SOL    HW114597   4.530   0.200   2.563 -0.3857 -0.5041  0.4312
  987SOL    HW214598   4.569   0.330   2.513  1.5460 -1.1528 -0.9646
  988SOL     OW14599   0.321   3.745  15.211  0.1728  0.0815  0.5096
  988SOL    HW114600   0.238   3.734  15.258 -1.4837  0.4855 -2.3680
  988SOL    HW214601   0.361   3.825  15.246 -1.2758  1.1863 -0.4116
  989SOL     OW14602   2.317   1.217  13.962 -0.5555  0.3131  0.5407
  989SOL    HW114603   2.358   1.190  13.880 -1.5874  1.1433 -0.2408
  989SOL    HW214604   2.232   1.174  13.961  0.1587 -1.0933  0.9394
  990SOL     OW14605   1.908   4.626  12.272 -0.3680  0.2118 -0.6101
  990SOL    HW114606   1.852   4.553  12.298  0.4213 -0.2532 -0.2303
  990SOL    HW214607   1.991   4.589  12.241 -0.1339  1.6485 -1.6954
  991SOL     OW14608   2.698   4.346   8.429 -0.4064  0.8559  0.1722
  991SOL    HW114609   2.713   4.313   8.517 -0.7851 -0.6393 -0.3353
  991SOL    HW214610   2.650   4.426   8.448 -0.6609  0.9734 -0.9923
  992SOL     OW14611   4.395   3.060   0.942  0.2105  0.3071 -0.0797
  992SOL    HW114612   4.313   3.090   0.903  0.3213 -0.5361 -0.9500
  992SOL    HW214613   4.372   2.973   0.974  0.7126  0.2369  0.0779
  993SOL     OW14614   2.152   3.549   9.122 -0.2908 -0.0505 -0.2367
  993SOL    HW114615   2.136   3.474   9.180 -2.2357  0.6265  0.1103
  993SOL    HW214616   2.077   3.530   9.065  1.4020 -3.1639 -1.3979
  994SOL     OW14617   4.265   3.224   5.832 -0.6740 -0.6497  0.1070
  994SOL    HW114618   4.342   3.268   5.797 -0.7925  1.3809  2.4033
  994SOL    HW214619   4.239   3.282   5.903  1.0057  1.6339 -1.1644
  995SOL     OW14620   4.080   0.032  11.870 -0.1167  0.0110 -0.3969
  995SOL    HW114621   4.134   4.734  11.799 -2.8868 -0.1113 -2.4795
  995SOL    HW214622   3.995   0.006  11.834  0.0964  0.1847 -1.0186
  996SOL     OW14623   0.829   0.784  16.064  0.9870 -0.4506 -0.3129
  996SOL    HW114624   0.888   0.737  16.006  1.5704  1.3757 -1.2067
  996SOL    HW214625   0.802   0.860  16.013  1.0443  0.3241  0.8043
  997SOL     OW14626   4.124   3.930   2.169 -0.6017 -0.1004 -0.8202
  997SOL    HW114627   4.205   3.885   2.145  1.1253  0.9333  3.1204
  997SOL    HW214628   4.157   3.982   2.243  0.5408 -2.7007  0.4943
  998SOL     OW14629   1.939   2.824   4.432 -0.4184  0.0490 -0.2682
  998SOL    HW114630   1.907   2.901   4.478 -0.5849 -0.6335  0.7503
  998SOL    HW214631   1.981   2.861   4.354 -0.0875 -0.5797 -0.3949
  999SOL     OW14632   1.586   2.722   4.980 -0.2191  0.5395  0.4329
  999SOL    HW114633   1.586   2.735   4.885  1.0187 -1.5550  0.1481
  999SOL    HW214634   1.554   2.809   5.003  0.0094  1.0038 -0.9706
 1000SOL     OW14635   3.982   1.893   4.851 -0.2102  1.1056 -0.1160
 1000SOL    HW114636   3.936   1.810   4.866 -0.3230  1.1341 -0.3064
 1000SOL    HW214637   3.977   1.911   4.757 -1.3655 -0.0031 -0.2679
 1001SOL     OW14638   0.046   2.417   8.536  0.0181  0.3143  0.8959
 1001SOL    HW114639   4.711   2.356   8.556  1.6329 -1.5774  0.9386
 1001SOL    HW214640   0.031   2.472   8.613 -3.2934  2.4558 -1.2781
 1002SOL     OW14641   1.961   2.800   5.287 -0.3578 -0.2742 -0.0323
 1002SOL    HW114642   1.898   2.784   5.217  0.0394  0.5898 -0.5889
 1002SOL    HW214643   1.904   2.815   5.362 -1.1219  2.3288 -1.1152
 1003SOL     OW14644   0.870   0.646   7.991  0.4047 -0.1077  0.3544
 1003SOL    HW114645   0.779   0.653   8.017  0.3567 -1.9024  0.6520
 1003SOL    HW214646   0.912   0.704   8.055 -1.8092 -1.0260  2.6061
 1004SOL     OW14647   1.545   1.797   5.787 -0.0361 -0.3380 -0.0210
 1004SOL    HW114648   1.542   1.815   5.693 -1.6810 -0.9976 -0.1076
 1004SOL    HW214649   1.622   1.847   5.811  0.1396 -0.8552  0.4902
 1005SOL     OW14650   1.528   1.541  10.097  0.2320  0.4528 -0.0207
 1005SOL    HW114651   1.462   1.482  10.060  1.8074 -0.5968 -1.1883
 1005SOL    HW214652   1.560   1.578  10.015 -1.6141  0.5949 -0.6826
 1006SOL     OW14653   0.212   2.792   2.508 -0.4167 -0.3579  0.1083
 1006SOL    HW114654   0.166   2.868   2.544  0.4282 -0.0557  0.5657
 1006SOL    HW214655   0.300   2.799   2.547 -0.0268 -0.9319 -0.6661
 1007SOL     OW14656   2.361   1.165  13.131 -0.3828  0.1424 -0.2131
 1007SOL    HW114657   2.358   1.085  13.080  1.6543  0.1700 -0.3873
 1007SOL    HW214658   2.348   1.232  13.064  1.0511  0.5148 -0.1381
 1008SOL     OW14659   2.648   3.015  15.055 -0.2200  0.0621  0.2884
 1008SOL    HW114660   2.664   3.067  15.133 -2.5098  0.1581  0.6813
 1008SOL    HW214661   2.571   3.061  15.023 -0.7482 -1.3924 -0.5337
 1009SOL     OW14662   4.629   3.861   4.579 -0.2034  0.1281 -0.4342
 1009SOL    HW114663   4.720   3.833   4.578  0.3792  2.1221 -2.5490
 1009SOL    HW214664   4.586   3.796   4.524 -3.7709  0.9051  1.3590
 1010SOL     OW14665   0.421   1.767   5.774 -0.7866 -0.0714 -0.2241
 1010SOL    HW114666   0.371   1.697   5.733 -1.1456  0.2802 -0.3923
 1010SOL    HW214667   0.360   1.840   5.756  0.8119  1.4839  0.6614
 1011SOL     OW14668   0.224   2.998   0.086 -0.5623  0.0487 -0.0626
 1011SOL    HW114669   0.197   3.027  17.743  2.2557  0.3218 -0.8312
 1011SOL    HW214670   0.138   2.961   0.106 -1.3067  0.8564 -1.7399
 1012SOL     OW14671   0.875   1.729   1.241  0.7347 -0.3272 -0.3355
 1012SOL    HW114672   0.820   1.746   1.164  0.3040  4.1663  0.9272
 1012SOL    HW214673   0.819   1.774   1.305 -2.3018 -2.3385 -1.5757
 1013SOL     OW14674   4.639   3.608   6.879 -0.3622  0.4451  0.0685
 1013SOL    HW114675   4.650   3.622   6.785  2.0278 -0.4503  0.2200
 1013SOL    HW214676   4.729   3.614   6.911 -0.8920  1.4954  1.4029
 1014SOL     OW14677   2.943   0.110   4.767  0.3468  0.1386  0.0057
 1014SOL    HW114678   2.977   0.136   4.852 -0.0502 -4.2630  1.4912
 1014SOL    HW214679   2.929   0.196   4.727  1.0660  0.8314  1.2536
 1015SOL     OW14680   0.751   2.427   2.538  0.2454  0.0473  0.1163
 1015SOL    HW114681   0.740   2.333   2.556 -0.1427  0.1848  0.5935
 1015SOL    HW214682   0.785   2.416   2.449  2.3279 -0.7215  1.0221
 1016SOL     OW14683   4.472   4.211   0.173  0.0103 -0.0792  0.0002
 1016SOL    HW114684   4.445   4.120   0.180  0.7105 -0.3424 -0.7192
 1016SOL    HW214685   4.567   4.199   0.165  0.4391  4.2773 -1.4785
 1017SOL     OW14686   0.979   3.370  15.194 -0.3475  0.3119  0.1931
 1017SOL    HW114687   0.915   3.409  15.253 -0.5513 -0.5009  0.5047
 1017SOL    HW214688   0.926   3.350  15.116 -0.6143  1.2977  0.1210
 1018SOL     OW14689   3.514   0.262  10.050  0.3312  0.2343 -0.1033
 1018SOL    HW114690   3.562   0.237  10.130 -1.4997 -1.5640  0.4477
 1018SOL    HW214691   3.430   0.276  10.092  1.2458  0.2483  1.7359
 1019SOL     OW14692   2.987   3.163   3.373 -0.9575  0.1703 -0.2901
 1019SOL    HW114693   2.917   3.119   3.422 -0.5159  1.1198  1.1747
 1019SOL    HW214694   2.957   3.125   3.290  1.1395 -2.1818  0.0595
 1020SOL     OW14695   1.584   3.170   5.182  0.1484 -0.0426  0.3340
 1020SOL    HW114696   1.496   3.205   5.164 -0.8767 -3.6112 -1.5476
 1020SOL    HW214697   1.635   3.247   5.210 -0.2613 -0.0869  1.2106
 1021SOL     OW14698   1.514   2.358   7.427 -0.2647  0.6319 -0.1125
 1021SOL    HW114699   1.496   2.279   7.376 -2.0285  0.2771  1.0705
 1021SOL    HW214700   1.475   2.422   7.368 -0.0249 -1.6735 -2.7552
 1022SOL     OW14701   0.580   3.821   6.577 -0.0521 -0.5842  0.2163
 1022SOL    HW114702   0.550   3.827   6.486 -0.7655 -2.3021  0.3363
 1022SOL    HW214703   0.614   3.908   6.597 -1.2223  0.1239 -0.8269
 1023SOL     OW14704   0.927   4.715  15.356  0.4212 -0.9001  0.1313
 1023SOL    HW114705   1.016   0.014  15.356  0.2179 -0.4459 -2.9503
 1023SOL    HW214706   0.931   4.664  15.276  0.2545 -0.9669  0.1641
 1024SOL     OW14707   3.907   1.288   4.603  0.0174  0.4306 -0.2187
 1024SOL    HW114708   3.968   1.341   4.551 -2.2106 -0.4743 -3.7233
 1024SOL    HW214709   3.862   1.234   4.538 -1.1272  1.1290 -0.0059
 1025SOL     OW14710   0.463   4.349   2.756 -0.0589 -0.2816 -0.9709
 1025SOL    HW114711   0.483   4.443   2.754 -1.4367  0.0025 -1.4910
 1025SOL    HW214712   0.495   4.322   2.670  1.9273  2.8903 -1.2356
 1026SOL     OW14713   3.172   4.500  14.591 -0.2455  0.4306 -0.5002
 1026SOL    HW114714   3.184   4.511  14.496  0.0978 -1.4185 -0.6771
 1026SOL    HW214715   3.259   4.481  14.625 -0.0589  2.1818  0.0034
 1027SOL     OW14716   2.160   4.074   7.192 -0.7862 -0.2998 -0.4618
 1027SOL    HW114717   2.210   4.047   7.269  0.0781 -1.4145 -1.4040
 1027SOL    HW214718   2.094   4.129   7.233 -0.3629  1.3831 -2.0558
 1028SOL     OW14719   3.773   3.069   3.858 -0.0339 -0.8838 -0.1653
 1028SOL    HW114720   3.732   3.039   3.777 -0.1348  1.0040 -0.8022
 1028SOL    HW214721   3.836   3.134   3.827  1.1735 -1.5829  0.7858
 1029SOL     OW14722   2.246   2.823   8.431 -0.2772  0.6843 -0.4943
 1029SOL    HW114723   2.184   2.888   8.464 -2.0462 -0.9451 -0.6129
 1029SOL    HW214724   2.313   2.821   8.500 -0.0410  0.0247 -0.7430
 1030SOL     OW14725   3.711   1.655   3.987  0.2606  0.3320 -0.0966
 1030SOL    HW114726   3.648   1.725   3.969  0.3523  0.5124  0.2950
 1030SOL    HW214727   3.667   1.601   4.052 -0.4596  1.1560  0.1060
 1031SOL     OW14728   3.571   2.346   6.214  0.0013  0.0872 -0.0643
 1031SOL    HW114729   3.662   2.373   6.200  0.8016 -2.4592  0.1865
 1031SOL    HW214730   3.550   2.317   6.125 -0.4940  1.0081 -0.2476
 1032SOL     OW14731   2.890   4.273   6.814 -0.4653 -0.4195 -0.1508
 1032SOL    HW114732   2.929   4.284   6.727  1.5854 -0.2271  0.7855
 1032SOL    HW214733   2.972   4.260   6.863 -0.5066 -1.1742 -0.2712
 1033SOL     OW14734   3.330   3.919   4.215  0.5184 -0.3216 -0.5843
 1033SOL    HW114735   3.276   3.860   4.268  1.2698  0.7470  1.4052
 1033SOL    HW214736   3.273   3.996   4.223 -0.5106 -1.1615  0.1266
 1034SOL     OW14737   4.068   3.800   9.428 -0.1045 -0.1476 -0.1375
 1034SOL    HW114738   4.148   3.749   9.435 -0.0655  0.2104  2.2437
 1034SOL    HW214739   4.013   3.753   9.491 -1.4733  0.6907 -0.7145
 1035SOL     OW14740   4.321   4.447   6.316  0.0399 -0.0519 -0.1805
 1035SOL    HW114741   4.298   4.440   6.408 -1.3517 -2.6989 -0.7194
 1035SOL    HW214742   4.370   4.529   6.310  0.0155 -0.0126  0.2088
 1036SOL     OW14743   0.090   1.144   6.355  0.2187  0.1265 -0.7805
 1036SOL    HW114744   0.154   1.209   6.384  0.0810 -0.4724  0.8849
 1036SOL    HW214745   0.131   1.061   6.380 -0.3976 -0.3482 -1.3453
 1037SOL     OW14746   1.506   4.003   8.387 -0.3131  0.6550  0.0251
 1037SOL    HW114747   1.425   4.018   8.435  0.2000 -0.0482  1.1195
 1037SOL    HW214748   1.460   3.983   8.305  0.1245 -1.1191  0.2012
 1038SOL     OW14749   1.181   2.289   7.110  0.2224  0.3583  0.1285
 1038SOL    HW114750   1.271   2.314   7.091  0.3685  0.8446  1.4782
 1038SOL    HW214751   1.146   2.375   7.133  0.7813  1.1211 -1.8371
 1039SOL     OW14752   3.819   0.346   4.632  0.3220 -0.0721 -0.3765
 1039SOL    HW114753   3.741   0.350   4.576  0.6128  0.0665 -0.7687
 1039SOL    HW214754   3.859   0.433   4.629 -2.1963  1.2192  4.5536
 1040SOL     OW14755   1.734   2.815  14.056  0.2511 -0.2593 -0.0458
 1040SOL    HW114756   1.746   2.869  13.977 -2.9154 -0.4089 -0.6264
 1040SOL    HW214757   1.800   2.844  14.119  2.3641 -2.3132 -1.3198
 1041SOL     OW14758   1.246   4.149   4.751  0.0623 -0.1018 -0.4364
 1041SOL    HW114759   1.335   4.180   4.767  0.0641  0.0860 -0.7998
 1041SOL    HW214760   1.217   4.137   4.841  0.7692 -2.6334 -0.5602
 1042SOL     OW14761   0.468   3.101  17.740  0.1711  0.3537  0.0594
 1042SOL    HW114762   0.379   3.070   0.013  0.4692 -0.9442 -0.7142
 1042SOL    HW214763   0.461   3.131  17.649 -0.4518  2.9503  0.9753
 1043SOL     OW14764   3.669   1.043   2.424 -0.5558  0.4975  0.1731
 1043SOL    HW114765   3.613   0.980   2.470 -0.1411 -0.8580 -1.1544
 1043SOL    HW214766   3.652   1.017   2.333  0.4590 -0.3326  0.2262
 1044SOL     OW14767   0.582   2.672   3.205 -0.1352 -0.0340  0.3782
 1044SOL    HW114768   0.599   2.734   3.134 -0.7170 -0.2954  0.0109
 1044SOL    HW214769   0.660   2.661   3.259  0.3311 -0.0224 -0.2887
 1045SOL     OW14770   1.155   2.079   6.282  0.1915 -0.3029 -0.7593
 1045SOL    HW114771   1.199   2.141   6.341  0.2804  0.2404 -1.3908
 1045SOL    HW214772   1.214   2.077   6.206  1.6666  0.6929  0.3415
 1046SOL     OW14773   1.077   4.498   5.972 -0.0099  0.4319  0.0918
 1046SOL    HW114774   1.083   4.440   6.048 -1.7977  0.6359  0.3680
 1046SOL    HW214775   0.987   4.525   5.986  0.6933  1.4864  2.5902
 1047SOL     OW14776   2.657   3.726   2.579  0.2927 -0.8640 -0.2941
 1047SOL    HW114777   2.610   3.788   2.523 -0.8816 -1.2079  0.2923
 1047SOL    HW214778   2.663   3.659   2.511  1.7898  0.5006 -1.5089
 1048SOL     OW14779   4.227   4.013  15.569  0.3523 -0.1841 -0.2136
 1048SOL    HW114780   4.241   4.031  15.662  2.5566  2.2519 -1.0160
 1048SOL    HW214781   4.278   4.073  15.515  0.8115 -1.2148 -0.9324
 1049SOL     OW14782   3.367   3.491   8.009 -0.3075 -0.1220 -0.2673
 1049SOL    HW114783   3.283   3.503   8.053  0.9009 -1.3261  2.3700
 1049SOL    HW214784   3.327   3.456   7.930  1.8860 -1.3074 -0.8643
 1050SOL     OW14785   0.050   3.229  16.868 -0.0738  0.8771  0.4886
 1050SOL    HW114786   0.138   3.191  16.879 -0.4961 -0.6979 -1.5557
 1050SOL    HW214787   4.730   3.159  16.898  2.3983 -1.9647 -1.4682
 1051SOL     OW14788   2.562   0.187   8.790  0.1934  0.1604  0.1538
 1051SOL    HW114789   2.651   0.197   8.757  0.2809 -0.2911  0.2559
 1051SOL    HW214790   2.571   0.228   8.877  0.3755 -0.8498  0.6100
 1052SOL     OW14791   3.089   1.495   8.059 -0.2044  0.2902 -0.1560
 1052SOL    HW114792   3.171   1.512   8.105 -0.7256  0.3193  0.7616
 1052SOL    HW214793   3.034   1.573   8.066  0.7775  0.7394  2.5929
 1053SOL     OW14794   3.584   2.090   9.505  0.5042  0.0457 -0.4859
 1053SOL    HW114795   3.637   2.148   9.558  0.2102 -1.1160  1.1028
 1053SOL    HW214796   3.521   2.148   9.462 -0.2333 -0.2695  0.1482
 1054SOL     OW14797   2.775   3.398   9.730  0.6146  0.3113 -0.2673
 1054SOL    HW114798   2.854   3.439   9.765  0.3515 -1.3134  2.2377
 1054SOL    HW214799   2.802   3.391   9.639 -3.3850  1.6818 -1.5447
 1055SOL     OW14800   0.987   1.272   0.539 -0.2485 -0.6106 -0.0257
 1055SOL    HW114801   0.921   1.249   0.473  0.2902 -1.6802 -0.1742
 1055SOL    HW214802   0.949   1.346   0.587 -0.0418 -0.6075  0.1297
 1056SOL     OW14803   2.441   2.550  16.186  0.5666 -0.1441  0.5436
 1056SOL    HW114804   2.380   2.510  16.248 -0.3389 -0.0471 -0.2844
 1056SOL    HW214805   2.520   2.504  16.215  1.2361  1.3715  1.1494
 1057SOL     OW14806   1.069   3.846  12.272 -0.4270 -0.4353 -0.2187
 1057SOL    HW114807   1.055   3.771  12.331  1.3631 -0.7236 -0.1794
 1057SOL    HW214808   0.978   3.858  12.243 -1.1461 -0.3905  2.0467
 1058SOL     OW14809   0.182   3.349  12.514 -0.1203 -0.9608 -0.2842
 1058SOL    HW114810   0.210   3.411  12.446 -4.0606 -1.3359 -2.2717
 1058SOL    HW214811   0.155   3.413  12.580 -0.4787 -1.6884  0.2685
 1059SOL     OW14812   1.843   0.650   8.727 -0.4093  0.4359 -0.1144
 1059SOL    HW114813   1.809   0.586   8.665 -1.0908  1.6502 -1.0007
 1059SOL    HW214814   1.931   0.674   8.696 -1.2217 -0.9643 -3.5266
 1060SOL     OW14815   4.497   3.877   2.821 -0.1658 -0.5662  0.0607
 1060SOL    HW114816   4.563   3.829   2.871 -2.7512 -1.5189  2.5190
 1060SOL    HW214817   4.560   3.905   2.754  1.7436 -3.6972  0.5463
 1061SOL     OW14818   3.451   0.921   3.838  0.6864 -0.1321 -0.2684
 1061SOL    HW114819   3.523   0.860   3.823  1.4066  0.5834  0.2638
 1061SOL    HW214820   3.385   0.869   3.884 -0.1427 -0.4662 -1.8560
 1062SOL     OW14821   4.689   1.313   7.780 -0.0314 -0.1144  0.1704
 1062SOL    HW114822   4.636   1.291   7.704 -1.0752 -1.5914  1.3112
 1062SOL    HW214823   0.018   1.360   7.729 -1.0375  2.6688  1.3665
 1063SOL     OW14824   0.954   4.286  14.944  0.5589 -0.2259  0.0863
 1063SOL    HW114825   1.021   4.355  14.939  0.0910  0.2522  0.5002
 1063SOL    HW214826   0.966   4.255  15.033 -1.2892  2.9299  1.4079
 1064SOL     OW14827   0.610   1.832  11.115  0.3631  0.0172  0.2117
 1064SOL    HW114828   0.604   1.928  11.116  0.9017  0.0637 -0.6680
 1064SOL    HW214829   0.696   1.802  11.144  1.1624 -0.0451 -2.2305
 1065SOL     OW14830   1.799   1.393   9.836  0.5283  0.3223  0.0841
 1065SOL    HW114831   1.826   1.302   9.831  2.6774  1.0610 -1.7103
 1065SOL    HW214832   1.741   1.391   9.760  0.8387  0.1279 -0.1461
 1066SOL     OW14833   3.919   3.420   9.060  0.2213  0.6059  0.2458
 1066SOL    HW114834   3.825   3.440   9.065  0.0006 -0.3234 -0.0346
 1066SOL    HW214835   3.958   3.504   9.084  0.4235  0.3487  0.8179
 1067SOL     OW14836   2.907   4.537   7.734 -0.3793  0.5710 -0.7967
 1067SOL    HW114837   2.960   4.471   7.780 -2.2339 -0.2744  0.0954
 1067SOL    HW214838   2.939   4.536   7.643 -1.7043 -1.4154 -1.2375
 1068SOL     OW14839   1.471   0.555  11.792  0.2986  0.0490 -0.0025
 1068SOL    HW114840   1.389   0.537  11.837  0.7314  1.1647  1.2251
 1068SOL    HW214841   1.534   0.493  11.829 -0.1388 -1.6002 -2.0720
 1069SOL     OW14842   1.853   0.901   7.244  0.4298 -0.3168 -0.0226
 1069SOL    HW114843   1.831   0.810   7.225 -1.2401 -0.3222  1.9115
 1069SOL    HW214844   1.865   0.907   7.339 -1.9559 -0.6195  0.3009
 1070SOL     OW14845   0.978   1.862   4.688 -0.3082  0.6770 -0.2943
 1070SOL    HW114846   1.059   1.913   4.698  1.0341 -2.1165  3.0847
 1070SOL    HW214847   0.919   1.913   4.745 -0.0679 -0.0112  0.5670
 1071SOL     OW14848   0.380   0.579   7.306 -0.0697  0.1385  0.3340
 1071SOL    HW114849   0.452   0.637   7.329 -0.7447  1.3366 -0.6142
 1071SOL    HW214850   0.402   0.492   7.339 -1.3019  0.6185  2.4150
 1072SOL     OW14851   2.220   1.791  15.073  0.0310 -0.0616  0.6005
 1072SOL    HW114852   2.168   1.710  15.075  1.4265 -0.9708  0.5602
 1072SOL    HW214853   2.149   1.852  15.091  0.8917  0.7066  1.3993
 1073SOL     OW14854   3.324   1.655   9.766 -0.4107 -0.2844  0.1815
 1073SOL    HW114855   3.274   1.696   9.696 -0.2865  0.7043  0.6784
 1073SOL    HW214856   3.350   1.567   9.739 -0.0906 -0.3665  0.7613
 1074SOL     OW14857   4.536   1.680   6.303  0.2568  0.0213 -0.3252
 1074SOL    HW114858   4.570   1.714   6.386  0.7098  0.0658 -0.5251
 1074SOL    HW214859   4.470   1.745   6.280 -0.8954 -1.4852 -1.2287
 1075SOL     OW14860   1.630   3.540   7.375 -0.2287  0.5098  0.0675
 1075SOL    HW114861   1.723   3.526   7.356 -0.2468  0.4754  0.0016
 1075SOL    HW214862   1.605   3.609   7.314 -1.2593  0.2699  0.2235
 1076SOL     OW14863   2.610   2.209   1.213  0.2323  0.0438 -0.8733
 1076SOL    HW114864   2.702   2.189   1.193  0.6844 -1.2155  2.5511
 1076SOL    HW214865   2.581   2.262   1.139 -0.9808 -0.9849 -1.1320
 1077SOL     OW14866   4.359   2.840   4.377  0.3052  0.6963 -0.0222
 1077SOL    HW114867   4.342   2.774   4.309 -0.5995  2.3905 -1.4414
 1077SOL    HW214868   4.364   2.920   4.325  0.8478  1.0126  0.5256
 1078SOL     OW14869   0.841   4.578  12.367 -0.0053  0.0751  0.7721
 1078SOL    HW114870   0.808   4.505  12.315  0.1371 -0.1606  1.0122
 1078SOL    HW214871   0.912   4.610  12.312 -1.6005  0.4600 -1.0597
 1079SOL     OW14872   3.422   0.736  10.957  0.2394  0.6802  0.6903
 1079SOL    HW114873   3.343   0.683  10.970 -0.7112  1.5306 -1.5726
 1079SOL    HW214874   3.387   0.794  10.890 -2.2882 -0.4824  0.9866
 1080SOL     OW14875   0.547   1.884   6.582  0.1098 -0.1885 -0.3923
 1080SOL    HW114876   0.634   1.854   6.608 -0.4679  1.0506  2.8823
 1080SOL    HW214877   0.554   1.979   6.575 -0.5511 -0.1312 -0.1757
 1081SOL     OW14878   3.806   2.765  14.247  0.1656 -0.6808 -0.4112
 1081SOL    HW114879   3.867   2.727  14.311 -0.4561 -1.5875 -0.3652
 1081SOL    HW214880   3.757   2.830  14.297 -0.5060 -0.6300 -1.1268
 1082SOL     OW14881   4.583   4.712  17.408 -0.2553 -0.0484 -0.0776
 1082SOL    HW114882   4.603   0.066  17.433 -1.7941 -0.2413  1.8176
 1082SOL    HW214883   4.546   4.728  17.321 -0.0413 -0.4022 -0.2342
 1083SOL     OW14884   1.193   3.732  11.128 -0.5310 -0.1842 -0.2851
 1083SOL    HW114885   1.117   3.726  11.186 -0.3507  1.2127  0.0895
 1083SOL    HW214886   1.159   3.800  11.070  0.8931  1.2989  0.6286
 1084SOL     OW14887   0.414   3.636   0.934  0.1189  0.0749  0.0152
 1084SOL    HW114888   0.363   3.717   0.931 -0.1544 -0.0934  0.1128
 1084SOL    HW214889   0.359   3.566   0.899 -1.2762  1.9786 -1.6296
 1085SOL     OW14890   2.890   1.047  16.147 -0.4931  0.2059  0.0983
 1085SOL    HW114891   2.833   0.997  16.206  0.5788 -2.7683 -1.3683
 1085SOL    HW214892   2.943   1.092  16.213  0.9237 -2.7551  0.9900
 1086SOL     OW14893   4.013   3.330  16.557 -0.3792  0.3526 -0.8287
 1086SOL    HW114894   4.090   3.364  16.513 -0.0681  1.2756  0.4321
 1086SOL    HW214895   4.047   3.332  16.646  0.7444 -0.4426 -1.2461
 1087SOL     OW14896   2.876   4.666   4.398  0.5525 -0.5225  0.1135
 1087SOL    HW114897   2.822   4.605   4.348 -0.7425  0.6882  0.0443
 1087SOL    HW214898   2.962   4.628   4.380  0.9502 -0.7488  2.4455
 1088SOL     OW14899   2.356   3.942   3.763 -0.2648  0.3175 -0.0045
 1088SOL    HW114900   2.274   3.989   3.749  1.4574  3.2301 -0.4159
 1088SOL    HW214901   2.377   3.983   3.847 -3.1001 -1.0101  1.3414
 1089SOL     OW14902   4.573   0.295   5.110  0.2310  0.4507 -0.3957
 1089SOL    HW114903   4.665   0.313   5.128 -0.0554  2.1093 -0.6440
 1089SOL    HW214904   4.561   0.216   5.164 -0.0321  0.5700 -0.2776
 1090SOL     OW14905   3.508   4.736   8.007  0.1060  0.0105 -0.0765
 1090SOL    HW114906   3.581   0.040   7.959 -1.1981  1.4034 -0.9191
 1090SOL    HW214907   3.439   0.020   7.943  1.5791  0.7331 -1.4346
 1091SOL     OW14908   1.302   3.118   7.484  0.5142  0.3020  0.0151
 1091SOL    HW114909   1.380   3.087   7.531  0.0328 -0.7225  0.1468
 1091SOL    HW214910   1.285   3.203   7.523  1.7074  0.9059 -0.7588
 1092SOL     OW14911   0.194   3.002   9.421  0.1544  0.3529  0.1612
 1092SOL    HW114912   0.201   3.079   9.477 -0.0681 -0.7969  1.7694
 1092SOL    HW214913   0.282   2.965   9.434  0.7743  1.1599 -1.7372
 1093SOL     OW14914   1.063   1.799   2.131 -0.0134  0.8021  0.3889
 1093SOL    HW114915   1.009   1.809   2.053 -0.6377  1.0070  0.8483
 1093SOL    HW214916   1.005   1.756   2.194 -1.5042  0.9277 -0.8940
 1094SOL     OW14917   1.163   3.566   4.092  0.4228  0.1571  0.6875
 1094SOL    HW114918   1.190   3.476   4.110  0.1378  0.0834  0.7565
 1094SOL    HW214919   1.167   3.608   4.178 -3.6375  1.7328  0.0754
 1095SOL     OW14920   2.678   4.407   7.833  0.2288 -0.1086 -0.0071
 1095SOL    HW114921   2.714   4.346   7.898 -1.7203 -1.4233 -0.1722
 1095SOL    HW214922   2.747   4.471   7.816 -0.0354  0.1784  0.0038
 1096SOL     OW14923   2.282   0.562  11.009 -0.5220 -0.4572 -0.0368
 1096SOL    HW114924   2.259   0.601  11.093 -1.6397 -1.3804  0.0955
 1096SOL    HW214925   2.374   0.545  11.029 -0.5932 -1.5050 -0.5797
 1097SOL     OW14926   4.617   0.046   4.799  0.2304  0.1364 -0.3691
 1097SOL    HW114927   4.584   4.694   4.784 -1.6933  0.7445  0.2193
 1097SOL    HW214928   4.627   0.054   4.893  1.0660 -1.5251 -0.3287
 1098SOL     OW14929   0.372   3.333  16.708 -0.1908 -0.1250 -0.5828
 1098SOL    HW114930   0.462   3.367  16.712 -0.2159 -0.2049  0.9500
 1098SOL    HW214931   0.366   3.306  16.800 -0.8329 -1.3903 -1.0049
 1099SOL     OW14932   2.278   4.043   2.277 -0.3231 -0.0094  0.6734
 1099SOL    HW114933   2.187   4.066   2.263 -0.4399 -1.3869 -0.8820
 1099SOL    HW214934   2.287   3.977   2.208  1.7544 -0.0916  1.0047
 1100SOL     OW14935   2.194   3.807   7.574 -0.3929 -0.3094  0.0737
 1100SOL    HW114936   2.190   3.711   7.573 -0.2239 -0.3141 -0.6098
 1100SOL    HW214937   2.099   3.817   7.564  0.0985 -0.4695 -5.1652
 1101SOL     OW14938   2.058   4.524   9.181 -0.4285  1.2608 -0.3433
 1101SOL    HW114939   2.107   4.536   9.263  0.2379 -1.0336 -0.4141
 1101SOL    HW214940   2.010   4.444   9.200  1.5460 -0.1810 -1.4151
 1102SOL     OW14941   1.259   1.359   6.863  0.0125  0.2142  0.1092
 1102SOL    HW114942   1.173   1.393   6.838 -0.0459  2.1654  2.9514
 1102SOL    HW214943   1.307   1.351   6.780  1.1069  0.8365  0.6876
 1103SOL     OW14944   3.105   4.520   2.122 -0.1004 -0.6419 -0.0329
 1103SOL    HW114945   3.081   4.453   2.187 -0.4686  0.9921  1.4940
 1103SOL    HW214946   3.134   4.458   2.055  1.2096  1.8254 -1.7371
 1104SOL     OW14947   2.261   1.087   1.550  0.1787  0.4471  0.2681
 1104SOL    HW114948   2.167   1.082   1.562 -0.0893  2.6680 -0.8996
 1104SOL    HW214949   2.291   1.024   1.615  2.3181  0.8514 -0.2917
 1105SOL     OW14950   2.760   2.898  16.695  0.3748  0.1923  0.4343
 1105SOL    HW114951   2.765   2.990  16.719  0.2919  0.0137  1.1353
 1105SOL    HW214952   2.764   2.898  16.599  2.3291  0.2817  0.5087
 1106SOL     OW14953   3.426   1.085   8.311 -0.1664  0.4343  0.2671
 1106SOL    HW114954   3.360   1.038   8.362 -0.0517  0.4050  0.3874
 1106SOL    HW214955   3.425   1.065   8.217 -3.7675  0.4572  0.2818
 1107SOL     OW14956   0.521   4.537   2.002 -1.3127 -0.1553  0.3560
 1107SOL    HW114957   0.488   4.451   2.032  0.2446 -1.1387 -0.7958
 1107SOL    HW214958   0.583   4.520   1.932 -2.3656  0.1234 -0.6365
 1108SOL     OW14959   1.304   3.597   4.769 -0.1566  0.1375  0.9699
 1108SOL    HW114960   1.372   3.542   4.730 -0.8904  0.4698 -0.8094
 1108SOL    HW214961   1.318   3.680   4.722 -2.3415  0.7938  1.4875
 1109SOL     OW14962   1.064   3.325  13.842  0.5114  0.3819  0.3829
 1109SOL    HW114963   1.083   3.390  13.774  1.2057 -1.2612 -0.9910
 1109SOL    HW214964   0.972   3.340  13.862  0.2349 -0.7135 -0.0747
 1110SOL     OW14965   3.578   3.573   1.948 -0.1382  0.1140 -0.3377
 1110SOL    HW114966   3.522   3.574   1.870  2.6118  0.6097 -2.2888
 1110SOL    HW214967   3.539   3.501   1.998 -0.3046 -0.4203 -1.2285
 1111SOL     OW14968   2.722   4.408   2.431  0.0323 -0.1372  0.4585
 1111SOL    HW114969   2.747   4.375   2.517  0.7998 -0.5215  0.0927
 1111SOL    HW214970   2.788   4.357   2.384 -1.2407 -0.5954 -0.8505
 1112SOL     OW14971   0.522   0.157   5.869  0.0014  0.5372 -0.2280
 1112SOL    HW114972   0.451   0.129   5.927  0.0431 -0.4936 -0.6603
 1112SOL    HW214973   0.501   0.250   5.871 -1.7602  0.1265  0.1524
 1113SOL     OW14974   1.181   3.134   5.425 -0.4456  0.4618  0.2982
 1113SOL    HW114975   1.197   3.199   5.493  2.3077 -1.4142  1.4603
 1113SOL    HW214976   1.225   3.173   5.349 -1.6210  1.4629  0.1421
 1114SOL     OW14977   0.590   0.859   9.619 -0.2288 -0.3008  0.7808
 1114SOL    HW114978   0.541   0.804   9.558  0.4445 -1.0207  0.8836
 1114SOL    HW214979   0.572   0.945   9.582  0.0931 -0.8625 -0.7026
 1115SOL     OW14980   1.016   1.085   5.167  0.0563 -0.0307  0.3787
 1115SOL    HW114981   1.044   1.147   5.235  0.5137  1.0373 -0.7907
 1115SOL    HW214982   0.931   1.125   5.149 -0.8802 -0.7131  3.2057
 1116SOL     OW14983   1.394   3.816   7.427  0.0398  0.2876 -0.3325
 1116SOL    HW114984   1.316   3.766   7.404  1.1858 -1.6612  0.0225
 1116SOL    HW214985   1.445   3.805   7.347  0.5444  2.0945 -0.2465
 1117SOL     OW14986   4.460   3.014  17.424  0.3877 -0.7391  0.4048
 1117SOL    HW114987   4.524   3.001  17.495  0.2283 -2.0646  0.3049
 1117SOL    HW214988   4.513   3.045  17.350  0.9758  1.1065  1.5903
 1118SOL     OW14989   0.012   2.224   2.789 -0.3516  0.8034  0.0657
 1118SOL    HW114990   0.078   2.195   2.726 -0.1311  3.6560 -1.0475
 1118SOL    HW214991   4.721   2.300   2.736 -0.6250  0.1493 -0.7250
 1119SOL     OW14992   1.153   3.507   0.444  0.1520  0.8645 -0.1528
 1119SOL    HW114993   1.205   3.566   0.498 -0.5547  0.6258  0.8038
 1119SOL    HW214994   1.133   3.576   0.381  2.1097  0.8916 -0.7359
 1120SOL     OW14995   1.863   0.028  14.351  0.8406  0.5628  0.6279
 1120SOL    HW114996   1.940   4.711  14.331  0.2984  0.8457 -2.1032
 1120SOL    HW214997   1.799   4.694  14.360  0.6910  0.2659 -3.0107
 1121SOL     OW14998   2.114   4.680   3.430 -0.4404  0.0050  0.3995
 1121SOL    HW114999   2.025   4.671   3.462  0.0553  1.2359  2.1015
 1121SOL    HW215000   2.158   4.684   3.514 -1.0164 -0.1686  0.7088
 1122SOL     OW15001   4.462   0.865   8.545  0.2274  0.7263  0.3472
 1122SOL    HW115002   4.415   0.921   8.606  1.4296  0.9093  1.1149
 1122SOL    HW215003   4.483   0.793   8.605  1.4760 -1.4599 -2.7413
 1123SOL     OW15004   0.558   2.694   2.260 -0.0775  0.4278  0.0335
 1123SOL    HW115005   0.507   2.615   2.275  0.6574  0.1380  1.0277
 1123SOL    HW215006   0.528   2.724   2.174 -1.5897 -1.4234 -0.0737
 1124SOL     OW15007   3.418   1.049   4.683 -0.0226  0.0718 -0.2633
 1124SOL    HW115008   3.475   1.080   4.754  0.8266 -1.8326 -0.1116
 1124SOL    HW215009   3.350   1.114   4.663 -0.4552  0.2936  1.9099
 1125SOL     OW15010   1.550   2.049   0.381 -0.3052 -0.2526  0.6155
 1125SOL    HW115011   1.574   1.990   0.453  0.2655 -1.4025 -0.5227
 1125SOL    HW215012   1.517   1.988   0.315  2.3114  0.8564 -1.7085
 1126SOL     OW15013   0.179   1.215   4.117 -0.0255  0.4018  0.6408
 1126SOL    HW115014   0.090   1.187   4.094  1.0967 -1.9959 -0.7985
 1126SOL    HW215015   0.204   1.144   4.177  1.0352 -0.5876 -0.9725
 1127SOL     OW15016   0.624   2.775  15.332 -0.7896  0.0995  0.2914
 1127SOL    HW115017   0.608   2.695  15.282  2.9661 -0.7634  0.4802
 1127SOL    HW215018   0.552   2.828  15.297 -1.9749 -0.1121  2.3841
 1128SOL     OW15019   1.392   1.680  14.543  0.1047  0.8217  0.7233
 1128SOL    HW115020   1.373   1.773  14.530  1.4605  1.0163  0.1779
 1128SOL    HW215021   1.484   1.675  14.518 -0.4558 -0.9144 -1.0485
 1129SOL     OW15022   2.502   3.488   5.675 -0.0426 -0.0134  0.2871
 1129SOL    HW115023   2.478   3.581   5.684 -0.0294  0.3571 -3.4211
 1129SOL    HW215024   2.519   3.500   5.582 -3.0923 -2.8147 -0.6353
 1130SOL     OW15025   1.054   0.170   2.853  0.2971  0.2893  0.4742
 1130SOL    HW115026   1.038   0.205   2.941 -0.0285  1.1498  0.0730
 1130SOL    HW215027   1.126   0.226   2.826  0.1942 -0.8846 -2.1845
 1131SOL     OW15028   3.099   1.039   1.044  0.4425 -0.1462 -0.4995
 1131SOL    HW115029   3.042   1.114   1.060 -0.5801 -1.6307  2.7753
 1131SOL    HW215030   3.047   0.974   0.998  1.0269 -0.8335 -0.1873
 1132SOL     OW15031   3.100   1.364   2.366 -0.0922  0.4162 -0.1698
 1132SOL    HW115032   3.025   1.308   2.387  1.3207 -0.1822  3.2082
 1132SOL    HW215033   3.058   1.444   2.397 -0.9970 -1.1107  2.4881
 1133SOL     OW15034   0.348   1.827  13.881  0.0610  0.3314 -0.1428
 1133SOL    HW115035   0.304   1.773  13.947 -1.4750 -0.2527 -1.6529
 1133SOL    HW215036   0.275   1.868  13.834  0.9925  0.3546 -1.5518
 1134SOL     OW15037   3.186   0.518  16.364 -0.0885 -0.2079 -0.1413
 1134SOL    HW115038   3.255   0.573  16.328  0.4281 -0.1795  0.8982
 1134SOL    HW215039   3.112   0.555  16.315  1.1911 -0.0701 -1.9440
 1135SOL     OW15040   3.044   4.317   7.849 -0.2777  0.0568  0.7107
 1135SOL    HW115041   3.101   4.338   7.775 -0.7236  1.9343  0.9156
 1135SOL    HW215042   3.080   4.235   7.885 -2.2988 -1.1845 -0.0966
 1136SOL     OW15043   0.690   1.855   1.046  0.3250  0.5698 -0.3102
 1136SOL    HW115044   0.648   1.929   1.002  0.8709  0.7222 -0.5844
 1136SOL    HW215045   0.622   1.830   1.108  0.8554 -1.4901 -0.5722
 1137SOL     OW15046   1.830   0.628  13.694  0.5215  0.0681  0.2457
 1137SOL    HW115047   1.744   0.592  13.673  1.3006 -1.4269 -0.3884
 1137SOL    HW215048   1.885   0.550  13.685  2.1816  1.1010  1.4960
 1138SOL     OW15049   0.650   2.476   0.375  0.4922  0.2148  0.4646
 1138SOL    HW115050   0.726   2.510   0.423  1.0586 -2.7819  1.6936
 1138SOL    HW215051   0.682   2.395   0.336  1.7161  0.5333  0.7987
 1139SOL     OW15052   2.395   3.144   5.694 -0.3278 -0.2641 -0.4630
 1139SOL    HW115053   2.476   3.172   5.737 -2.5017  2.2890  1.9459
 1139SOL    HW215054   2.328   3.138   5.763  0.8939  1.1186  0.8533
 1140SOL     OW15055   0.110   2.414   3.039 -0.3624  0.7050 -0.5390
 1140SOL    HW115056   0.204   2.394   3.039 -0.4404  0.3063  0.0128
 1140SOL    HW215057   0.095   2.428   2.946  0.1964 -1.9918 -1.0266
 1141SOL     OW15058   4.451   0.922  11.952 -0.1213  0.2278  0.1136
 1141SOL    HW115059   4.464   0.840  11.904  0.6460 -1.1695  2.7393
 1141SOL    HW215060   4.429   0.884  12.036  0.5069  0.9834  0.6229
 1142SOL     OW15061   0.736   3.033   3.932  0.5189  0.4598 -0.2394
 1142SOL    HW115062   0.737   2.938   3.922 -0.3902  0.9864 -5.1345
 1142SOL    HW215063   0.803   3.052   3.999 -0.1866  1.4846  0.1748
 1143SOL     OW15064   4.537   2.201   3.276  0.6419  0.5055 -0.4009
 1143SOL    HW115065   4.584   2.187   3.194  0.2653  2.7384 -0.9969
 1143SOL    HW215066   4.584   2.138   3.330  0.8848  0.9506 -0.0916
 1144SOL     OW15067   2.062   1.640   7.158 -0.5850 -0.1589  0.1927
 1144SOL    HW115068   1.992   1.628   7.223 -0.5463 -1.8783 -0.0930
 1144SOL    HW215069   2.136   1.605   7.207 -0.0375  1.2167  0.3548
 1145SOL     OW15070   4.042   3.581   8.490 -0.4525  0.7319 -0.1392
 1145SOL    HW115071   4.030   3.665   8.534 -0.3905  1.0062 -0.6436
 1145SOL    HW215072   4.002   3.594   8.404 -0.6879  0.2785 -0.1010
 1146SOL     OW15073   1.043   1.785  13.622  0.0745  0.5990 -0.1718
 1146SOL    HW115074   1.005   1.825  13.700 -1.4748 -0.4823 -0.3933
 1146SOL    HW215075   1.034   1.694  13.651  0.7866  1.2359  2.1052
 1147SOL     OW15076   0.842   1.894   2.925  0.6199 -0.2787  0.1825
 1147SOL    HW115077   0.843   1.805   2.960 -0.9530 -0.8717 -1.2357
 1147SOL    HW215078   0.878   1.937   3.003  0.5416 -0.8166  0.5116
 1148SOL     OW15079   2.659   0.997  10.080  0.2592  0.4183  0.9556
 1148SOL    HW115080   2.702   0.971  10.162 -0.2817 -2.8033  0.2113
 1148SOL    HW215081   2.728   1.044  10.033  0.8587 -1.9584 -0.5329
 1149SOL     OW15082   1.031   4.140   6.615  0.6066  0.2879  0.6380
 1149SOL    HW115083   0.942   4.137   6.652 -0.4372 -1.4089 -2.0217
 1149SOL    HW215084   1.016   4.189   6.534  1.3864 -1.5837 -0.6391
 1150SOL     OW15085   0.338   2.696   1.803  0.7844 -0.0960  0.5057
 1150SOL    HW115086   0.287   2.624   1.766  2.0883 -0.2746 -0.9051
 1150SOL    HW215087   0.394   2.723   1.731  0.3451 -1.0549 -0.1946
 1151SOL     OW15088   1.152   0.313   3.619 -0.0981 -0.2354 -0.2919
 1151SOL    HW115089   1.147   0.220   3.640  0.0988  0.0668  1.0996
 1151SOL    HW215090   1.147   0.349   3.708  1.6192  0.7157 -0.5866
 1152SOL     OW15091   3.660   3.104   1.910  0.7138 -0.0972 -0.0171
 1152SOL    HW115092   3.684   3.181   1.962 -2.3768 -1.3133  3.2260
 1152SOL    HW215093   3.612   3.059   1.980 -2.2268  2.5776 -0.2709
 1153SOL     OW15094   4.042   3.696  14.618 -0.5235  0.2556 -0.3150
 1153SOL    HW115095   4.043   3.661  14.707  2.2502  1.3646  0.0790
 1153SOL    HW215096   3.976   3.637  14.579 -0.2793 -2.5006  3.4317
 1154SOL     OW15097   2.794   2.643   1.260  0.5060 -0.3561  0.1272
 1154SOL    HW115098   2.768   2.573   1.321  0.5324 -1.1838 -0.8116
 1154SOL    HW215099   2.711   2.660   1.216  0.8866  0.3897 -0.2941
 1155SOL     OW15100   3.414   4.670   3.168  0.1218  0.2057 -0.4821
 1155SOL    HW115101   3.416   4.656   3.263 -1.5749  2.2117 -0.1472
 1155SOL    HW215102   3.322   4.691   3.156  0.1582  0.9216  0.4223
 1156SOL     OW15103   4.090   1.572   7.806  0.3840  0.0629  0.8269
 1156SOL    HW115104   4.142   1.494   7.787 -0.7136 -0.6817  0.8352
 1156SOL    HW215105   4.042   1.532   7.878 -0.7263 -1.4757 -0.7438
 1157SOL     OW15106   0.508   3.096  15.056  0.1692 -0.0568 -0.0908
 1157SOL    HW115107   0.467   3.182  15.046  1.0598  0.1395 -2.1127
 1157SOL    HW215108   0.465   3.063  15.134 -0.5187 -0.6912 -0.7450
 1158SOL     OW15109   1.501   2.261   2.043  0.5975 -0.7132  0.1331
 1158SOL    HW115110   1.416   2.300   2.023  0.0501 -0.2934  3.2335
 1158SOL    HW215111   1.487   2.224   2.130  0.4909 -1.6075 -0.2577
 1159SOL     OW15112   4.596   1.145   3.921 -0.3561  0.3085 -0.0083
 1159SOL    HW115113   4.639   1.229   3.909 -0.2726  0.4881  1.4468
 1159SOL    HW215114   4.649   1.109   3.992 -2.0869 -1.0313  0.6134
 1160SOL     OW15115   3.035   0.476   3.870  0.0137  0.2453 -0.7584
 1160SOL    HW115116   3.087   0.419   3.814 -1.3010  0.1462 -1.8779
 1160SOL    HW215117   3.019   0.416   3.943 -1.3783  2.1939  0.5685
 1161SOL     OW15118   3.209   1.935   3.730 -0.6020  0.2530  0.0500
 1161SOL    HW115119   3.225   1.850   3.773 -1.8783  0.8287  1.6860
 1161SOL    HW215120   3.181   1.905   3.644 -2.3842 -1.3353  1.1722
 1162SOL     OW15121   0.250   2.966  17.184  0.1744  0.1172 -0.4386
 1162SOL    HW115122   0.194   2.936  17.112 -1.3623  1.3226  0.2546
 1162SOL    HW215123   0.199   3.034  17.228  0.1428  0.6168 -1.2385
 1163SOL     OW15124   2.270   0.508   4.623 -0.3633 -0.5031 -0.3529
 1163SOL    HW115125   2.194   0.482   4.571 -0.4527  2.3855 -1.6814
 1163SOL    HW215126   2.225   0.542   4.700 -0.0900 -0.5036 -0.1927
 1164SOL     OW15127   0.117   0.290   2.650  0.5289 -0.1878  0.3998
 1164SOL    HW115128   0.090   0.382   2.651  0.5316 -0.1871  0.4083
 1164SOL    HW215129   0.043   0.243   2.612 -0.1236  0.0207  1.4230
 1165SOL     OW15130   0.107   0.345  10.187 -0.2795  1.1821 -0.9334
 1165SOL    HW115131   0.039   0.299  10.138  0.9734 -1.5682 -0.1349
 1165SOL    HW215132   0.074   0.344  10.277  1.2529  0.0981 -0.3727
 1166SOL     OW15133   1.611   0.768   7.472  0.4797  0.0050 -0.1213
 1166SOL    HW115134   1.579   0.823   7.400 -0.0375  0.6143  0.5727
 1166SOL    HW215135   1.610   0.827   7.547  2.3594 -0.3942  0.2217
 1167SOL     OW15136   3.424   2.880   4.998 -0.0809 -0.3960 -0.3956
 1167SOL    HW115137   3.492   2.910   5.058 -1.1632 -0.7663  1.0067
 1167SOL    HW215138   3.396   2.800   5.043 -0.0011 -1.0366 -1.4838
 1168SOL     OW15139   0.962   1.213   0.256  0.2122 -0.2236  0.4580
 1168SOL    HW115140   0.950   1.286   0.195  3.5288 -0.1709 -0.1151
 1168SOL    HW215141   0.911   1.142   0.218 -0.4828  0.3156  0.3737
 1169SOL     OW15142   1.906   2.630   2.989  0.2859 -0.2396 -0.2769
 1169SOL    HW115143   1.986   2.624   2.938 -0.3968 -2.3737 -1.0977
 1169SOL    HW215144   1.844   2.596   2.924 -0.9113  2.0973 -0.3474
 1170SOL     OW15145   3.657   1.407   9.296 -0.4516  0.2765  0.0212
 1170SOL    HW115146   3.636   1.484   9.348 -0.2438 -0.0885  0.6506
 1170SOL    HW215147   3.731   1.375   9.348 -0.9864 -0.3594  0.3921
 1171SOL     OW15148   4.302   4.316  12.403  0.0155  0.2549  0.1859
 1171SOL    HW115149   4.230   4.345  12.346  0.6449  1.3382 -0.0678
 1171SOL    HW215150   4.303   4.222  12.389 -1.0266  0.5007 -1.5204
 1172SOL     OW15151   0.486   0.558   4.571 -0.0336 -1.2429  0.1989
 1172SOL    HW115152   0.533   0.543   4.654 -0.1493 -0.6434  0.3711
 1172SOL    HW215153   0.498   0.653   4.571 -1.1817 -1.0815  1.8803
 1173SOL     OW15154   2.820   3.792   0.230 -0.3217 -0.8492 -0.1213
 1173SOL    HW115155   2.809   3.868   0.288 -0.2197 -3.0623  2.8083
 1173SOL    HW215156   2.916   3.787   0.221 -0.1430  1.1648  0.6810
 1174SOL     OW15157   3.321   3.786   8.903 -0.3516 -0.0569 -0.7019
 1174SOL    HW115158   3.411   3.771   8.932 -0.8733 -1.1142  0.3835
 1174SOL    HW215159   3.343   3.849   8.834 -3.3213  1.1133 -0.5974
 1175SOL     OW15160   3.353   0.751   5.670 -0.5704 -0.9334  0.3500
 1175SOL    HW115161   3.276   0.787   5.714 -1.5370 -2.6467  0.0483
 1175SOL    HW215162   3.398   0.721   5.749  1.4864  0.4509 -0.3058
 1176SOL     OW15163   2.879   3.645  13.294  0.3159  0.2701 -0.3747
 1176SOL    HW115164   2.797   3.627  13.340 -0.3505 -0.0694 -1.6777
 1176SOL    HW215165   2.868   3.740  13.292  1.0647  0.3679  0.8447
 1177SOL     OW15166   0.244   0.773   6.315 -0.3084  0.4825  0.0625
 1177SOL    HW115167   0.160   0.808   6.347  0.4129  0.8789  1.5393
 1177SOL    HW215168   0.224   0.680   6.321  2.3401 -0.0594  0.2852
 1178SOL     OW15169   3.229   0.085   5.909 -0.0915  0.0585  0.2067
 1178SOL    HW115170   3.238   0.121   5.997 -0.0171  0.3136  0.0960
 1178SOL    HW215171   3.256   4.731   5.922 -2.5668 -1.1420 -3.0265
 1179SOL     OW15172   3.301   0.540   9.660  0.2732 -0.9662 -0.1407
 1179SOL    HW115173   3.283   0.454   9.699 -0.1283 -0.1728  1.4151
 1179SOL    HW215174   3.273   0.591   9.735  2.2008  0.3201 -0.3022
 1180SOL     OW15175   1.939   4.458  13.009  0.1054 -0.1407 -0.2329
 1180SOL    HW115176   2.027   4.439  13.040  0.3530  0.0713 -0.7983
 1180SOL    HW215177   1.967   4.458  12.917  0.1002 -2.5375 -0.2374
 1181SOL     OW15178   2.843   3.510   7.696  0.7360  0.2535 -0.2349
 1181SOL    HW115179   2.859   3.496   7.789  0.9800 -2.7236 -0.7488
 1181SOL    HW215180   2.908   3.456   7.652  0.6573  0.3515 -0.4720
 1182SOL     OW15181   0.030   2.821   9.296  0.7340 -0.2285  0.2502
 1182SOL    HW115182   4.690   2.828   9.353  0.2421 -0.8891 -0.3358
 1182SOL    HW215183   0.086   2.881   9.346  2.3058  0.0380 -1.8154
 1183SOL     OW15184   3.545   4.538   5.107  0.3136  0.3268 -0.5634
 1183SOL    HW115185   3.472   4.490   5.066  1.1944 -0.4536 -1.2041
 1183SOL    HW215186   3.495   4.612   5.141  1.7711 -0.0330  2.2908
 1184SOL     OW15187   4.303   4.539   1.823  0.2273  0.2279  0.2711
 1184SOL    HW115188   4.249   4.526   1.745  2.2330 -2.0356 -0.7672
 1184SOL    HW215189   4.265   4.479   1.886  0.7678 -0.9604 -0.5173
 1185SOL     OW15190   1.296   0.833   3.993 -0.2743 -0.9902  0.0454
 1185SOL    HW115191   1.299   0.739   4.010 -0.0611 -0.9027  0.4819
 1185SOL    HW215192   1.290   0.868   4.082 -0.8464 -3.4391  0.9640
 1186SOL     OW15193   3.529   3.424  11.833 -0.1493 -0.0251 -0.6455
 1186SOL    HW115194   3.525   3.479  11.755 -0.9726  0.0789 -0.5219
 1186SOL    HW215195   3.439   3.400  11.852 -0.3217  0.0928 -1.3111
 1187SOL     OW15196   3.987   1.772   5.489  0.0169  0.3541  0.1610
 1187SOL    HW115197   4.007   1.833   5.560  1.9538 -0.1869  0.0873
 1187SOL    HW215198   3.987   1.831   5.413 -0.4828  0.1429  0.0007
 1188SOL     OW15199   1.482   3.167  16.348 -0.3284 -0.4267  0.4577
 1188SOL    HW115200   1.400   3.134  16.384 -1.9544  0.5669 -2.3328
 1188SOL    HW215201   1.471   3.129  16.260  0.6207 -0.5856  0.4108
 1189SOL     OW15202   1.112   4.355   5.388 -0.3489  0.0196 -0.5856
 1189SOL    HW115203   1.083   4.368   5.479 -0.0233 -1.0656 -0.3249
 1189SOL    HW215204   1.042   4.305   5.345  0.9288 -1.1697 -1.2608
 1190SOL     OW15205   3.193   3.148  15.392  0.4987  0.1907 -0.2235
 1190SOL    HW115206   3.126   3.086  15.420  0.8524  0.3859  1.0543
 1190SOL    HW215207   3.264   3.112  15.444  1.2124  0.1278 -1.2524
 1191SOL     OW15208   2.375   1.094   4.911 -0.2342 -0.1657 -0.2310
 1191SOL    HW115209   2.315   1.051   4.850 -1.2349  2.3260 -1.0370
 1191SOL    HW215210   2.337   1.078   4.997  0.4428  1.4928  0.3868
 1192SOL     OW15211   4.643   4.329   1.003 -0.1712  0.5176  0.1473
 1192SOL    HW115212   4.615   4.340   1.094  4.4670 -1.0808  1.7826
 1192SOL    HW215213   4.639   4.419   0.970  0.3739  0.1468 -0.9021
 1193SOL     OW15214   3.574   4.471   8.136 -0.4953 -0.0071 -0.5561
 1193SOL    HW115215   3.488   4.449   8.101 -1.3234 -0.6219  1.8485
 1193SOL    HW215216   3.584   4.561   8.107  0.4341 -0.0829 -0.4836
 1194SOL     OW15217   0.751   2.860   2.029 -0.2442 -0.1558 -0.0319
 1194SOL    HW115218   0.800   2.935   1.997 -3.7966  1.6900 -1.1647
 1194SOL    HW215219   0.664   2.900   2.036 -0.9830 -1.4500 -1.7335
 1195SOL     OW15220   0.363   1.800   9.893  0.4114 -0.5045  0.2738
 1195SOL    HW115221   0.377   1.872   9.831 -0.8953 -0.6307 -0.1591
 1195SOL    HW215222   0.425   1.816   9.964 -0.8720  0.0667  1.2589
 1196SOL     OW15223   4.650   2.257   8.242  0.1358  0.4334 -0.3345
 1196SOL    HW115224   4.600   2.185   8.204  1.0687 -0.6740  0.5484
 1196SOL    HW215225   4.676   2.210   8.321 -1.1739 -0.0998 -0.2083
 1197SOL     OW15226   0.061   3.284   7.754  0.0489  0.4709  0.0759
 1197SOL    HW115227   0.032   3.370   7.785  0.6089  1.0020 -0.8510
 1197SOL    HW215228   0.094   3.241   7.833 -0.8683 -1.6674 -0.7054
 1198SOL     OW15229   3.100   4.584   3.645 -0.0298 -0.7337  0.2190
 1198SOL    HW115230   3.025   4.571   3.587  0.7515 -0.4754 -0.8412
 1198SOL    HW215231   3.149   4.637   3.583 -0.0035 -0.8114  0.1740
 1199SOL     OW15232   1.569   2.870   4.294 -0.1641 -0.4533  0.0859
 1199SOL    HW115233   1.612   2.954   4.277  0.8780 -0.9541  0.2031
 1199SOL    HW215234   1.549   2.893   4.385  0.5099 -0.0431  0.1288
 1200SOL     OW15235   3.741   4.263   8.227  0.4661 -0.1936 -0.0682
 1200SOL    HW115236   3.708   4.349   8.203 -0.6137  0.0733  2.4116
 1200SOL    HW215237   3.719   4.249   8.319  0.5731 -2.6639 -0.4103
 1201SOL     OW15238   2.863   4.153   3.172  0.0971  0.0296 -0.5060
 1201SOL    HW115239   2.795   4.090   3.199 -0.0993  0.9805  1.2469
 1201SOL    HW215240   2.889   4.188   3.257 -0.9722 -1.2125  0.3394
 1202SOL     OW15241   4.147   4.310   8.399 -0.0457  0.2213 -0.2666
 1202SOL    HW115242   4.155   4.374   8.470 -0.2057  0.5575 -0.5521
 1202SOL    HW215243   4.053   4.302   8.387 -0.1909  2.6478 -0.8676
 1203SOL     OW15244   0.299   1.826   9.123 -0.7877 -0.0574 -0.1666
 1203SOL    HW115245   0.361   1.863   9.061 -2.1604  1.0176 -0.9024
 1203SOL    HW215246   0.263   1.906   9.163 -1.8578 -0.1463 -0.9377
 1204SOL     OW15247   0.921   0.326  16.051 -0.1753 -0.1374  0.2170
 1204SOL    HW115248   1.009   0.296  16.030 -0.2500 -1.1450  1.3850
 1204SOL    HW215249   0.868   0.256  16.013 -0.1021  0.6465 -1.3586
 1205SOL     OW15250   2.910   0.709   3.939  0.3676  0.0142  0.5476
 1205SOL    HW115251   2.867   0.716   3.854 -0.3438  0.3175  0.9267
 1205SOL    HW215252   2.965   0.632   3.924  1.1544  1.0272 -1.6130
 1206SOL     OW15253   2.633   0.788   1.963  0.0592  0.3382  0.8950
 1206SOL    HW115254   2.729   0.783   1.968  0.1470  1.7889  0.6914
 1206SOL    HW215255   2.624   0.852   1.892 -0.5398 -1.2001 -0.3976
 1207SOL     OW15256   4.010   0.900   6.261  0.1896 -0.0601  0.2425
 1207SOL    HW115257   4.007   0.863   6.350  0.8194  0.9604  0.6884
 1207SOL    HW215258   4.006   0.993   6.283  1.7058  0.6571 -2.6116
 1208SOL     OW15259   4.185   1.993   8.390 -0.1193 -0.0922 -0.4506
 1208SOL    HW115260   4.118   1.974   8.324 -0.6169  1.5684 -0.4207
 1208SOL    HW215261   4.164   2.083   8.413  0.9146  0.6715 -2.4606
 1209SOL     OW15262   3.926   0.608   5.347  0.2472  0.2103 -0.5120
 1209SOL    HW115263   3.849   0.598   5.402  0.7665  0.5942  0.2805
 1209SOL    HW215264   3.879   0.647   5.273 -1.7050 -2.0016 -0.4630
 1210SOL     OW15265   2.890   2.767   7.595 -0.0623  0.2214 -0.5744
 1210SOL    HW115266   2.878   2.761   7.689  0.8512 -0.1870 -0.4795
 1210SOL    HW215267   2.927   2.680   7.583  1.3326  0.5082  1.6636
 1211SOL     OW15268   1.125   3.990   5.976 -0.6162 -0.4972  0.1156
 1211SOL    HW115269   1.107   3.896   5.978  3.3620 -1.2936 -0.5518
 1211SOL    HW215270   1.124   4.017   5.884  0.8863 -1.9010 -0.3119
 1212SOL     OW15271   2.967   4.449   8.341  0.6095  0.0250 -0.0846
 1212SOL    HW115272   2.996   4.536   8.367  1.6935 -0.5321  0.6024
 1212SOL    HW215273   2.930   4.418   8.424 -1.1222 -1.7817 -1.5272
 1213SOL     OW15274   3.353   3.034  15.576  0.0721 -0.3364 -0.3740
 1213SOL    HW115275   3.397   2.959  15.616 -0.5775 -1.2423 -1.3561
 1213SOL    HW215276   3.385   3.114  15.618 -0.2562 -0.1068 -0.5610
 1214SOL     OW15277   1.913   2.705   9.257 -0.0748 -0.2924 -0.2068
 1214SOL    HW115278   1.818   2.699   9.251 -0.0059  0.4339 -2.1029
 1214SOL    HW215279   1.943   2.647   9.186 -0.3077  0.5862 -1.0258
 1215SOL     OW15280   3.829   1.137  13.328  0.0331 -0.6506  0.4654
 1215SOL    HW115281   3.782   1.196  13.269 -0.9850  0.0083  1.9288
 1215SOL    HW215282   3.897   1.191  13.367  1.6781 -1.1869 -1.6763
 1216SOL     OW15283   2.648   1.572   9.489  0.4676  0.1417 -0.3587
 1216SOL    HW115284   2.719   1.599   9.430 -0.8301 -0.0338 -2.0046
 1216SOL    HW215285   2.666   1.480   9.511  1.4404  0.1454 -1.1213
 1217SOL     OW15286   4.465   4.562   1.447 -0.8443 -0.4532  0.0380
 1217SOL    HW115287   4.510   4.646   1.446  0.2520 -1.0713 -2.6597
 1217SOL    HW215288   4.466   4.534   1.539 -1.0805  0.3125  0.2730
 1218SOL     OW15289   1.523   0.261   7.602 -0.4901  0.3106 -0.0046
 1218SOL    HW115290   1.460   0.253   7.673  2.4478 -0.0300  2.5814
 1218SOL    HW215291   1.515   0.355   7.587  0.2242  0.5195  0.9297
 1219SOL     OW15292   1.453   1.777   5.240  0.2006 -0.6776  0.8021
 1219SOL    HW115293   1.419   1.689   5.231 -1.2427  0.0324 -0.7212
 1219SOL    HW215294   1.445   1.800   5.147 -1.5882  0.9781  1.3582
 1220SOL     OW15295   4.047   0.086   7.431  0.2267  0.7562 -0.6489
 1220SOL    HW115296   4.061   0.007   7.380  1.2550 -0.6291  1.7670
 1220SOL    HW215297   3.997   0.135   7.366 -0.4864  0.2652 -0.4770
 1221SOL     OW15298   3.767   2.367   5.853 -0.3812  0.0369  0.4129
 1221SOL    HW115299   3.760   2.325   5.767  2.2052  0.6314 -0.0839
 1221SOL    HW215300   3.680   2.343   5.885  0.7009  0.4971  3.7274
 1222SOL     OW15301   0.477   1.757   7.863 -0.4374 -0.3424 -0.5991
 1222SOL    HW115302   0.464   1.685   7.801  0.5683 -0.7485 -0.3530
 1222SOL    HW215303   0.404   1.753   7.924  1.4842 -0.8608  1.6724
 1223SOL     OW15304   1.577   2.065  10.147  0.3014  0.7073 -0.3293
 1223SOL    HW115305   1.658   2.036  10.191  0.4754  0.7087 -0.6471
 1223SOL    HW215306   1.624   2.108  10.075 -1.6806  2.4448 -0.5702
 1224SOL     OW15307   1.920   0.388   7.775 -0.3705  0.1068 -0.4893
 1224SOL    HW115308   1.989   0.402   7.710  0.1469  2.6782  0.6361
 1224SOL    HW215309   1.871   0.467   7.756 -0.4120  0.2082  0.0346
 1225SOL     OW15310   2.023   2.625  15.893  0.5235  0.1841  0.0783
 1225SOL    HW115311   2.107   2.578  15.891  0.0993 -0.5200 -1.5024
 1225SOL    HW215312   1.957   2.570  15.934 -0.3099  0.1960 -1.2575
 1226SOL     OW15313   0.708   2.898   7.125  0.5076 -0.0382  0.5202
 1226SOL    HW115314   0.678   2.964   7.061  1.4379  0.7617  0.9062
 1226SOL    HW215315   0.799   2.898   7.095  0.1966 -0.3508 -0.4177
 1227SOL     OW15316   3.570   4.288   2.816 -0.5291  0.2617 -0.5222
 1227SOL    HW115317   3.529   4.202   2.811  0.9404 -0.5033  0.4739
 1227SOL    HW215318   3.627   4.289   2.738 -0.1742  0.5981 -0.2578
 1228SOL     OW15319   2.680   4.718   6.803 -0.0933 -0.4205  0.0163
 1228SOL    HW115320   2.681   4.624   6.785 -0.4168 -0.7668  1.7395
 1228SOL    HW215321   2.760   4.726   6.855 -0.1349  0.0726  0.0094
 1229SOL     OW15322   0.678   0.361   0.460 -0.7948 -0.9441 -0.2509
 1229SOL    HW115323   0.601   0.320   0.498  1.6777 -2.6414  2.9161
 1229SOL    HW215324   0.668   0.444   0.506  2.8779  0.4741 -1.9991
 1230SOL     OW15325   2.497   4.200   3.193 -0.0194  0.2689  0.0628
 1230SOL    HW115326   2.462   4.276   3.146 -0.7158  0.6066  1.0993
 1230SOL    HW215327   2.466   4.126   3.141 -0.8710  0.3960  0.3882
 1231SOL     OW15328   2.422   3.099  11.050  0.3521 -0.4978  0.2454
 1231SOL    HW115329   2.328   3.113  11.061  0.4262 -0.5665  0.9581
 1231SOL    HW215330   2.421   3.008  11.080  0.9357  0.2260  2.4431
 1232SOL     OW15331   2.785   0.715  12.323  0.2689  0.0406  0.0401
 1232SOL    HW115332   2.874   0.739  12.347  1.7188 -2.1262 -3.2697
 1232SOL    HW215333   2.797   0.681  12.235  1.0865  0.5311 -0.0351
 1233SOL     OW15334   4.397   1.848   8.758  0.2690 -0.1937 -0.1109
 1233SOL    HW115335   4.324   1.907   8.738  0.3252  0.9252  2.9708
 1233SOL    HW215336   4.474   1.897   8.729  0.6333 -1.3126 -1.0468
 1234SOL     OW15337   2.392   3.803   3.297  0.0072 -0.2752 -0.0490
 1234SOL    HW115338   2.478   3.784   3.335 -0.8260 -1.1418  1.4272
 1234SOL    HW215339   2.330   3.777   3.365 -0.8175  1.4470 -0.1363
 1235SOL     OW15340   0.675   2.687  15.591 -0.8879  0.0847 -0.2002
 1235SOL    HW115341   0.666   2.736  15.510  0.2419  1.1889  0.3320
 1235SOL    HW215342   0.630   2.604  15.576  0.2822 -0.6247  0.2119
 1236SOL     OW15343   3.622   1.971   1.126 -0.1454  0.2174 -0.5731
 1236SOL    HW115344   3.623   1.996   1.218  1.0316 -2.0761  0.0251
 1236SOL    HW215345   3.532   1.939   1.119 -0.1267 -0.1117  0.7951
 1237SOL     OW15346   1.693   2.294   6.383  0.0320  0.5772  0.2743
 1237SOL    HW115347   1.743   2.357   6.331  0.9701  0.7526  1.4147
 1237SOL    HW215348   1.681   2.219   6.323 -0.8093  0.3415  0.7329
 1238SOL     OW15349   0.383   1.814   9.402  0.0029 -0.5128 -0.1682
 1238SOL    HW115350   0.385   1.751   9.474 -2.2670 -1.2181 -0.7090
 1238SOL    HW215351   0.316   1.774   9.346  0.7391 -0.1735 -1.2872
 1239SOL     OW15352   1.456   2.836   3.131 -0.0450 -0.8415  0.2049
 1239SOL    HW115353   1.468   2.846   3.225 -0.2361  1.2192  0.0105
 1239SOL    HW215354   1.371   2.881   3.122  0.2828 -0.5196 -1.3091
 1240SOL     OW15355   1.783   0.357  17.263 -0.0399 -0.0175  0.8627
 1240SOL    HW115356   1.691   0.341  17.241  0.0409  1.3148 -0.4873
 1240SOL    HW215357   1.783   0.301  17.340 -0.0875 -0.2986  0.6604
 1241SOL     OW15358   0.794   2.704   3.652 -0.3939 -0.1038 -0.1727
 1241SOL    HW115359   0.835   2.789   3.639 -0.5052  0.0449  0.4492
 1241SOL    HW215360   0.716   2.709   3.597 -1.1301 -0.6329  0.8062
 1242SOL     OW15361   4.479   4.441   7.230  0.4069  0.0963 -0.3521
 1242SOL    HW115362   4.495   4.535   7.236 -0.0236  0.1305  0.2851
 1242SOL    HW215363   4.440   4.427   7.316  1.4173 -2.1230 -0.2590
 1243SOL     OW15364   0.021   1.093   5.153 -0.3583 -0.1064  0.2765
 1243SOL    HW115365   4.721   1.177   5.124 -1.6753 -0.4980  0.7932
 1243SOL    HW215366   4.711   1.066   5.232  0.2776  0.8997  0.9891
 1244SOL     OW15367   0.719   4.272  11.029 -0.4337 -0.7901  0.2181
 1244SOL    HW115368   0.655   4.253  10.960  0.4955  1.7877 -1.3800
 1244SOL    HW215369   0.760   4.187  11.045 -4.0730 -2.1741  2.0202
 1245SOL     OW15370   0.891   4.609   3.263 -0.1067  0.0153  0.2048
 1245SOL    HW115371   0.947   4.620   3.186 -1.3597 -1.9094 -0.9609
 1245SOL    HW215372   0.817   4.565   3.223 -0.6471  0.3994  0.7874
 1246SOL     OW15373   0.965   4.262  17.594 -0.8610  1.0876 -0.0347
 1246SOL    HW115374   0.994   4.307  17.673 -2.6847  0.8909  0.7586
 1246SOL    HW215375   1.025   4.299  17.529 -0.6317  0.2561 -0.2933
 1247SOL     OW15376   3.007   4.035  16.053 -0.2342 -0.0564 -0.4795
 1247SOL    HW115377   3.072   4.105  16.051 -0.1567 -0.0107  2.8347
 1247SOL    HW215378   2.968   4.042  16.140  1.3656  0.8094  0.1631
 1248SOL     OW15379   3.133   3.734   7.752 -0.4010  0.2223 -0.4998
 1248SOL    HW115380   3.043   3.720   7.783 -0.4040  4.0564  1.1226
 1248SOL    HW215381   3.180   3.671   7.807  0.3363  1.0877 -0.1502
 1249SOL     OW15382   3.586   2.648   0.004 -0.5442  0.8071  0.2245
 1249SOL    HW115383   3.593   2.624  17.655 -0.0742  0.5657  0.3229
 1249SOL    HW215384   3.680   2.652   0.024 -0.2967 -0.9308 -0.5324
 1250SOL     OW15385   0.483   4.464  10.595  0.0369 -0.2316 -0.2073
 1250SOL    HW115386   0.555   4.402  10.585 -1.9045 -2.4128 -0.5928
 1250SOL    HW215387   0.526   4.544  10.624 -0.5656  0.4368 -1.1640
 1251SOL     OW15388   0.473   3.937   7.331 -0.8599  0.0774 -0.0915
 1251SOL    HW115389   0.521   3.859   7.358  0.1150 -0.2622 -2.8569
 1251SOL    HW215390   0.530   3.970   7.262 -1.1747  2.9568  0.9903
 1252SOL     OW15391   3.761   3.441   1.465 -0.4868 -0.1804 -0.4727
 1252SOL    HW115392   3.777   3.403   1.551  1.2245 -0.0679 -0.7519
 1252SOL    HW215393   3.848   3.455   1.429  0.1612 -1.0533  0.7662
 1253SOL     OW15394   1.230   3.711  12.006 -0.4921  0.2903 -0.5890
 1253SOL    HW115395   1.238   3.625  12.047 -1.6337  0.1649 -0.6221
 1253SOL    HW215396   1.145   3.743  12.037  0.1449  1.4969 -0.1321
 1254SOL     OW15397   0.579   3.483  16.795  0.3244  0.0333 -0.4325
 1254SOL    HW115398   0.669   3.481  16.827  0.0368  0.5605  0.4188
 1254SOL    HW215399   0.549   3.567  16.831 -2.9929 -0.9590 -0.8309
 1255SOL     OW15400   1.292   3.362   2.185 -0.2002 -0.6849 -0.4418
 1255SOL    HW115401   1.304   3.314   2.104 -1.1230 -3.9592  1.3799
 1255SOL    HW215402   1.286   3.290   2.248  0.7757  0.7509  1.3260
 1256SOL     OW15403   2.477   3.225   4.933 -0.4268 -0.6003  0.2280
 1256SOL    HW115404   2.440   3.303   4.976  3.1222  0.0060  2.1429
 1256SOL    HW215405   2.469   3.170   5.011 -1.2181  1.5176  1.6530
 1257SOL     OW15406   3.028   0.760  10.103 -0.0204 -0.0801  0.8219
 1257SOL    HW115407   2.941   0.719  10.097 -0.1294 -0.1227  2.7138
 1257SOL    HW215408   3.026   0.799  10.191 -0.7252  1.4196  0.1373
 1258SOL     OW15409   2.040   3.791  16.573  0.4920 -0.3947 -0.0979
 1258SOL    HW115410   2.131   3.803  16.543  1.1639 -0.0694  2.0857
 1258SOL    HW215411   2.022   3.882  16.597  0.6631 -0.5881  0.7696
 1259SOL     OW15412   3.404   4.154   5.435 -0.4178 -0.2640  0.1107
 1259SOL    HW115413   3.428   4.124   5.522 -1.8939  1.4113  1.1050
 1259SOL    HW215414   3.472   4.215   5.405 -1.9621  1.6841  0.5259
 1260SOL     OW15415   3.122   3.814  15.746 -0.2834  0.5232 -0.7321
 1260SOL    HW115416   3.069   3.745  15.786 -1.1708 -0.0498 -2.9086
 1260SOL    HW215417   3.202   3.795  15.795 -0.2005  0.5743 -0.8475
 1261SOL     OW15418   1.068   3.128   8.663 -0.0406 -0.1102 -0.0082
 1261SOL    HW115419   1.009   3.066   8.705  0.8871 -0.5260  0.6757
 1261SOL    HW215420   1.046   3.113   8.571  0.0725 -1.6100  0.2194
 1262SOL     OW15421   1.337   2.488   8.302  0.0969  0.5338  0.2182
 1262SOL    HW115422   1.310   2.573   8.266  0.8254  1.0379  0.8755
 1262SOL    HW215423   1.324   2.439   8.221 -1.0875  1.0662  0.0915
 1263SOL     OW15424   3.415   1.537   4.861 -0.4783 -0.4838  0.3030
 1263SOL    HW115425   3.393   1.445   4.877 -2.4206 -0.0488  0.1967
 1263SOL    HW215426   3.436   1.523   4.769 -1.8218 -1.9043  0.2139
 1264SOL     OW15427   3.142   2.319   3.648  0.3334 -0.4237 -0.0579
 1264SOL    HW115428   3.069   2.350   3.594 -1.5142 -0.7122  2.2691
 1264SOL    HW215429   3.185   2.256   3.589  0.2358 -0.7767  0.2475
 1265SOL     OW15430   4.362   4.060  10.701  0.8362 -0.1213 -0.0685
 1265SOL    HW115431   4.310   4.015  10.634  1.3549 -1.1442  0.2158
 1265SOL    HW215432   4.332   4.150  10.690 -0.8287 -0.9435 -2.3287
 1266SOL     OW15433   1.179   1.114   8.478 -0.1461  0.3201  0.1593
 1266SOL    HW115434   1.223   1.145   8.399  0.2832 -1.2720 -0.2371
 1266SOL    HW215435   1.233   1.037   8.493  1.7629  1.3806 -1.3097
 1267SOL     OW15436   0.142   1.670  11.865  0.2439  0.0801  0.2671
 1267SOL    HW115437   0.132   1.604  11.935  0.0580  1.2624  1.3537
 1267SOL    HW215438   0.233   1.697  11.875  0.2979  0.4978 -1.5181
 1268SOL     OW15439   4.667   2.535   6.257 -0.1560 -0.1088  0.1783
 1268SOL    HW115440   4.588   2.568   6.214 -0.8700  0.3404  1.8162
 1268SOL    HW215441   4.679   2.465   6.194  0.7139 -0.2977  0.5495
 1269SOL     OW15442   0.605   2.760   5.195 -0.0922 -0.3518 -0.1573
 1269SOL    HW115443   0.511   2.776   5.207 -0.3213 -1.2749 -0.7718
 1269SOL    HW215444   0.645   2.794   5.275  1.3582  0.4213 -1.2186
 1270SOL     OW15445   2.198   1.562   6.906  0.2091 -0.3119 -0.2391
 1270SOL    HW115446   2.266   1.624   6.879  1.4858 -1.7997 -0.3888
 1270SOL    HW215447   2.146   1.616   6.966 -0.6652  0.0215 -1.3039
 1271SOL     OW15448   1.974   4.163   2.255 -0.2665  0.2828 -0.1090
 1271SOL    HW115449   1.912   4.102   2.295  0.5014 -1.5470 -1.7252
 1271SOL    HW215450   1.923   4.204   2.185 -0.2375  0.1514 -0.2077
 1272SOL     OW15451   1.237   1.528   5.959  0.5393 -0.3266 -0.3689
 1272SOL    HW115452   1.262   1.614   5.994 -3.7326  0.6261  0.3412
 1272SOL    HW215453   1.142   1.528   5.952  0.3672  1.2886  1.9304
 1273SOL     OW15454   3.343   0.111   7.843 -0.0921 -0.8654  1.0050
 1273SOL    HW115455   3.278   0.179   7.858  1.2873  0.3925  1.2583
 1273SOL    HW215456   3.296   0.064   7.773 -2.6143  1.9560  0.7940
 1274SOL     OW15457   2.344   3.719   5.683 -0.5884  0.1808  0.1257
 1274SOL    HW115458   2.278   3.710   5.614  2.0686 -0.8706 -2.2570
 1274SOL    HW215459   2.311   3.806   5.704  0.0568 -0.2490  2.9467
 1275SOL     OW15460   1.608   1.069   8.514 -0.2705 -0.0092 -0.3870
 1275SOL    HW115461   1.662   1.041   8.440 -0.8904  1.6340 -1.4475
 1275SOL    HW215462   1.670   1.044   8.583 -0.5411  1.0395  0.2219
 1276SOL     OW15463   4.212   1.749   9.752  0.6155 -0.4010 -0.1547
 1276SOL    HW115464   4.131   1.797   9.732  0.0110 -1.8214 -1.1423
 1276SOL    HW215465   4.280   1.800   9.709  0.0807  1.3172  1.0431
 1277SOL     OW15466   4.522   3.382   6.963 -0.2220  0.6036 -0.5241
 1277SOL    HW115467   4.455   3.431   7.011 -0.4561  0.1630 -0.3998
 1277SOL    HW215468   4.574   3.449   6.918  0.7286  1.0021  1.1682
 1278SOL     OW15469   1.393   4.279   8.212 -0.3156 -0.5595 -0.2131
 1278SOL    HW115470   1.394   4.312   8.302 -1.4226 -0.8502 -0.1048
 1278SOL    HW215471   1.446   4.349   8.173 -2.1054  0.8789 -0.0874
 1279SOL     OW15472   2.888   3.864   1.975  0.3568 -0.0019  0.0967
 1279SOL    HW115473   2.979   3.889   1.992 -0.1172  1.7509  0.0751
 1279SOL    HW215474   2.843   3.946   1.955  0.1131  0.4272  2.4232
 1280SOL     OW15475   1.751   3.721  12.485 -0.6517 -0.0758  0.2672
 1280SOL    HW115476   1.814   3.651  12.502 -0.3480  0.9613  3.5948
 1280SOL    HW215477   1.694   3.699  12.559  0.7614 -1.5514  0.9193
 1281SOL     OW15478   3.052   3.954   3.666  1.0319  0.2459 -0.7339
 1281SOL    HW115479   3.020   4.013   3.735  1.2068 -1.4492  0.7923
 1281SOL    HW215480   2.998   3.876   3.672  0.8585  0.5728  1.9100
 1282SOL     OW15481   2.975   0.928   8.806  0.4927 -0.3845 -0.0781
 1282SOL    HW115482   3.067   0.946   8.824  0.3515  0.1203  0.1298
 1282SOL    HW215483   2.959   0.992   8.737  2.2036 -1.1118 -1.1337
 1283SOL     OW15484   4.735   0.063   6.886  0.2878  0.0764 -0.5725
 1283SOL    HW115485   4.722   0.062   6.791  1.5961  0.1017 -0.7466
 1283SOL    HW215486   4.654   0.023   6.918 -0.2296  2.1499  0.7027
 1284SOL     OW15487   4.497   4.039   4.745  0.0297  0.7366  0.0681
 1284SOL    HW115488   4.540   3.971   4.694 -0.2495  1.3173 -0.9320
 1284SOL    HW215489   4.412   4.048   4.701  1.0613  0.5754 -1.9322
 1285SOL     OW15490   3.141   2.706  15.960  0.3325  0.3921 -0.3744
 1285SOL    HW115491   3.231   2.736  15.948 -0.0440  1.2716 -0.9961
 1285SOL    HW215492   3.117   2.684  15.870  1.2954 -0.1581 -0.5016
 1286SOL     OW15493   2.548   2.667   3.947  0.5804 -0.5161  0.3123
 1286SOL    HW115494   2.485   2.719   3.898  1.1415 -0.4016 -0.2891
 1286SOL    HW215495   2.508   2.580   3.943  0.4801 -0.4936  0.8388
 1287SOL     OW15496   2.492   1.127  14.261 -0.5771 -0.4872 -0.6713
 1287SOL    HW115497   2.497   1.059  14.194  1.7419  0.9178 -1.9515
 1287SOL    HW215498   2.523   1.088  14.342 -0.1647 -0.4424 -0.8085
 1288SOL     OW15499   0.701   1.887   1.387 -0.2657  0.1046  0.2550
 1288SOL    HW115500   0.615   1.924   1.367 -0.1815 -0.6650 -1.5288
 1288SOL    HW215501   0.691   1.823   1.457 -1.7295  1.7738  1.5877
 1289SOL     OW15502   3.661   1.257   6.632 -0.4971  0.1063 -0.2173
 1289SOL    HW115503   3.724   1.322   6.601  0.4253 -0.6163  0.1116
 1289SOL    HW215504   3.590   1.319   6.642  0.1777  1.0041 -0.9987
 1290SOL     OW15505   2.250   0.780   7.130  0.2212 -0.4148 -0.1023
 1290SOL    HW115506   2.220   0.816   7.047 -2.1011 -1.9633  0.0590
 1290SOL    HW215507   2.239   0.688   7.106 -1.6313 -0.1087 -0.4167
 1291SOL     OW15508   4.364   0.179   7.752  0.4053  0.1356  0.0527
 1291SOL    HW115509   4.347   0.085   7.745  3.3125 -0.2910 -0.8974
 1291SOL    HW215510   4.292   0.209   7.695  0.5604 -0.3643 -0.3977
 1292SOL     OW15511   1.034   2.759   3.378 -0.6474 -0.3644 -0.1770
 1292SOL    HW115512   1.048   2.851   3.400  0.8706 -0.4756 -0.6968
 1292SOL    HW215513   1.089   2.725   3.448  2.1340  1.9364 -1.2213
 1293SOL     OW15514   4.477   2.192   5.588  0.2640 -0.2983 -0.0058
 1293SOL    HW115515   4.398   2.220   5.635  1.7681  0.9290  1.8099
 1293SOL    HW215516   4.444   2.146   5.511 -0.4150 -0.5045  0.4050
 1294SOL     OW15517   3.836   2.741   0.475 -0.1259 -0.3470 -0.4380
 1294SOL    HW115518   3.808   2.657   0.440 -2.0900  0.6675 -1.2805
 1294SOL    HW215519   3.913   2.731   0.531 -0.8074 -0.8701  0.3992
 1295SOL     OW15520   1.789   1.915   5.101  0.2530  0.3595  0.1330
 1295SOL    HW115521   1.743   1.856   5.041  3.6948 -2.5707  0.3816
 1295SOL    HW215522   1.815   1.987   5.044 -2.1682  1.4730  0.4023
 1296SOL     OW15523   4.357   3.998   7.622 -0.7924  0.5061  0.1444
 1296SOL    HW115524   4.344   4.002   7.527 -0.5003  0.3547  0.0984
 1296SOL    HW215525   4.341   3.907   7.648  0.1313 -0.8833 -4.0790
 1297SOL     OW15526   4.619   2.970  16.134  0.3434  0.8919  0.2272
 1297SOL    HW115527   4.631   2.962  16.039  2.7788  1.1020  0.5079
 1297SOL    HW215528   4.606   2.877  16.154 -0.4432  1.0506  0.4379
 1298SOL     OW15529   0.747   0.724   4.933  0.6689  0.4472 -0.2193
 1298SOL    HW115530   0.691   0.798   4.956 -0.2459 -0.6047  0.9847
 1298SOL    HW215531   0.823   0.772   4.901 -0.8010  2.1809 -1.1179
 1299SOL     OW15532   0.478   3.286  12.471 -0.3010 -0.2203 -0.3851
 1299SOL    HW115533   0.491   3.372  12.510  3.0137 -0.4324 -1.0102
 1299SOL    HW215534   0.397   3.263  12.517  0.5283 -0.9435  0.7269
 1300SOL     OW15535   1.979   4.240   7.334 -0.0121  0.0992  0.1150
 1300SOL    HW115536   1.990   4.335   7.336 -0.3583  0.1546 -0.7234
 1300SOL    HW215537   1.940   4.231   7.421  0.4170  0.0172  0.2950
 1301SOL     OW15538   1.775   3.405   6.094 -0.3176 -0.8218  0.1767
 1301SOL    HW115539   1.709   3.471   6.115 -0.8536 -1.5967  0.8997
 1301SOL    HW215540   1.733   3.322   6.112 -0.5694 -0.9235 -0.8760
 1302SOL     OW15541   4.018   4.495   2.424 -0.2272 -0.1768 -0.2646
 1302SOL    HW115542   3.957   4.422   2.437 -0.3141 -0.2338 -0.9653
 1302SOL    HW215543   3.985   4.530   2.341 -0.0210 -0.0878 -0.3083
 1303SOL     OW15544   3.772   2.807  12.782  0.1125  0.4377 -0.2922
 1303SOL    HW115545   3.681   2.790  12.757  0.6606  0.5493 -2.4254
 1303SOL    HW215546   3.765   2.790  12.876  3.6858 -1.2909 -0.3328
 1304SOL     OW15547   1.617   1.982   3.773  0.0774  0.2402 -0.2614
 1304SOL    HW115548   1.551   1.931   3.820  1.1760 -1.0293 -0.0832
 1304SOL    HW215549   1.656   1.908   3.727  2.9530  0.7634  1.3515
 1305SOL     OW15550   0.118   3.846   2.660 -0.0629  0.6411  0.2969
 1305SOL    HW115551   0.117   3.895   2.742 -0.7633  0.4491  0.3985
 1305SOL    HW215552   0.155   3.763   2.690 -1.2892 -0.7565 -2.0617
 1306SOL     OW15553   1.105   2.126  11.070  0.4414  0.1546  0.4729
 1306SOL    HW115554   1.094   2.175  11.151  1.6496  2.4531 -0.7506
 1306SOL    HW215555   1.151   2.048  11.099 -0.0480  0.3953  1.8705
 1307SOL     OW15556   3.525   4.058   4.887 -0.1964  0.0777  0.0703
 1307SOL    HW115557   3.613   4.022   4.876 -0.8768 -1.2403 -1.2022
 1307SOL    HW215558   3.518   4.100   4.801 -1.6553  0.2238  0.2642
 1308SOL     OW15559   0.858   2.405   6.618 -0.0139  0.0188  0.0755
 1308SOL    HW115560   0.805   2.422   6.541  1.2358 -2.6724 -1.3838
 1308SOL    HW215561   0.940   2.441   6.586  1.6000 -2.7677  1.0845
 1309SOL     OW15562   2.599   0.579  10.587 -0.0814  0.3278 -0.0294
 1309SOL    HW115563   2.546   0.500  10.577 -0.6785  0.9013 -1.2712
 1309SOL    HW215564   2.685   0.537  10.584 -0.3176 -0.1963  0.3637
 1310SOL     OW15565   2.349   3.957  13.588 -0.6310 -0.3948 -0.0584
 1310SOL    HW115566   2.368   3.883  13.532 -0.9398 -0.3961 -0.1580
 1310SOL    HW215567   2.401   4.026  13.547 -0.7590  0.2444  0.8425
 1311SOL     OW15568   2.765   1.559   5.462  0.3230 -0.2694  0.2416
 1311SOL    HW115569   2.764   1.557   5.558 -2.6866 -0.5146  0.2212
 1311SOL    HW215570   2.857   1.581   5.451  0.2624 -0.3414 -0.3927
 1312SOL     OW15571   3.053   4.310  11.980 -0.2303 -0.1684 -0.0407
 1312SOL    HW115572   3.074   4.328  11.888 -0.5707 -3.2312 -0.7145
 1312SOL    HW215573   3.135   4.334  12.023 -0.4758 -1.0146  0.9084
 1313SOL     OW15574   4.038   3.348   8.837 -0.2224  0.1067 -0.4737
 1313SOL    HW115575   3.962   3.297   8.810 -0.1654  0.3590 -1.1126
 1313SOL    HW215576   4.010   3.376   8.924  0.0751 -1.2422  0.0643
 1314SOL     OW15577   4.220   0.564   1.579 -0.7429 -0.3008 -0.0080
 1314SOL    HW115578   4.289   0.500   1.594  2.6905  3.3553 -0.1869
 1314SOL    HW215579   4.279   0.629   1.541 -1.5312 -1.4329 -3.2146
 1315SOL     OW15580   2.473   0.650   5.106 -0.0325  0.1420  0.0686
 1315SOL    HW115581   2.533   0.722   5.087  1.5778 -1.3226 -0.3584
 1315SOL    HW215582   2.517   0.613   5.182  0.3913  0.1101 -0.1901
 1316SOL     OW15583   4.087   0.483  12.539 -0.3124  0.7056 -0.8139
 1316SOL    HW115584   4.142   0.548  12.584 -0.3731  0.6100 -0.6032
 1316SOL    HW215585   4.009   0.483  12.595  1.4308  0.0870  1.6461
 1317SOL     OW15586   3.853   3.206   3.044 -0.0434  0.3045  0.0182
 1317SOL    HW115587   3.763   3.173   3.041 -0.2849  0.9118  0.6113
 1317SOL    HW215588   3.846   3.278   3.106  1.1948 -0.3286  0.9146
 1318SOL     OW15589   4.279   2.833   6.784 -0.0399 -0.2391 -0.2323
 1318SOL    HW115590   4.252   2.765   6.846 -0.5098 -1.0920 -1.3639
 1318SOL    HW215591   4.205   2.829   6.722  0.3018 -0.0438 -0.6516
 1319SOL     OW15592   4.130   1.859   8.959 -0.7485  0.2731 -0.3950
 1319SOL    HW115593   4.188   1.867   9.035 -2.3844 -2.0337  1.0993
 1319SOL    HW215594   4.046   1.881   9.000 -0.6030 -1.7996  1.0038
 1320SOL     OW15595   2.520   0.499   3.028  0.5075  0.4759  0.1951
 1320SOL    HW115596   2.587   0.566   3.011  0.3271  1.1205  2.0014
 1320SOL    HW215597   2.466   0.543   3.094  0.1396  0.7667 -0.3039
 1321SOL     OW15598   1.122   4.631   9.685  0.3890 -0.3243  0.0967
 1321SOL    HW115599   1.131   4.561   9.621  2.0573  1.6508 -1.8195
 1321SOL    HW215600   1.042   4.601   9.729  1.3494 -1.6499  0.9246
 1322SOL     OW15601   1.729   4.120   8.494 -0.3790  0.3912 -0.5087
 1322SOL    HW115602   1.650   4.081   8.458  0.6058  0.0632 -2.3164
 1322SOL    HW215603   1.704   4.209   8.516  0.5759  0.2271  1.2191
 1323SOL     OW15604   4.210   2.412   1.123  0.2086  0.6294 -0.2765
 1323SOL    HW115605   4.162   2.409   1.206 -1.4267  2.0057 -1.1734
 1323SOL    HW215606   4.166   2.486   1.082  0.3491  1.5414  1.2015
 1324SOL     OW15607   2.280   3.352   6.050 -1.0392 -0.2661 -0.4136
 1324SOL    HW115608   2.269   3.367   5.956  0.5040  2.8534 -0.1088
 1324SOL    HW215609   2.199   3.392   6.082  0.1790  3.1768 -1.6795
 1325SOL     OW15610   3.530   2.577   1.911  0.4248 -0.3495  0.0779
 1325SOL    HW115611   3.569   2.662   1.893 -0.6163  0.4841  1.7623
 1325SOL    HW215612   3.457   2.586   1.850  1.9754 -0.7608 -1.8406
 1326SOL     OW15613   0.339   1.256   1.217  0.1798  0.5335 -0.0141
 1326SOL    HW115614   0.281   1.325   1.185 -0.5180 -0.8626 -1.7891
 1326SOL    HW215615   0.321   1.270   1.310 -0.1213  1.7446 -0.2574
 1327SOL     OW15616   3.667   2.637   6.411 -0.2752  0.4748  0.3373
 1327SOL    HW115617   3.736   2.617   6.347 -0.6118 -4.1219  1.4709
 1327SOL    HW215618   3.671   2.557   6.463  0.4436  0.1334 -0.2299
 1328SOL     OW15619   0.984   4.017   2.494 -0.1907  0.7409  0.5463
 1328SOL    HW115620   1.054   4.034   2.558 -0.6498  1.1319  0.9430
 1328SOL    HW215621   0.987   4.104   2.454 -0.6609  0.1123 -0.8627
 1329SOL     OW15622   3.612   3.758   8.899  0.5695 -0.1424 -0.4605
 1329SOL    HW115623   3.702   3.732   8.882  1.0917  2.0214 -1.0374
 1329SOL    HW215624   3.603   3.813   8.820 -1.6101  0.4676  0.2106
 1330SOL     OW15625   0.863   3.383  14.950 -0.6685 -0.2614 -0.1100
 1330SOL    HW115626   0.932   3.420  14.895  0.0573  0.0590  1.0105
 1330SOL    HW215627   0.786   3.416  14.904  0.1782  2.2760  0.2678
 1331SOL     OW15628   4.292   3.616  15.180  0.6514 -0.1428 -0.3959
 1331SOL    HW115629   4.358   3.654  15.122  1.2788 -3.3515 -1.8281
 1331SOL    HW215630   4.347   3.589  15.253 -1.7069  2.2291  2.2230
 1332SOL     OW15631   0.263   0.232   6.777  0.0652 -0.6610  0.1434
 1332SOL    HW115632   0.199   0.303   6.781  0.0036 -0.8574  2.7293
 1332SOL    HW215633   0.313   0.237   6.859 -1.3780  1.3498  0.9022
 1333SOL     OW15634   2.693   4.404   5.973  0.1657  0.1974  0.1698
 1333SOL    HW115635   2.670   4.445   6.057 -0.7366  1.4066 -0.6778
 1333SOL    HW215636   2.602   4.397   5.944  0.3329  0.4835 -0.4193
 1334SOL     OW15637   2.581   1.958   8.610  0.3505 -0.2747  0.2945
 1334SOL    HW115638   2.524   1.885   8.635  0.1729 -0.7757 -1.5350
 1334SOL    HW215639   2.522   2.025   8.644 -1.9950 -1.2234 -1.8639
 1335SOL     OW15640   1.057   3.606   5.093  0.3286 -0.1258 -0.1061
 1335SOL    HW115641   1.123   3.664   5.130  1.5752 -1.9387  0.5302
 1335SOL    HW215642   1.100   3.521   5.082 -0.1741 -0.4161  0.1298
 1336SOL     OW15643   1.393   4.493   0.669  0.1753  0.2577 -0.4213
 1336SOL    HW115644   1.453   4.567   0.673 -0.4808  0.7798 -0.3817
 1336SOL    HW215645   1.400   4.476   0.763 -0.5507  0.3464 -0.3498
 1337SOL     OW15646   4.381   3.815   8.774  0.3809  0.5365 -0.4784
 1337SOL    HW115647   4.336   3.822   8.690 -5.2452 -1.1022  2.3697
 1337SOL    HW215648   4.469   3.790   8.746  0.5267  0.8646 -0.3102
 1338SOL     OW15649   2.172   0.906  17.585 -0.0153  0.0664 -0.2703
 1338SOL    HW115650   2.172   0.916  17.490 -1.3309 -1.1676 -0.3942
 1338SOL    HW215651   2.201   0.996  17.601 -1.9452  0.6495 -0.0918
 1339SOL     OW15652   2.772   1.098  17.519 -0.3294  0.4558  0.0366
 1339SOL    HW115653   2.763   1.027  17.456  2.9442  0.3765 -0.3690
 1339SOL    HW215654   2.692   1.078  17.566 -0.1241  0.8439  0.5468
 1340SOL     OW15655   3.078   3.738  10.782 -0.1663  0.3982 -0.2602
 1340SOL    HW115656   3.136   3.814  10.780  0.6432 -0.2303 -0.6344
 1340SOL    HW215657   3.054   3.734  10.875  0.4977  1.9958 -0.0197
 1341SOL     OW15658   3.304   4.301   7.497  0.1856  0.0897 -0.3451
 1341SOL    HW115659   3.376   4.239   7.484  1.5535  1.9285 -1.6058
 1341SOL    HW215660   3.338   4.374   7.548  1.2220  0.1243 -1.0868
 1342SOL     OW15661   0.582   4.038   6.874  0.6546 -0.6344  0.1837
 1342SOL    HW115662   0.499   4.077   6.845  1.9320  1.5970 -0.4398
 1342SOL    HW215663   0.605   4.010   6.785  1.4231 -1.4470  0.6487
 1343SOL     OW15664   2.939   4.062   4.305 -0.2933 -0.1555  0.2998
 1343SOL    HW115665   3.017   4.098   4.263 -0.6216  0.3402  0.1020
 1343SOL    HW215666   2.973   4.021   4.384  0.4053 -2.5725 -1.2749
 1344SOL     OW15667   1.623   2.125  13.132  0.1791 -0.1062  0.6874
 1344SOL    HW115668   1.531   2.099  13.129  0.1924 -0.0436 -0.2423
 1344SOL    HW215669   1.641   2.096  13.221  0.7495  0.4097  0.7430
 1345SOL     OW15670   3.597   3.121  10.370  0.2507  0.0785  0.4440
 1345SOL    HW115671   3.654   3.069  10.427 -0.1224  0.0821  0.8186
 1345SOL    HW215672   3.534   3.154  10.434  0.8733 -0.6155  1.4295
 1346SOL     OW15673   2.342   2.840  11.077 -0.7177 -0.3733  0.1426
 1346SOL    HW115674   2.313   2.794  10.998  1.9036 -0.4747 -0.7508
 1346SOL    HW215675   2.269   2.820  11.136 -1.5879 -0.3224 -0.9239
 1347SOL     OW15676   3.666   0.571   4.019 -0.9913  0.2592 -0.6359
 1347SOL    HW115677   3.596   0.540   3.961 -0.6885  0.3287 -1.0366
 1347SOL    HW215678   3.670   0.498   4.081 -1.0061  0.2097 -0.6932
 1348SOL     OW15679   4.461   2.078   3.945 -0.2652 -0.0076 -0.2260
 1348SOL    HW115680   4.413   2.139   4.002  0.5739 -1.4747  2.0390
 1348SOL    HW215681   4.467   2.147   3.879  0.6854  0.5037  0.3968
 1349SOL     OW15682   2.493   3.854   2.385 -0.9633  0.0979  0.2992
 1349SOL    HW115683   2.489   3.949   2.373  1.3708  0.2560  0.9417
 1349SOL    HW215684   2.514   3.826   2.296 -0.4796  2.8354 -0.4335
 1350SOL     OW15685   2.226   1.568  14.034  0.7268 -0.3528  0.7084
 1350SOL    HW115686   2.304   1.526  14.070  1.0503  0.9912  1.5865
 1350SOL    HW215687   2.159   1.527  14.088 -1.0928  1.3402 -0.2635
 1351SOL     OW15688   0.009   2.655  15.907 -0.6436  0.2643 -0.1611
 1351SOL    HW115689   4.712   2.696  15.987 -1.6956 -0.3106 -0.2924
 1351SOL    HW215690   0.084   2.601  15.930 -1.5465 -0.2773  1.4958
 1352SOL     OW15691   3.780   4.032   8.809 -0.1733  0.4754 -0.0003
 1352SOL    HW115692   3.772   4.030   8.714  1.0870 -3.6946 -0.0178
 1352SOL    HW215693   3.873   4.042   8.829 -0.4205  0.2602  1.2919
 1353SOL     OW15694   3.800   1.977   1.814  0.3749 -0.5038 -0.0383
 1353SOL    HW115695   3.797   2.047   1.880 -1.3983  0.7269 -1.4100
 1353SOL    HW215696   3.820   2.027   1.735 -0.2363  0.2369  0.2685
 1354SOL     OW15697   4.482   0.280   4.733 -0.3845  0.2893 -0.1712
 1354SOL    HW115698   4.415   0.240   4.678 -0.5896 -1.0634  1.0736
 1354SOL    HW215699   4.531   0.204   4.764 -0.6469  0.6397  1.1454
 1355SOL     OW15700   0.347   1.429  14.023 -0.7066 -0.2656 -0.1560
 1355SOL    HW115701   0.429   1.438  13.974 -1.1611  1.6448 -0.5787
 1355SOL    HW215702   0.312   1.517  14.039  0.2938  0.3615 -1.3609
 1356SOL     OW15703   1.544   0.981   7.686  0.2358  0.0502  0.7195
 1356SOL    HW115704   1.463   1.010   7.728  0.1840 -0.1281  0.7446
 1356SOL    HW215705   1.597   1.060   7.690  1.5964 -0.8191  0.0587
 1357SOL     OW15706   2.833   3.834   8.927  0.2929 -0.3984  0.8116
 1357SOL    HW115707   2.911   3.848   8.980  0.5909 -2.2198  0.8760
 1357SOL    HW215708   2.871   3.816   8.842  1.4516  1.4561  0.9402
 1358SOL     OW15709   0.309   0.779  10.669 -0.0245  0.2692  0.4710
 1358SOL    HW115710   0.399   0.763  10.643 -0.9821 -2.5850 -1.0712
 1358SOL    HW215711   0.301   0.733  10.753 -3.2892 -3.4133 -1.8433
 1359SOL     OW15712   2.610   1.894   3.473  0.3252 -0.2000  0.1000
 1359SOL    HW115713   2.609   1.842   3.393  1.6379  1.1512 -0.8114
 1359SOL    HW215714   2.651   1.833   3.534  0.7375  0.3047  0.3268
 1360SOL     OW15715   3.859   3.257   2.538 -0.4478 -0.2743  0.0667
 1360SOL    HW115716   3.853   3.248   2.634  2.3629  0.4609  0.3047
 1360SOL    HW215717   3.833   3.169   2.512 -1.7503 -0.0324  0.4969
 1361SOL     OW15718   2.414   1.762   6.836  0.6069  0.6343  0.0868
 1361SOL    HW115719   2.500   1.788   6.868  1.0642 -1.3287  0.4221
 1361SOL    HW215720   2.407   1.827   6.765  1.7331  1.8685  1.0991
 1362SOL     OW15721   3.038   2.988   2.569  0.3777  0.1786 -0.2104
 1362SOL    HW115722   3.102   2.962   2.502 -1.8980 -1.2238 -1.8182
 1362SOL    HW215723   3.041   2.910   2.624 -0.2323 -0.0169 -0.4636
 1363SOL     OW15724   0.798   2.741   2.415 -0.0743  0.5771  0.1354
 1363SOL    HW115725   0.713   2.729   2.373 -0.5959 -1.6889  1.8374
 1363SOL    HW215726   0.774   2.716   2.504  0.4353  2.5963  0.8357
 1364SOL     OW15727   3.732   3.855   9.652 -0.0155  0.5597  0.0122
 1364SOL    HW115728   3.804   3.835   9.712 -0.6556 -1.3528  0.1258
 1364SOL    HW215729   3.657   3.827   9.706  0.9142  1.0756  1.5813
 1365SOL     OW15730   3.484   4.540   2.860  0.1646 -0.3463 -0.3016
 1365SOL    HW115731   3.554   4.556   2.924  2.0527 -0.5171 -2.3094
 1365SOL    HW215732   3.517   4.459   2.821  1.3661  0.6820 -1.4304
 1366SOL     OW15733   3.659   0.947  11.444  0.1821 -0.7354 -0.0669
 1366SOL    HW115734   3.630   0.988  11.362 -0.2357  0.2506  0.5712
 1366SOL    HW215735   3.579   0.970  11.491 -0.5841 -0.8210 -1.3291
 1367SOL     OW15736   4.118   4.680  12.456  0.0009 -0.6811 -0.2130
 1367SOL    HW115737   4.152   0.015  12.510  0.9156 -0.9279 -0.4642
 1367SOL    HW215738   4.175   4.612  12.493  1.0595 -0.0339 -0.6364
 1368SOL     OW15739   1.397   1.425   7.597  0.0018  0.7114 -0.4504
 1368SOL    HW115740   1.321   1.415   7.655 -0.9312 -1.0520 -1.9679
 1368SOL    HW215741   1.363   1.449   7.511  0.9538 -1.2650 -1.3681
 1369SOL     OW15742   3.823   1.211   1.221 -0.0901  0.1241 -0.3888
 1369SOL    HW115743   3.836   1.186   1.313  0.9091  1.7579 -0.0870
 1369SOL    HW215744   3.746   1.159   1.199 -0.2465 -0.1521  0.7994
 1370SOL     OW15745   1.445   2.853   2.762  0.0309  0.0762 -0.4524
 1370SOL    HW115746   1.423   2.776   2.814 -3.4289  0.9175 -0.7021
 1370SOL    HW215747   1.367   2.908   2.768  0.7000  0.9355  0.4360
 1371SOL     OW15748   2.391   3.576   8.994  0.0746 -0.1512 -0.2822
 1371SOL    HW115749   2.302   3.567   9.028  0.0121  0.5077 -0.2746
 1371SOL    HW215750   2.436   3.642   9.047  1.0767 -1.8838  1.0432
 1372SOL     OW15751   4.242   4.468   9.748 -0.0533  0.0198 -0.0151
 1372SOL    HW115752   4.173   4.428   9.695 -0.1645  0.9784 -0.6045
 1372SOL    HW215753   4.201   4.463   9.834  0.4880  3.1902  0.4160
 1373SOL     OW15754   4.095   2.885   5.932  0.1543  0.2207  0.2857
 1373SOL    HW115755   4.046   2.958   5.894  1.9693  0.1599 -2.1641
 1373SOL    HW215756   4.032   2.861   6.000 -0.9527  1.9683 -0.0965
 1374SOL     OW15757   3.358   4.006   8.702 -0.0524 -0.1922 -0.1366
 1374SOL    HW115758   3.401   4.089   8.722 -0.9652  0.3722 -0.5642
 1374SOL    HW215759   3.381   3.990   8.610  2.2832  1.5817  0.1436
 1375SOL     OW15760   3.133   1.272  10.497 -0.3846  0.0754 -0.6771
 1375SOL    HW115761   3.172   1.201  10.446  0.8234  0.1068  0.1796
 1375SOL    HW215762   3.202   1.292  10.561  0.3105 -0.4399 -1.2596
 1376SOL     OW15763   1.582   1.077  11.716 -0.1816  0.5226  0.1200
 1376SOL    HW115764   1.615   1.018  11.784 -0.6429  0.6976  0.4937
 1376SOL    HW215765   1.641   1.071  11.640  1.8521  0.8126  1.6774
 1377SOL     OW15766   2.882   1.315   9.316 -0.3215 -0.0757  0.4541
 1377SOL    HW115767   2.868   1.332   9.223  1.7168  2.1202  0.5490
 1377SOL    HW215768   2.974   1.338   9.320  0.0246 -1.1683 -1.2013
 1378SOL     OW15769   0.916   0.681   9.444 -0.0516 -0.2993 -0.6113
 1378SOL    HW115770   0.886   0.754   9.498  1.9409 -1.2155  1.7149
 1378SOL    HW215771   0.966   0.738   9.386  0.5000 -1.0944 -0.9104
 1379SOL     OW15772   2.510   4.612  10.604  0.3456 -0.3889 -0.2405
 1379SOL    HW115773   2.475   4.533  10.645  1.2934 -1.2250 -1.0718
 1379SOL    HW215774   2.514   4.667  10.683 -0.5529 -5.3560  3.2818
 1380SOL     OW15775   2.462   3.832   5.402  0.0827  0.0110  0.3593
 1380SOL    HW115776   2.488   3.770   5.470  4.1985  0.3327 -0.9465
 1380SOL    HW215777   2.418   3.896   5.458 -1.1425  0.7028 -1.4171
 1381SOL     OW15778   2.029   4.450  12.603 -0.6823  0.1757 -0.3070
 1381SOL    HW115779   2.081   4.421  12.528 -0.5888 -0.7780  0.1329
 1381SOL    HW215780   2.049   4.389  12.673  2.7272  0.3094 -1.1527
 1382SOL     OW15781   3.748   4.517  11.320 -0.0580  0.1121 -0.2073
 1382SOL    HW115782   3.685   4.524  11.392  1.5531  1.3403  1.0971
 1382SOL    HW215783   3.818   4.563  11.368  0.3259 -1.1279  0.4339
 1383SOL     OW15784   3.504   2.214  15.857  0.1525 -0.6411  0.1614
 1383SOL    HW115785   3.548   2.290  15.819 -0.0250 -0.6311 -0.0187
 1383SOL    HW215786   3.526   2.147  15.792 -0.6744 -0.7906  0.0401
 1384SOL     OW15787   4.694   2.690   5.911 -0.0475 -0.2929 -0.5863
 1384SOL    HW115788   4.685   2.604   5.950  3.0439 -0.1328  0.5231
 1384SOL    HW215789   4.703   2.744   5.990  3.2156  0.6119 -1.5798
 1385SOL     OW15790   1.947   1.587   3.717  0.3253 -0.7536  0.2720
 1385SOL    HW115791   1.928   1.531   3.793  0.1541 -1.0486  0.0121
 1385SOL    HW215792   1.926   1.528   3.644  1.5570 -0.2848 -0.4594
 1386SOL     OW15793   3.210   4.012  10.412  0.5854 -0.0921 -0.1520
 1386SOL    HW115794   3.284   3.988  10.467 -1.0969 -2.5904  1.0154
 1386SOL    HW215795   3.254   4.001  10.327  0.6832  2.2491 -0.3892
 1387SOL     OW15796   1.945   4.672   2.037  1.1305  0.0573 -0.4000
 1387SOL    HW115797   1.914   4.592   1.994  0.4709  0.9426 -1.5679
 1387SOL    HW215798   2.028   4.674   1.990  0.5230  0.4178 -1.4689
 1388SOL     OW15799   2.454   3.357  10.896  0.1180 -0.2794 -0.1603
 1388SOL    HW115800   2.454   3.270  10.935 -1.7005  1.6063  4.1034
 1388SOL    HW215801   2.527   3.353  10.835  0.6543 -2.8013  0.6711
 1389SOL     OW15802   0.971   1.661   7.720 -0.2328 -0.4457  0.0172
 1389SOL    HW115803   0.942   1.750   7.697  0.9382  0.2679  1.3012
 1389SOL    HW215804   0.905   1.664   7.789 -0.9435  1.3495 -0.7203
 1390SOL     OW15805   0.675   0.105  10.464 -0.2553 -0.0893  0.2632
 1390SOL    HW115806   0.653   0.044  10.534  1.5021  0.5472  1.3589
 1390SOL    HW215807   0.587   0.129  10.434 -0.5271 -0.6744  0.5995
 1391SOL     OW15808   4.374   3.101   2.434  0.2187  0.1563 -0.4510
 1391SOL    HW115809   4.284   3.132   2.433 -0.5007 -1.9650 -0.6718
 1391SOL    HW215810   4.410   3.143   2.355  1.8949  1.8175  1.1946
 1392SOL     OW15811   4.338   0.391   8.106  0.2080 -0.1325 -0.0105
 1392SOL    HW115812   4.427   0.400   8.141 -0.2664 -0.1490  1.1900
 1392SOL    HW215813   4.294   0.349   8.180  1.2103 -0.4619  0.3948
 1393SOL     OW15814   3.403   2.867  12.275 -0.5245 -0.0168 -0.1893
 1393SOL    HW115815   3.488   2.865  12.319 -1.4153 -0.3536  1.5360
 1393SOL    HW215816   3.392   2.773  12.260 -1.0351  0.2606 -1.5777
 1394SOL     OW15817   2.091   1.988   2.620 -0.0896  0.0921 -0.3047
 1394SOL    HW115818   2.092   1.976   2.715 -1.1861  3.3886  0.0983
 1394SOL    HW215819   2.125   1.903   2.593 -0.1815 -0.4731  1.3079
 1395SOL     OW15820   0.964   1.418   7.011 -0.3612 -0.7501 -0.1029
 1395SOL    HW115821   0.976   1.421   7.106  0.4973  4.4479 -0.3864
 1395SOL    HW215822   0.869   1.414   6.997 -0.3088 -2.1682 -0.0436
 1396SOL     OW15823   0.181   2.042   1.482 -0.2625 -0.3248  0.2105
 1396SOL    HW115824   0.170   2.088   1.566 -0.5692  0.4447 -0.2518
 1396SOL    HW215825   0.190   1.955   1.520  1.1251  0.1111  0.9201
 1397SOL     OW15826   0.059   2.121  15.358  0.0009  0.1023 -0.2338
 1397SOL    HW115827   0.019   2.040  15.327 -1.6218  1.0485 -0.5798
 1397SOL    HW215828   0.153   2.103  15.354  0.2645  1.9645 -2.2303
 1398SOL     OW15829   0.698   0.749   3.890 -0.0012  0.2239 -0.2661
 1398SOL    HW115830   0.741   0.665   3.902 -0.1500  0.3009  0.8502
 1398SOL    HW215831   0.713   0.755   3.796 -0.8288  0.2729 -0.3984
 1399SOL     OW15832   0.187   0.228   5.728 -0.2060  0.3338 -0.1163
 1399SOL    HW115833   0.119   0.204   5.666 -0.5272  0.9166  0.0128
 1399SOL    HW215834   0.252   0.157   5.726 -1.8637 -1.1133 -2.1805
 1400SOL     OW15835   1.423   3.063   2.575 -0.0138  0.2731 -0.1032
 1400SOL    HW115836   1.449   3.132   2.636 -0.0195  1.2357 -1.1864
 1400SOL    HW215837   1.346   3.029   2.620 -1.6439  2.5383 -1.2053
 1401SOL     OW15838   3.151   4.295   1.961  0.0326 -0.1012 -0.2653
 1401SOL    HW115839   3.168   4.203   1.981 -1.3440 -0.7915 -2.2909
 1401SOL    HW215840   3.081   4.290   1.897  1.7602  1.2369 -2.2563
 1402SOL     OW15841   2.852   1.002   5.202  0.3600 -0.3164 -0.0755
 1402SOL    HW115842   2.840   1.065   5.132  1.3320 -0.8077 -0.6794
 1402SOL    HW215843   2.944   0.985   5.181  0.2225 -0.4509 -0.5595
 1403SOL     OW15844   3.476   1.046   1.896  0.2512 -0.4228 -0.0198
 1403SOL    HW115845   3.452   1.089   1.979 -0.4051 -0.0256 -0.4143
 1403SOL    HW215846   3.468   1.114   1.829 -0.4944  0.4132  0.9188
 1404SOL     OW15847   2.837   3.922  15.850 -0.1806  0.1768 -0.3169
 1404SOL    HW115848   2.900   3.951  15.917 -0.2284  0.7759 -0.5323
 1404SOL    HW215849   2.892   3.867  15.794 -0.7913  1.2000 -1.9067
 1405SOL     OW15850   2.909   3.998   8.027  0.4210 -0.5427 -0.1966
 1405SOL    HW115851   2.917   3.941   8.103 -0.9369  0.6863  0.8757
 1405SOL    HW215852   2.872   3.942   7.959  0.6094 -0.4909 -0.3432
 1406SOL     OW15853   0.240   4.143  13.192  0.0122 -0.3371 -0.0379
 1406SOL    HW115854   0.254   4.166  13.284 -1.4475 -0.0381  0.1061
 1406SOL    HW215855   0.146   4.159  13.184 -0.2913 -1.7404  0.6514
 1407SOL     OW15856   3.519   2.959   8.029 -0.0055  0.2340 -0.2893
 1407SOL    HW115857   3.542   3.039   8.076  0.1951  0.3314 -0.5577
 1407SOL    HW215858   3.585   2.900   8.066 -1.3604 -0.6137  0.8060
 1408SOL     OW15859   0.553   0.559  15.187 -0.4049  0.0872 -0.2683
 1408SOL    HW115860   0.590   0.579  15.101 -3.2227 -0.4606 -1.6208
 1408SOL    HW215861   0.485   0.497  15.162 -0.7091  0.2066  0.2483
 1409SOL     OW15862   3.948   2.959   0.368 -0.2451  0.5365  0.3318
 1409SOL    HW115863   3.901   3.022   0.312  0.3312  0.5602 -0.1197
 1409SOL    HW215864   3.895   2.880   0.379  0.5657 -0.1204 -0.5738
 1410SOL     OW15865   4.188   1.378   0.363  0.2637 -0.6250  0.1254
 1410SOL    HW115866   4.245   1.303   0.346 -1.1466 -1.7355  0.3180
 1410SOL    HW215867   4.253   1.449   0.365 -2.7087  2.1185 -0.3799
 1411SOL     OW15868   4.005   4.575   4.746 -0.2800 -0.1007 -0.4592
 1411SOL    HW115869   4.072   4.644   4.736  1.9219 -2.1041  0.4622
 1411SOL    HW215870   4.063   4.500   4.758 -0.5452 -0.6473 -2.6551
 1412SOL     OW15871   1.130   2.388  17.399 -0.3531 -0.4815 -1.0655
 1412SOL    HW115872   1.215   2.376  17.442 -0.8140 -0.7155 -0.2146
 1412SOL    HW215873   1.142   2.463  17.341  0.6914 -0.5652 -0.9705
 1413SOL     OW15874   3.433   0.333   1.933  0.2762 -0.7073  0.6343
 1413SOL    HW115875   3.437   0.268   2.003 -1.9410 -0.8690  0.6148
 1413SOL    HW215876   3.472   0.410   1.974  2.1172 -1.1737 -0.2245
 1414SOL     OW15877   0.289   0.976   2.863 -0.2920  0.0250  0.3729
 1414SOL    HW115878   0.354   0.937   2.922  0.4410  2.2679  1.0823
 1414SOL    HW215879   0.333   0.954   2.781  1.3694  1.1600  0.9438
 1415SOL     OW15880   0.331   1.574   1.702  0.1803 -0.1754 -0.1968
 1415SOL    HW115881   0.356   1.487   1.734 -0.9019 -0.2236  0.5165
 1415SOL    HW215882   0.373   1.628   1.769 -4.3114  1.8665  0.9316
 1416SOL     OW15883   4.463   0.713   7.391  0.0920  0.6365  0.1695
 1416SOL    HW115884   4.423   0.626   7.396 -0.6782  1.0139  0.4834
 1416SOL    HW215885   4.554   0.690   7.372  0.3086  0.1955  1.6929
 1417SOL     OW15886   1.800   0.302   8.817 -0.0047 -0.3122  0.0936
 1417SOL    HW115887   1.784   0.208   8.814  0.2748 -0.3814  0.8778
 1417SOL    HW215888   1.892   0.291   8.791  1.0470  2.6611  2.4936
 1418SOL     OW15889   3.116   0.707   1.353  0.5445 -0.6106 -0.1283
 1418SOL    HW115890   3.131   0.615   1.330  1.7273 -0.1305 -1.2278
 1418SOL    HW215891   3.055   0.709   1.427 -1.1877 -0.1303 -1.5558
 1419SOL     OW15892   2.664   0.033  10.434 -0.2897 -0.0313  0.0581
 1419SOL    HW115893   2.596   0.051  10.369 -1.5350 -1.2301  1.0196
 1419SOL    HW215894   2.614   4.709  10.490 -1.2860  0.2222 -0.5501
 1420SOL     OW15895   0.102   4.569  11.028 -0.4360 -0.0252 -0.1693
 1420SOL    HW115896   0.092   4.501  11.094 -0.2598  0.8668  0.7665
 1420SOL    HW215897   0.134   4.642  11.081  2.0625 -2.8803  2.2634
 1421SOL     OW15898   0.170   2.227  15.706  0.8827 -0.4908 -0.0742
 1421SOL    HW115899   0.210   2.276  15.634  0.6841 -0.1489  0.0526
 1421SOL    HW215900   0.109   2.168  15.662 -1.4473  1.7028  0.2262
 1422SOL     OW15901   3.420   0.451   1.454 -0.1655 -0.2897 -0.2208
 1422SOL    HW115902   3.370   0.468   1.374  1.1057 -0.0546 -0.9489
 1422SOL    HW215903   3.483   0.523   1.448  1.1384 -1.6432 -2.7731
 1423SOL     OW15904   3.238   4.028   2.013  0.2880 -0.1745  0.1084
 1423SOL    HW115905   3.295   4.040   2.089  2.0869 -1.5621 -1.0282
 1423SOL    HW215906   3.180   3.960   2.047  0.1785 -1.4646 -2.6335
 1424SOL     OW15907   2.513   2.252   3.071  0.0240  0.3663 -0.0658
 1424SOL    HW115908   2.577   2.203   3.020  1.8189  1.0866  1.4787
 1424SOL    HW215909   2.454   2.275   3.000  1.0922  0.9459 -0.7606
 1425SOL     OW15910   3.886   2.663   7.104  0.0019  0.3599 -0.2133
 1425SOL    HW115911   3.980   2.673   7.086 -0.4057  1.0351 -1.8962
 1425SOL    HW215912   3.843   2.734   7.057  0.0940  0.9303  0.5740
 1426SOL     OW15913   1.343   2.654  16.787  0.1904 -0.4973 -0.2886
 1426SOL    HW115914   1.330   2.593  16.715  0.8595 -0.9745  0.0003
 1426SOL    HW215915   1.305   2.606  16.860  0.4185  0.4583  0.4598
 1427SOL     OW15916   1.751   3.071   9.031 -0.4183  0.2310  0.1879
 1427SOL    HW115917   1.769   3.098   9.121 -0.3326  1.6631 -0.2555
 1427SOL    HW215918   1.712   2.985   9.041  0.0508 -0.0603 -0.4868
 1428SOL     OW15919   4.558   4.386   5.292  0.0411  0.4467  0.1878
 1428SOL    HW115920   4.516   4.469   5.314 -2.2820 -0.7323  0.2192
 1428SOL    HW215921   4.506   4.334   5.354  1.2754 -0.1709  0.6882
 1429SOL     OW15922   4.077   4.154   2.017  0.8665  0.0505 -0.0436
 1429SOL    HW115923   4.073   4.065   2.052  1.5446  0.6146  1.4500
 1429SOL    HW215924   4.057   4.148   1.923 -0.0411  0.6631  0.1048
 1430SOL     OW15925   1.980   0.445  16.617  0.1756 -0.1596  0.3427
 1430SOL    HW115926   2.040   0.448  16.692  0.4677 -1.7058  0.1733
 1430SOL    HW215927   1.960   0.536  16.597 -0.9777 -0.1996  1.3141
 1431SOL     OW15928   0.138   3.018  14.701  0.6689  0.5059 -0.0149
 1431SOL    HW115929   0.095   2.932  14.707 -2.0103  1.7178 -2.1407
 1431SOL    HW215930   0.204   2.997  14.635  2.8335  2.4652  1.4909
 1432SOL     OW15931   2.364   2.513   2.288  0.0941 -0.4024 -0.5005
 1432SOL    HW115932   2.317   2.432   2.308 -1.1475  0.1338 -1.1992
 1432SOL    HW215933   2.421   2.462   2.231  0.5788 -1.4748  0.9586
 1433SOL     OW15934   0.585   4.262   7.515  0.3358 -0.2926  0.5122
 1433SOL    HW115935   0.506   4.214   7.542 -0.3682  0.9826  0.6859
 1433SOL    HW215936   0.557   4.332   7.457 -1.2603  1.1867  3.0605
 1434SOL     OW15937   0.460   1.792   1.190 -0.0026  0.5923 -0.4346
 1434SOL    HW115938   0.465   1.717   1.249  0.9472  0.2285 -0.9743
 1434SOL    HW215939   0.450   1.863   1.254  1.5069  0.8394 -0.4617
 1435SOL     OW15940   3.549   2.665   4.741 -0.0083  0.2106 -0.3708
 1435SOL    HW115941   3.533   2.634   4.830  1.2611 -2.3098 -1.0143
 1435SOL    HW215942   3.530   2.582   4.696 -0.2019  0.9573 -1.6707
 1436SOL     OW15943   3.171   4.252   4.815 -0.0423  0.5733  0.2194
 1436SOL    HW115944   3.127   4.248   4.730 -0.7459  1.0619  0.5603
 1436SOL    HW215945   3.154   4.160   4.834  0.6357  0.1290 -1.3647
 1437SOL     OW15946   0.978   2.941   5.491 -0.3797 -0.3601  0.0199
 1437SOL    HW115947   1.044   3.006   5.467 -1.0628  0.9895  1.8710
 1437SOL    HW215948   0.933   2.981   5.565 -1.9622  0.0340 -1.1480
 1438SOL     OW15949   1.726   1.872  17.012 -0.2191 -0.1617  0.1800
 1438SOL    HW115950   1.735   1.913  16.926  0.9653 -0.8641 -0.0383
 1438SOL    HW215951   1.658   1.930  17.045  0.3239 -1.4200  3.4743
 1439SOL     OW15952   3.425   4.053   6.240 -0.4640 -0.1445  0.2478
 1439SOL    HW115953   3.516   4.084   6.236 -1.3434  2.4063 -0.2143
 1439SOL    HW215954   3.441   3.960   6.256 -0.7503 -0.2356  0.0108
 1440SOL     OW15955   0.226   1.449   3.043  0.1188  0.3398 -0.2185
 1440SOL    HW115956   0.245   1.398   2.963  1.9660 -0.2844  0.6101
 1440SOL    HW215957   0.172   1.382   3.085  0.4817  1.5143  2.0647
 1441SOL     OW15958   4.261   1.857   7.641 -0.4236 -0.6925 -0.5222
 1441SOL    HW115959   4.309   1.776   7.661 -1.3483 -1.0245  0.3581
 1441SOL    HW215960   4.282   1.878   7.550 -0.0452 -0.0909 -0.2967
 1442SOL     OW15961   2.312   2.020   5.847  0.4660 -0.2264 -0.2489
 1442SOL    HW115962   2.232   2.047   5.802 -0.1962  0.8277  1.5690
 1442SOL    HW215963   2.291   1.953   5.912 -1.5891  1.2309  0.5957
 1443SOL     OW15964   1.062   1.626   4.516 -0.1240  0.2547 -0.6804
 1443SOL    HW115965   1.068   1.680   4.437  1.1127 -1.4229 -1.7166
 1443SOL    HW215966   1.045   1.693   4.583 -0.1700 -0.1614 -0.2796
 1444SOL     OW15967   3.314   1.185   4.189  0.5073 -0.0307  0.4857
 1444SOL    HW115968   3.254   1.214   4.258 -0.7895  0.5016 -0.8458
 1444SOL    HW215969   3.255   1.160   4.117  0.9737 -1.9071  0.7751
 1445SOL     OW15970   2.592   0.325  10.839  0.3312 -0.2909 -0.3794
 1445SOL    HW115971   2.577   0.340  10.745 -0.0831  0.3797 -0.2056
 1445SOL    HW215972   2.596   0.230  10.845  0.2642 -0.2698 -0.0384
 1446SOL     OW15973   4.239   1.179   4.734 -0.3402  0.4864 -0.0142
 1446SOL    HW115974   4.182   1.124   4.681 -0.2028  0.6609 -0.3443
 1446SOL    HW215975   4.280   1.117   4.794 -1.2733 -0.2402 -0.1308
 1447SOL     OW15976   3.800   2.944  11.889 -0.5511  0.3384  0.6018
 1447SOL    HW115977   3.741   3.018  11.897  0.1906  1.0090 -0.1682
 1447SOL    HW215978   3.749   2.903  11.820  1.2476  1.6073 -1.4866
 1448SOL     OW15979   4.009   4.648   2.159 -0.6776 -0.1281 -0.5073
 1448SOL    HW115980   3.957   4.728   2.150  0.1536  0.3258 -1.2559
 1448SOL    HW215981   3.988   4.607   2.074 -1.8751 -1.1771  0.2908
 1449SOL     OW15982   1.028   4.019   4.641  0.2902 -0.4722  0.0110
 1449SOL    HW115983   0.961   4.075   4.680  0.8782  0.4316 -0.2944
 1449SOL    HW215984   1.111   4.048   4.678 -0.6666 -0.5598  2.2713
 1450SOL     OW15985   2.878   1.824   0.317 -0.4032  0.1472 -0.0790
 1450SOL    HW115986   2.891   1.744   0.265 -0.7172 -0.2513  0.4480
 1450SOL    HW215987   2.783   1.818   0.328 -0.3132 -0.8236  0.2360
 1451SOL     OW15988   0.202   1.640   5.408 -0.2858 -0.0223  0.0415
 1451SOL    HW115989   0.196   1.632   5.503 -1.4501  1.7324  0.1155
 1451SOL    HW215990   0.273   1.703   5.400  0.4472 -0.6294  1.7194
 1452SOL     OW15991   2.766   1.828   8.300  0.0410 -0.4879 -0.5582
 1452SOL    HW115992   2.817   1.879   8.237  2.1063 -0.5047  1.0927
 1452SOL    HW215993   2.741   1.752   8.247  0.2226 -1.3999  0.6587
 1453SOL     OW15994   3.437   3.472   4.175  0.3950  0.1788 -0.8280
 1453SOL    HW115995   3.442   3.410   4.248 -1.2387  1.1930  0.1508
 1453SOL    HW215996   3.463   3.559   4.205  1.0497 -0.2255 -0.2223
 1454SOL     OW15997   0.157   4.102   5.873  0.1087  0.1559 -0.0285
 1454SOL    HW115998   0.094   4.099   5.801  1.7719  1.3810 -1.5357
 1454SOL    HW215999   0.202   4.019   5.859 -1.2333 -0.4820 -0.5613
 1455SOL     OW16000   0.557   3.684   7.179  0.3426  0.0533  0.5025
 1455SOL    HW116001   0.630   3.742   7.160  0.1872 -0.0068 -0.2602
 1455SOL    HW216002   0.552   3.630   7.100 -0.2143  1.5519 -0.4860
 1456SOL     OW16003   4.282   2.129   1.153 -0.0281 -0.4268  0.2468
 1456SOL    HW116004   4.210   2.077   1.117 -1.1144 -0.0676  1.8849
 1456SOL    HW216005   4.258   2.220   1.134 -0.9144 -0.4199  1.4137
 1457SOL     OW16006   3.881   1.703   7.951 -0.1120 -0.3668  0.4553
 1457SOL    HW116007   3.936   1.763   7.902 -0.7131 -0.7620 -0.6895
 1457SOL    HW216008   3.812   1.687   7.887 -2.1810  0.2458  2.5617
 1458SOL     OW16009   2.995   3.609   9.557  0.0123 -0.3295  0.0998
 1458SOL    HW116010   3.014   3.633   9.647  1.9029  0.8681 -0.6455
 1458SOL    HW216011   2.960   3.692   9.526 -0.6225 -1.2815 -1.7826
 1459SOL     OW16012   1.464   1.361   4.756 -1.0040 -0.1117  0.3745
 1459SOL    HW116013   1.425   1.275   4.737 -1.5282 -0.6484  3.8852
 1459SOL    HW216014   1.523   1.337   4.827 -0.5971  1.2692  0.4918
 1460SOL     OW16015   2.001   2.234  11.904 -0.2815 -0.2782  0.2343
 1460SOL    HW116016   2.037   2.199  11.985 -3.0251 -0.7284  1.2576
 1460SOL    HW216017   2.032   2.170  11.840 -0.5975 -2.0548  1.8992
 1461SOL     OW16018   0.210   4.631   0.735  0.4221 -0.6388 -0.6144
 1461SOL    HW116019   0.186   4.652   0.645  1.3336  0.0906 -0.6908
 1461SOL    HW216020   0.177   4.709   0.779  0.1415 -0.4590 -1.1372
 1462SOL     OW16021   4.247   1.388  14.831 -0.6320 -0.5026 -0.2583
 1462SOL    HW116022   4.262   1.379  14.737 -2.2407 -2.1270 -0.3755
 1462SOL    HW216023   4.328   1.434  14.850 -0.3835 -1.6805  1.4810
 1463SOL     OW16024   0.341   4.557   3.454  0.5087  0.2451 -0.2529
 1463SOL    HW116025   0.430   4.527   3.474  0.2444  0.5250  1.3658
 1463SOL    HW216026   0.314   4.579   3.543  0.3459  0.4493 -0.3534
 1464SOL     OW16027   4.240   3.833   1.793  0.2577  0.1472  0.3434
 1464SOL    HW116028   4.264   3.904   1.852  2.8893 -1.2575  0.9211
 1464SOL    HW216029   4.279   3.871   1.714  2.1035 -2.1030  0.1738
 1465SOL     OW16030   1.510   2.887  14.955 -0.6364 -0.2116 -0.3837
 1465SOL    HW116031   1.471   2.844  14.879  0.8356 -0.5643 -0.9310
 1465SOL    HW216032   1.487   2.979  14.940 -0.5214 -0.2480 -0.7966
 1466SOL     OW16033   3.765   3.254   2.787  0.2528 -0.2826 -0.0718
 1466SOL    HW116034   3.812   3.237   2.868  0.8176 -0.0158 -0.3427
 1466SOL    HW216035   3.693   3.196   2.812  0.4684 -1.0175 -1.1887
 1467SOL     OW16036   0.960   4.710   2.529 -0.3930 -0.4844 -0.2024
 1467SOL    HW116037   1.038   0.030   2.530  0.0568 -1.1052 -0.8718
 1467SOL    HW216038   1.015   4.635   2.507 -0.2838 -0.5159  0.1758
 1468SOL     OW16039   1.390   2.193   1.724  0.5275 -0.0731 -0.1185
 1468SOL    HW116040   1.367   2.214   1.814  0.7904  1.7018 -0.4646
 1468SOL    HW216041   1.478   2.226   1.708 -0.4620  2.6265  0.1277
 1469SOL     OW16042   0.075   4.342   2.715  0.4719  0.3989 -0.1015
 1469SOL    HW116043   0.107   4.316   2.629 -0.7458 -1.6928  0.0532
 1469SOL    HW216044   0.090   4.436   2.719 -2.2509  0.8810 -0.8053
 1470SOL     OW16045   4.717   3.663   9.156 -0.1231  0.5908  0.2464
 1470SOL    HW116046   4.705   3.674   9.251  1.1142  0.5834  0.4058
 1470SOL    HW216047   4.640   3.610   9.139  1.9340 -1.4101 -2.7579
 1471SOL     OW16048   3.313   3.455   9.712 -0.3037 -0.3100 -0.0545
 1471SOL    HW116049   3.408   3.472   9.709 -0.6012  1.6993  2.2698
 1471SOL    HW216050   3.284   3.491   9.628 -2.4585 -1.4428  0.2046
 1472SOL     OW16051   0.925   3.765   5.940  0.0340  0.1396 -0.3077
 1472SOL    HW116052   0.870   3.691   5.915 -0.6102  0.7517 -0.7077
 1472SOL    HW216053   0.989   3.771   5.869  1.2577 -3.1141  0.5181
 1473SOL     OW16054   3.011   3.384  10.848  0.2797 -0.6101  0.2863
 1473SOL    HW116055   2.917   3.391  10.835  0.3415  0.4714  0.4538
 1473SOL    HW216056   3.011   3.405  10.941 -1.6199  0.8549 -0.0551
 1474SOL     OW16057   4.639   3.143   3.111  0.0425  0.2180  0.4368
 1474SOL    HW116058   4.593   3.060   3.120 -3.5734  2.3266  1.4756
 1474SOL    HW216059   4.564   3.202   3.124 -1.6878 -1.9945  0.4070
 1475SOL     OW16060   2.442   1.777   1.988  0.0264 -0.3685 -0.1527
 1475SOL    HW116061   2.436   1.851   1.928 -1.1046 -1.7682 -1.7551
 1475SOL    HW216062   2.431   1.824   2.071  0.7601  1.2411 -0.9655
 1476SOL     OW16063   1.094   0.512   9.264 -0.5109 -0.2080  0.3688
 1476SOL    HW116064   1.034   0.530   9.191  0.2480 -3.3046 -1.0430
 1476SOL    HW216065   1.039   0.547   9.334  0.2635 -0.2104  0.9695
 1477SOL     OW16066   2.841   2.929   5.778 -0.2054 -0.1802  0.0190
 1477SOL    HW116067   2.935   2.917   5.764 -0.4446 -1.6160 -0.4025
 1477SOL    HW216068   2.805   2.873   5.708 -0.3083 -0.8972  0.6503
 1478SOL     OW16069   4.263   1.813   1.723  0.1707  0.1827  0.6300
 1478SOL    HW116070   4.226   1.860   1.798  0.2140  0.4562  0.4802
 1478SOL    HW216071   4.271   1.726   1.760 -0.6160 -0.5624 -0.9519
 1479SOL     OW16072   2.429   2.309   3.389 -0.4389  0.4183 -0.5878
 1479SOL    HW116073   2.364   2.238   3.389 -1.0017  0.9440  3.0885
 1479SOL    HW216074   2.504   2.268   3.433  0.0426 -0.2267 -2.0123
 1480SOL     OW16075   4.678   4.505   7.029 -0.3093  0.2583  0.2114
 1480SOL    HW116076   4.615   4.528   6.961 -0.2788 -0.3725 -0.0308
 1480SOL    HW216077   4.629   4.449   7.089  1.8242  1.2518  2.9056
 1481SOL     OW16078   1.234   0.921  13.270  0.4121  0.0459 -0.2680
 1481SOL    HW116079   1.189   0.995  13.312 -2.1548 -2.0347  0.6771
 1481SOL    HW216080   1.206   0.919  13.178 -0.4999 -2.5008  0.0663
 1482SOL     OW16081   3.127   2.062  12.856  0.1509 -0.2014 -0.1059
 1482SOL    HW116082   3.049   2.080  12.803 -1.0089 -0.1963  1.5915
 1482SOL    HW216083   3.177   2.141  12.839 -2.0004  1.3897  0.9144
 1483SOL     OW16084   0.295   4.377   4.745  0.0413 -0.1119  0.5335
 1483SOL    HW116085   0.304   4.284   4.765  0.9424 -0.2843 -0.6842
 1483SOL    HW216086   0.352   4.392   4.670 -0.5031  0.1940  0.1756
 1484SOL     OW16087   3.539   2.301  14.951  0.1917 -0.4804 -0.0307
 1484SOL    HW116088   3.621   2.349  14.939 -0.7332  1.3662  1.1873
 1484SOL    HW216089   3.499   2.354  15.019  1.7931 -0.7374  1.1114
 1485SOL     OW16090   3.549   0.067  11.480 -0.4269  0.0385  0.0596
 1485SOL    HW116091   3.604   0.145  11.476  0.7954 -0.8417 -0.3459
 1485SOL    HW216092   3.557   0.055  11.574  1.3546 -0.3088 -0.1377
 1486SOL     OW16093   1.553   2.296   0.500 -0.6623  0.2131  0.7456
 1486SOL    HW116094   1.547   2.223   0.439 -0.4790  1.1061 -0.3306
 1486SOL    HW216095   1.598   2.263   0.579 -0.6548 -3.2287 -0.6723
 1487SOL     OW16096   0.998   3.770   4.896 -0.0237 -0.0253 -0.2442
 1487SOL    HW116097   1.018   3.685   4.935  1.2371 -0.7049 -2.3583
 1487SOL    HW216098   1.081   3.819   4.903  0.1648 -0.4516  0.4954
 1488SOL     OW16099   3.266   1.322   9.875 -0.1958 -0.6531  0.1789
 1488SOL    HW116100   3.349   1.283   9.901  0.6583 -0.7333 -2.7450
 1488SOL    HW216101   3.248   1.363   9.960 -0.1677 -0.1396 -0.0641
 1489SOL     OW16102   0.486   3.786  13.349  0.0742  0.1278  0.4238
 1489SOL    HW116103   0.473   3.843  13.274 -0.1978  0.6047  0.8365
 1489SOL    HW216104   0.423   3.820  13.413  0.4424  2.2036 -0.3261
 1490SOL     OW16105   4.644   4.365  17.601 -0.6343  0.5269 -0.3924
 1490SOL    HW116106   4.692   4.394  17.524 -0.0716  1.8976  0.4740
 1490SOL    HW216107   4.626   4.272  17.588 -0.2927  0.5602 -1.1215
 1491SOL     OW16108   1.833   1.572   8.119 -0.0753  0.5473  0.3476
 1491SOL    HW116109   1.815   1.612   8.204 -0.1669 -0.3683  0.7635
 1491SOL    HW216110   1.761   1.605   8.066 -0.5765 -0.7252  0.2469
 1492SOL     OW16111   3.278   4.306  15.242 -0.2658 -0.0047  0.5889
 1492SOL    HW116112   3.345   4.305  15.310  0.3894 -0.4571 -0.0726
 1492SOL    HW216113   3.274   4.401  15.234  2.1777  0.1272  0.8173
 1493SOL     OW16114   1.711   1.491  12.112  0.0369 -0.0125 -0.4295
 1493SOL    HW116115   1.667   1.421  12.063  0.3751 -0.8946  0.5166
 1493SOL    HW216116   1.651   1.565  12.105  0.2188  0.0651 -1.1168
 1494SOL     OW16117   4.133   0.253   7.632  0.6823  0.1306 -0.9249
 1494SOL    HW116118   4.080   0.327   7.603 -1.7961 -0.5853  1.8069
 1494SOL    HW216119   4.111   0.190   7.563 -2.4580  1.0982 -0.8054
 1495SOL     OW16120   0.162   4.573  17.585  0.3797  0.4694 -0.0882
 1495SOL    HW116121   0.107   4.555  17.509 -1.5284  1.8316  0.9716
 1495SOL    HW216122   0.214   4.493  17.599  0.1294  0.6421  1.9452
 1496SOL     OW16123   2.889   2.660   3.190 -0.1127  0.1715  0.2082
 1496SOL    HW116124   2.902   2.681   3.283 -1.9290 -1.7043  0.8997
 1496SOL    HW216125   2.932   2.575   3.202 -0.7589 -0.0149  1.2438
 1497SOL     OW16126   2.983   4.291   2.266  0.5292  0.6798  0.1881
 1497SOL    HW116127   2.975   4.202   2.301  0.4891 -0.2274 -2.0947
 1497SOL    HW216128   2.922   4.292   2.192  0.9201  0.4196 -0.1446
 1498SOL     OW16129   1.668   2.666   8.130  0.4202 -0.3327  0.0588
 1498SOL    HW116130   1.599   2.619   8.084  0.0018 -0.0670  0.4269
 1498SOL    HW216131   1.647   2.756   8.104 -0.4038 -0.5162  0.1003
 1499SOL     OW16132   2.496   3.903  12.695  0.2281  0.5512 -0.1011
 1499SOL    HW116133   2.582   3.942  12.680 -0.4285  2.2398  0.6145
 1499SOL    HW216134   2.548   3.827  12.720  2.2045  1.4811 -1.3663
 1500SOL     OW16135   0.036   3.200   5.171 -0.1695  0.5209  0.5959
 1500SOL    HW116136   0.126   3.192   5.203 -0.2180 -1.9071  0.0617
 1500SOL    HW216137   0.055   3.202   5.077 -0.1958 -1.9153  0.5371
 1501SOL     OW16138   1.279   4.702   3.159 -0.0255  0.4056 -0.0028
 1501SOL    HW116139   1.245   0.028   3.224  1.5117 -0.6213  1.7818
 1501SOL    HW216140   1.344   0.014   3.109 -0.1530 -1.3415 -1.8427
 1502SOL     OW16141   2.655   1.155  15.623  0.1348 -0.6147 -0.1475
 1502SOL    HW116142   2.607   1.216  15.568 -0.1764 -2.6381 -2.1446
 1502SOL    HW216143   2.680   1.080  15.569  1.5306  1.0330 -1.7396
 1503SOL     OW16144   2.361   2.823   5.722 -0.5851 -0.2917  1.0973
 1503SOL    HW116145   2.406   2.894   5.768  2.0825 -0.1525 -1.7979
 1503SOL    HW216146   2.438   2.773   5.697 -1.0926 -0.9736  0.9076
 1504SOL     OW16147   1.575   2.792   4.710  0.2424  0.5458  0.0817
 1504SOL    HW116148   1.514   2.732   4.667  0.5732  0.3246 -0.0697
 1504SOL    HW216149   1.545   2.874   4.671  2.8651  0.9303 -1.0685
 1505SOL     OW16150   1.979   3.045  15.408 -0.0760  0.1407 -0.4708
 1505SOL    HW116151   1.897   2.999  15.390 -2.0068  2.9256  1.3180
 1505SOL    HW216152   2.041   2.995  15.356  0.0754  0.0082 -0.1666
 1506SOL     OW16153   4.462   3.153   8.322 -0.3239  0.3120  0.9858
 1506SOL    HW116154   4.367   3.148   8.335 -0.7969  1.2381 -2.1328
 1506SOL    HW216155   4.478   3.223   8.385  2.8516  0.7054 -0.3026
 1507SOL     OW16156   1.380   2.360   4.351  0.3098  0.2886  0.5241
 1507SOL    HW116157   1.368   2.266   4.361  0.9445  0.1052 -0.3940
 1507SOL    HW216158   1.323   2.372   4.274 -2.3501  0.9920  2.6181
 1508SOL     OW16159   1.049   3.210  13.092  0.4875 -0.3369  0.2553
 1508SOL    HW116160   1.132   3.193  13.135  0.9928  3.0479  0.6047
 1508SOL    HW216161   1.033   3.298  13.127 -0.7473 -0.9276  1.1957
 1509SOL     OW16162   1.178   4.323   3.729 -0.0383 -0.0315 -0.3407
 1509SOL    HW116163   1.196   4.387   3.798 -2.5264  0.6221 -0.3261
 1509SOL    HW216164   1.115   4.262   3.766 -0.7658  1.2265  0.5015
 1510SOL     OW16165   4.512   4.435   2.537  0.3207 -0.1014  0.7138
 1510SOL    HW116166   4.426   4.396   2.552  0.3823 -0.2733  0.6204
 1510SOL    HW216167   4.537   4.390   2.457 -1.4765  2.1906 -1.1291
 1511SOL     OW16168   4.392   2.508  13.616 -0.1761  0.4265  0.1495
 1511SOL    HW116169   4.336   2.490  13.692 -0.0541  3.1335  0.8581
 1511SOL    HW216170   4.466   2.556  13.651 -0.1820 -0.8419  1.9307
 1512SOL     OW16171   3.249   1.419   6.318 -0.3927  0.9609  0.1284
 1512SOL    HW116172   3.257   1.349   6.254 -0.7563  1.9422 -0.9855
 1512SOL    HW216173   3.156   1.437   6.307 -0.5121  0.2023 -0.0810
 1513SOL     OW16174   1.535   4.332  14.798 -0.0488 -0.2634  0.7255
 1513SOL    HW116175   1.621   4.305  14.829  0.4953  1.2029  0.5009
 1513SOL    HW216176   1.488   4.332  14.881 -3.3234  0.7049 -1.1329
 1514SOL     OW16177   3.327   3.525   0.501 -0.0490 -0.8025 -0.7321
 1514SOL    HW116178   3.417   3.542   0.471 -0.2062 -0.6329 -1.1034
 1514SOL    HW216179   3.280   3.561   0.426 -2.0642 -0.3359  0.7625
 1515SOL     OW16180   2.311   3.973  12.502 -0.1527  0.1669 -0.0366
 1515SOL    HW116181   2.370   3.989  12.428  0.0874  1.4239  0.4295
 1515SOL    HW216182   2.374   3.941  12.566 -1.7884  1.9037  2.4268
 1516SOL     OW16183   2.777   3.229   5.036  0.2130  0.4959 -0.4774
 1516SOL    HW116184   2.717   3.289   4.990 -0.8218 -1.3379 -1.5152
 1516SOL    HW216185   2.800   3.167   4.967 -2.0387 -1.3541  0.4288
 1517SOL     OW16186   3.325   3.082  10.746  0.0796 -0.0289 -0.1458
 1517SOL    HW116187   3.276   3.019  10.694 -0.5702  0.2591  0.1191
 1517SOL    HW216188   3.248   3.130  10.777 -0.1271  0.5720 -1.5743
 1518SOL     OW16189   0.225   1.194  14.068  0.8717  0.1004 -0.1855
 1518SOL    HW116190   0.236   1.279  14.026 -1.2164  0.3897 -0.1616
 1518SOL    HW216191   0.313   1.182  14.104  1.6480  0.8552 -1.8244
 1519SOL     OW16192   2.852   0.462  10.570  0.0289  0.0588 -0.0921
 1519SOL    HW116193   2.857   0.375  10.608  2.6544 -0.9412 -2.7046
 1519SOL    HW216194   2.890   0.459  10.482 -2.3772 -2.7799 -1.0031
 1520SOL     OW16195   0.999   4.369   4.693 -0.1255  0.4394  0.1567
 1520SOL    HW116196   0.933   4.438   4.699  1.7284  2.1759  0.5718
 1520SOL    HW216197   0.949   4.289   4.711  0.2354  0.0470 -0.5635
 1521SOL     OW16198   4.168   2.004   8.726  0.2222 -0.2613 -0.1794
 1521SOL    HW116199   4.130   1.970   8.806 -2.6470  0.4910 -1.2218
 1521SOL    HW216200   4.105   1.967   8.663  0.9977 -1.4077 -0.2886
 1522SOL     OW16201   1.145   3.239   0.388 -0.3342  0.2532  0.1973
 1522SOL    HW116202   1.063   3.269   0.349 -0.2533  0.1603 -0.0446
 1522SOL    HW216203   1.164   3.315   0.443  1.0685 -0.3345  0.5075
 1523SOL     OW16204   4.471   4.230  13.223 -0.5019 -0.0935 -0.1107
 1523SOL    HW116205   4.451   4.136  13.227  1.0083 -0.3936  0.3128
 1523SOL    HW216206   4.543   4.231  13.160  0.0862  0.3380  0.5724
 1524SOL     OW16207   2.694   0.174  16.685  0.6047  0.3786 -0.0876
 1524SOL    HW116208   2.643   0.095  16.699  0.4988  0.1653 -1.7084
 1524SOL    HW216209   2.771   0.137  16.641 -0.0658 -1.7485  0.5255
 1525SOL     OW16210   0.968   4.371   5.032  0.0339 -0.3183 -0.6179
 1525SOL    HW116211   0.883   4.378   4.990  0.2747 -1.5627 -1.3100
 1525SOL    HW216212   1.010   4.456   5.022  0.6481 -0.5014  0.4183
 1526SOL     OW16213   2.135   3.040   8.557 -0.2512  0.0795 -0.9592
 1526SOL    HW116214   2.040   3.031   8.547 -0.4193 -0.6587  1.1913
 1526SOL    HW216215   2.161   3.063   8.468 -0.1127  0.9136 -0.7012
 1527SOL     OW16216   4.129   3.397   7.740  0.3849  0.3029  0.5764
 1527SOL    HW116217   4.220   3.415   7.714  0.7288 -3.0674 -0.6139
 1527SOL    HW216218   4.072   3.471   7.723  0.5554  0.5720  1.2033
 1528SOL     OW16219   4.440   4.701   0.065  0.0132 -0.5974  0.8296
 1528SOL    HW116220   4.484   4.620   0.040  1.1391  0.0645  0.6513
 1528SOL    HW216221   4.356   4.661   0.089 -1.0992  1.3087  0.0825
 1529SOL     OW16222   4.266   2.929   3.602 -0.3011 -0.0766 -0.6967
 1529SOL    HW116223   4.303   2.903   3.686 -2.1863 -1.6501 -0.3555
 1529SOL    HW216224   4.327   2.887   3.541 -1.3731  0.6571 -2.2915
 1530SOL     OW16225   1.254   0.860   7.489 -0.2726  0.0148  0.0128
 1530SOL    HW116226   1.238   0.844   7.396  1.2435  1.3750 -0.4721
 1530SOL    HW216227   1.307   0.939   7.491 -1.6816  0.9684 -0.4286
 1531SOL     OW16228   2.637   0.821   2.543  0.7247  0.3959  0.0450
 1531SOL    HW116229   2.683   0.739   2.564  1.2639  0.4807 -0.8080
 1531SOL    HW216230   2.545   0.796   2.541  0.7703  0.0267  1.9284
 1532SOL     OW16231   1.719   4.307   4.946 -0.1721  0.1332  0.4518
 1532SOL    HW116232   1.803   4.291   4.902  0.5863 -0.3073  2.0834
 1532SOL    HW216233   1.715   4.403   4.944 -1.6538  0.0425 -1.1183
 1533SOL     OW16234   3.588   3.258   1.318 -0.6479  0.4679  0.3801
 1533SOL    HW116235   3.548   3.319   1.255  0.4156  1.3518  0.5613
 1533SOL    HW216236   3.627   3.304   1.392  0.2989 -0.5759  0.5215
 1534SOL     OW16237   4.437   1.252   1.695  0.1437  0.1190 -0.1260
 1534SOL    HW116238   4.410   1.181   1.636 -0.7885  1.4343 -1.2697
 1534SOL    HW216239   4.369   1.253   1.762 -0.5735 -0.5646 -0.8414
 1535SOL     OW16240   1.428   2.496   8.565  0.5117  0.1183  0.2445
 1535SOL    HW116241   1.489   2.431   8.531  0.0807  0.4708 -1.1826
 1535SOL    HW216242   1.392   2.529   8.483 -0.8346  0.6087  1.0282
 1536SOL     OW16243   3.976   3.242   5.409 -0.4627  0.1174 -0.6674
 1536SOL    HW116244   3.883   3.258   5.391 -0.1306  0.8460 -1.7083
 1536SOL    HW216245   3.997   3.161   5.362 -2.9743 -0.4861 -0.7647
 1537SOL     OW16246   2.492   1.053   1.385  0.5317 -0.1372  0.1560
 1537SOL    HW116247   2.423   1.060   1.451 -1.7600  1.3838 -2.3884
 1537SOL    HW216248   2.435   1.044   1.308  1.7658 -0.4447 -0.7244
 1538SOL     OW16249   0.454   0.623  12.633  0.3104 -0.1732  0.1737
 1538SOL    HW116250   0.477   0.578  12.714 -3.0190  1.9543  2.2844
 1538SOL    HW216251   0.462   0.715  12.658 -2.5870  0.1684 -0.1925
 1539SOL     OW16252   1.359   1.211   7.833  0.6381  0.7492 -0.0354
 1539SOL    HW116253   1.287   1.156   7.865 -0.4410  1.4269 -1.2826
 1539SOL    HW216254   1.335   1.296   7.871  0.2873  0.7893 -0.3423
 1540SOL     OW16255   4.415   3.379   9.399  0.9426  0.2877  0.1785
 1540SOL    HW116256   4.484   3.410   9.341  0.5301  2.3228  0.7766
 1540SOL    HW216257   4.334   3.389   9.350 -0.6445 -1.0113  2.5354
 1541SOL     OW16258   4.684   0.397   7.207  0.4188 -0.0732 -0.4735
 1541SOL    HW116259   4.670   0.492   7.210  0.5213 -0.0066 -1.8813
 1541SOL    HW216260   4.596   0.366   7.227  0.9082 -0.6276  0.7671
 1542SOL     OW16261   3.222   0.998   3.187 -0.2188  0.4306 -0.1580
 1542SOL    HW116262   3.146   1.049   3.215 -0.1931  0.4376 -0.0990
 1542SOL    HW216263   3.182   0.932   3.131 -0.6865  0.3960  0.2221
 1543SOL     OW16264   0.230   0.483   4.459  0.4893  0.5385 -0.5205
 1543SOL    HW116265   0.244   0.403   4.408 -0.2426 -1.1844  1.9902
 1543SOL    HW216266   0.303   0.483   4.521 -2.2243 -0.6425  2.6336
 1544SOL     OW16267   2.245   1.947   6.995  0.1847 -0.1560 -0.5307
 1544SOL    HW116268   2.286   1.879   6.941 -2.0319 -0.7623 -1.4915
 1544SOL    HW216269   2.325   1.997   7.004 -2.1422  3.1482  1.7976
 1545SOL     OW16270   3.207   4.173   4.237  0.1243 -0.0471 -0.3211
 1545SOL    HW116271   3.206   4.238   4.167  0.9205  0.2948 -0.0128
 1545SOL    HW216272   3.244   4.229   4.306  0.8175 -1.0256  0.0965
 1546SOL     OW16273   1.010   3.715   2.676  0.1386 -0.5387 -0.1672
 1546SOL    HW116274   0.959   3.695   2.754  1.5771 -0.1782  0.8863
 1546SOL    HW216275   1.084   3.766   2.712 -1.6023 -0.5004  3.3182
 1547SOL     OW16276   3.878   2.226   0.888 -0.0390  0.7776  0.4938
 1547SOL    HW116277   3.918   2.166   0.951 -0.6344 -2.0742 -1.8548
 1547SOL    HW216278   3.893   2.182   0.804  0.1188  0.8468  0.4845
 1548SOL     OW16279   4.467   3.494   6.526 -0.1818 -0.3585  0.1316
 1548SOL    HW116280   4.383   3.462   6.495 -0.2672 -1.1040  1.1376
 1548SOL    HW216281   4.492   3.412   6.568  1.0224  0.3025  0.7028
 1549SOL     OW16282   1.810   3.151   6.972 -0.4838 -0.1350  0.2940
 1549SOL    HW116283   1.780   3.077   6.919 -1.0007  0.6142 -0.4571
 1549SOL    HW216284   1.858   3.118   7.048 -1.3847  1.0420  1.3676
 1550SOL     OW16285   4.238   3.163  10.740 -0.3277 -0.3056  1.0833
 1550SOL    HW116286   4.159   3.188  10.692 -1.1503 -0.4774  2.3514
 1550SOL    HW216287   4.299   3.236  10.740 -0.2809 -0.3369  0.1788
 1551SOL     OW16288   1.523   2.636  15.080  0.2605  0.2851 -0.5237
 1551SOL    HW116289   1.468   2.619  15.157 -0.5630  3.5447 -0.3899
 1551SOL    HW216290   1.517   2.730  15.065  0.0426  0.5327  1.1370
 1552SOL     OW16291   3.864   0.191   2.033  0.0941 -0.2746  0.7445
 1552SOL    HW116292   3.774   0.159   2.033  0.4991 -1.4088  0.4488
 1552SOL    HW216293   3.865   0.215   1.940 -2.8708 -0.8429  0.5540
 1553SOL     OW16294   3.890   1.468   3.986  0.8804  0.2884 -0.1805
 1553SOL    HW116295   3.816   1.528   3.991 -1.0147 -2.0324 -0.1225
 1553SOL    HW216296   3.930   1.482   4.072  0.7441  2.2629 -0.4387
 1554SOL     OW16297   4.598   1.846   8.452  0.2144 -0.0114  0.0334
 1554SOL    HW116298   4.601   1.866   8.545  0.1311 -1.3900  0.3254
 1554SOL    HW216299   4.644   1.920   8.411  0.0012  1.7764  3.0210
 1555SOL     OW16300   0.703   3.249   6.219  0.0526 -0.0523  0.6008
 1555SOL    HW116301   0.621   3.199   6.222  0.7433 -1.3795 -2.7118
 1555SOL    HW216302   0.692   3.290   6.304 -0.3032 -1.4540  1.2247
 1556SOL     OW16303   2.009   2.525  13.376  0.5101  0.6104  0.3821
 1556SOL    HW116304   1.915   2.511  13.388  0.5437 -2.4688 -2.8403
 1556SOL    HW216305   2.036   2.455  13.316 -1.0152  0.0744  0.3173
 1557SOL     OW16306   4.169   3.782  17.019 -0.3736  0.4452 -0.0246
 1557SOL    HW116307   4.160   3.702  16.968  0.6318  0.1999  0.1866
 1557SOL    HW216308   4.246   3.818  16.975 -1.1640 -0.0346 -1.7948
 1558SOL     OW16309   4.209   1.481   8.195  0.2198  0.1588 -0.0270
 1558SOL    HW116310   4.237   1.546   8.131 -0.5248 -0.4261 -0.9403
 1558SOL    HW216311   4.283   1.472   8.255  0.5652  2.5719 -0.0692
 1559SOL     OW16312   2.056   0.050  11.818 -0.0307  0.3055 -0.0403
 1559SOL    HW116313   2.097   0.136  11.812 -1.1723  0.8918  0.5178
 1559SOL    HW216314   1.996   0.063  11.892  0.6946  2.1718  0.2075
 1560SOL     OW16315   2.680   1.898   2.512  0.1114 -0.8552 -0.4812
 1560SOL    HW116316   2.635   1.850   2.443 -1.4350 -2.6160  1.7525
 1560SOL    HW216317   2.729   1.954   2.452 -0.1742 -0.0006  0.0757
 1561SOL     OW16318   1.607   1.438   5.161 -0.0358  0.0430  0.1136
 1561SOL    HW116319   1.539   1.378   5.130 -0.7749  1.2438 -0.6370
 1561SOL    HW216320   1.655   1.447   5.079 -1.3715  0.3782 -0.6364
 1562SOL     OW16321   4.484   4.307   8.869 -0.3060  0.0709  0.2200
 1562SOL    HW116322   4.499   4.230   8.814  0.8000 -0.7438  1.6223
 1562SOL    HW216323   4.418   4.354   8.820  1.4958  0.3126 -1.9856
 1563SOL     OW16324   1.182   1.914  11.221 -0.0354 -0.1949  0.1540
 1563SOL    HW116325   1.252   1.850  11.232  2.1923  2.3573  0.8991
 1563SOL    HW216326   1.196   1.967  11.299 -0.4789  2.0497 -1.2802
 1564SOL     OW16327   1.954   1.595   6.687  0.5773  0.1494  0.4846
 1564SOL    HW116328   1.962   1.589   6.782  0.9757 -0.1785  0.4270
 1564SOL    HW216329   1.884   1.530   6.680  2.0647 -1.5513  1.5839
 1565SOL     OW16330   1.612   4.321   7.300 -0.7468 -0.1866 -0.2432
 1565SOL    HW116331   1.627   4.360   7.214 -1.8328  1.0126  0.1037
 1565SOL    HW216332   1.613   4.402   7.351 -2.0386  0.0065 -0.5256
 1566SOL     OW16333   4.722   4.711  10.283 -0.0964  0.7236  0.1788
 1566SOL    HW116334   4.707   4.626  10.242 -1.2210  1.2967 -0.6116
 1566SOL    HW216335   4.733   4.693  10.376 -0.3021 -1.6802 -0.2687
 1567SOL     OW16336   0.255   2.862   2.215 -0.9092  0.3600 -0.3425
 1567SOL    HW116337   0.220   2.844   2.302 -1.7935  0.0794 -0.7637
 1567SOL    HW216338   0.182   2.898   2.165  1.7070 -0.6126 -4.9371
 1568SOL     OW16339   4.110   0.493   6.505 -0.5375  0.6213  0.5195
 1568SOL    HW116340   4.123   0.484   6.599 -1.0855 -3.7461  0.1785
 1568SOL    HW216341   4.087   0.586   6.498  0.1692  0.7910  0.5154
 1569SOL     OW16342   1.285   1.939   4.193  0.3247  0.4239  0.4300
 1569SOL    HW116343   1.236   1.943   4.112  1.0694 -0.6433 -0.0756
 1569SOL    HW216344   1.308   1.847   4.203  1.8057  0.4365 -2.9036
 1570SOL     OW16345   1.548   0.294  10.104 -0.1898 -0.1608 -0.3025
 1570SOL    HW116346   1.614   0.245  10.056  0.2923  0.2356 -0.0455
 1570SOL    HW216347   1.482   0.295  10.035 -0.6381 -0.3540  0.1238
 1571SOL     OW16348   3.706   1.846  14.222  0.3467  0.0194  0.0464
 1571SOL    HW116349   3.747   1.856  14.137 -1.0595  1.1479 -0.4989
 1571SOL    HW216350   3.780   1.877  14.274  0.7593 -1.2673  0.2252
 1572SOL     OW16351   1.607   0.302   2.219 -0.2952  0.5831 -0.1073
 1572SOL    HW116352   1.573   0.213   2.220 -0.6796  0.7431  1.3720
 1572SOL    HW216353   1.639   0.310   2.129  0.9402 -0.8321  0.2165
 1573SOL     OW16354   1.532   4.526   2.018  0.2420 -0.1436  0.0764
 1573SOL    HW116355   1.469   4.455   2.027  0.8168 -0.8091 -1.2194
 1573SOL    HW216356   1.528   4.548   1.925 -2.9377 -0.1497  0.2213
 1574SOL     OW16357   0.935   3.512  12.831  0.7716  0.2994 -0.1344
 1574SOL    HW116358   0.979   3.588  12.794  0.5716  0.9548  0.9851
 1574SOL    HW216359   0.994   3.445  12.796  1.1665  1.0373 -0.8858
 1575SOL     OW16360   3.993   0.328   3.959  0.4982  0.3775 -0.2621
 1575SOL    HW116361   4.081   0.327   3.996  0.9918 -0.1605 -1.4355
 1575SOL    HW216362   3.994   0.413   3.915  0.5804  1.5877  2.1413
 1576SOL     OW16363   2.994   1.521   6.210  0.7325  0.7958 -0.4358
 1576SOL    HW116364   2.919   1.476   6.247  2.0396 -0.0752  1.1579
 1576SOL    HW216365   2.976   1.523   6.116 -0.2670  0.3094 -0.2526
 1577SOL     OW16366   3.530   4.530  11.476 -0.5266  0.0592  0.4346
 1577SOL    HW116367   3.473   4.501  11.547 -0.6511  0.6428  0.5718
 1577SOL    HW216368   3.509   4.623  11.467 -3.6041 -0.6425  0.3560
 1578SOL     OW16369   2.555   4.057   7.693  0.3863 -0.0714 -0.1123
 1578SOL    HW116370   2.552   3.992   7.763  2.2909 -0.1919 -0.1447
 1578SOL    HW216371   2.651   4.067   7.692  0.3324  0.4116 -0.5922
 1579SOL     OW16372   2.179   4.006   1.022 -0.0622 -0.0038 -0.1132
 1579SOL    HW116373   2.204   4.080   1.077 -0.9437  3.0110 -3.7694
 1579SOL    HW216374   2.201   3.939   1.087  2.2544  1.2519  0.4138
 1580SOL     OW16375   0.364   1.038   7.912 -0.1270  0.3604  0.6927
 1580SOL    HW116376   0.366   1.114   7.971  0.9506  1.3809 -0.6598
 1580SOL    HW216377   0.299   1.049   7.843 -1.2150 -0.6757  1.5461
 1581SOL     OW16378   0.863   3.170   0.427  0.4037 -0.2095 -0.0820
 1581SOL    HW116379   0.855   3.261   0.455 -0.5025 -0.1545 -0.5419
 1581SOL    HW216380   0.830   3.170   0.337 -1.0827  0.1139  0.4620
 1582SOL     OW16381   4.351   4.618   9.450  0.2742 -0.7037 -0.2351
 1582SOL    HW116382   4.306   4.702   9.442 -1.2606 -1.5902 -0.9569
 1582SOL    HW216383   4.428   4.637   9.503  0.4221 -1.2766 -0.2392
 1583SOL     OW16384   0.717   1.856   4.577 -0.0775  0.0912  0.0516
 1583SOL    HW116385   0.801   1.839   4.619 -0.6033 -0.5635  0.8300
 1583SOL    HW216386   0.658   1.864   4.652 -0.0297  1.5775 -0.0742
 1584SOL     OW16387   4.037   2.559   2.383  0.1202  0.4024  0.5176
 1584SOL    HW116388   4.082   2.629   2.337  0.0185  1.0945  1.4705
 1584SOL    HW216389   4.003   2.595   2.465 -1.0670 -1.9668  1.0728
 1585SOL     OW16390   0.802   4.602  13.303  0.5867  0.2850  0.0175
 1585SOL    HW116391   0.794   4.512  13.332  0.5071 -0.1514 -1.3530
 1585SOL    HW216392   0.867   4.579  13.237  1.1938 -0.1105  0.7592
 1586SOL     OW16393   2.126   0.973   3.487  0.8031 -0.1792  0.1889
 1586SOL    HW116394   2.079   0.949   3.567 -1.7409  0.7400 -1.0553
 1586SOL    HW216395   2.211   1.005   3.517  0.4606  1.6417 -0.7824
 1587SOL     OW16396   3.641   3.846   0.661 -0.1371 -0.0411 -0.2739
 1587SOL    HW116397   3.665   3.921   0.607 -2.0736  0.7800  0.0080
 1587SOL    HW216398   3.645   3.774   0.599 -0.2072 -1.4529  1.3703
 1588SOL     OW16399   1.052   1.363   7.938 -0.1204  0.6644 -0.0891
 1588SOL    HW116400   1.067   1.271   7.961  0.4241  0.8687  0.3747
 1588SOL    HW216401   1.099   1.404   8.011 -0.0810  0.2207  0.1349
 1589SOL     OW16402   1.832   0.048   6.505  0.0663  0.4265 -0.3411
 1589SOL    HW116403   1.875   0.089   6.430  0.8864 -0.3739 -0.2982
 1589SOL    HW216404   1.832   0.120   6.569  0.5318  0.8613 -0.8290
 1590SOL     OW16405   1.845   3.048   4.894 -0.1502  0.0080  0.1183
 1590SOL    HW116406   1.920   3.108   4.900 -0.5858  0.5738 -0.1204
 1590SOL    HW216407   1.784   3.094   4.837  0.4511  0.9743  0.2561
 1591SOL     OW16408   3.306   2.761   6.722  0.0717  0.1028  0.2215
 1591SOL    HW116409   3.307   2.843   6.672 -0.6423  0.7654  1.2789
 1591SOL    HW216410   3.311   2.798   6.810  2.3112  1.7074 -0.5784
 1592SOL     OW16411   1.960   3.507  12.521 -0.2182 -0.7013 -0.6716
 1592SOL    HW116412   1.913   3.456  12.587  0.7600 -1.1693 -0.3518
 1592SOL    HW216413   2.027   3.446  12.491  0.1296 -0.9906  0.7227
 1593SOL     OW16414   0.770   2.929   8.483  0.5045 -0.1453  0.1495
 1593SOL    HW116415   0.752   2.841   8.516  1.6972 -0.8272 -0.9637
 1593SOL    HW216416   0.691   2.976   8.457  0.7706  0.9892  1.3833
 1594SOL     OW16417   2.250   3.462   9.569  0.1899 -0.1278 -0.2377
 1594SOL    HW116418   2.231   3.555   9.557  0.9704 -0.1762 -1.8790
 1594SOL    HW216419   2.346   3.453   9.569  0.1997 -0.0440 -0.6599
 1595SOL     OW16420   0.423   2.287  12.033  0.1331 -0.1772  0.7378
 1595SOL    HW116421   0.394   2.375  12.008 -0.4198  0.2474  2.8686
 1595SOL    HW216422   0.465   2.259  11.952 -1.5102 -2.2512  0.6047
 1596SOL     OW16423   2.268   0.393  10.711  0.1152  0.5169  0.2013
 1596SOL    HW116424   2.264   0.344  10.793 -1.0103 -0.2394 -0.3005
 1596SOL    HW216425   2.329   0.339  10.662  2.7280  2.3006  1.5185
 1597SOL     OW16426   1.541   0.084   2.028 -0.2888  0.2103 -0.0115
 1597SOL    HW116427   1.632   0.106   2.009 -0.6859 -1.4014 -3.6010
 1597SOL    HW216428   1.549   4.731   2.060  1.5255  0.1814 -0.5630
 1598SOL     OW16429   4.296   1.784   4.177 -0.7142  0.3325  0.0003
 1598SOL    HW116430   4.313   1.792   4.083  0.9861 -3.5347 -0.0199
 1598SOL    HW216431   4.334   1.700   4.205  1.6194  1.5399  0.4587
 1599SOL     OW16432   1.659   2.654   9.405  0.0009 -0.5109 -0.0432
 1599SOL    HW116433   1.693   2.743   9.405  0.8731 -0.8386 -0.5526
 1599SOL    HW216434   1.578   2.666   9.453 -0.8912 -3.4623 -0.7773
 1600SOL     OW16435   3.221   1.306   6.833 -0.1132  0.4212 -0.2295
 1600SOL    HW116436   3.155   1.367   6.866 -1.2631 -1.4687  0.9502
 1600SOL    HW216437   3.205   1.293   6.739 -1.5227  2.0698 -0.2128
 1601SOL     OW16438   3.395   0.514   3.942 -0.0790 -0.3242  0.1777
 1601SOL    HW116439   3.350   0.597   3.959 -0.3337 -0.0311 -1.9242
 1601SOL    HW216440   3.381   0.463   4.021 -1.2781 -2.7008 -1.5921
 1602SOL     OW16441   0.863   3.784   5.534  0.5048 -0.0935 -0.1861
 1602SOL    HW116442   0.832   3.832   5.610 -1.6048  0.5195 -1.4388
 1602SOL    HW216443   0.870   3.852   5.467  2.1459  1.0576  1.1602
 1603SOL     OW16444   4.387   1.679   5.593  0.2630  0.1701 -0.3694
 1603SOL    HW116445   4.355   1.603   5.642 -0.8572 -0.3705 -1.9332
 1603SOL    HW216446   4.349   1.668   5.506 -0.6358  0.0883  0.0346
 1604SOL     OW16447   1.245   2.297   4.721 -0.5258 -0.0704  0.5491
 1604SOL    HW116448   1.252   2.392   4.711 -0.3217  0.0057  1.3900
 1604SOL    HW216449   1.180   2.290   4.651 -1.6987  1.2585  1.5093
 1605SOL     OW16450   0.531   1.556   9.232  0.0034  0.0716 -0.4989
 1605SOL    HW116451   0.453   1.532   9.180  0.8089 -0.1415 -1.6253
 1605SOL    HW216452   0.494   1.562   9.320 -0.3242  0.4569 -0.6617
 1606SOL     OW16453   3.081   1.495   7.762 -0.5631  0.4595  0.4335
 1606SOL    HW116454   3.166   1.491   7.719 -0.1495  2.2074  1.0876
 1606SOL    HW216455   3.101   1.515   7.854  0.3028  0.0120  0.3454
 1607SOL     OW16456   1.022   0.563   5.680 -0.2825 -0.1221  0.1707
 1607SOL    HW116457   0.992   0.653   5.688 -1.5486 -0.4686 -0.7379
 1607SOL    HW216458   1.088   0.562   5.749 -1.0240  0.5648  0.8835
 1608SOL     OW16459   3.747   0.372   9.088  0.3548 -0.3847  0.4116
 1608SOL    HW116460   3.727   0.451   9.138  0.0987  1.9543 -3.3347
 1608SOL    HW216461   3.727   0.405   9.000 -1.7182 -0.2939  0.9367
 1609SOL     OW16462   3.164   1.289   9.242  0.3779 -0.1883  0.3410
 1609SOL    HW116463   3.170   1.263   9.334 -3.8672  1.2040  1.0005
 1609SOL    HW216464   3.201   1.215   9.193 -1.2366  0.8419 -2.4272
 1610SOL     OW16465   4.163   3.901   2.578  0.2234 -0.0277 -0.2730
 1610SOL    HW116466   4.074   3.887   2.546  0.1579 -0.9946  0.3264
 1610SOL    HW216467   4.177   3.992   2.550 -0.8642  0.9407  2.3762
 1611SOL     OW16468   2.779   3.435   6.952 -0.1653  0.1016  0.6242
 1611SOL    HW116469   2.773   3.341   6.933  1.2056 -0.2741  2.0746
 1611SOL    HW216470   2.703   3.470   6.905  1.1442  2.3561  0.2002
 1612SOL     OW16471   1.693   3.795   4.683  0.6374 -0.0656  0.2976
 1612SOL    HW116472   1.779   3.755   4.698  0.6350 -0.4378 -0.6793
 1612SOL    HW216473   1.675   3.831   4.770 -0.5142 -1.5214  0.6759
 1613SOL     OW16474   1.929   0.473  16.295 -0.2433  0.5571  0.1584
 1613SOL    HW116475   1.957   0.479  16.204  1.2529 -0.6910  0.5402
 1613SOL    HW216476   2.001   0.513  16.344 -1.7605  1.6779  1.5087
 1614SOL     OW16477   3.994   2.835   3.580 -0.0508  0.2438 -0.4425
 1614SOL    HW116478   4.069   2.862   3.633  0.0361 -0.3463 -0.2662
 1614SOL    HW216479   4.029   2.867   3.496 -0.3466 -2.5517 -1.6539
 1615SOL     OW16480   0.648   3.167  15.360 -0.2267  0.2581 -0.1320
 1615SOL    HW116481   0.664   3.111  15.284  0.9616 -0.4165  0.6245
 1615SOL    HW216482   0.663   3.110  15.435 -2.4525 -1.2088 -0.8074
 1616SOL     OW16483   4.330   3.027   8.898 -0.9056 -0.0129 -0.0708
 1616SOL    HW116484   4.383   3.072   8.964  1.7315 -2.0530 -0.8039
 1616SOL    HW216485   4.396   2.994   8.837 -0.1610 -0.0522  0.7477
 1617SOL     OW16486   1.373   0.775   9.238  0.9833  0.5933 -0.2679
 1617SOL    HW116487   1.388   0.862   9.276  2.3472  0.4262 -0.4208
 1617SOL    HW216488   1.423   0.724   9.302 -2.2747 -0.9428  1.0630
 1618SOL     OW16489   1.673   0.555   4.683  0.4123 -0.1596 -0.1544
 1618SOL    HW116490   1.636   0.606   4.754 -0.8158 -1.6698  0.2869
 1618SOL    HW216491   1.645   0.466   4.704  1.4949 -0.6616 -0.8334
 1619SOL     OW16492   4.249   1.745   4.626  0.5234 -0.1793  0.0950
 1619SOL    HW116493   4.169   1.693   4.618 -1.6243  3.2739 -0.8064
 1619SOL    HW216494   4.288   1.697   4.699 -0.2124  1.2549  1.4349
 1620SOL     OW16495   4.338   1.978   7.405  0.3423  0.0651 -0.0768
 1620SOL    HW116496   4.295   2.053   7.446  1.0461  0.6306 -0.3571
 1620SOL    HW216497   4.391   2.016   7.334  0.2944 -0.3977 -0.3596
 1621SOL     OW16498   2.541   3.205  15.787 -0.2972  0.2608 -0.1202
 1621SOL    HW116499   2.497   3.288  15.770  0.1880  0.5292 -0.0675
 1621SOL    HW216500   2.511   3.142  15.722  1.0583  1.3607 -1.8054
 1622SOL     OW16501   4.292   4.490   3.139  0.5367  0.3440 -0.4750
 1622SOL    HW116502   4.387   4.479   3.133  0.0788 -2.5471 -2.0937
 1622SOL    HW216503   4.256   4.425   3.079 -2.9446  0.0104  2.0010
 1623SOL     OW16504   1.460   2.452   6.177 -0.8889  0.2443 -0.2079
 1623SOL    HW116505   1.555   2.448   6.192 -0.9743 -3.4836 -0.6391
 1623SOL    HW216506   1.436   2.539   6.208 -1.0959  0.5589 -1.2437
 1624SOL     OW16507   2.214   4.306  16.386 -0.3589  0.0437 -0.2670
 1624SOL    HW116508   2.238   4.396  16.409 -1.1979  0.5589 -1.4296
 1624SOL    HW216509   2.240   4.296  16.295 -0.1537  2.2532 -0.4411
 1625SOL     OW16510   2.218   1.195   8.019  0.2964  0.1175  0.0873
 1625SOL    HW116511   2.171   1.221   7.940 -1.3262  2.1212  1.7222
 1625SOL    HW216512   2.146   1.207   8.081  0.7429  1.0444  0.4307
 1626SOL     OW16513   2.381   3.068   9.763  0.3557  0.6731 -0.1052
 1626SOL    HW116514   2.370   2.998   9.826  2.2766  1.4278  1.0850
 1626SOL    HW216515   2.302   3.115   9.738 -0.2758 -1.2101 -1.6799
 1627SOL     OW16516   0.608   4.316   6.396  0.2013  0.1235  0.3001
 1627SOL    HW116517   0.632   4.374   6.324  1.3384 -2.1057 -1.0967
 1627SOL    HW216518   0.515   4.325   6.377 -0.1826 -1.4895  1.3291
 1628SOL     OW16519   3.224   3.865   5.586 -0.1178  0.4981 -0.1448
 1628SOL    HW116520   3.290   3.850   5.519  1.1078  1.0324  0.9459
 1628SOL    HW216521   3.234   3.960   5.597  0.2965  0.2370  1.7463
 1629SOL     OW16522   4.106   3.364   7.356 -0.3196 -0.0310 -0.1243
 1629SOL    HW116523   4.048   3.302   7.400  1.0487 -1.2334 -0.0158
 1629SOL    HW216524   4.121   3.423   7.431 -1.2292  0.6984 -0.5145
 1630SOL     OW16525   3.747   3.836  14.698 -0.0112  0.5238  0.2264
 1630SOL    HW116526   3.691   3.842  14.621  0.0334 -1.7143  0.0381
 1630SOL    HW216527   3.691   3.889  14.755  0.9450  2.5746 -0.7297
 1631SOL     OW16528   0.584   1.942   0.688 -0.3435 -0.1317  0.3971
 1631SOL    HW116529   0.541   2.009   0.741  0.4447  0.9071 -0.2861
 1631SOL    HW216530   0.571   1.969   0.597 -1.3485 -0.5065  0.4312
 1632SOL     OW16531   4.409   3.466   7.671 -0.6458 -0.1651 -0.1638
 1632SOL    HW116532   4.425   3.390   7.616 -0.5568 -1.4306  1.5951
 1632SOL    HW216533   4.478   3.531   7.653 -0.7030 -0.0477  0.0400
 1633SOL     OW16534   4.651   0.455   0.486 -0.0465 -0.2851  0.7604
 1633SOL    HW116535   4.634   0.379   0.541  0.4664 -1.0449 -0.1213
 1633SOL    HW216536   4.583   0.431   0.422 -0.2296 -0.2250  0.9328
 1634SOL     OW16537   4.246   2.210   5.137 -0.3623  0.9442 -0.0459
 1634SOL    HW116538   4.177   2.247   5.082  0.7134  3.1668  0.0950
 1634SOL    HW216539   4.326   2.241   5.094  2.0538 -0.8475  3.2017
 1635SOL     OW16540   1.726   1.618  10.477 -0.3014 -0.4192 -0.1738
 1635SOL    HW116541   1.764   1.630  10.564  1.0888  2.5100 -1.1732
 1635SOL    HW216542   1.794   1.578  10.423  0.6406  1.6344 -0.5004
 1636SOL     OW16543   3.778   1.194   2.116 -0.1071  0.0460 -0.2458
 1636SOL    HW116544   3.728   1.258   2.166 -0.1180 -0.8594  0.9010
 1636SOL    HW216545   3.792   1.238   2.032  2.9170 -1.1036 -0.3138
 1637SOL     OW16546   4.425   3.627   1.545  0.2746  0.1967 -0.8138
 1637SOL    HW116547   4.441   3.711   1.501  0.1227 -0.3180 -1.8690
 1637SOL    HW216548   4.378   3.586   1.472 -0.3421 -0.2358 -0.1667
 1638SOL     OW16549   2.608   1.841   9.852  0.3478  0.2129  0.2858
 1638SOL    HW116550   2.582   1.788   9.777  0.7357 -1.1689  1.1083
 1638SOL    HW216551   2.568   1.924   9.827  0.2460 -0.1605 -0.7751
 1639SOL     OW16552   4.198   2.728   3.319  0.5751  0.2582 -0.0665
 1639SOL    HW116553   4.134   2.657   3.308  0.5479  0.4774 -1.2956
 1639SOL    HW216554   4.255   2.711   3.394 -0.8947 -2.1209  0.4957
 1640SOL     OW16555   2.740   4.662   2.280 -0.2855  0.1017 -0.2185
 1640SOL    HW116556   2.713   4.584   2.328  1.5015 -0.9192 -0.8716
 1640SOL    HW216557   2.667   4.684   2.223  0.6808  1.9248 -0.7413
 1641SOL     OW16558   3.079   4.626   4.702  0.2297 -0.5742 -0.0952
 1641SOL    HW116559   3.129   4.659   4.628  0.4766 -2.1604 -0.6362
 1641SOL    HW216560   3.026   4.703   4.721  0.4910 -0.4241  0.0224
 1642SOL     OW16561   1.462   3.212   9.328  0.0088 -0.5775 -0.3883
 1642SOL    HW116562   1.370   3.220   9.356 -0.4663 -0.2510 -1.9981
 1642SOL    HW216563   1.463   3.117   9.339  1.4856 -0.3225  1.6012
 1643SOL     OW16564   3.499   3.372  14.213 -0.4661  0.5799  0.5107
 1643SOL    HW116565   3.513   3.440  14.146 -1.9968  0.7202  0.3353
 1643SOL    HW216566   3.408   3.385  14.238 -0.2411  0.6693  1.2924
 1644SOL     OW16567   2.471   2.323   6.502 -0.2311  0.3730  0.0982
 1644SOL    HW116568   2.534   2.251   6.497  0.4657  0.9435  0.6658
 1644SOL    HW216569   2.418   2.295   6.427 -2.1966  0.5740  1.4126
 1645SOL     OW16570   1.445   0.143   3.025 -0.8600  0.6707 -0.3506
 1645SOL    HW116571   1.477   0.185   3.105  0.4964  0.2248 -0.6570
 1645SOL    HW216572   1.387   0.203   2.978 -0.2341  0.4275 -1.4189
 1646SOL     OW16573   3.669   2.602   3.739 -0.4096 -0.0513 -0.3144
 1646SOL    HW116574   3.668   2.584   3.645  0.3682  0.6199 -0.4579
 1646SOL    HW216575   3.589   2.554   3.759 -0.2220 -0.8914 -1.5760
 1647SOL     OW16576   2.799   4.587  15.458  0.8903  0.3365  0.1910
 1647SOL    HW116577   2.715   4.583  15.412  1.3097  2.5553 -0.7887
 1647SOL    HW216578   2.762   4.586  15.547 -0.6701 -2.3656 -0.4834
 1648SOL     OW16579   1.861   2.804   7.305 -0.2568  0.1390  0.2397
 1648SOL    HW116580   1.920   2.876   7.284 -0.3044  1.0846  3.3391
 1648SOL    HW216581   1.916   2.731   7.334 -5.0322 -2.9344  1.5844
 1649SOL     OW16582   0.767   3.185   3.683  0.0140  0.1699 -0.7481
 1649SOL    HW116583   0.740   3.270   3.648  1.4072  0.4996 -1.0184
 1649SOL    HW216584   0.729   3.189   3.771  0.7061 -0.8208 -0.4098
 1650SOL     OW16585   3.798   0.744   5.146 -0.1979 -0.1525  0.9671
 1650SOL    HW116586   3.712   0.704   5.132 -0.1064  0.7357 -2.0402
 1650SOL    HW216587   3.797   0.801   5.070  0.8647  1.5345  2.2274
 1651SOL     OW16588   0.454   2.869   2.576  0.1376 -0.6193 -0.1969
 1651SOL    HW116589   0.518   2.939   2.588 -0.4309 -0.0952 -0.2273
 1651SOL    HW216590   0.496   2.789   2.610 -1.3391 -0.2838  2.4136
 1652SOL     OW16591   3.590   3.832   4.418  0.0644  0.2676 -0.4290
 1652SOL    HW116592   3.592   3.822   4.322  1.6675 -0.3716 -0.3263
 1652SOL    HW216593   3.582   3.738   4.433 -1.6057  0.3966 -0.5743
 1653SOL     OW16594   1.974   1.818  17.077 -0.6735 -0.2535 -0.2307
 1653SOL    HW116595   2.007   1.907  17.063 -0.2543 -0.3065  0.3996
 1653SOL    HW216596   1.890   1.837  17.035 -0.1258 -0.6999 -1.5121
 1654SOL     OW16597   0.855   2.534   5.029 -0.1940  0.1844 -0.1124
 1654SOL    HW116598   0.876   2.591   5.102 -0.7880  0.3813 -0.0895
 1654SOL    HW216599   0.940   2.501   5.001 -0.0230 -0.1343  0.7967
 1655SOL     OW16600   4.528   0.196  15.974  0.4689  0.5194 -0.0842
 1655SOL    HW116601   4.564   0.273  16.019  0.6943  0.1091  0.4370
 1655SOL    HW216602   4.525   0.232  15.885 -1.5585 -1.5262 -0.8204
 1656SOL     OW16603   1.382   2.747   2.099  0.0249 -0.2870 -0.3817
 1656SOL    HW116604   1.347   2.700   2.023 -0.1104  0.3425 -0.7096
 1656SOL    HW216605   1.476   2.741   2.079  0.1137  0.9843 -0.3651
 1657SOL     OW16606   2.639   2.890   6.499  0.8013  0.5332 -0.3896
 1657SOL    HW116607   2.667   2.800   6.480  0.4515 -0.1906  2.4821
 1657SOL    HW216608   2.672   2.928   6.418  1.7281 -0.3085 -0.4073
 1658SOL     OW16609   2.170   4.605   9.710  0.0397 -0.4372  0.1524
 1658SOL    HW116610   2.188   4.647   9.794 -0.5669  0.9957 -0.4354
 1658SOL    HW216611   2.193   4.514   9.730  1.9379 -0.1098 -0.5411
 1659SOL     OW16612   4.124   2.296   7.311  0.2625 -0.1684  0.1858
 1659SOL    HW116613   4.205   2.320   7.266  0.4753  0.3703  0.8673
 1659SOL    HW216614   4.158   2.260   7.393  1.8401  0.9426  0.0056
 1660SOL     OW16615   3.590   2.990   1.528  0.4893 -0.4678  0.1663
 1660SOL    HW116616   3.589   3.069   1.582 -0.2440 -0.9198  0.8144
 1660SOL    HW216617   3.499   2.994   1.497 -0.1754  0.0642  2.1897
 1661SOL     OW16618   0.926   3.152   6.074 -0.0817 -0.2789 -0.0513
 1661SOL    HW116619   0.972   3.111   6.147  0.7273  0.6851 -0.0045
 1661SOL    HW216620   0.841   3.165   6.115 -0.1617 -0.1037 -0.2715
 1662SOL     OW16621   4.587   2.856   0.760 -0.3066 -0.1194 -0.1312
 1662SOL    HW116622   4.681   2.844   0.771 -0.6947 -2.3781  0.6233
 1662SOL    HW216623   4.572   2.941   0.801  2.4852  1.1539 -1.7693
 1663SOL     OW16624   1.800   3.341   8.758  0.5278  0.3770 -0.4270
 1663SOL    HW116625   1.808   3.301   8.671  2.8412 -1.7281  0.7741
 1663SOL    HW216626   1.723   3.294   8.791  0.5087  1.9562  1.7760
 1664SOL     OW16627   3.501   1.216   7.473  0.2093 -0.2314  0.5098
 1664SOL    HW116628   3.527   1.129   7.444 -3.3618 -0.4677 -2.0397
 1664SOL    HW216629   3.417   1.226   7.428  0.2045  0.1487  0.6054
 1665SOL     OW16630   2.480   1.399   9.152  0.4139 -0.6332  0.4764
 1665SOL    HW116631   2.544   1.342   9.108  0.5286 -0.0731 -0.0797
 1665SOL    HW216632   2.396   1.365   9.121  0.1673  0.3302  0.0949
 1666SOL     OW16633   0.655   2.959   6.432  0.0449  0.3032 -0.0688
 1666SOL    HW116634   0.579   2.903   6.448 -0.5426  0.2356 -3.2158
 1666SOL    HW216635   0.638   2.977   6.340  3.0512  0.3468 -0.5837
 1667SOL     OW16636   2.189   0.189   7.552 -0.1931  0.3629  0.0468
 1667SOL    HW116637   2.162   0.268   7.599 -0.3890  0.8136 -0.8174
 1667SOL    HW216638   2.212   0.222   7.465  0.1958  0.5844  0.2348
 1668SOL     OW16639   0.665   2.622   9.418 -0.8779 -0.2691 -0.5555
 1668SOL    HW116640   0.613   2.572   9.482  0.2578 -1.1776 -0.3367
 1668SOL    HW216641   0.740   2.564   9.407  1.2210  1.7896  2.8367
 1669SOL     OW16642   4.229   4.271   4.307 -0.4134 -0.2514  0.2395
 1669SOL    HW116643   4.231   4.366   4.318 -0.5536 -0.3413  1.0455
 1669SOL    HW216644   4.181   4.251   4.388  1.9370  2.2763  2.2727
 1670SOL     OW16645   0.095   4.664   8.213  0.0770 -0.3659  0.6114
 1670SOL    HW116646   0.079   4.605   8.139  0.2910 -1.1778  1.2204
 1670SOL    HW216647   0.106   4.599   8.282  0.9660 -0.5827  0.2558
 1671SOL     OW16648   3.920   2.831  10.701 -0.3427  0.1133  0.6714
 1671SOL    HW116649   3.993   2.874  10.745 -0.7000  1.9616 -0.5278
 1671SOL    HW216650   3.969   2.760  10.659 -0.7599 -0.2948  0.8848
 1672SOL     OW16651   0.059   1.094   2.943 -0.0681  0.1603  0.1247
 1672SOL    HW116652   4.727   1.053   2.889 -0.2705 -1.1625  1.3727
 1672SOL    HW216653   0.129   1.031   2.927 -1.1552 -0.2815 -2.8667
 1673SOL     OW16654   1.137   4.701   4.830  0.6436  0.1778  0.1405
 1673SOL    HW116655   1.087   4.715   4.910 -2.3135 -0.9229 -1.4981
 1673SOL    HW216656   1.175   4.614   4.841  0.1047 -0.3531 -2.0452
 1674SOL     OW16657   3.885   3.695   6.782 -0.1064 -0.3325  0.5880
 1674SOL    HW116658   3.903   3.604   6.804  0.0952 -0.2822  0.6350
 1674SOL    HW216659   3.792   3.696   6.759  0.9262  0.0286 -3.6384
 1675SOL     OW16660   4.336   3.968   3.304 -0.2052  0.2459  0.6621
 1675SOL    HW116661   4.421   4.010   3.318 -0.0067  0.3797 -0.9411
 1675SOL    HW216662   4.286   4.048   3.291 -0.6039 -0.4109 -1.7582
 1676SOL     OW16663   4.011   2.517  12.773 -0.1184 -0.1728  0.0304
 1676SOL    HW116664   4.001   2.443  12.713 -1.3612 -1.9087  2.3806
 1676SOL    HW216665   4.048   2.584  12.716  0.5821 -2.3820 -2.1134
 1677SOL     OW16666   2.027   4.203   6.524  0.3414 -0.0164  0.8246
 1677SOL    HW116667   1.940   4.235   6.550 -0.3962  1.0644 -2.9142
 1677SOL    HW216668   2.010   4.112   6.548 -1.6512  0.2123  0.3306
 1678SOL     OW16669   4.142   3.591   6.428 -0.2148 -0.3197 -0.7418
 1678SOL    HW116670   4.053   3.592   6.392 -0.1868 -1.4906 -0.8441
 1678SOL    HW216671   4.162   3.498   6.439 -0.2837 -0.1150  1.1724
 1679SOL     OW16672   2.058   2.290   6.396  0.4000 -0.3228  0.1328
 1679SOL    HW116673   2.096   2.373   6.366 -0.9208  0.1829 -0.1678
 1679SOL    HW216674   2.128   2.230   6.370  0.4190 -0.6140  0.8679
 1680SOL     OW16675   2.870   1.553  10.309  0.4161 -0.4664 -0.1708
 1680SOL    HW116676   2.811   1.546  10.234 -0.4790 -0.1842  0.5134
 1680SOL    HW216677   2.932   1.599  10.252  0.2001  0.2462  0.1826
 1681SOL     OW16678   1.450   4.232  15.055 -0.0101  0.0915 -0.1587
 1681SOL    HW116679   1.395   4.193  14.987 -1.9230  2.0509  0.2637
 1681SOL    HW216680   1.428   4.170  15.125  1.5481 -0.6368 -0.3160
 1682SOL     OW16681   1.335   2.271   8.714 -0.8316 -0.7574  0.1664
 1682SOL    HW116682   1.343   2.344   8.653  2.4645 -3.8218 -3.0825
 1682SOL    HW216683   1.241   2.279   8.726 -0.9015  1.4055 -2.0133
 1683SOL     OW16684   3.414   2.521   3.544  0.4696  0.3983 -0.3463
 1683SOL    HW116685   3.347   2.590   3.543  0.5856  0.5430  1.0135
 1683SOL    HW216686   3.378   2.443   3.503 -1.5077  0.7731  0.6413
 1684SOL     OW16687   2.736   2.967  10.050 -0.1638  0.2410  0.5384
 1684SOL    HW116688   2.761   3.022   9.976  0.4914  1.5823  1.7591
 1684SOL    HW216689   2.671   2.911  10.009  0.1181 -0.1995  0.6970
 1685SOL     OW16690   1.123   0.891   2.247 -0.3450 -0.2491 -0.4229
 1685SOL    HW116691   1.214   0.919   2.231 -0.1906 -0.9626 -0.7819
 1685SOL    HW216692   1.102   0.949   2.320  3.3556  0.1997  0.3194
 1686SOL     OW16693   3.113   1.414   7.209 -0.5749 -0.3036 -0.2184
 1686SOL    HW116694   3.111   1.496   7.160 -0.0660  0.4792  1.0867
 1686SOL    HW216695   3.073   1.355   7.145 -0.4883  0.7643 -1.2483
 1687SOL     OW16696   3.545   3.985  12.717 -0.0579  0.0372 -0.2779
 1687SOL    HW116697   3.595   4.059  12.683  1.3200  0.1054  1.8785
 1687SOL    HW216698   3.463   3.996  12.669  0.6940 -0.3495 -1.6469
 1688SOL     OW16699   1.392   0.418   9.016  0.7946  0.2618  0.6638
 1688SOL    HW116700   1.375   0.408   9.109  0.1355  1.0047  0.6159
 1688SOL    HW216701   1.330   0.356   8.979  1.5653  0.4764 -0.9898
 1689SOL     OW16702   2.122   0.393   2.786 -0.1205  0.3780  0.7988
 1689SOL    HW116703   2.073   0.441   2.719 -0.4362  2.5228  2.5652
 1689SOL    HW216704   2.091   0.303   2.790  0.0345  0.3094  0.4867
 1690SOL     OW16705   2.879   4.390  16.729 -0.1142 -0.4464  0.0300
 1690SOL    HW116706   2.896   4.457  16.795  1.7070  0.1279 -1.0481
 1690SOL    HW216707   2.958   4.391  16.675  1.0070 -0.1231  1.6898
 1691SOL     OW16708   4.403   0.233  14.562 -0.6718  0.5737  0.0405
 1691SOL    HW116709   4.376   0.141  14.556 -2.0934  1.0121 -0.4004
 1691SOL    HW216710   4.394   0.252  14.468  0.9049  0.0588 -0.2166
 1692SOL     OW16711   0.404   0.293  13.016  0.1753 -0.2543  0.1019
 1692SOL    HW116712   0.448   0.230  12.959  2.2470  0.3953  0.9774
 1692SOL    HW216713   0.316   0.304  12.979  0.3927  1.5414  0.1368
 1693SOL     OW16714   2.031   4.014   8.772  0.0970  0.1693  0.0328
 1693SOL    HW116715   2.065   3.926   8.757  0.4094  0.6145 -1.9105
 1693SOL    HW216716   1.983   4.004   8.854  0.6026 -1.5077  0.1185
 1694SOL     OW16717   0.922   4.386  15.397  0.2180  0.5253 -0.0451
 1694SOL    HW116718   0.996   4.447  15.391 -0.7771  1.5728 -1.3833
 1694SOL    HW216719   0.855   4.449  15.422  1.2867  0.4321  3.0660
 1695SOL     OW16720   0.569   0.477  14.557  0.1896 -0.4249  0.6489
 1695SOL    HW116721   0.595   0.442  14.643 -0.5839  0.9205  1.4313
 1695SOL    HW216722   0.546   0.399  14.506  3.2509  0.3372 -1.9195
 1696SOL     OW16723   2.082   1.110  13.828  0.2809  0.4493 -0.5116
 1696SOL    HW116724   2.009   1.049  13.818  0.6934 -0.2437  0.7715
 1696SOL    HW216725   2.093   1.151  13.742 -2.5660  2.4432  0.0883
 1697SOL     OW16726   2.281   1.679   2.310 -0.5916  0.1789 -0.1695
 1697SOL    HW116727   2.226   1.649   2.239  3.3076 -3.0352 -1.8269
 1697SOL    HW216728   2.314   1.593   2.338 -1.5509 -0.3677 -0.7266
 1698SOL     OW16729   4.154   2.695   1.268  0.5825 -0.1235  0.0424
 1698SOL    HW116730   4.086   2.715   1.332 -0.1657  1.7993 -1.3643
 1698SOL    HW216731   4.188   2.613   1.305  0.6228  0.5239  1.4300
 1699SOL     OW16732   3.895   4.115  11.628  0.8749 -0.7333 -0.2864
 1699SOL    HW116733   3.854   4.145  11.547  1.2910 -1.9143 -0.9334
 1699SOL    HW216734   3.868   4.024  11.629 -0.3791 -0.3465  0.8945
 1700SOL     OW16735   0.749   2.781  10.391  0.4771 -0.6415 -0.0753
 1700SOL    HW116736   0.782   2.692  10.389  0.9798 -0.4733  0.8237
 1700SOL    HW216737   0.673   2.757  10.443 -0.8847  1.3155 -1.1317
 1701SOL     OW16738   1.465   2.030   9.331  0.0708  0.5014 -0.3551
 1701SOL    HW116739   1.414   2.110   9.341 -3.3891 -1.6172 -1.3080
 1701SOL    HW216740   1.547   2.048   9.377  0.8060  0.3644 -1.6079
 1702SOL     OW16741   4.146   0.735  17.077  0.7147  0.3801 -0.2123
 1702SOL    HW116742   4.083   0.739  17.149 -0.6614 -0.5476 -1.3677
 1702SOL    HW216743   4.208   0.798  17.113  2.6602 -2.0534  0.6944
 1703SOL     OW16744   1.058   1.906   1.684 -0.1225  0.2311  0.1767
 1703SOL    HW116745   1.030   1.815   1.696 -0.8713  0.7273  2.1150
 1703SOL    HW216746   1.000   1.951   1.746 -0.7154 -1.2932  0.7372
 1704SOL     OW16747   2.300   0.699  13.221  0.0437 -0.3851 -0.2751
 1704SOL    HW116748   2.325   0.734  13.136 -1.2569  3.9441  1.1465
 1704SOL    HW216749   2.381   0.654  13.246 -0.2367 -1.1855 -0.7985
 1705SOL     OW16750   2.752   4.113  16.626  0.2064 -0.1337 -0.5002
 1705SOL    HW116751   2.831   4.082  16.581  0.3665  0.1044 -0.3829
 1705SOL    HW216752   2.779   4.202  16.648 -1.0194  0.4877 -1.5060
 1706SOL     OW16753   3.587   0.100   2.071 -0.1999  0.2221  0.0330
 1706SOL    HW116754   3.603   0.126   2.161  2.1447  0.5298 -0.4778
 1706SOL    HW216755   3.548   0.016   2.094 -2.3486  1.3962  0.7191
 1707SOL     OW16756   2.136   2.472   4.816  0.1885  0.0216 -0.4095
 1707SOL    HW116757   2.041   2.481   4.811  0.1015 -0.2731  0.7820
 1707SOL    HW216758   2.158   2.514   4.899 -1.0135  0.0000 -0.0905
 1708SOL     OW16759   4.297   2.451   7.202 -0.4681  0.4930  0.1150
 1708SOL    HW116760   4.263   2.468   7.114 -0.9299 -0.2423  0.1427
 1708SOL    HW216761   4.389   2.475   7.189 -0.7025  1.4237  0.1554
 1709SOL     OW16762   2.626   1.153   3.011  0.4161 -0.8908  0.2755
 1709SOL    HW116763   2.648   1.119   2.924  0.5585  2.2197 -0.9041
 1709SOL    HW216764   2.550   1.099   3.033 -1.2526  1.5806  0.4866
 1710SOL     OW16765   0.350   0.041   4.415 -0.1870 -0.3290  0.0863
 1710SOL    HW116766   0.283   4.730   4.466 -1.4844  1.3201 -0.0872
 1710SOL    HW216767   0.302   0.115   4.379 -2.8314 -2.5365 -0.9087
 1711SOL     OW16768   0.177   2.735  14.919  0.3041  0.5963 -0.2069
 1711SOL    HW116769   0.146   2.691  14.998  1.3283 -0.5046 -0.4225
 1711SOL    HW216770   0.094   2.740  14.871  0.2631  2.5820  0.0625
 1712SOL     OW16771   4.346   3.743  15.433 -0.0710 -0.1073  0.0233
 1712SOL    HW116772   4.435   3.720  15.462  0.0948 -2.7862 -2.6193
 1712SOL    HW216773   4.362   3.804  15.361 -1.4283 -0.3985 -0.5131
 1713SOL     OW16774   1.347   3.155   8.463 -0.2874  0.0205  0.0520
 1713SOL    HW116775   1.308   3.096   8.528 -1.0605  0.0231 -0.4184
 1713SOL    HW216776   1.405   3.204   8.522 -0.7004  0.2081  0.3079
 1714SOL     OW16777   1.352   0.408   9.296 -0.2565  0.0236 -0.4639
 1714SOL    HW116778   1.265   0.447   9.304  0.7711  2.8713 -3.2665
 1714SOL    HW216779   1.401   0.473   9.345 -1.2924 -1.5988  2.7197
 1715SOL     OW16780   2.135   1.011   6.029  0.0694 -0.1827 -0.5211
 1715SOL    HW116781   2.073   1.076   6.060 -0.1766 -1.2253  1.1596
 1715SOL    HW216782   2.217   1.061   6.030  1.0084 -1.7548  0.2271
 1716SOL     OW16783   3.832   0.079  11.761  0.1639 -0.4600 -0.2278
 1716SOL    HW116784   3.829   0.155  11.703 -0.9174 -0.5096 -0.2492
 1716SOL    HW216785   3.870   0.013  11.703 -1.5764 -1.3889 -0.3217
 1717SOL     OW16786   0.911   3.982   6.900  0.2318 -0.8427  0.4837
 1717SOL    HW116787   0.989   3.978   6.845 -1.0169 -1.4852 -1.2613
 1717SOL    HW216788   0.863   4.058   6.868 -0.3353 -1.8104 -0.9638
 1718SOL     OW16789   3.931   2.146  14.102  0.4047 -0.2142 -0.0289
 1718SOL    HW116790   3.953   2.226  14.055 -0.1946 -0.9619 -1.5953
 1718SOL    HW216791   4.006   2.087  14.088  0.8677  0.2876  0.3520
 1719SOL     OW16792   2.807   1.980   5.375  0.2196  0.4824 -0.6270
 1719SOL    HW116793   2.866   1.990   5.300  2.3648 -1.5827  0.7957
 1719SOL    HW216794   2.776   1.891   5.357 -1.1664  1.2075 -1.9114
 1720SOL     OW16795   4.471   1.668   6.635  0.2178 -0.1223  0.0097
 1720SOL    HW116796   4.523   1.741   6.667  0.4941 -0.7711  1.0385
 1720SOL    HW216797   4.489   1.593   6.692  2.7673  0.4657  0.0117
 1721SOL     OW16798   0.202   2.499   3.459  0.1948  0.5483  0.3685
 1721SOL    HW116799   0.147   2.426   3.487 -2.0307  1.6288 -1.2062
 1721SOL    HW216800   0.139   2.556   3.416 -1.0406  0.6589  2.3425
 1722SOL     OW16801   0.931   3.740   4.023 -0.7322 -0.6367 -0.1107
 1722SOL    HW116802   0.993   3.672   4.049  0.0006 -0.3211 -1.0545
 1722SOL    HW216803   0.860   3.740   4.087  1.8335  0.1187  2.7620
 1723SOL     OW16804   1.953   1.944  15.334  0.0982  0.6358 -0.5529
 1723SOL    HW116805   2.033   1.984  15.368 -0.9682  1.4678  0.9492
 1723SOL    HW216806   1.960   1.951  15.239 -1.7034  0.0577 -0.7330
 1724SOL     OW16807   2.029   1.721   6.460 -0.1755 -0.2203  0.0529
 1724SOL    HW116808   2.013   1.663   6.535  1.2288 -3.4407 -2.1619
 1724SOL    HW216809   1.952   1.778   6.471  0.6389  0.7288  0.7465
 1725SOL     OW16810   2.323   3.769   2.808 -0.0985 -0.0253  0.2900
 1725SOL    HW116811   2.295   3.684   2.773  1.6369  0.6723 -2.8162
 1725SOL    HW216812   2.357   3.737   2.891  1.3743 -3.3670 -1.5581
 1726SOL     OW16813   4.091   2.751   8.042  0.3071 -0.6004  0.2894
 1726SOL    HW116814   4.148   2.826   8.060  1.1812 -1.1301 -0.2721
 1726SOL    HW216815   4.027   2.793   7.984  3.2410  2.2277 -0.8882
 1727SOL     OW16816   3.176   3.385  10.630  0.0611  0.0113 -0.2411
 1727SOL    HW116817   3.121   3.321  10.584 -0.5926 -0.4442  1.1840
 1727SOL    HW216818   3.140   3.386  10.719  1.2653  0.1111  0.2373
 1728SOL     OW16819   0.645   1.323   5.805  0.2424  0.2969 -0.0196
 1728SOL    HW116820   0.736   1.302   5.788 -0.2182 -2.1448  0.5808
 1728SOL    HW216821   0.632   1.404   5.755 -0.2956  2.2249  3.1862
 1729SOL     OW16822   1.216   2.991  11.883 -0.3978  0.5833  0.0460
 1729SOL    HW116823   1.277   2.929  11.845 -3.0386 -1.3910 -1.0024
 1729SOL    HW216824   1.268   3.072  11.876 -1.6758  1.3959 -0.1253
 1730SOL     OW16825   4.346   3.509   1.321  0.1807 -0.1071  0.2211
 1730SOL    HW116826   4.409   3.493   1.251 -1.1423 -0.5081 -0.8778
 1730SOL    HW216827   4.291   3.432   1.308 -0.8764  0.7208 -0.1935
 1731SOL     OW16828   2.790   1.360   6.154 -0.6687 -0.2412  0.1843
 1731SOL    HW116829   2.842   1.348   6.074  0.3456 -0.1436  0.8264
 1731SOL    HW216830   2.763   1.269   6.162 -0.7205 -0.3101 -0.7390
 1732SOL     OW16831   0.609   4.288   3.658  0.4238  0.1120 -0.4869
 1732SOL    HW116832   0.639   4.205   3.621 -0.9499  0.6693 -2.8846
 1732SOL    HW216833   0.672   4.305   3.727  1.8634  5.2905 -3.1073
 1733SOL     OW16834   1.821   2.418   7.521  0.3605 -0.0688  0.0158
 1733SOL    HW116835   1.824   2.387   7.611 -0.5892  1.2852  0.5122
 1733SOL    HW216836   1.800   2.338   7.473  1.0042 -2.0659  3.1004
 1734SOL     OW16837   4.581   1.445   8.000 -0.3365 -0.1954  0.0390
 1734SOL    HW116838   4.628   1.427   7.919  2.3560 -1.5129  1.8815
 1734SOL    HW216839   4.507   1.386   7.989 -0.7890  0.4029 -0.1199
 1735SOL     OW16840   2.534   1.134   4.417 -0.0179  0.0257 -0.0589
 1735SOL    HW116841   2.590   1.202   4.454 -0.7462  0.9898 -0.7502
 1735SOL    HW216842   2.594   1.076   4.369 -0.5657  0.5653 -1.3811
 1736SOL     OW16843   0.967   2.664   2.682 -0.4679 -0.4689  0.2659
 1736SOL    HW116844   0.959   2.623   2.768  0.6005 -1.6188 -0.1887
 1736SOL    HW216845   0.939   2.753   2.704 -0.6386 -0.3245 -0.5662
 1737SOL     OW16846   4.600   3.855   2.548 -0.2849 -0.0390 -0.5849
 1737SOL    HW116847   4.691   3.855   2.576  0.7938  0.3833 -4.1708
 1737SOL    HW216848   4.596   3.815   2.462  2.3615  1.1624 -1.2609
 1738SOL     OW16849   1.656   2.023   4.658 -0.0334 -0.6940  0.5537
 1738SOL    HW116850   1.652   2.044   4.751 -1.5600  1.7117 -0.0661
 1738SOL    HW216851   1.571   1.982   4.644 -0.2529  0.1898 -0.7562
 1739SOL     OW16852   0.233   0.679   2.349  0.2343 -0.6563  0.1781
 1739SOL    HW116853   0.326   0.668   2.367  0.7048  0.3947 -1.6779
 1739SOL    HW216854   0.187   0.603   2.386  1.6383 -1.6297 -0.0661
 1740SOL     OW16855   2.079   3.735  13.740  0.3613  0.2817  0.2186
 1740SOL    HW116856   2.035   3.818  13.721 -1.5887 -0.6018  0.8514
 1740SOL    HW216857   2.070   3.691  13.655 -1.2686  1.1017 -0.0326
 1741SOL     OW16858   3.612   4.703   2.345  0.0959  0.3181 -0.2677
 1741SOL    HW116859   3.687   0.015   2.381 -0.4092  0.6090  0.4021
 1741SOL    HW216860   3.532   4.725   2.394  0.9633 -1.0410  1.7286
 1742SOL     OW16861   4.221   1.309   2.902  0.7922  0.5198  0.5922
 1742SOL    HW116862   4.315   1.295   2.898  0.6172  0.3319 -2.7402
 1742SOL    HW216863   4.184   1.246   2.840  0.9984  0.6085  0.3840
 1743SOL     OW16864   3.574   1.130  16.253 -0.4063  0.0751 -0.2603
 1743SOL    HW116865   3.516   1.107  16.326  1.7066 -1.7429  0.8531
 1743SOL    HW216866   3.526   1.088  16.181  0.5591 -1.0696 -0.2304
 1744SOL     OW16867   3.659   0.572   7.000 -0.0975  0.1121 -0.0531
 1744SOL    HW116868   3.570   0.578   6.964  0.2913  1.0545 -0.8766
 1744SOL    HW216869   3.637   0.548   7.089 -1.3893  1.2975 -0.0481
 1745SOL     OW16870   1.423   0.020   3.498 -0.3321 -0.1567  0.2177
 1745SOL    HW116871   1.371   4.685   3.536 -0.3536 -0.2955 -0.0765
 1745SOL    HW216872   1.351   0.049   3.442 -1.9331 -4.1158  0.1628
 1746SOL     OW16873   3.987   0.223  10.189  0.2106  0.4452  0.0031
 1746SOL    HW116874   4.076   0.229  10.223 -1.0549  3.3532  2.8038
 1746SOL    HW216875   3.969   0.138  10.229 -3.6981  0.8158 -0.9385
 1747SOL     OW16876   1.258   1.566  10.791  0.0369  1.0042  0.4952
 1747SOL    HW116877   1.315   1.496  10.759 -0.2404  1.7064 -1.5280
 1747SOL    HW216878   1.261   1.546  10.885 -0.2346  1.1301  0.5290
 1748SOL     OW16879   3.519   4.471   8.971 -0.0774 -0.7684 -0.4666
 1748SOL    HW116880   3.457   4.543   8.977  0.3710 -0.4917  0.7900
 1748SOL    HW216881   3.499   4.412   9.044  1.4398 -1.0148 -0.2299
 1749SOL     OW16882   1.709   0.864   4.639  0.8474  0.0562  0.2422
 1749SOL    HW116883   1.696   0.825   4.726  1.3126 -0.4480  0.0787
 1749SOL    HW216884   1.640   0.930   4.649  1.5618  1.0461 -1.3341
 1750SOL     OW16885   1.486   2.740   5.952 -0.2816 -0.2580 -0.4795
 1750SOL    HW116886   1.420   2.772   5.891  0.1439 -0.1380 -0.8784
 1750SOL    HW216887   1.501   2.660   5.900  3.4147  0.0075  0.1920
 1751SOL     OW16888   0.350   3.896  15.970 -0.2823  0.9747 -0.6580
 1751SOL    HW116889   0.387   3.816  15.933 -0.2757  1.2640 -1.2646
 1751SOL    HW216890   0.279   3.864  16.025  0.2604 -0.5008 -0.8025
 1752SOL     OW16891   2.983   0.993  16.580 -0.1617 -0.3494 -0.3139
 1752SOL    HW116892   2.975   1.006  16.674 -2.4066  1.1551 -0.7107
 1752SOL    HW216893   3.036   0.913  16.572  0.2774  0.1335 -2.2794
 1753SOL     OW16894   2.167   0.415   3.079 -0.5513 -0.2619  0.2193
 1753SOL    HW116895   2.111   0.384   3.008  1.1800  1.6035 -1.9490
 1753SOL    HW216896   2.237   0.350   3.081 -1.2205 -0.9809  0.3618
 1754SOL     OW16897   0.835   2.503  17.181  0.4756  0.2455 -0.0589
 1754SOL    HW116898   0.928   2.526  17.192  0.7969 -0.7687 -0.7095
 1754SOL    HW216899   0.803   2.593  17.173  1.9568  0.7047 -0.7890
 1755SOL     OW16900   3.922   2.952   7.263 -0.1147 -0.6144  0.3197
 1755SOL    HW116901   3.858   2.926   7.197 -0.9447  0.2828  0.7757
 1755SOL    HW216902   3.996   2.974   7.207  0.1043  0.2816  0.9585
 1756SOL     OW16903   0.986   0.270   4.908 -0.2166 -0.1568 -0.0187
 1756SOL    HW116904   0.994   0.288   5.002 -0.1947 -2.3381  0.4034
 1756SOL    HW216905   0.890   0.269   4.899 -0.4795 -0.8324  2.8483
 1757SOL     OW16906   2.376   0.342   9.150  0.2163 -0.7704  0.3056
 1757SOL    HW116907   2.408   0.362   9.062 -2.6423  0.0457 -0.5727
 1757SOL    HW216908   2.291   0.311   9.119  0.8347 -2.3652  0.1922
 1758SOL     OW16909   4.384   1.962  15.984  0.4551  0.0584  0.1675
 1758SOL    HW116910   4.314   1.959  15.918 -1.1627 -1.8980  1.9734
 1758SOL    HW216911   4.351   1.892  16.040 -1.5258  0.8578  0.0252
 1759SOL     OW16912   1.707   1.898  14.536 -0.1198 -0.1023 -0.1167
 1759SOL    HW116913   1.643   1.871  14.471  1.4123  3.6971 -3.2079
 1759SOL    HW216914   1.684   1.988  14.559 -0.8688  0.0342 -1.4221
 1760SOL     OW16915   1.673   1.007   5.011 -0.2063 -0.4104  0.3179
 1760SOL    HW116916   1.618   0.931   5.029 -0.6737  0.2520  1.7246
 1760SOL    HW216917   1.754   0.962   4.985  0.8848  1.9279 -0.3796
 1761SOL     OW16918   1.402   3.825   8.086  0.3899 -0.3491  0.6718
 1761SOL    HW116919   1.312   3.797   8.072  0.4438 -1.0211  1.6850
 1761SOL    HW216920   1.394   3.919   8.067 -2.0401 -1.2521 -2.6572
 1762SOL     OW16921   2.270   1.936   4.704  0.2212  0.2799  0.6406
 1762SOL    HW116922   2.203   2.002   4.685  0.2024  0.2165  0.4895
 1762SOL    HW216923   2.307   1.923   4.616 -0.0334 -0.6515  0.6761
 1763SOL     OW16924   3.285   3.717   5.289 -0.3898 -0.4526  0.0360
 1763SOL    HW116925   3.214   3.725   5.353  0.0336  1.0177  0.3161
 1763SOL    HW216926   3.241   3.679   5.213 -1.4543  0.6817  0.0854
 1764SOL     OW16927   1.570   2.134   8.670  0.1502 -0.6324 -0.3124
 1764SOL    HW116928   1.511   2.194   8.715  0.5063 -0.6160  0.1306
 1764SOL    HW216929   1.516   2.104   8.597 -1.1216 -0.8974  0.7366
 1765SOL     OW16930   4.044   4.075   5.711 -0.2190 -0.2891 -0.3142
 1765SOL    HW116931   4.011   4.054   5.798  1.6175 -3.5288 -0.4135
 1765SOL    HW216932   4.086   3.992   5.690 -3.7002 -2.9516  3.3418
 1766SOL     OW16933   2.583   1.779   4.490 -0.3252 -0.1392 -0.3849
 1766SOL    HW116934   2.626   1.860   4.516  1.7971 -0.4904 -2.8253
 1766SOL    HW216935   2.495   1.816   4.478  0.5352  1.7694 -0.9545
 1767SOL     OW16936   0.949   4.140  15.539  0.0975 -0.8777  0.2026
 1767SOL    HW116937   1.026   4.166  15.589  0.9557 -0.2643 -1.4361
 1767SOL    HW216938   0.915   4.221  15.501  1.3095 -0.0554  0.8676
 1768SOL     OW16939   0.884   1.118   8.148 -0.5731 -0.0249 -0.2806
 1768SOL    HW116940   0.806   1.170   8.126 -0.6564  0.4588  1.1475
 1768SOL    HW216941   0.900   1.150   8.237  3.9987 -3.5901  0.1835
 1769SOL     OW16942   0.561   3.140  14.607 -0.2666  0.2547  0.0631
 1769SOL    HW116943   0.535   3.090  14.684  0.1130  3.2392  2.1212
 1769SOL    HW216944   0.599   3.073  14.550 -0.3618  1.1077 -0.9946
 1770SOL     OW16945   2.968   3.511   1.140 -0.4565  0.6097  0.5070
 1770SOL    HW116946   2.964   3.528   1.046  0.8477  1.1345  0.5464
 1770SOL    HW216947   3.043   3.563   1.170 -0.1899 -0.9558  2.5196
 1771SOL     OW16948   0.481   0.038   1.595  0.3349 -0.3259 -0.7709
 1771SOL    HW116949   0.466   0.047   1.689  1.7806 -0.2049 -0.5481
 1771SOL    HW216950   0.491   4.681   1.575  0.8035 -0.4119 -0.1526
 1772SOL     OW16951   1.534   2.797   2.494  0.2085 -0.0557 -0.1367
 1772SOL    HW116952   1.487   2.875   2.466 -0.6525  0.3557  2.4844
 1772SOL    HW216953   1.539   2.806   2.589 -0.1472 -1.9067  0.0538
 1773SOL     OW16954   1.179   4.392  15.105 -0.3643  0.4225 -0.2917
 1773SOL    HW116955   1.272   4.377  15.122 -1.5653 -3.2999  2.8947
 1773SOL    HW216956   1.148   4.430  15.187 -0.9880  1.3910 -0.9840
 1774SOL     OW16957   0.825   0.076   6.927  0.2767 -1.1828 -0.1462
 1774SOL    HW116958   0.759   0.092   6.995 -0.7190 -0.9666 -1.1659
 1774SOL    HW216959   0.907   0.061   6.975 -1.9383  2.4772  4.8099
 1775SOL     OW16960   3.077   2.415   3.250  0.3459 -0.3348 -0.0227
 1775SOL    HW116961   3.074   2.351   3.321  0.6970  1.0135  1.2140
 1775SOL    HW216962   3.163   2.452   3.272  0.9893  0.1031 -3.2127
 1776SOL     OW16963   3.619   0.130   3.372 -0.1924  0.2064 -0.2360
 1776SOL    HW116964   3.535   0.177   3.374 -1.0027 -1.2285 -0.0402
 1776SOL    HW216965   3.587   0.040   3.381  1.4056 -0.4058 -0.7079
 1777SOL     OW16966   3.134   4.269   6.920 -0.1590  0.1324 -0.4131
 1777SOL    HW116967   3.209   4.279   6.863 -0.7499  1.6337 -0.9216
 1777SOL    HW216968   3.130   4.174   6.934 -2.2920  0.3280  0.4322
 1778SOL     OW16969   3.552   0.175   5.021  0.0809  0.1611 -0.0246
 1778SOL    HW116970   3.634   0.180   5.070 -0.4362  3.5551  0.5111
 1778SOL    HW216971   3.543   0.263   4.983 -0.6406 -0.0361 -0.3046
 1779SOL     OW16972   3.325   3.382   4.653 -0.1096 -0.2616 -0.7505
 1779SOL    HW116973   3.382   3.459   4.649 -1.9451  1.2208  1.2884
 1779SOL    HW216974   3.379   3.307   4.630  3.3518  1.2014  2.5454
 1780SOL     OW16975   2.503   0.401   2.265 -0.8630 -0.6383  0.4908
 1780SOL    HW116976   2.443   0.328   2.283 -0.6264 -0.7569  0.8105
 1780SOL    HW216977   2.478   0.461   2.336  1.0256 -0.0111  0.6376
 1781SOL     OW16978   0.945   3.600   3.597  0.6250  0.3802 -0.3278
 1781SOL    HW116979   0.853   3.572   3.602  0.4961  0.7184 -0.8063
 1781SOL    HW216980   0.993   3.533   3.646  0.0468  0.0762 -0.1624
 1782SOL     OW16981   2.038   3.326   7.705 -0.0933  0.5346  0.7569
 1782SOL    HW116982   2.013   3.246   7.659  0.8706  0.9952 -0.5918
 1782SOL    HW216983   1.989   3.320   7.787  1.1324  2.9749  1.6857
 1783SOL     OW16984   0.423   2.004   8.972  0.7504  0.0257  0.6632
 1783SOL    HW116985   0.509   2.018   8.933  1.0967 -2.2734  0.6140
 1783SOL    HW216986   0.376   2.088   8.972 -0.3337 -0.5784  0.7655
 1784SOL     OW16987   0.023   4.106   8.936  0.3261 -0.4714 -0.6649
 1784SOL    HW116988   4.736   4.061   8.855 -1.7542 -0.0999 -0.2592
 1784SOL    HW216989   0.028   4.196   8.906 -0.3053  0.5856  2.3324
 1785SOL     OW16990   2.171   3.459   5.269  0.4125  0.3449 -0.1026
 1785SOL    HW116991   2.173   3.371   5.231 -1.2665 -0.3771  1.5132
 1785SOL    HW216992   2.139   3.442   5.358  3.3252 -2.3912  0.4373
 1786SOL     OW16993   1.610   0.921   5.754 -0.2642 -0.0502 -0.4212
 1786SOL    HW116994   1.572   0.973   5.684 -1.5244  1.5961  1.4621
 1786SOL    HW216995   1.686   0.897   5.702  0.1202 -1.6039  0.8499
 1787SOL     OW16996   0.702   0.344   9.152 -0.2106 -0.1116 -0.1411
 1787SOL    HW116997   0.637   0.312   9.214 -0.0100  2.0502  1.1690
 1787SOL    HW216998   0.724   0.431   9.184  0.4105 -1.1231  2.1834
 1788SOL     OW16999   0.200   1.981   5.220  0.2923  0.2186 -0.8602
 1788SOL    HW117000   0.209   1.916   5.151  1.5343 -0.8295  0.3053
 1788SOL    HW217001   0.126   1.932   5.256  0.5136  0.4574 -0.0798
 1789SOL     OW17002   0.132   4.072  12.000  0.3449 -0.1799  0.5079
 1789SOL    HW117003   0.064   4.050  11.936 -1.2089  4.6038  0.5180
 1789SOL    HW217004   0.096   4.029  12.077  0.6678 -0.1909  0.6519
 1790SOL     OW17005   1.139   2.420   2.566 -0.3457 -0.2437  0.0129
 1790SOL    HW117006   1.108   2.331   2.552  1.8826 -0.8897 -0.9300
 1790SOL    HW217007   1.105   2.442   2.652  0.2593 -3.0859  0.9596
 1791SOL     OW17008   2.744   4.389   3.075  0.1991 -0.3411 -0.5401
 1791SOL    HW117009   2.679   4.367   3.141 -3.1572  1.8492 -3.1065
 1791SOL    HW217010   2.807   4.318   3.086 -2.5737 -3.1134 -2.8857
 1792SOL     OW17011   4.067   3.886  12.662  0.0738 -0.0242  0.6420
 1792SOL    HW117012   4.080   3.795  12.689 -0.1246 -0.3892 -0.4767
 1792SOL    HW217013   3.990   3.872  12.606 -0.0860  0.7732  0.6577
 1793SOL     OW17014   1.175   1.679   7.944 -0.1206  0.5845  0.4786
 1793SOL    HW117015   1.137   1.686   8.031  0.5747  0.1254  0.8236
 1793SOL    HW217016   1.102   1.698   7.885  0.6144  1.5684 -0.1206
 1794SOL     OW17017   2.648   3.669   6.792 -0.6753 -0.0822  0.1552
 1794SOL    HW117018   2.600   3.745   6.759 -1.0069 -1.0542 -1.5618
 1794SOL    HW217019   2.653   3.620   6.710  2.8282 -0.4516  0.5991
 1795SOL     OW17020   2.397   3.572   6.630  0.7470 -0.1122 -0.2021
 1795SOL    HW117021   2.457   3.498   6.624  1.0164  0.0882  0.0176
 1795SOL    HW217022   2.330   3.541   6.692  1.6065 -1.2564  0.1519
 1796SOL     OW17023   1.254   1.706  17.640 -0.2569 -0.1102  0.3673
 1796SOL    HW117024   1.214   1.653  17.570 -1.1046  0.1598  0.6383
 1796SOL    HW217025   1.251   1.645  17.713 -0.3350 -0.8904 -0.2852
 1797SOL     OW17026   4.431   2.238   1.371 -0.4568  0.0950  0.8570
 1797SOL    HW117027   4.364   2.304   1.389 -0.9638  0.0093 -0.7750
 1797SOL    HW217028   4.395   2.186   1.300  1.4205 -0.2223  0.1290
 1798SOL     OW17029   3.866   1.981   4.244  0.2039 -0.2984  0.5033
 1798SOL    HW117030   3.930   2.051   4.253  0.3754 -0.4363  0.3541
 1798SOL    HW217031   3.865   1.972   4.149 -0.6061 -1.3966  0.6052
 1799SOL     OW17032   4.445   2.570   6.135 -0.0569  0.2841  0.0976
 1799SOL    HW117033   4.410   2.485   6.109 -0.8609  0.2362  1.3096
 1799SOL    HW217034   4.406   2.619   6.063  1.8850  1.6871 -0.0353
 1800SOL     OW17035   0.865   2.610   0.487  0.2138 -0.2941 -0.3538
 1800SOL    HW117036   0.914   2.651   0.415  0.0765  2.1940  0.9548
 1800SOL    HW217037   0.933   2.555   0.525  0.2371 -0.5322 -0.7453
 1801SOL     OW17038   4.174   3.401   9.266 -0.2702 -0.7151 -0.0983
 1801SOL    HW117039   4.144   3.361   9.185 -2.1488  0.0712  0.2097
 1801SOL    HW217040   4.097   3.407   9.323  0.4221 -3.0271  1.0419
 1802SOL     OW17041   4.037   2.680  16.725 -0.3983  0.3808 -0.4850
 1802SOL    HW117042   4.044   2.776  16.727 -0.2120  0.3511  0.2355
 1802SOL    HW217043   4.043   2.660  16.631 -1.0388  0.0747 -0.4634
 1803SOL     OW17044   0.535   0.547   5.456 -0.5526 -0.2217  0.8699
 1803SOL    HW117045   0.451   0.581   5.425 -0.4523 -0.4299  0.3698
 1803SOL    HW217046   0.559   0.618   5.515 -0.0776 -0.4008  0.8903
 1804SOL     OW17047   2.591   2.751   3.350  0.3363 -0.0055  0.0271
 1804SOL    HW117048   2.509   2.701   3.351  0.3068  0.0845  1.7214
 1804SOL    HW217049   2.637   2.725   3.271  1.2575 -0.6311  0.7629
 1805SOL     OW17050   0.197   0.651   7.977 -0.6578  0.0521 -0.7470
 1805SOL    HW117051   0.109   0.613   7.976 -1.3399  1.6355 -0.9406
 1805SOL    HW217052   0.217   0.628   7.887  1.7368 -0.7388 -0.0145
 1806SOL     OW17053   3.989   4.225  12.443 -0.5637  0.2616 -0.3985
 1806SOL    HW117054   3.912   4.238  12.499  2.5770  1.9147  3.5428
 1806SOL    HW217055   4.018   4.314  12.421  1.4184 -0.1513  0.5933
 1807SOL     OW17056   0.379   3.405   2.519 -0.8964 -0.9389  0.3284
 1807SOL    HW117057   0.351   3.326   2.566  0.3218 -1.4314  0.2279
 1807SOL    HW217058   0.444   3.359   2.465 -0.0102 -0.3358  0.8770
 1808SOL     OW17059   0.935   2.970   2.339  0.2979 -0.0031  0.0385
 1808SOL    HW117060   0.901   2.894   2.386  2.9600  0.6743  3.0477
 1808SOL    HW217061   1.022   2.938   2.316  0.9469  0.8635  1.2377
 1809SOL     OW17062   2.695   1.172   6.729 -1.0990 -0.6890  0.1098
 1809SOL    HW117063   2.616   1.134   6.768  0.1481 -1.8394  1.5668
 1809SOL    HW217064   2.753   1.148   6.802 -0.8296 -1.0925 -0.2372
 1810SOL     OW17065   3.467   3.489   0.015  0.5501 -0.1283  0.4810
 1810SOL    HW117066   3.497   3.491  17.668  0.0626  2.0581  0.3689
 1810SOL    HW217067   3.512   3.557   0.065  1.0476 -0.2182  0.1603
 1811SOL     OW17068   3.331   1.791  13.098 -0.2738 -0.4669 -0.2235
 1811SOL    HW117069   3.305   1.763  13.186 -1.5436  1.5316  0.0251
 1811SOL    HW217070   3.393   1.861  13.119 -1.4775  0.7545 -0.7297
 1812SOL     OW17071   0.244   2.765   8.354  0.0769 -0.2747 -0.2851
 1812SOL    HW117072   0.200   2.739   8.435 -0.2911  0.0733 -0.3748
 1812SOL    HW217073   0.258   2.677   8.318 -3.2440 -0.2364 -1.7434
 1813SOL     OW17074   1.016   0.543   8.309 -0.1963 -0.0265  0.1728
 1813SOL    HW117075   1.001   0.637   8.315 -0.2052  0.0224 -0.6116
 1813SOL    HW217076   1.111   0.546   8.316 -0.3435  0.1665  2.0614
 1814SOL     OW17077   1.056   2.652   6.044  0.1376  0.2413 -1.0947
 1814SOL    HW117078   0.986   2.630   5.982 -0.6495 -3.9212  1.3302
 1814SOL    HW217079   1.071   2.743   6.019  2.6941 -0.3681 -1.7770
 1815SOL     OW17080   4.263   1.526   6.908  0.4028  0.3432  0.4896
 1815SOL    HW117081   4.349   1.552   6.874  1.0511 -1.6965  0.5887
 1815SOL    HW217082   4.210   1.604   6.891  0.2295  0.1960  0.3619
 1816SOL     OW17083   2.230   1.857   5.065 -0.0625 -0.4578 -0.5959
 1816SOL    HW117084   2.175   1.789   5.026 -1.4355  0.0481  0.4797
 1816SOL    HW217085   2.231   1.828   5.156  1.1740  1.6715  0.0682
 1817SOL     OW17086   0.880   3.102   7.008  0.1194 -0.3376  0.5577
 1817SOL    HW117087   0.973   3.094   6.987 -0.1964 -1.6530 -0.3281
 1817SOL    HW217088   0.834   3.032   6.960 -0.7883  0.2962  0.5075
 1818SOL     OW17089   1.306   3.347  12.946  0.1121 -0.5572  0.5603
 1818SOL    HW117090   1.282   3.391  13.027 -1.9877  0.8900 -0.8459
 1818SOL    HW217091   1.238   3.377  12.884 -0.5636 -1.9290  0.6469
 1819SOL     OW17092   2.485   4.698   4.758 -0.2118 -0.3353  0.5487
 1819SOL    HW117093   2.571   4.711   4.716 -1.4879 -0.8202 -2.1891
 1819SOL    HW217094   2.450   0.050   4.752  0.5130 -0.2211 -1.9375
 1820SOL     OW17095   4.605   3.190   5.396 -0.1683  0.6706 -0.4543
 1820SOL    HW117096   4.517   3.214   5.366 -0.7990 -0.6855  0.3324
 1820SOL    HW217097   4.645   3.193   5.308  0.0437  1.9936 -0.3205
 1821SOL     OW17098   4.114   1.288   1.605 -0.3406 -0.1291 -0.2197
 1821SOL    HW117099   4.023   1.315   1.590 -0.5138 -0.0042  1.0725
 1821SOL    HW217100   4.160   1.348   1.547  3.6189 -0.0504  3.0143
 1822SOL     OW17101   0.692   0.230   4.757 -0.1030  0.3375  0.3399
 1822SOL    HW117102   0.680   0.325   4.754 -0.4391  0.2552 -1.3179
 1822SOL    HW217103   0.607   0.198   4.727  0.8448 -2.8725  1.1430
 1823SOL     OW17104   1.984   1.129  14.414  0.3660  0.0108  0.3970
 1823SOL    HW117105   1.896   1.092  14.415  0.3975 -0.0753 -0.1209
 1823SOL    HW217106   2.016   1.085  14.335  1.2010  1.4336 -0.0652
 1824SOL     OW17107   1.581   4.526  11.311  0.1096 -0.2705  0.1237
 1824SOL    HW117108   1.491   4.500  11.293 -0.5096  1.2397  0.9804
 1824SOL    HW217109   1.624   4.463  11.253  0.4396 -0.2460  0.3413
 1825SOL     OW17110   1.703   0.662   4.446 -0.0097  0.4476  0.0034
 1825SOL    HW117111   1.692   0.603   4.520  0.8612  0.4025  0.0905
 1825SOL    HW217112   1.729   0.741   4.494  1.3705  0.2732 -0.4621
 1826SOL     OW17113   2.261   2.683   2.751 -0.3210  0.1936  0.0833
 1826SOL    HW117114   2.192   2.746   2.731 -0.0571  0.4264 -0.0872
 1826SOL    HW217115   2.327   2.751   2.743 -1.5552  1.0305 -2.8154
 1827SOL     OW17116   0.061   1.341  11.721 -0.1318 -0.1971  0.2777
 1827SOL    HW117117   0.068   1.252  11.757 -1.0248  1.0478  3.5387
 1827SOL    HW217118   0.088   1.401  11.790  0.0006 -0.5991  0.5744
 1828SOL     OW17119   2.696   1.075   6.266  0.0949  0.2398  0.7310
 1828SOL    HW117120   2.662   1.070   6.177  0.0418  0.0279  0.7643
 1828SOL    HW217121   2.619   1.050   6.317 -0.2793  0.3936  0.2369
 1829SOL     OW17122   4.338   4.581  12.571  0.3021  0.1329  0.0365
 1829SOL    HW117123   4.363   4.488  12.578  0.3472  0.0943 -0.6282
 1829SOL    HW217124   4.423   4.612  12.539  0.6989 -1.0409 -0.0721
 1830SOL     OW17125   2.201   1.894  10.054  0.3465 -0.0383  0.8841
 1830SOL    HW117126   2.143   1.819  10.040 -1.0295  0.9226  1.3350
 1830SOL    HW217127   2.269   1.843  10.097  3.4352  1.9340 -1.6171
 1831SOL     OW17128   0.400   4.326   8.103 -0.4440  0.3287  0.1147
 1831SOL    HW117129   0.421   4.234   8.088 -1.0172 -0.2091  2.7526
 1831SOL    HW217130   0.310   4.330   8.070 -0.0963  1.6526 -0.7019
 1832SOL     OW17131   0.115   4.679  11.351  0.0390  0.3265  0.2701
 1832SOL    HW117132   0.171   4.736  11.298  1.0797 -0.1228  0.8870
 1832SOL    HW217133   0.157   4.593  11.357 -0.8843 -0.1530 -0.1485
 1833SOL     OW17134   3.552   2.444   5.428 -0.0298  0.0664 -0.2240
 1833SOL    HW117135   3.497   2.453   5.351 -0.1873  2.7971  0.1757
 1833SOL    HW217136   3.607   2.520   5.406  1.0631  0.1684  2.8724
 1834SOL     OW17137   4.060   3.335   0.454  0.3006  0.1108 -0.0095
 1834SOL    HW117138   4.037   3.401   0.520 -1.1701 -0.3735 -0.0357
 1834SOL    HW217139   4.155   3.338   0.446  0.4163 -2.8928  0.1636
 1835SOL     OW17140   3.667   0.012   5.551 -0.2824  0.2460  0.1203
 1835SOL    HW117141   3.602   4.704   5.496  0.4665 -1.0392  0.2672
 1835SOL    HW217142   3.745   4.694   5.540  0.4745  0.5583  3.8342
 1836SOL     OW17143   4.670   3.387  14.806 -0.1927  0.5634 -0.1549
 1836SOL    HW117144   4.616   3.337  14.867  0.3207  1.5314  1.0745
 1836SOL    HW217145   4.615   3.394  14.728  0.3901 -0.6493 -0.6639
 1837SOL     OW17146   2.852   4.546   2.024  0.0185  0.6235 -0.0433
 1837SOL    HW117147   2.941   4.568   2.052  0.3395 -0.8944  0.1210
 1837SOL    HW217148   2.816   4.633   2.010 -2.6527 -0.3655  0.7641
 1838SOL     OW17149   1.048   1.848  16.822  0.6046  0.3802 -0.3515
 1838SOL    HW117150   1.044   1.753  16.821 -0.6317  0.4452 -1.5296
 1838SOL    HW217151   1.073   1.868  16.732 -2.3453  0.6148 -1.1196
 1839SOL     OW17152   1.491   2.652   4.150  0.0367 -0.0348 -0.4865
 1839SOL    HW117153   1.536   2.728   4.188  2.4554 -1.8703  0.3314
 1839SOL    HW217154   1.522   2.579   4.203 -1.8558 -1.0948 -0.8552
 1840SOL     OW17155   3.179   1.383   5.154  0.4764 -0.5105  0.0890
 1840SOL    HW117156   3.095   1.366   5.197  1.3468 -0.5311  1.7893
 1840SOL    HW217157   3.225   1.416   5.231 -0.2947  2.3535 -0.6593
 1841SOL     OW17158   0.429   2.836   5.467 -0.3096  0.1880 -0.1241
 1841SOL    HW117159   0.351   2.860   5.517 -0.1380 -0.4546  0.4459
 1841SOL    HW217160   0.410   2.867   5.379 -0.9692  3.1647  1.0657
 1842SOL     OW17161   3.268   2.309   5.310 -0.2970  0.0918  0.2969
 1842SOL    HW117162   3.189   2.256   5.327 -0.2089 -0.3255 -0.6026
 1842SOL    HW217163   3.290   2.326   5.401  0.5532  0.5431  0.0029
 1843SOL     OW17164   3.198   1.907   1.871 -0.0621  0.1922  0.6338
 1843SOL    HW117165   3.264   1.966   1.908 -0.0614  0.7673 -0.2691
 1843SOL    HW217166   3.252   1.829   1.872 -0.3820 -0.0130  1.5890
 1844SOL     OW17167   2.102   3.169   5.189  0.0150  0.3988  0.0324
 1844SOL    HW117168   2.157   3.098   5.223 -2.6985 -1.7784 -0.0855
 1844SOL    HW217169   2.019   3.148   5.232  0.3541  0.0408  0.5146
 1845SOL     OW17170   0.181   1.490  12.372 -0.0669 -0.0916  0.0438
 1845SOL    HW117171   0.188   1.566  12.314 -0.0639 -1.0225 -1.1829
 1845SOL    HW217172   0.102   1.448  12.337 -0.7163  0.9655  0.2267
 1846SOL     OW17173   3.222   4.243   1.632 -0.4293  0.4616  0.1948
 1846SOL    HW117174   3.202   4.286   1.549  2.8132  1.1335 -0.2447
 1846SOL    HW217175   3.222   4.317   1.692 -1.3863 -0.1918  0.9983
 1847SOL     OW17176   0.814   1.845  15.236 -0.0666  0.3631  0.2294
 1847SOL    HW117177   0.815   1.785  15.311 -0.7660  1.4813  1.1417
 1847SOL    HW217178   0.875   1.802  15.176  0.9029  1.9373  0.1077
 1848SOL     OW17179   2.825   3.921   6.057 -0.7498 -0.2015 -0.2840
 1848SOL    HW117180   2.885   3.851   6.082  0.5645  0.9007 -0.3449
 1848SOL    HW217181   2.772   3.869   5.996  0.2772 -0.5281 -0.8829
 1849SOL     OW17182   3.531   4.285   1.475  0.5922  0.5846  0.4725
 1849SOL    HW117183   3.581   4.364   1.454  0.7614  0.6196  1.0182
 1849SOL    HW217184   3.507   4.275   1.382  1.9219 -1.0926  0.3207
 1850SOL     OW17185   0.678   1.385  13.982 -0.0523  0.3932 -0.3186
 1850SOL    HW117186   0.729   1.460  14.012  1.1498 -0.6128  0.1421
 1850SOL    HW217187   0.739   1.311  13.983  0.7731  1.0935  0.5221
 1851SOL     OW17188   4.574   1.055   6.666 -0.0274 -0.2051 -0.1179
 1851SOL    HW117189   4.536   0.968   6.668 -1.9190  0.5397 -4.1410
 1851SOL    HW217190   4.535   1.099   6.742 -0.3811  0.1765 -0.5146
 1852SOL     OW17191   0.719   3.514   2.117  0.3208 -0.6080 -0.2162
 1852SOL    HW117192   0.788   3.481   2.175  0.6737  0.5716  0.0341
 1852SOL    HW217193   0.647   3.527   2.179  0.5808  1.3763 -0.3198
 1853SOL     OW17194   2.524   0.044  10.183 -0.0732  0.2609 -0.0538
 1853SOL    HW117195   2.478   4.697  10.193 -0.6170  0.5788  0.1072
 1853SOL    HW217196   2.609   0.019  10.147  0.2902 -0.8663  1.5964
 1854SOL     OW17197   3.206   2.203   9.313 -0.3830  0.5396  0.4022
 1854SOL    HW117198   3.201   2.181   9.406 -0.6147  0.1221  0.2917
 1854SOL    HW217199   3.292   2.244   9.317 -0.0152 -0.3359  1.5257
 1855SOL     OW17200   2.899   3.694  16.884  0.4686 -0.4588  0.3457
 1855SOL    HW117201   2.834   3.757  16.853  0.2710  0.2501  2.2239
 1855SOL    HW217202   2.909   3.727  16.973  2.6535 -1.9474  0.6416
 1856SOL     OW17203   0.604   4.260   2.539 -0.0486 -0.3132 -0.4132
 1856SOL    HW117204   0.678   4.319   2.551  0.7960 -1.1886 -1.2930
 1856SOL    HW217205   0.635   4.171   2.528  1.2654 -0.1384  1.9995
 1857SOL     OW17206   3.557   0.221  13.123  0.0617  0.3513  0.1079
 1857SOL    HW117207   3.472   0.259  13.145 -0.0421 -0.8840  1.8930
 1857SOL    HW217208   3.558   0.145  13.181 -1.1826  0.1674 -0.1078
 1858SOL     OW17209   1.149   1.016   5.692  0.0148  0.0124 -0.2997
 1858SOL    HW117210   1.083   1.041   5.627  0.7417  2.4792 -0.0973
 1858SOL    HW217211   1.222   1.067   5.659  1.2178 -1.4189  0.1369
 1859SOL     OW17212   1.724   1.285   2.637 -0.1241  0.1306  0.0177
 1859SOL    HW117213   1.752   1.357   2.694  1.7710  1.5739 -2.7363
 1859SOL    HW217214   1.788   1.303   2.568  1.6778 -2.3947  1.0249
 1860SOL     OW17215   4.224   0.126   5.321  0.7510 -0.4904 -0.7182
 1860SOL    HW117216   4.170   0.160   5.250 -0.9321 -2.0251 -0.1643
 1860SOL    HW217217   4.155   0.100   5.382  1.2975  0.7530  0.4227
 1861SOL     OW17218   4.010   4.324   8.761  0.2249  0.0040 -0.1529
 1861SOL    HW117219   4.019   4.386   8.833 -1.5326  1.1133 -0.8662
 1861SOL    HW217220   3.915   4.325   8.745  0.5152 -0.7108 -1.9603
 1862SOL     OW17221   3.709   2.038   3.886  0.3281  0.0252 -0.0132
 1862SOL    HW117222   3.731   2.052   3.794  0.9676 -0.9453 -0.0140
 1862SOL    HW217223   3.786   2.000   3.929  0.1365  1.0547  1.2187
 1863SOL     OW17224   4.072   1.322   3.352  0.2405  0.2639  1.4256
 1863SOL    HW117225   4.087   1.239   3.399 -0.5190 -0.2928  0.6891
 1863SOL    HW217226   4.065   1.293   3.261 -0.7723  1.0757  1.2426
 1864SOL     OW17227   1.886   1.917   5.872  0.3198 -0.3381  0.4289
 1864SOL    HW117228   1.960   1.948   5.821 -0.8902 -1.2687 -1.8832
 1864SOL    HW217229   1.850   2.002   5.898 -0.6789 -0.3557 -0.9338
 1865SOL     OW17230   1.474   2.872  15.459  0.4565  0.3068 -0.3673
 1865SOL    HW117231   1.424   2.856  15.539  0.5972  3.5434  0.3893
 1865SOL    HW217232   1.402   2.867  15.396  1.0912 -2.1145 -0.9099
 1866SOL     OW17233   1.836   0.820   5.594  0.2885 -0.1354 -0.5116
 1866SOL    HW117234   1.825   0.725   5.601 -1.1911  0.0091 -0.7326
 1866SOL    HW217235   1.903   0.845   5.657 -1.4282  0.7296  0.9670
 1867SOL     OW17236   1.550   0.069   8.049  0.5202  0.0901  0.4335
 1867SOL    HW117237   1.515   0.013   8.119  2.3504 -0.2092  1.1070
 1867SOL    HW217238   1.533   0.016   7.972 -0.9216 -1.5905  1.8912
 1868SOL     OW17239   0.881   4.685   2.787 -0.4051 -0.1735  0.2338
 1868SOL    HW117240   0.923   0.033   2.799 -2.0004  0.4342  1.5634
 1868SOL    HW217241   0.890   4.675   2.692  0.5595  1.7711  0.1120
 1869SOL     OW17242   4.063   2.272   0.463  0.5050  0.2337 -0.2163
 1869SOL    HW117243   4.157   2.289   0.450  0.8438 -1.6863 -0.2721
 1869SOL    HW217244   4.035   2.275   0.372  0.9871 -0.6438 -0.3955
 1870SOL     OW17245   0.679   4.297   4.947 -0.1327  0.3991  0.1692
 1870SOL    HW117246   0.632   4.374   4.913  1.3216  1.0332 -0.3828
 1870SOL    HW217247   0.603   4.244   4.969 -0.5174  0.6228 -0.6202
 1871SOL     OW17248   4.062   0.264   1.768 -0.4696 -0.4147 -0.0763
 1871SOL    HW117249   4.115   0.200   1.720 -1.1878 -0.8327 -0.3219
 1871SOL    HW217250   3.987   0.258   1.708 -1.6505  0.4746  1.3254
 1872SOL     OW17251   3.014   1.682   3.938 -0.5189  0.4267 -0.5363
 1872SOL    HW117252   2.981   1.693   4.028  1.3945  0.3004  0.1813
 1872SOL    HW217253   3.108   1.690   3.954 -0.4593  0.2047 -0.7789
 1873SOL     OW17254   0.038   1.743   8.919 -0.2764  0.0107  0.5444
 1873SOL    HW117255   4.689   1.759   8.961 -0.4156 -2.0102  1.0269
 1873SOL    HW217256   0.063   1.835   8.914  1.8512 -0.5206  1.5927
 1874SOL     OW17257   4.653   1.671   5.553 -0.1882 -0.2459  0.1250
 1874SOL    HW117258   4.682   1.582   5.573 -0.3093 -0.3414 -0.1200
 1874SOL    HW217259   4.558   1.668   5.563 -0.3246 -1.1422 -1.4853
 1875SOL     OW17260   0.841   1.099   9.477  0.2977 -0.2605  0.1332
 1875SOL    HW117261   0.749   1.083   9.460  1.5264 -1.1841 -5.5588
 1875SOL    HW217262   0.826   1.142   9.561  1.9078  0.9173 -0.1728
 1876SOL     OW17263   1.407   0.509   8.664  0.1343  0.0277 -0.3475
 1876SOL    HW117264   1.492   0.480   8.695 -0.7435 -0.8904  1.1844
 1876SOL    HW217265   1.349   0.449   8.711 -2.0905  3.6651  1.4956
 1877SOL     OW17266   2.773   3.644   3.910 -0.3814  0.4728 -0.8309
 1877SOL    HW117267   2.834   3.616   3.842 -1.5112 -2.2509 -0.7355
 1877SOL    HW217268   2.827   3.670   3.985  0.3986 -1.0894 -0.8535
 1878SOL     OW17269   2.576   0.045  10.832  0.5210  0.1605  0.7878
 1878SOL    HW117270   2.663   0.056  10.872  1.5064  0.5175 -1.4187
 1878SOL    HW217271   2.535   4.725  10.897 -0.9475  0.4823  0.1244
 1879SOL     OW17272   2.651   2.490  11.141  0.1906  0.0963  0.4052
 1879SOL    HW117273   2.726   2.509  11.196  1.1174  2.1096 -1.5453
 1879SOL    HW217274   2.615   2.578  11.124 -2.1967 -1.1298 -0.8606
 1880SOL     OW17275   4.622   2.115   1.949  0.2723 -0.2641  1.0350
 1880SOL    HW117276   4.548   2.143   2.002  1.4207  2.9769  0.9315
 1880SOL    HW217277   4.618   2.019   1.945  0.0261 -0.2239  0.1818
 1881SOL     OW17278   1.870   2.040  16.793  0.4506  0.1991 -0.1973
 1881SOL    HW117279   1.818   2.044  16.713  1.3652 -0.4313 -0.8138
 1881SOL    HW217280   1.886   2.133  16.811  0.2484  0.4366 -1.2621
 1882SOL     OW17281   4.463   4.435   3.973  1.3921  0.1935 -0.3670
 1882SOL    HW117282   4.537   4.390   3.933  1.2906 -0.9635  0.7622
 1882SOL    HW217283   4.416   4.476   3.901  1.7435 -0.6364 -1.0623
 1883SOL     OW17284   1.779   1.665   8.371  0.5353 -0.0286 -0.0375
 1883SOL    HW117285   1.760   1.751   8.407  0.4649  0.1899 -0.5962
 1883SOL    HW217286   1.729   1.610   8.432  0.8862  0.2521  0.5022
 1884SOL     OW17287   0.351   3.788   4.821  0.1789  0.0920 -0.2989
 1884SOL    HW117288   0.289   3.836   4.876  0.8061  1.8086 -1.0930
 1884SOL    HW217289   0.302   3.712   4.789  2.5712 -1.3173 -0.5476
 1885SOL     OW17290   1.715   0.972  13.618  0.2634 -0.7731 -0.0664
 1885SOL    HW117291   1.638   0.925  13.651 -0.7498  0.0275 -1.2944
 1885SOL    HW217292   1.687   1.063  13.614 -1.8443 -1.4388 -0.4449
 1886SOL     OW17293   4.338   4.025  12.380  0.1285 -0.2521  0.1740
 1886SOL    HW117294   4.360   4.024  12.287 -1.6377 -2.2222 -0.2212
 1886SOL    HW217295   4.248   3.997  12.367  0.2895 -0.3818 -0.6571
 1887SOL     OW17296   4.723   0.189  12.734 -0.3029  0.3421 -0.3742
 1887SOL    HW117297   0.073   0.209  12.770 -1.2552  2.7346  0.5784
 1887SOL    HW217298   4.669   0.176  12.812 -0.8958 -2.2646 -1.2062
 1888SOL     OW17299   3.504   2.723   4.412 -0.3666 -0.0846 -0.2329
 1888SOL    HW117300   3.408   2.723   4.409 -0.4463 -0.1859  2.3833
 1888SOL    HW217301   3.532   2.632   4.409 -0.5520 -0.1141 -1.0495
 1889SOL     OW17302   0.505   1.906   4.785  0.5476 -0.6787  0.3936
 1889SOL    HW117303   0.425   1.958   4.791  0.4566 -0.8533  0.6679
 1889SOL    HW217304   0.509   1.856   4.867 -1.7258  0.1429  1.0103
 1890SOL     OW17305   2.516   3.432   9.643 -0.1683  0.0208  0.1904
 1890SOL    HW117306   2.530   3.527   9.639  0.7038 -0.0932  0.5877
 1890SOL    HW217307   2.575   3.401   9.712  0.7415  0.6645 -0.2994
 1891SOL     OW17308   4.177   2.153   3.680  0.2763 -0.1396  0.0190
 1891SOL    HW117309   4.155   2.246   3.670  5.4576  1.0537 -0.0689
 1891SOL    HW217310   4.256   2.158   3.733 -1.0026 -0.4543  1.9802
 1892SOL     OW17311   2.148   2.114  12.107 -0.0218 -0.3971  0.3003
 1892SOL    HW117312   2.163   2.160  12.190  0.1851  0.3428 -0.1536
 1892SOL    HW217313   2.136   2.021  12.127  0.8951 -1.1755 -2.7990
 1893SOL     OW17314   0.074   3.479   4.029 -0.2161 -0.2011  0.2050
 1893SOL    HW117315   4.718   3.497   4.042  0.7016  2.0594  3.6487
 1893SOL    HW217316   0.081   3.389   4.060  1.4330  0.5508  2.0621
 1894SOL     OW17317   0.772   3.849  12.250 -0.2028 -0.2132  0.0335
 1894SOL    HW117318   0.715   3.914  12.210  0.4683 -0.9070 -2.0776
 1894SOL    HW217319   0.724   3.820  12.328  0.0634 -1.5700 -0.3023
 1895SOL     OW17320   1.564   0.003  10.347 -0.2584 -0.2194  0.2409
 1895SOL    HW117321   1.608   0.073  10.395 -0.3546 -0.2185  0.3272
 1895SOL    HW217322   1.632   4.680  10.314  0.7896  0.7172  0.7165
 1896SOL     OW17323   2.530   3.862   7.887  0.0557 -0.0474 -0.3356
 1896SOL    HW117324   2.457   3.817   7.929 -1.2370  2.6943  0.3412
 1896SOL    HW217325   2.550   3.924   7.957  2.2593 -1.8589  0.6584
 1897SOL     OW17326   2.971   2.330   6.620 -0.3707  0.0847 -0.4820
 1897SOL    HW117327   3.028   2.342   6.695  0.4455  0.6656 -1.1914
 1897SOL    HW217328   2.886   2.346   6.661 -1.4968 -3.9463 -1.1967
 1898SOL     OW17329   1.728   2.861  16.162  0.0056  0.1477 -0.4308
 1898SOL    HW117330   1.652   2.815  16.198  1.1645 -2.4325 -1.2827
 1898SOL    HW217331   1.698   2.952  16.160  1.0962  0.5369  2.0560
 1899SOL     OW17332   2.729   4.717  16.970 -0.4725  0.2403 -0.1641
 1899SOL    HW117333   2.761   0.070  16.964 -1.5894  0.6103 -0.6725
 1899SOL    HW217334   2.809   4.669  16.993 -1.7524 -1.1673  1.4264
 1900SOL     OW17335   2.365   0.731   3.843  0.4868 -0.4976  0.0953
 1900SOL    HW117336   2.340   0.681   3.921  1.4071 -1.7594 -0.4211
 1900SOL    HW217337   2.439   0.781   3.879 -2.0811  2.1331  1.6886
 1901SOL     OW17338   0.513   1.427  15.267  0.3370  0.3057 -0.3637
 1901SOL    HW117339   0.534   1.414  15.174 -2.8008 -1.2390 -0.8519
 1901SOL    HW217340   0.419   1.410  15.269  0.1469  1.1456 -2.1172
 1902SOL     OW17341   2.655   2.866  11.697  0.0433  0.3464  0.0946
 1902SOL    HW117342   2.675   2.774  11.716  0.4444  0.2417 -0.8447
 1902SOL    HW217343   2.652   2.894  11.789  1.0924 -1.9887  0.8370
 1903SOL     OW17344   4.720   3.088   1.724 -0.3641  0.4024 -0.2905
 1903SOL    HW117345   0.076   3.066   1.739 -0.1692  0.3790 -1.5513
 1903SOL    HW217346   4.702   3.176   1.756 -0.4843  0.3782 -0.2918
 1904SOL     OW17347   2.201   4.156   4.736 -0.1649  0.0803 -0.0028
 1904SOL    HW117348   2.115   4.133   4.771  0.2635 -0.5550  0.6422
 1904SOL    HW217349   2.232   4.193   4.819 -3.5073  2.4644  0.1867
 1905SOL     OW17350   3.766   2.131   5.640  0.5273 -0.3730 -0.7052
 1905SOL    HW117351   3.696   2.187   5.608  0.6943 -0.4549 -1.2104
 1905SOL    HW217352   3.779   2.099   5.551  0.4975  1.2443 -1.2935
 1906SOL     OW17353   2.643   3.590  13.405  0.1982 -1.2391  0.3984
 1906SOL    HW117354   2.566   3.638  13.436  0.7827 -1.1762  1.7436
 1906SOL    HW217355   2.650   3.504  13.445  2.3407 -0.6011  1.4281
 1907SOL     OW17356   1.589   3.300   8.563 -0.2115 -0.9590 -0.1906
 1907SOL    HW117357   1.582   3.286   8.657 -0.5559 -0.5314 -0.1519
 1907SOL    HW217358   1.615   3.391   8.547  0.9620 -1.0886  1.0088
 1908SOL     OW17359   1.248   0.227   1.254  0.0833  0.6737  0.1821
 1908SOL    HW117360   1.251   0.303   1.196 -1.0855 -0.0055 -0.7776
 1908SOL    HW217361   1.310   0.164   1.219 -0.5312  0.9451 -1.3716
 1909SOL     OW17362   3.676   0.114   2.656  0.1712  0.5120 -0.8507
 1909SOL    HW117363   3.606   0.094   2.718 -1.6231  2.5455 -2.2241
 1909SOL    HW217364   3.634   0.173   2.594  0.9415 -0.5487 -2.3754
 1910SOL     OW17365   3.505   2.824  11.919  0.0985 -0.1473  0.1104
 1910SOL    HW117366   3.560   2.820  11.841  1.2879 -0.7417  0.9835
 1910SOL    HW217367   3.572   2.790  11.978 -0.7578 -1.2974  0.4222
 1911SOL     OW17368   2.134   1.049   9.158  0.3090 -0.2233  0.4516
 1911SOL    HW117369   2.196   0.979   9.176 -2.0675 -2.4766 -0.1832
 1911SOL    HW217370   2.059   0.993   9.137 -1.4210  1.4568  2.1153
 1912SOL     OW17371   0.182   2.499   8.289 -0.1256 -0.0489  0.0738
 1912SOL    HW117372   0.231   2.418   8.276 -2.7097 -1.7337  0.8907
 1912SOL    HW217373   0.124   2.470   8.359  2.9293 -0.6989  2.3167
 1913SOL     OW17374   1.256   3.435   4.994 -0.2681 -0.4314  0.1158
 1913SOL    HW117375   1.260   3.508   4.932 -0.3155 -1.6110 -1.2552
 1913SOL    HW217376   1.242   3.360   4.936  1.6814 -0.8316  0.1713
 1914SOL     OW17377   4.205   3.325   3.280 -0.6535 -0.1393  0.6137
 1914SOL    HW117378   4.161   3.401   3.242  0.4470  0.2440  0.0987
 1914SOL    HW217379   4.143   3.253   3.271  1.0963 -1.4889 -0.5653
 1915SOL     OW17380   3.515   4.726  11.729 -0.3318  0.7379 -0.0159
 1915SOL    HW117381   3.569   4.697  11.803 -0.5054  2.2525  0.7073
 1915SOL    HW217382   3.445   4.660  11.726 -1.0039  1.3068  3.2205
 1916SOL     OW17383   0.280   2.419  15.511  0.9924  0.7377 -0.1053
 1916SOL    HW117384   0.194   2.459  15.513  0.5894 -0.2235  1.6520
 1916SOL    HW217385   0.298   2.396  15.420  1.8677 -1.7557  0.6946
 1917SOL     OW17386   4.322   0.700  12.352 -0.1354  0.0025 -0.3119
 1917SOL    HW117387   4.283   0.740  12.275 -1.7706 -1.1835 -0.0980
 1917SOL    HW217388   4.412   0.697  12.319 -0.1540  3.1704 -0.6379
 1918SOL     OW17389   3.130   4.085   3.186 -0.2758  0.3785  0.0004
 1918SOL    HW117390   3.127   3.990   3.194  0.5534  0.2835 -0.7819
 1918SOL    HW217391   3.045   4.099   3.145 -0.3627  0.3620  0.1750
 1919SOL     OW17392   0.647   3.071   4.630  0.2547  0.1116  0.0258
 1919SOL    HW117393   0.634   3.154   4.584 -1.8410  0.2623  0.8869
 1919SOL    HW217394   0.558   3.041   4.643 -0.1910  0.8157 -1.4023
 1920SOL     OW17395   0.697   2.723   8.671 -0.8449 -0.0241  0.4777
 1920SOL    HW117396   0.663   2.745   8.758  0.4095  0.6389  0.7950
 1920SOL    HW217397   0.615   2.700   8.628  0.5360 -0.2404 -2.0276
 1921SOL     OW17398   4.176   0.571  13.908 -0.9002  0.6494  0.3657
 1921SOL    HW117399   4.087   0.554  13.939  0.7452 -3.9716  2.5877
 1921SOL    HW217400   4.179   0.541  13.817  0.3960 -0.5052  0.7786
 1922SOL     OW17401   4.047   2.495  14.878 -0.5270  0.3590 -0.0065
 1922SOL    HW117402   4.028   2.568  14.820 -3.5431 -0.3294  0.0778
 1922SOL    HW217403   4.137   2.515  14.900 -1.2408  1.3182  2.0622
 1923SOL     OW17404   2.306   3.428   7.831 -0.1136  0.6225  0.5678
 1923SOL    HW117405   2.239   3.404   7.768  0.5527 -0.7050  0.3621
 1923SOL    HW217406   2.309   3.520   7.805 -0.1290  0.6167  0.5459
 1924SOL     OW17407   1.989   1.523   9.609  0.2173 -0.0491  0.2753
 1924SOL    HW117408   1.937   1.491   9.536  0.5889  1.6689 -0.7278
 1924SOL    HW217409   2.030   1.446   9.649  0.5307 -0.7324 -1.3782
 1925SOL     OW17410   0.559   1.806   7.019  0.3703  0.3414 -0.5574
 1925SOL    HW117411   0.632   1.843   6.970  2.1207 -1.1889  0.8984
 1925SOL    HW217412   0.602   1.730   7.059  1.0847  0.8497 -0.3677
 1926SOL     OW17413   0.456   4.545   6.654  0.3191  0.0342  0.1794
 1926SOL    HW117414   0.372   4.591   6.660 -0.0709 -0.8242  1.4488
 1926SOL    HW217415   0.424   4.455   6.658  0.8277 -0.2199 -1.8200
 1927SOL     OW17416   0.997   4.118   7.623  0.0103  0.1951  0.0299
 1927SOL    HW117417   0.956   4.033   7.607  0.2514 -0.3631  2.4046
 1927SOL    HW217418   0.933   4.166   7.674  0.2343 -0.0908  0.5830
 1928SOL     OW17419   2.875   3.060   8.207  0.0792  0.2495  0.3140
 1928SOL    HW117420   2.837   3.047   8.120  1.9564 -0.9918 -0.3185
 1928SOL    HW217421   2.928   2.981   8.204  0.3769  0.2626  4.5883
 1929SOL     OW17422   3.952   3.081  16.466 -0.0057  0.3043 -0.0737
 1929SOL    HW117423   3.874   3.074  16.520 -0.2618 -0.0667 -0.4944
 1929SOL    HW217424   3.970   3.174  16.480 -2.5288  0.8384 -0.5317
 1930SOL     OW17425   3.269   2.463   8.820 -0.0883  0.4044 -0.2659
 1930SOL    HW117426   3.198   2.399   8.828  1.6725 -1.7681 -1.9387
 1930SOL    HW217427   3.321   2.416   8.754  0.3379  0.9489 -0.3212
 1931SOL     OW17428   0.064   3.392   3.690 -0.3100  0.5268 -0.1077
 1931SOL    HW117429   4.722   3.417   3.739 -1.3976 -0.6819 -1.2374
 1931SOL    HW217430   0.128   3.456   3.722 -0.6928  0.3982  0.9444
 1932SOL     OW17431   4.271   2.069  14.744  0.1813 -0.0849 -0.2150
 1932SOL    HW117432   4.260   2.114  14.828 -0.1972 -0.0645 -0.2756
 1932SOL    HW217433   4.324   2.139  14.706  2.2338 -1.6141 -0.1330
 1933SOL     OW17434   1.494   2.807   6.493  0.1861 -0.5973 -0.3608
 1933SOL    HW117435   1.464   2.753   6.420  2.4774 -1.7825 -0.4319
 1933SOL    HW217436   1.585   2.826   6.470 -0.1625  0.4651 -0.8406
 1934SOL     OW17437   0.938   1.736   9.062  0.0376  0.0295  0.3510
 1934SOL    HW117438   0.988   1.716   9.141 -1.9845 -0.9382  1.3741
 1934SOL    HW217439   0.856   1.777   9.088  0.1018 -0.4613  1.3251
 1935SOL     OW17440   4.556   0.575   5.003 -0.0786  0.3992 -0.0495
 1935SOL    HW117441   4.618   0.535   5.064  0.2077  0.0545 -0.5672
 1935SOL    HW217442   4.526   0.500   4.953  0.6114  0.1683 -0.1236
 1936SOL     OW17443   1.840   3.641   3.056 -0.0006  0.0497 -0.2513
 1936SOL    HW117444   1.887   3.705   3.003 -0.0468  0.7419  0.5361
 1936SOL    HW217445   1.775   3.606   2.995 -0.7080  0.3782  0.3042
 1937SOL     OW17446   2.178   3.651   2.171  0.7608 -0.5576  0.4624
 1937SOL    HW117447   2.083   3.661   2.172  0.5876 -2.3300  1.7924
 1937SOL    HW217448   2.188   3.555   2.172  0.4781 -0.5931 -1.0309
 1938SOL     OW17449   0.339   4.305   3.097 -0.3703  0.1783  0.3067
 1938SOL    HW117450   0.308   4.256   3.021  0.7565 -0.5876  0.3404
 1938SOL    HW217451   0.416   4.251   3.113  1.4081  2.9935  1.2098
 1939SOL     OW17452   3.519   1.379   2.695  0.3608  0.2683 -0.2969
 1939SOL    HW117453   3.480   1.384   2.608 -0.0637  0.3888 -0.0987
 1939SOL    HW217454   3.491   1.462   2.734  0.1825 -0.6188  1.4409
 1940SOL     OW17455   4.224   0.967   2.341 -0.1372  0.3500 -0.2528
 1940SOL    HW117456   4.209   0.888   2.288 -0.4781 -1.4800  2.5876
 1940SOL    HW217457   4.149   1.018   2.312 -0.2854  0.9327  1.2075
 1941SOL     OW17458   4.393   4.649   6.138  0.4281 -0.0845  0.4105
 1941SOL    HW117459   4.335   4.721   6.162  1.9862  0.9717  0.9869
 1941SOL    HW217460   4.479   4.690   6.133  0.3427  0.2214  1.4388
 1942SOL     OW17461   0.850   3.963  12.617 -0.4296 -0.6159  0.2017
 1942SOL    HW117462   0.902   4.018  12.559 -1.3798 -0.4075 -0.4637
 1942SOL    HW217463   0.785   3.918  12.562  0.7152 -1.6603 -0.3063
 1943SOL     OW17464   3.406   3.407   6.513 -0.1449  0.2034 -0.1737
 1943SOL    HW117465   3.389   3.335   6.573  1.8628 -0.4809 -0.4326
 1943SOL    HW217466   3.316   3.422   6.483 -0.5870 -1.1371  0.5232
 1944SOL     OW17467   3.788   1.178   2.651  0.0168 -0.4479  0.5051
 1944SOL    HW117468   3.728   1.249   2.627 -0.7498 -1.3050 -0.0737
 1944SOL    HW217469   3.757   1.117   2.584 -0.1958 -0.6862  0.8214
 1945SOL     OW17470   4.701   0.803   6.175  0.1734  0.0873 -0.4696
 1945SOL    HW117471   4.653   0.843   6.247 -1.1049 -0.4362 -1.0299
 1945SOL    HW217472   4.640   0.734   6.147  0.3938 -0.1923 -0.2633
 1946SOL     OW17473   4.046   1.192   5.895  0.6403 -0.6435  0.2561
 1946SOL    HW117474   4.000   1.265   5.936  1.7526  0.1535  0.0983
 1946SOL    HW217475   4.135   1.224   5.878 -0.2744 -1.3878 -6.0835
 1947SOL     OW17476   2.305   2.487   4.611 -0.1366 -0.2755  0.0189
 1947SOL    HW117477   2.379   2.444   4.653 -0.1082 -0.2484 -0.0038
 1947SOL    HW217478   2.237   2.485   4.679 -0.5536  1.4688 -0.3473
 1948SOL     OW17479   3.874   0.701  12.676  0.0377 -0.6855 -0.5597
 1948SOL    HW117480   3.846   0.700  12.767  0.0379 -0.8697 -0.5604
 1948SOL    HW217481   3.890   0.606  12.669 -0.0020 -0.6418 -1.2112
 1949SOL     OW17482   0.438   1.148   2.431 -0.3913  0.0681  0.2996
 1949SOL    HW117483   0.370   1.215   2.430 -1.2244 -0.7903 -0.6376
 1949SOL    HW217484   0.399   1.084   2.372 -1.4568 -0.3952  1.5210
 1950SOL     OW17485   1.613   3.718   3.519  0.2025 -0.0516 -0.3159
 1950SOL    HW117486   1.692   3.663   3.512 -0.7020 -1.3105 -0.5122
 1950SOL    HW217487   1.587   3.709   3.610 -1.4000  3.5063 -0.4490
 1951SOL     OW17488   3.359   2.915   0.909 -0.3938 -0.0942  0.1713
 1951SOL    HW117489   3.365   2.850   0.839  0.9898  1.7088 -1.3897
 1951SOL    HW217490   3.452   2.936   0.916 -0.1947 -0.1453 -2.0844
 1952SOL     OW17491   2.297   0.032   5.976  0.0068  0.9208  0.2327
 1952SOL    HW117492   2.271   0.013   6.067  0.1588 -0.4287  0.0044
 1952SOL    HW217493   2.369   0.094   5.988  0.5905  1.2834 -5.2118
 1953SOL     OW17494   0.459   2.519  14.944  0.1987 -0.0279  0.1011
 1953SOL    HW117495   0.456   2.536  15.038  1.8106 -0.2339  0.1902
 1953SOL    HW217496   0.542   2.560  14.919 -0.3690  1.0080 -0.0880
 1954SOL     OW17497   3.542   0.600  15.813 -0.3156 -0.0114  0.8752
 1954SOL    HW117498   3.469   0.580  15.871 -1.7526  1.7160 -0.3303
 1954SOL    HW217499   3.610   0.559  15.867  0.4990 -1.1903 -1.0514
 1955SOL     OW17500   0.668   3.043  15.990 -0.3890  0.0674 -0.3802
 1955SOL    HW117501   0.741   3.100  15.965 -1.0468  0.7757 -0.6771
 1955SOL    HW217502   0.688   2.972  15.929 -2.8233  0.8630 -2.0997
 1956SOL     OW17503   1.304   0.045  10.443  0.5975 -0.3824  0.4791
 1956SOL    HW117504   1.302   0.099  10.522  0.9132 -2.2850  1.7908
 1956SOL    HW217505   1.395   0.048  10.412  0.2533 -1.2913 -0.6231
 1957SOL     OW17506   4.416   4.540  10.302 -0.0795 -0.6265  0.0527
 1957SOL    HW117507   4.412   4.566  10.210  1.4415  0.0595  0.1876
 1957SOL    HW217508   4.354   4.601  10.343  2.4214  2.1120 -0.2730
 1958SOL     OW17509   4.222   0.248   3.025 -0.6117  0.4286 -0.4705
 1958SOL    HW117510   4.135   0.233   2.989 -0.9546  0.4389  0.3807
 1958SOL    HW217511   4.225   0.181   3.094  0.5357  0.1691 -0.7557
 1959SOL     OW17512   1.580   1.833   4.120  0.4079  0.2189  0.1639
 1959SOL    HW117513   1.674   1.844   4.105  0.1813  1.6126 -0.2411
 1959SOL    HW217514   1.580   1.861   4.211  4.0800  2.6561 -0.5558
 1960SOL     OW17515   4.319   0.173   7.245  0.3535 -0.1798  0.0583
 1960SOL    HW117516   4.226   0.152   7.243  0.5451 -0.9626 -0.8876
 1960SOL    HW217517   4.316   0.268   7.259  2.7389 -0.0546 -0.2019
 1961SOL     OW17518   3.081   2.316  12.549  0.0564 -0.2077 -0.0348
 1961SOL    HW117519   3.153   2.286  12.604  1.3559  1.2944 -0.9064
 1961SOL    HW217520   3.042   2.229  12.556  2.6436 -1.2681  1.3975
 1962SOL     OW17521   3.270   2.897   2.453 -0.0608 -0.2723 -0.4332
 1962SOL    HW117522   3.286   2.812   2.493  2.9587  0.6706  0.3962
 1962SOL    HW217523   3.317   2.889   2.370 -0.2924  2.6712 -0.8581
 1963SOL     OW17524   3.994   4.191  11.858  0.4101  0.2499 -0.7311
 1963SOL    HW117525   3.978   4.153  11.772 -2.4869 -2.0314  0.8035
 1963SOL    HW217526   4.037   4.124  11.911  0.3923  1.0261  0.2732
 1964SOL     OW17527   0.236   3.904   6.956  0.5617  0.2800  0.8645
 1964SOL    HW117528   0.140   3.905   6.953  0.5793 -2.7270 -1.2522
 1964SOL    HW217529   0.245   3.880   7.048  1.0099 -1.4575  0.3820
 1965SOL     OW17530   0.869   3.468   1.094 -0.6766  0.2779 -0.1243
 1965SOL    HW117531   0.909   3.471   1.008 -1.0105 -0.0214 -0.2884
 1965SOL    HW217532   0.934   3.497   1.158  2.1179 -2.4422 -1.7774
 1966SOL     OW17533   3.338   4.294   3.453  0.1234 -0.4521 -0.0219
 1966SOL    HW117534   3.357   4.332   3.539  1.1819 -0.0446 -0.4343
 1966SOL    HW217535   3.289   4.213   3.468  0.7920 -1.1008 -1.3378
 1967SOL     OW17536   3.724   4.298   8.504 -0.2775  0.0712 -0.6376
 1967SOL    HW117537   3.781   4.371   8.529 -0.6601  0.1351  0.0370
 1967SOL    HW217538   3.640   4.343   8.493 -0.0774  0.0636 -2.1621
 1968SOL     OW17539   1.630   0.422  14.147  0.5176  0.3520 -0.4222
 1968SOL    HW117540   1.675   0.342  14.121 -1.3879 -0.8238 -0.0935
 1968SOL    HW217541   1.611   0.390  14.235  0.1918  0.1331 -0.5734
 1969SOL     OW17542   1.678   2.915   1.651 -0.2371 -0.3698  0.7006
 1969SOL    HW117543   1.587   2.903   1.623  0.3498 -0.7674 -1.0360
 1969SOL    HW217544   1.719   2.868   1.578  0.0035  1.2403 -0.1981
 1970SOL     OW17545   0.991   0.851  10.787 -0.4158 -0.4092  0.1788
 1970SOL    HW117546   0.901   0.865  10.816 -0.4248 -0.3004  0.0985
 1970SOL    HW217547   0.997   0.757  10.802  2.3464 -0.1266  0.8715
 1971SOL     OW17548   3.807   0.514   6.405  0.0341 -0.6285 -0.0697
 1971SOL    HW117549   3.800   0.604   6.374 -0.8279 -0.3281  0.9763
 1971SOL    HW217550   3.884   0.494   6.353 -0.4027 -2.0544 -0.1717
 1972SOL     OW17551   0.101   2.462   5.668  0.2794  0.1967 -0.5267
 1972SOL    HW117552   0.175   2.459   5.728  0.7549  0.2671 -1.1064
 1972SOL    HW217553   0.070   2.373   5.650 -0.2468  0.7052 -2.1888
 1973SOL     OW17554   0.327   2.911   3.821  0.4746  0.6947 -0.1897
 1973SOL    HW117555   0.333   2.816   3.809  0.8459  0.5527  1.1576
 1973SOL    HW217556   0.231   2.917   3.821  0.4131 -0.1863 -1.4230
 1974SOL     OW17557   4.601   3.492   6.190 -0.1140  0.1333 -0.5793
 1974SOL    HW117558   4.568   3.578   6.214  2.1617  0.6104  0.8263
 1974SOL    HW217559   4.556   3.425   6.240  0.9581 -1.1042 -1.2776
 1975SOL     OW17560   3.889   2.306   8.473  0.4904 -0.4586 -0.2523
 1975SOL    HW117561   3.883   2.219   8.432 -0.6757  0.0452 -1.1351
 1975SOL    HW217562   3.882   2.355   8.391  1.1399  0.1144  0.0331
 1976SOL     OW17563   4.634   3.970   7.791  0.1384 -0.2255  0.2371
 1976SOL    HW117564   4.573   4.037   7.761  1.0228  1.3155  1.8798
 1976SOL    HW217565   4.587   3.932   7.866 -0.3931  2.4630  1.2683
 1977SOL     OW17566   4.395   2.219   2.097 -0.3626 -0.0449  0.0682
 1977SOL    HW117567   4.380   2.230   2.191 -0.2521  0.2080  0.0585
 1977SOL    HW217568   4.310   2.185   2.070  0.5086 -2.3660  0.2886
 1978SOL     OW17569   1.118   1.088   9.338  0.3365 -0.2785 -0.3288
 1978SOL    HW117570   1.085   1.002   9.312 -0.9940 -0.6415  2.4867
 1978SOL    HW217571   1.042   1.121   9.387 -0.5634  0.7647 -2.4447
 1979SOL     OW17572   0.527   1.665  17.291 -0.3705 -0.4022 -0.1899
 1979SOL    HW117573   0.575   1.660  17.374 -0.7958  0.5875  0.1109
 1979SOL    HW217574   0.600   1.676  17.230  0.5527 -1.1976  0.7643
 1980SOL     OW17575   0.012   1.002  13.485 -0.2975 -0.3806 -0.4169
 1980SOL    HW117576   4.666   1.011  13.437 -0.8439 -1.2224  0.3431
 1980SOL    HW217577   4.735   0.923  13.537 -0.7633  0.4641  0.7576
 1981SOL     OW17578   0.706   2.777   7.370 -0.0618  0.3650  0.0970
 1981SOL    HW117579   0.785   2.731   7.400  0.2474 -0.1490 -1.5405
 1981SOL    HW217580   0.722   2.813   7.283 -1.6452  0.8075 -0.0030
 1982SOL     OW17581   2.666   3.972   9.138 -0.0942  0.2118  0.3738
 1982SOL    HW117582   2.676   4.066   9.119 -1.6994  0.7082  2.0443
 1982SOL    HW217583   2.756   3.941   9.148 -0.1022 -0.2044 -0.8071
 1983SOL     OW17584   2.020   0.534   4.492  0.4323 -0.2995  0.1785
 1983SOL    HW117585   1.995   0.560   4.403 -0.7307  1.1585  0.9360
 1983SOL    HW217586   1.958   0.461   4.497  1.0151 -0.6815  1.7260
 1984SOL     OW17587   1.626   3.881   4.949  0.3619  0.0347  0.1906
 1984SOL    HW117588   1.608   3.821   5.022 -1.1665  2.2263  1.5875
 1984SOL    HW217589   1.718   3.889   4.971  0.0147  0.7053  1.3752
 1985SOL     OW17590   3.568   2.833   1.841  0.5324 -0.0388  0.1575
 1985SOL    HW117591   3.643   2.889   1.862  1.2158 -1.5010  1.5446
 1985SOL    HW217592   3.519   2.896   1.788 -0.5642 -1.1309 -0.1084
 1986SOL     OW17593   1.651   1.687   7.632  0.2056  0.4033 -0.4454
 1986SOL    HW117594   1.563   1.720   7.648  0.5589  1.5860 -0.8817
 1986SOL    HW217595   1.694   1.773   7.626  1.7795 -0.3402  0.0997
 1987SOL     OW17596   4.596   0.672   0.223 -0.4762 -0.3664 -0.0489
 1987SOL    HW117597   4.567   0.587   0.190 -1.2956  0.1280 -0.6029
 1987SOL    HW217598   4.607   0.716   0.139  2.1617  1.4745  1.2472
 1988SOL     OW17599   0.574   1.895   2.829 -0.2823  0.1060 -0.4349
 1988SOL    HW117600   0.537   1.944   2.901  0.9481  2.2066 -1.2455
 1988SOL    HW217601   0.666   1.897   2.855  0.3223 -2.4767 -2.2964
 1989SOL     OW17602   0.068   1.782   2.817  0.7825 -0.3191  0.0729
 1989SOL    HW117603   4.726   1.815   2.862  0.3725  1.1314 -1.7266
 1989SOL    HW217604   0.127   1.815   2.885  1.9453  1.4288 -1.8060
 1990SOL     OW17605   2.027   0.383   3.410 -0.0912 -0.4807  0.0492
 1990SOL    HW117606   1.935   0.365   3.430 -0.1280 -1.5448 -1.1274
 1990SOL    HW217607   2.052   0.312   3.351  0.1109 -0.3862  0.0230
 1991SOL     OW17608   2.511   0.401  11.092 -0.1998 -0.4266 -0.5239
 1991SOL    HW117609   2.511   0.313  11.130 -1.0960 -0.7911 -1.3671
 1991SOL    HW217610   2.508   0.375  11.000  0.7028  1.6591 -1.1440
 1992SOL     OW17611   4.730   0.166   8.131 -0.8948 -0.3855  0.2349
 1992SOL    HW117612   0.044   0.088   8.154  1.2143  1.4145  1.6572
 1992SOL    HW217613   4.653   0.124   8.093  0.3613 -1.7392 -0.8113
 1993SOL     OW17614   2.121   0.454   7.614  0.0241  0.2613  0.1121
 1993SOL    HW117615   2.168   0.521   7.665 -0.2687 -0.0745  0.8183
 1993SOL    HW217616   2.090   0.511   7.543 -0.4999  0.5906  0.6035
 1994SOL     OW17617   2.513   3.846  14.110 -0.2031  0.7090 -0.3774
 1994SOL    HW117618   2.459   3.924  14.110 -2.8021 -1.0767  0.8067
 1994SOL    HW217619   2.599   3.884  14.097  0.8015 -1.2688  0.4961
 1995SOL     OW17620   0.729   1.572   3.936 -0.3517 -0.0421 -0.2951
 1995SOL    HW117621   0.651   1.628   3.946 -0.5423 -0.6627  1.7673
 1995SOL    HW217622   0.718   1.528   3.852  1.2670 -3.0135  1.0441
 1996SOL     OW17623   3.730   2.544   1.160 -0.5031 -0.0476 -0.7317
 1996SOL    HW117624   3.731   2.502   1.246  0.9678  0.3484 -0.5502
 1996SOL    HW217625   3.679   2.498   1.094 -0.1404 -1.0528 -0.3118
 1997SOL     OW17626   1.777   1.062   7.914  0.2051 -0.0765 -0.7468
 1997SOL    HW117627   1.826   1.122   7.970 -0.3407 -2.7147  2.6029
 1997SOL    HW217628   1.738   1.122   7.850 -1.7152  0.7172  1.1394
 1998SOL     OW17629   3.289   1.908   8.491  0.3216 -0.4781 -0.3362
 1998SOL    HW117630   3.235   1.882   8.416 -0.1125  1.0462 -0.5544
 1998SOL    HW217631   3.229   1.973   8.527  1.4703  1.0682 -1.2419
 1999SOL     OW17632   4.169   4.161   0.610 -0.4429  0.3093 -0.2984
 1999SOL    HW117633   4.168   4.085   0.667  0.4741  2.0485  2.0205
 1999SOL    HW217634   4.157   4.235   0.669 -2.0968  0.7446 -1.1535
 2000SOL     OW17635   1.366   4.054  15.236 -0.1449  0.2305 -0.0382
 2000SOL    HW117636   1.275   4.048  15.266 -0.1610 -0.2544 -0.1843
 2000SOL    HW217637   1.415   3.997  15.295 -1.8650 -0.5202  0.6768
 2001SOL     OW17638   3.962   0.803   3.910 -0.4216 -0.2549  0.5295
 2001SOL    HW117639   3.941   0.816   4.003  1.3546 -0.6769  0.9748
 2001SOL    HW217640   4.038   0.747   3.922 -0.4561 -0.3640  0.2396
 2002SOL     OW17641   1.078   1.185   6.595 -0.0929 -0.2922 -0.2210
 2002SOL    HW117642   0.984   1.206   6.598 -0.4362 -1.5421 -1.8290
 2002SOL    HW217643   1.092   1.152   6.683  0.1061 -1.5453 -0.7270
 2003SOL     OW17644   1.589   3.518  17.472 -0.1259  0.1974 -0.7734
 2003SOL    HW117645   1.629   3.549  17.391 -1.6623  0.6730 -1.3478
 2003SOL    HW217646   1.662   3.466  17.505 -0.7320 -0.5458 -0.6013
 2004SOL     OW17647   4.291   2.712   5.956 -0.2626 -0.3807 -0.1663
 2004SOL    HW117648   4.210   2.762   5.955  0.1608  0.2952 -0.3961
 2004SOL    HW217649   4.346   2.789   5.942  0.3897 -0.6763  0.7276
 2005SOL     OW17650   0.010   1.251   9.025  0.1944 -0.2099  0.1882
 2005SOL    HW117651   4.676   1.277   8.967  1.3216 -0.2533 -1.1999
 2005SOL    HW217652   0.062   1.332   9.021  1.6997 -1.0763  1.8805
 2006SOL     OW17653   3.330   3.119   2.654 -0.9490  0.1563  0.0198
 2006SOL    HW117654   3.301   3.055   2.589  0.3809 -0.5013  0.0644
 2006SOL    HW217655   3.312   3.069   2.733  0.3867 -1.8686 -0.9573
 2007SOL     OW17656   1.490   3.712   8.703  0.3230 -0.2693  0.2329
 2007SOL    HW117657   1.582   3.736   8.694  0.1531 -0.3576 -1.5886
 2007SOL    HW217658   1.475   3.765   8.782 -0.3972  1.1133 -0.8308
 2008SOL     OW17659   0.161   1.915   8.611  0.2299  0.2648  0.5504
 2008SOL    HW117660   0.249   1.952   8.602  0.4455 -0.8401 -1.9763
 2008SOL    HW217661   0.183   1.827   8.641 -0.7103 -0.6713 -1.5660
 2009SOL     OW17662   1.226   3.268   5.663  0.3828  0.2880  0.1202
 2009SOL    HW117663   1.298   3.279   5.726  0.8266  0.7908 -0.4791
 2009SOL    HW217664   1.186   3.354   5.675 -0.4143  0.3860 -3.1240
 2010SOL     OW17665   0.038   1.884   4.336 -0.0130 -0.0859  0.3170
 2010SOL    HW117666   4.701   1.906   4.394  0.8048 -0.1470  1.3705
 2010SOL    HW217667   0.023   1.790   4.330 -0.0309 -0.0117 -0.6715
 2011SOL     OW17668   4.345   2.099   6.276 -0.1634 -0.0469  0.2045
 2011SOL    HW117669   4.359   2.061   6.189 -1.1462 -1.6150  0.7281
 2011SOL    HW217670   4.320   2.020   6.324  0.5949 -0.2721  0.2386
 2012SOL     OW17671   4.575   4.133   9.691 -0.1862  0.3877 -0.6991
 2012SOL    HW117672   4.614   4.192   9.757  0.9786 -0.3165 -0.7514
 2012SOL    HW217673   4.513   4.189   9.645 -0.7956 -0.4509 -0.8919
 2013SOL     OW17674   3.273   2.192  14.853 -0.0143  0.3309  1.0062
 2013SOL    HW117675   3.235   2.176  14.939  1.1645 -1.3762  1.1953
 2013SOL    HW217676   3.364   2.202  14.879 -0.4512  0.4882  2.4643
 2014SOL     OW17677   4.630   3.296   9.555  0.1296 -0.2635 -0.5008
 2014SOL    HW117678   4.583   3.278   9.637  0.6488 -0.0035 -0.1413
 2014SOL    HW217679   4.556   3.309   9.497  1.2316  2.5086 -1.2864
 2015SOL     OW17680   0.071   2.936   7.762  0.2700 -0.0915 -0.5527
 2015SOL    HW117681   0.165   2.937   7.741  0.4756 -1.2592  0.2716
 2015SOL    HW217682   0.059   3.029   7.779  1.0775 -0.1383  0.2733
 2016SOL     OW17683   0.782   2.721   2.977  0.4620  0.6883 -0.2738
 2016SOL    HW117684   0.813   2.776   3.049 -1.7856  1.3672  0.1695
 2016SOL    HW217685   0.699   2.758   2.947 -0.4862 -1.6930 -0.5868
 2017SOL     OW17686   3.154   0.658   1.801 -0.3193  0.0685 -0.1275
 2017SOL    HW117687   3.139   0.751   1.785 -2.0590 -0.2888 -0.5248
 2017SOL    HW217688   3.134   0.645   1.894 -1.6501 -1.7465 -0.6781
 2018SOL     OW17689   3.168   2.041   4.087 -0.0354  0.3068 -0.3173
 2018SOL    HW117690   3.093   2.029   4.028 -0.7101  0.2680  0.5613
 2018SOL    HW217691   3.240   2.076   4.034  1.0764 -0.6221  0.6029
 2019SOL     OW17692   3.695   3.159   4.247 -0.1021 -0.1435 -0.3084
 2019SOL    HW117693   3.640   3.196   4.178 -1.1695 -2.5843 -0.7897
 2019SOL    HW217694   3.744   3.095   4.196 -0.7446 -0.4757 -0.5159
 2020SOL     OW17695   1.438   0.334   1.546 -0.0423  0.0171  0.0854
 2020SOL    HW117696   1.363   0.392   1.535 -0.5125 -0.5270  0.3951
 2020SOL    HW217697   1.479   0.351   1.462 -2.4872 -0.0273 -1.1145
 2021SOL     OW17698   0.909   1.535  16.199  0.5600  0.1519 -0.0187
 2021SOL    HW117699   0.974   1.564  16.263  0.9722  1.0411 -0.8487
 2021SOL    HW217700   0.833   1.555  16.253 -0.0217  0.8431 -1.0808
 2022SOL     OW17701   3.067   0.599  12.022 -0.2363  0.2957 -0.2085
 2022SOL    HW117702   3.101   0.607  11.933 -0.9036 -0.7365 -0.5576
 2022SOL    HW217703   3.114   0.676  12.054  1.2986 -0.4544 -0.6939
 2023SOL     OW17704   3.200   3.771   1.885  0.3896  0.0277 -0.5489
 2023SOL    HW117705   3.271   3.792   1.824  0.1886  1.8805 -0.1414
 2023SOL    HW217706   3.224   3.793   1.975 -1.9330 -1.0741  0.3291
 2024SOL     OW17707   3.847   2.162  16.964 -0.1264 -0.0707 -0.1351
 2024SOL    HW117708   3.863   2.186  16.873 -0.4343 -3.0556 -0.9415
 2024SOL    HW217709   3.924   2.188  17.015  2.4387 -0.3517 -3.8888
 2025SOL     OW17710   3.958   0.948   6.939  0.4402 -0.2357  0.0419
 2025SOL    HW117711   3.921   0.989   6.861  0.0467 -1.2209 -0.2807
 2025SOL    HW217712   3.873   0.915   6.966  1.5446 -1.9237  1.4267
 2026SOL     OW17713   4.485   2.398   1.062  0.1127 -0.4098 -0.4377
 2026SOL    HW117714   4.392   2.380   1.078  0.3141  0.5566  1.8968
 2026SOL    HW217715   4.540   2.328   1.097  0.1408  0.0422  0.4315
 2027SOL     OW17716   1.975   1.861   9.587 -0.0075 -0.3242  0.4127
 2027SOL    HW117717   2.068   1.857   9.566  0.4847  1.7061  2.2092
 2027SOL    HW217718   1.929   1.822   9.513 -0.1295  0.5459  0.0331
 2028SOL     OW17719   0.929   4.195   5.227 -0.2349  0.6641  0.3096
 2028SOL    HW117720   0.932   4.243   5.145 -0.4994  1.3388  0.6916
 2028SOL    HW217721   0.886   4.116   5.195  2.6673 -1.4574  1.5664
 2029SOL     OW17722   1.572   4.500   7.513  0.3236 -0.3970 -0.1646
 2029SOL    HW117723   1.493   4.552   7.527  0.6710 -0.4538  1.8945
 2029SOL    HW217724   1.588   4.455   7.596  1.5531  1.2177  0.4755
 2030SOL     OW17725   4.639   4.580   8.720  0.5002 -0.1918 -0.1668
 2030SOL    HW117726   4.685   4.643   8.664 -0.3054  2.4178  2.1306
 2030SOL    HW217727   4.578   4.547   8.654  1.0044  0.8685 -1.1898
 2031SOL     OW17728   0.605   4.642   4.385  0.1101 -0.1159  0.3563
 2031SOL    HW117729   0.573   4.732   4.389  0.1017 -0.2006  2.3154
 2031SOL    HW217730   0.525   4.594   4.408 -0.2799 -0.3634 -1.4829
 2032SOL     OW17731   2.937   3.718   8.668 -0.3087 -0.2259  0.1671
 2032SOL    HW117732   2.988   3.669   8.733 -1.1017 -0.8325  0.3407
 2032SOL    HW217733   2.988   3.798   8.659  1.7562 -1.3649  1.6300
 2033SOL     OW17734   1.497   0.375   8.277  1.0882 -0.4487 -0.2020
 2033SOL    HW117735   1.544   0.361   8.194  0.7813 -3.9999  0.2284
 2033SOL    HW217736   1.553   0.336   8.344  0.2646 -0.5477  0.4277
 2034SOL     OW17737   4.404   1.147   5.207  0.2956  0.9441  0.1625
 2034SOL    HW117738   4.462   1.094   5.261  0.4471 -1.5955 -2.4355
 2034SOL    HW217739   4.447   1.153   5.121 -0.3370 -0.3083 -0.2548
 2035SOL     OW17740   2.719   2.851   3.727  0.3390  0.4858  0.3165
 2035SOL    HW117741   2.795   2.795   3.712  0.4618  0.4575  1.0437
 2035SOL    HW217742   2.676   2.793   3.789 -1.1267  0.6361 -0.5624
 2036SOL     OW17743   2.793   3.892   7.040  0.4806 -0.2637  0.0159
 2036SOL    HW117744   2.714   3.841   7.056  0.4244 -0.3738 -0.6204
 2036SOL    HW217745   2.856   3.820   7.032  0.4093 -0.2255 -0.8552
 2037SOL     OW17746   3.255   1.888   5.028  0.3641 -0.3455 -0.4930
 2037SOL    HW117747   3.327   1.842   5.070  0.7345  0.2300 -0.4945
 2037SOL    HW217748   3.287   1.978   5.033  1.5897 -0.6200 -3.1106
 2038SOL     OW17749   4.729   4.059  13.375  0.5039 -0.1296  0.3692
 2038SOL    HW117750   4.699   4.041  13.286 -1.5970  1.2025  0.7895
 2038SOL    HW217751   0.022   3.981  13.421  1.4092 -0.3889 -0.6599
 2039SOL     OW17752   4.687   2.129   1.698  0.3767 -0.1103  0.4166
 2039SOL    HW117753   4.653   2.044   1.670  3.0418 -0.9222 -0.4199
 2039SOL    HW217754   4.672   2.123   1.792 -3.6994 -2.2793 -0.3466
 2040SOL     OW17755   3.244   1.515  17.057  0.9613  0.3804  0.1356
 2040SOL    HW117756   3.208   1.523  16.969  2.7775 -0.3482 -0.6885
 2040SOL    HW217757   3.203   1.584  17.109  1.7876  0.6307  0.4625
 2041SOL     OW17758   4.032   1.445   2.623  0.6923  0.6410  0.7948
 2041SOL    HW117759   4.030   1.362   2.670 -4.0193  0.0569 -0.3657
 2041SOL    HW217760   3.985   1.496   2.688 -3.2400 -2.1798  0.2012
 2042SOL     OW17761   3.874   0.495  16.136  0.0856 -0.0698  0.0854
 2042SOL    HW117762   3.967   0.516  16.144  0.3100 -0.8569 -0.4990
 2042SOL    HW217763   3.868   0.556  16.063 -3.7214 -1.1957 -0.5236
 2043SOL     OW17764   3.967   2.912   4.328  0.0684 -0.1769  0.5528
 2043SOL    HW117765   3.898   2.860   4.368 -1.7237  0.5007 -1.6425
 2043SOL    HW217766   3.924   2.923   4.243  1.7632  0.1410 -0.2838
 2044SOL     OW17767   3.830   2.830   1.263 -0.0807 -0.6898  0.0957
 2044SOL    HW117768   3.821   2.907   1.319 -2.3379 -1.1807  0.4018
 2044SOL    HW217769   3.805   2.757   1.320  0.7807 -0.2664  1.0291
 2045SOL     OW17770   0.809   3.543   5.587 -0.3959 -0.5272  0.7180
 2045SOL    HW117771   0.807   3.527   5.681 -1.3318  0.7580  0.9071
 2045SOL    HW217772   0.844   3.632   5.576 -1.3289 -0.0966  1.2529
 2046SOL     OW17773   0.162   3.600   6.898  0.4219  0.4786  0.6001
 2046SOL    HW117774   0.205   3.622   6.981 -1.1811  1.0363  1.2814
 2046SOL    HW217775   0.208   3.645   6.828  0.1574 -0.9778 -0.5225
 2047SOL     OW17776   1.308   1.474   0.078 -0.3012  0.0126 -0.7155
 2047SOL    HW117777   1.401   1.496   0.074 -0.1981 -0.3231 -0.1958
 2047SOL    HW217778   1.300   1.405   0.145 -1.1324 -1.9074 -2.7916
 2048SOL     OW17779   0.690   0.191   6.697  0.6106 -0.5187  0.3893
 2048SOL    HW117780   0.696   0.282   6.726 -2.0369  0.0610 -0.8943
 2048SOL    HW217781   0.733   0.160   6.777  0.1155 -0.9773  0.4772
 2049SOL     OW17782   4.113   0.759   7.879  0.2735  0.3264 -0.0232
 2049SOL    HW117783   4.078   0.685   7.930  1.4941  0.2389  0.6867
 2049SOL    HW217784   4.190   0.777   7.933  1.2055 -3.1948 -0.1236
 2050SOL     OW17785   0.861   3.870   6.231 -0.4654 -0.3571  0.1639
 2050SOL    HW117786   0.816   3.953   6.216 -2.2201 -0.9929  1.8866
 2050SOL    HW217787   0.888   3.847   6.142 -0.7517 -1.2178  0.3051
 2051SOL     OW17788   3.937   1.649   8.865 -0.2494 -0.5859 -0.0773
 2051SOL    HW117789   3.964   1.560   8.889 -0.1372 -0.4998  0.1119
 2051SOL    HW217790   4.011   1.705   8.889 -1.1101 -0.0235  1.2716
 2052SOL     OW17791   0.300   0.909  14.022  0.0343 -0.4307  0.1818
 2052SOL    HW117792   0.294   0.900  13.926 -1.9517  0.4904  0.2093
 2052SOL    HW217793   0.268   0.998  14.032  3.1059  0.6644  0.1937
 2053SOL     OW17794   1.485   3.682   1.955  0.1695  0.1467 -0.7248
 2053SOL    HW117795   1.574   3.650   1.969  0.3756  1.3291  0.7293
 2053SOL    HW217796   1.483   3.778   1.951 -2.9120  0.1636  0.9056
 2054SOL     OW17797   4.613   4.698  15.598 -0.0171 -0.6248 -0.7205
 2054SOL    HW117798   4.592   4.641  15.523  1.9012 -0.0933 -1.6633
 2054SOL    HW217799   4.629   0.043  15.551  0.0549  1.3242  2.6732
 2055SOL     OW17800   3.795   3.480   8.614  0.3883 -0.1896  0.1088
 2055SOL    HW117801   3.837   3.529   8.685  1.6971 -1.9943  0.5867
 2055SOL    HW217802   3.865   3.490   8.549 -2.3036  0.6506 -2.6321
 2056SOL     OW17803   3.408   4.640   0.943 -0.0234  0.1171 -0.7727
 2056SOL    HW117804   3.423   4.697   1.019  0.8813  0.4693 -1.2143
 2056SOL    HW217805   3.332   4.589   0.971  1.7514 -2.3159 -0.3535
 2057SOL     OW17806   3.003   3.791   1.687 -0.1216 -0.4854  0.1578
 2057SOL    HW117807   3.060   3.719   1.661 -2.4467 -1.3324 -2.6215
 2057SOL    HW217808   3.043   3.811   1.771 -0.4699 -2.7708  0.8671
 2058SOL     OW17809   1.422   0.385   5.188 -0.0680  0.2018  0.4310
 2058SOL    HW117810   1.373   0.455   5.143 -0.4151 -0.6417 -0.4878
 2058SOL    HW217811   1.511   0.418   5.179  0.6075 -2.1527 -1.3493
 2059SOL     OW17812   0.222   1.517   6.954 -0.6525 -0.2455  0.2432
 2059SOL    HW117813   0.239   1.433   6.911  0.2723  1.0441 -1.9393
 2059SOL    HW217814   0.141   1.505   7.004  0.1596 -0.7693  1.4275
 2060SOL     OW17815   0.857   2.941  15.300 -0.2249  0.1173  0.3730
 2060SOL    HW117816   0.826   2.960  15.212 -0.1554 -2.0559 -0.1076
 2060SOL    HW217817   0.777   2.896  15.326 -0.2900 -0.4101 -0.7404
 2061SOL     OW17818   1.795   4.578   0.905 -0.2053  0.2168  0.5941
 2061SOL    HW117819   1.709   4.620   0.895  0.0757  0.3986 -0.9458
 2061SOL    HW217820   1.855   4.647   0.934  0.2697 -0.3832  1.0175
 2062SOL     OW17821   0.178   3.481   6.513 -0.4638  0.5922 -0.2197
 2062SOL    HW117822   0.224   3.489   6.429 -0.0759 -0.0981 -0.0753
 2062SOL    HW217823   0.209   3.401   6.555 -0.7743  1.0540  0.8965
 2063SOL     OW17824   0.419   2.149   2.339 -0.2772  0.7193  0.1445
 2063SOL    HW117825   0.334   2.135   2.381  0.8557  0.2876  2.2840
 2063SOL    HW217826   0.412   2.245   2.338  0.5301  0.7660 -0.2803
 2064SOL     OW17827   4.071   4.653   1.115 -0.0237  0.1487 -0.1512
 2064SOL    HW117828   3.977   4.648   1.133  0.1114  1.1177  0.8401
 2064SOL    HW217829   4.110   4.661   1.202 -1.0164  2.8931  0.0244
 2065SOL     OW17830   0.965   1.252   8.372 -0.0306 -0.2184 -0.1101
 2065SOL    HW117831   1.037   1.224   8.428 -0.7350 -0.5657  0.6133
 2065SOL    HW217832   0.932   1.336   8.402  1.5776 -0.0391  1.1624
 2066SOL     OW17833   0.714   2.743   4.940 -0.0909  0.2879 -0.2385
 2066SOL    HW117834   0.736   2.651   4.952  0.7237  0.3425 -1.3385
 2066SOL    HW217835   0.671   2.766   5.022 -1.9869 -0.0476 -1.1415
 2067SOL     OW17836   0.398   4.548   5.466 -0.2167  0.1955 -0.3615
 2067SOL    HW117837   0.408   4.518   5.376  0.6899  0.5768 -0.3952
 2067SOL    HW217838   0.472   4.607   5.479  0.4004 -0.8918  1.0941
 2068SOL     OW17839   2.682   3.442   2.618 -0.1370 -0.6512  0.4358
 2068SOL    HW117840   2.724   3.362   2.650  0.9255  1.0365  3.3004
 2068SOL    HW217841   2.668   3.494   2.697  1.0251 -2.4764  1.8337
 2069SOL     OW17842   3.028   1.004   3.777  0.1330  0.4564  0.3396
 2069SOL    HW117843   2.973   1.059   3.721 -0.8584 -0.0428  0.8241
 2069SOL    HW217844   3.104   1.002   3.719 -1.7069 -0.4333 -2.0268
 2070SOL     OW17845   2.759   3.696   8.032  0.3547 -0.8395  0.2530
 2070SOL    HW117846   2.850   3.671   8.017  0.1279 -2.3126  1.2332
 2070SOL    HW217847   2.728   3.717   7.944  3.8511 -2.8598 -1.4398
 2071SOL     OW17848   0.039   2.778   7.345 -0.3866  0.0461 -0.1465
 2071SOL    HW117849   4.725   2.783   7.427 -2.0466  2.8277 -1.3208
 2071SOL    HW217850   0.030   2.684   7.328  1.2721 -0.0261 -0.5875
 2072SOL     OW17851   3.799   4.465   4.604 -0.3650 -0.5207 -0.0530
 2072SOL    HW117852   3.815   4.373   4.621 -2.1132 -0.6786  0.7071
 2072SOL    HW217853   3.875   4.500   4.652 -0.2413 -1.4810  0.4438
 2073SOL     OW17854   1.903   4.404  11.848 -0.1042 -0.2426 -0.1858
 2073SOL    HW117855   1.878   4.360  11.929  1.1251 -4.1272 -1.8828
 2073SOL    HW217856   1.828   4.385  11.791  0.7810  2.4754 -2.2521
 2074SOL     OW17857   1.318   1.676   4.173  0.1511  0.0793  0.6231
 2074SOL    HW117858   1.351   1.623   4.245  0.6085 -0.3044  0.1264
 2074SOL    HW217859   1.295   1.615   4.103 -0.2182  0.5245  0.3579
 2075SOL     OW17860   1.916   0.475   5.512  0.0272  0.2354  0.3508
 2075SOL    HW117861   1.830   0.505   5.541  0.0948 -1.2227  2.0492
 2075SOL    HW217862   1.893   0.382   5.511 -2.1744  0.7751  0.4181
 2076SOL     OW17863   1.216   4.499  15.381 -0.1344  0.0542  0.0552
 2076SOL    HW117864   1.305   4.465  15.367 -1.1214 -2.5607  0.1930
 2076SOL    HW217865   1.230   4.586  15.344  3.0412 -0.8179 -0.8204
 2077SOL     OW17866   1.803   1.170   7.510 -0.6321 -0.3619  0.2579
 2077SOL    HW117867   1.762   1.202   7.430 -1.7345  1.3181  1.4655
 2077SOL    HW217868   1.748   1.210   7.578 -0.9452 -1.0604  0.4111
 2078SOL     OW17869   1.105   2.883   5.888 -0.7497  0.0530 -0.1612
 2078SOL    HW117870   1.039   2.943   5.853 -0.2926 -0.5574 -2.0451
 2078SOL    HW217871   1.175   2.870   5.823 -0.5287 -0.9289  0.2734
 2079SOL     OW17872   3.317   3.551  16.141 -0.5910 -0.2012 -0.3691
 2079SOL    HW117873   3.230   3.579  16.169  0.3082  2.8006 -0.6372
 2079SOL    HW217874   3.370   3.587  16.213  0.5091  0.3497 -1.4635
 2080SOL     OW17875   4.297   1.323   9.604  0.5541 -0.4981 -0.0723
 2080SOL    HW117876   4.317   1.261   9.533 -0.0974 -3.6391  2.4609
 2080SOL    HW217877   4.352   1.291   9.676 -0.2791 -1.4645  0.1351
 2081SOL     OW17878   1.536   3.981   5.398 -0.1349 -0.5782  0.1640
 2081SOL    HW117879   1.530   4.040   5.473  1.3609 -0.2979  0.0587
 2081SOL    HW217880   1.611   3.926   5.418 -1.2393 -2.5684 -1.1619
 2082SOL     OW17881   0.176   0.018   1.354 -0.0739 -0.2504  0.2532
 2082SOL    HW117882   0.166   0.077   1.279  0.0178  0.1944  0.5952
 2082SOL    HW217883   0.112   0.060   1.411  0.0934 -0.3942  0.5442
 2083SOL     OW17884   4.681   3.974   6.116  0.2664 -0.1290 -0.4934
 2083SOL    HW117885   4.736   4.052   6.103  2.1658 -1.0917  1.7337
 2083SOL    HW217886   4.715   3.932   6.195  0.5473  0.3920 -0.3381
 2084SOL     OW17887   3.436   4.268  10.974  0.3177 -0.0789  0.0045
 2084SOL    HW117888   3.407   4.352  11.008  3.8291  0.6616  1.0914
 2084SOL    HW217889   3.515   4.243  11.022 -0.6497  0.5188  1.8878
 2085SOL     OW17890   3.956   2.767  13.786  0.2328 -0.6682 -0.3758
 2085SOL    HW117891   3.948   2.781  13.691 -0.2554  0.1040 -0.2190
 2085SOL    HW217892   3.986   2.854  13.812  0.0848 -0.2646 -1.5395
 2086SOL     OW17893   1.780   1.411   6.653 -0.0107 -0.3488  0.0920
 2086SOL    HW117894   1.704   1.390   6.709  0.9435 -0.4395  1.3621
 2086SOL    HW217895   1.779   1.328   6.606 -1.4722  1.6336 -3.3154
 2087SOL     OW17896   0.738   1.343  13.543 -0.4585 -0.0509 -0.1687
 2087SOL    HW117897   0.654   1.331  13.586 -0.0554  0.5506  0.7817
 2087SOL    HW217898   0.784   1.407  13.598  0.4895  1.1436 -2.3315
 2088SOL     OW17899   2.052   2.710  13.060  0.6512 -0.2484  0.0252
 2088SOL    HW117900   2.101   2.774  13.008 -0.0301  0.3604  0.1363
 2088SOL    HW217901   2.095   2.629  13.032 -0.4317 -0.5056 -0.8904
 2089SOL     OW17902   0.941   3.270   0.143 -0.4758 -0.4768  0.1898
 2089SOL    HW117903   0.910   3.359   0.160  1.6709  0.3456 -0.2335
 2089SOL    HW217904   0.864   3.230   0.101 -0.2812  1.1444 -1.7151
 2090SOL     OW17905   1.789   0.729   5.959  0.4486  0.2938  0.5050
 2090SOL    HW117906   1.757   0.679   6.034  0.0482 -1.5056 -0.8651
 2090SOL    HW217907   1.726   0.802   5.962  0.4121  0.1475  3.8453
 2091SOL     OW17908   2.568   3.053   2.973 -0.3289 -0.8652 -0.0770
 2091SOL    HW117909   2.599   2.988   2.910 -0.5459 -0.4136 -0.6561
 2091SOL    HW217910   2.482   3.020   2.997 -1.5683  2.7265  0.3902
 2092SOL     OW17911   4.279   0.672  12.621  0.2316 -0.5305 -0.0975
 2092SOL    HW117912   4.351   0.616  12.651  0.4328 -0.2121  0.0031
 2092SOL    HW217913   4.297   0.690  12.528  0.8121 -0.5694  0.0048
 2093SOL     OW17914   1.714   2.844   7.611  0.0987  0.1805 -0.4614
 2093SOL    HW117915   1.804   2.835   7.642 -0.4607 -1.8392  0.5709
 2093SOL    HW217916   1.704   2.769   7.553 -0.9865 -1.7056  2.1611
 2094SOL     OW17917   4.240   2.379   8.179 -0.3894  0.3883  0.2317
 2094SOL    HW117918   4.232   2.296   8.132 -0.3213  1.5300 -1.8191
 2094SOL    HW217919   4.241   2.439   8.104  2.1150 -0.9638 -0.8087
 2095SOL     OW17920   1.947   2.578   9.540  0.8572 -0.4052 -0.4857
 2095SOL    HW117921   2.023   2.570   9.484  2.7509  4.3356  1.3569
 2095SOL    HW217922   1.888   2.600   9.468  1.1071  3.3235  0.4276
 2096SOL     OW17923   4.012   0.741   1.507  0.1472  0.2111 -0.1478
 2096SOL    HW117924   4.069   0.667   1.530  0.2302  0.4042  0.2647
 2096SOL    HW217925   4.068   0.810   1.543 -2.3400  0.4392  3.3886
 2097SOL     OW17926   2.767   4.619   7.240  0.3564 -0.2942  0.1446
 2097SOL    HW117927   2.749   4.533   7.204 -0.0602 -0.2861  0.3341
 2097SOL    HW217928   2.697   4.619   7.306  0.4040  1.6056  0.2139
 2098SOL     OW17929   3.170   0.256   6.143  0.2627  0.0650  0.7862
 2098SOL    HW117930   3.082   0.280   6.172  1.3588  0.8357  3.4740
 2098SOL    HW217931   3.191   0.340   6.102  0.2942  0.4007  1.5016
 2099SOL     OW17932   1.838   1.169   9.092  0.4025  0.0984  0.2425
 2099SOL    HW117933   1.750   1.172   9.131  0.2571 -3.2013  0.1625
 2099SOL    HW217934   1.889   1.138   9.167  0.8036  0.9263  0.3051
 2100SOL     OW17935   0.050   2.566   8.769  0.8420 -0.2745 -0.0484
 2100SOL    HW117936   0.114   2.637   8.761  0.8471 -0.4492 -1.6376
 2100SOL    HW217937   4.709   2.616   8.795  1.5343  1.8779 -2.1006
 2101SOL     OW17938   0.886   4.384   3.939 -0.3335  0.1746  0.1238
 2101SOL    HW117939   0.896   4.408   4.031 -2.5985 -1.2583  0.7472
 2101SOL    HW217940   0.799   4.344   3.944  0.0743 -0.6090  1.0302
 2102SOL     OW17941   0.353   2.119  14.244  0.9047  0.1976 -0.5800
 2102SOL    HW117942   0.296   2.193  14.264  0.8519 -0.0970  0.3878
 2102SOL    HW217943   0.293   2.067  14.191 -0.0477  1.8184 -1.0917
 2103SOL     OW17944   1.404   3.595   9.067  0.0215  0.2867  0.0625
 2103SOL    HW117945   1.482   3.547   9.041  0.8342  1.4041  0.4654
 2103SOL    HW217946   1.374   3.653   8.997  1.8609 -0.3180 -1.2126
 2104SOL     OW17947   2.960   2.510   3.985  0.2262 -0.0937 -0.2637
 2104SOL    HW117948   2.920   2.563   4.054  2.0512  0.2376  0.5274
 2104SOL    HW217949   2.908   2.430   3.989  1.1527 -0.5472  2.2883
 2105SOL     OW17950   3.095   3.424   4.966 -0.0726  0.4825 -0.2979
 2105SOL    HW117951   3.017   3.418   5.021 -0.3151 -0.3110 -0.7303
 2105SOL    HW217952   3.063   3.387   4.883  0.3529  0.3550 -0.4027
 2106SOL     OW17953   2.685   1.896  10.111 -0.2326 -0.3797 -0.7742
 2106SOL    HW117954   2.621   1.838  10.152  0.6574 -1.0541 -0.3288
 2106SOL    HW217955   2.661   1.887  10.019 -0.9977  1.1648 -0.7314
 2107SOL     OW17956   3.370   3.129   5.290  0.0477 -0.6741  0.1634
 2107SOL    HW117957   3.379   3.223   5.273 -1.2978 -0.8289 -1.3708
 2107SOL    HW217958   3.419   3.110   5.371  1.8401 -0.7604 -0.9302
 2108SOL     OW17959   3.460   4.187   4.629 -0.1193 -0.6285 -0.3853
 2108SOL    HW117960   3.530   4.190   4.564 -1.7043 -0.7100 -2.0751
 2108SOL    HW217961   3.455   4.274   4.668 -0.0383  0.0579 -1.9070
 2109SOL     OW17962   0.896   2.943   3.619  0.2498  0.3433  0.1751
 2109SOL    HW117963   0.838   3.019   3.624 -1.2745 -0.8182  0.1946
 2109SOL    HW217964   0.943   2.945   3.702  0.8030  0.1515 -0.1345
 2110SOL     OW17965   3.182   1.851  11.998 -0.5530 -0.2855  0.0022
 2110SOL    HW117966   3.262   1.854  11.945 -2.3286 -0.8570 -2.7067
 2110SOL    HW217967   3.188   1.936  12.043  0.7666  1.3216 -3.2101
 2111SOL     OW17968   1.221   3.066   2.799 -0.4993  0.1286  0.5500
 2111SOL    HW117969   1.156   3.072   2.729  2.0739  1.1684 -1.7117
 2111SOL    HW217970   1.197   3.143   2.851 -0.4951  0.6362 -0.1994
 2112SOL     OW17971   3.210   2.498   2.845 -0.1666 -0.2466 -0.2476
 2112SOL    HW117972   3.153   2.484   2.769  1.2021 -0.1236 -1.3003
 2112SOL    HW217973   3.146   2.543   2.899 -1.5108 -0.4706 -1.6677
 2113SOL     OW17974   3.735   2.061   6.688  0.6321 -0.2789 -0.0880
 2113SOL    HW117975   3.666   2.119   6.720  2.0813  1.0467  0.6737
 2113SOL    HW217976   3.694   2.028   6.608 -1.6637  2.1039  0.1018
 2114SOL     OW17977   2.002   4.406   8.272 -0.5985  0.2505 -0.3005
 2114SOL    HW117978   2.022   4.401   8.366 -0.8234  0.9739 -0.2149
 2114SOL    HW217979   2.071   4.356   8.228 -1.8599  1.2363 -3.3549
 2115SOL     OW17980   2.999   0.873  15.971 -0.5174 -0.2856  0.8498
 2115SOL    HW117981   3.073   0.903  16.023 -1.1360  0.4724  1.2805
 2115SOL    HW217982   2.928   0.925  16.007 -0.4251  0.7786 -0.4737
 2116SOL     OW17983   1.269   3.038   6.069  0.3712  0.2109 -0.0619
 2116SOL    HW117984   1.206   2.991   6.014  0.4692 -0.7942  0.6876
 2116SOL    HW217985   1.250   3.003   6.156  0.4457  1.7869  0.5877
 2117SOL     OW17986   3.088   0.607   2.090 -0.4803 -0.5667 -0.1156
 2117SOL    HW117987   3.096   0.512   2.103  0.8452 -0.5878 -1.0051
 2117SOL    HW217988   3.158   0.647   2.142 -0.8592  1.4309 -1.1420
 2118SOL     OW17989   2.455   4.169  14.317  0.1889 -0.0988  0.1870
 2118SOL    HW117990   2.446   4.103  14.249 -0.9745  0.6787 -0.4007
 2118SOL    HW217991   2.476   4.256  14.284  0.9831 -0.6875 -0.8706
 2119SOL     OW17992   2.953   2.812   4.803  0.6017  0.0728 -0.2173
 2119SOL    HW117993   2.985   2.890   4.849 -1.3195  0.1847  0.9314
 2119SOL    HW217994   3.006   2.826   4.725  0.6733 -1.0908 -0.3789
 2120SOL     OW17995   1.951   2.353   4.569 -0.8246  0.5663 -0.4269
 2120SOL    HW117996   1.892   2.418   4.608 -2.6089 -0.0295 -2.2016
 2120SOL    HW217997   1.885   2.292   4.539  0.9686  0.2416 -3.6833
 2121SOL     OW17998   4.017   3.929   7.803 -0.2187 -0.0855  0.5215
 2121SOL    HW117999   3.941   3.923   7.746  1.4416  0.9781 -1.7800
 2121SOL    HW218000   4.057   4.010   7.771  0.0423 -0.0867  0.8440
 2122SOL     OW18001   2.562   2.292  16.649 -0.2099 -0.0475  0.2169
 2122SOL    HW118002   2.609   2.239  16.713  0.0359  0.5695  0.5406
 2122SOL    HW218003   2.480   2.244  16.642  0.7941 -1.7580  0.0094
 2123SOL     OW18004   3.876   2.481   0.810  0.6411  0.6837 -0.0829
 2123SOL    HW118005   3.868   2.386   0.812  0.2994  0.6874 -1.0425
 2123SOL    HW218006   3.806   2.510   0.868  1.0786 -0.5101  1.0383
 2124SOL     OW18007   2.353   0.388   8.271  0.1181  0.0541 -0.1622
 2124SOL    HW118008   2.266   0.353   8.287 -0.4651  1.7288  0.3537
 2124SOL    HW218009   2.330   0.475   8.238  2.3388  0.2386 -1.2339
 2125SOL     OW18010   2.013   0.164   9.373  0.1847  0.0044  0.0681
 2125SOL    HW118011   2.042   0.073   9.375  0.2556  0.0120 -0.6764
 2125SOL    HW218012   1.927   0.146   9.334  0.4516 -0.8773 -0.1257
 2126SOL     OW18013   1.424   1.573   7.323 -0.3664 -0.0822  0.1362
 2126SOL    HW118014   1.386   1.507   7.266 -1.5760 -0.1914  1.0645
 2126SOL    HW218015   1.358   1.642   7.326 -0.4705 -0.1343 -0.9038
 2127SOL     OW18016   2.065   2.819  13.328  0.1894 -0.1746  0.5332
 2127SOL    HW118017   2.055   2.728  13.357  1.0520 -0.3656  0.2337
 2127SOL    HW218018   2.071   2.797  13.235 -1.5808  2.2614 -0.1485
 2128SOL     OW18019   3.661   1.820   3.609  0.3054  0.6192 -0.1882
 2128SOL    HW118020   3.699   1.855   3.529 -0.8750  1.4554 -0.3852
 2128SOL    HW218021   3.718   1.754   3.649 -0.6923  0.1209  0.4218
 2129SOL     OW18022   3.141   1.417   3.152  0.0535  0.5867 -0.3958
 2129SOL    HW118023   3.212   1.481   3.159  0.1647  0.5938 -1.6222
 2129SOL    HW218024   3.100   1.442   3.069  0.3518 -0.9477 -1.0091
 2130SOL     OW18025   1.365   1.640   4.457 -0.0792 -1.0960 -0.4891
 2130SOL    HW118026   1.373   1.735   4.455  0.9075 -1.1780 -0.2915
 2130SOL    HW218027   1.304   1.633   4.531  2.4848  1.5086  1.8153
 2131SOL     OW18028   3.172   3.686   1.220 -0.1438  0.2731  0.0833
 2131SOL    HW118029   3.175   3.732   1.304  0.2709  2.1010 -0.9379
 2131SOL    HW218030   3.261   3.653   1.206  1.1684  2.6545  2.8285
 2132SOL     OW18031   3.309   1.616   2.276 -0.5284  0.0268 -0.0301
 2132SOL    HW118032   3.240   1.623   2.210 -1.5261 -0.1572  0.9836
 2132SOL    HW218033   3.293   1.698   2.324  0.2315  0.7801 -1.0554
 2133SOL     OW18034   1.798   1.378   8.885  0.3437  0.2894 -0.3354
 2133SOL    HW118035   1.826   1.314   8.950  1.1576 -0.7952 -1.7639
 2133SOL    HW218036   1.738   1.436   8.933  0.9620  1.7515 -1.3033
 2134SOL     OW18037   0.417   0.290   1.527 -0.4564  0.9205 -0.4752
 2134SOL    HW118038   0.490   0.340   1.563 -0.1112 -0.5737  0.9147
 2134SOL    HW218039   0.442   0.200   1.549  1.3892  1.2902 -1.0886
 2135SOL     OW18040   0.246   2.362   1.452  0.4719  0.2617  0.4885
 2135SOL    HW118041   0.308   2.289   1.461  1.3388  0.6337 -2.5397
 2135SOL    HW218042   0.292   2.422   1.394  2.8769  0.7946  2.9240
 2136SOL     OW18043   2.700   1.251   3.257  0.0256 -0.4677  0.0187
 2136SOL    HW118044   2.667   1.219   3.173  0.2849 -0.4996 -0.0730
 2136SOL    HW218045   2.621   1.296   3.285 -0.5425 -0.7553 -1.1254
 2137SOL     OW18046   2.831   0.998   0.074 -0.0894 -0.6370 -0.2170
 2137SOL    HW118047   2.801   1.063   0.138 -1.7567 -0.9935 -0.6464
 2137SOL    HW218048   2.746   0.970   0.042 -0.8563 -0.1160  1.3626
 2138SOL     OW18049   0.219   3.839   5.231 -0.7006 -0.1369 -0.6018
 2138SOL    HW118050   0.245   3.898   5.302 -0.0792 -0.2510 -0.7280
 2138SOL    HW218051   0.284   3.769   5.229  0.2707  0.7471 -0.4161
 2139SOL     OW18052   3.241   1.063   8.797  0.4909 -0.0120 -0.0732
 2139SOL    HW118053   3.325   1.107   8.787  0.9490 -0.7734  0.4902
 2139SOL    HW218054   3.192   1.143   8.815  3.1661  1.9118 -1.3656
 2140SOL     OW18055   1.831   4.500   3.757 -0.1435  0.5356  0.0922
 2140SOL    HW118056   1.772   4.424   3.750  0.5020  0.3828 -3.5305
 2140SOL    HW218057   1.812   4.523   3.848 -1.0189  0.7088 -0.1357
 2141SOL     OW18058   3.727   3.762   8.330 -0.8338  0.0948 -0.2726
 2141SOL    HW118059   3.663   3.699   8.297 -0.2517 -1.1320  0.9550
 2141SOL    HW218060   3.803   3.704   8.330 -0.6176  0.3728 -0.9635
 2142SOL     OW18061   0.894   3.044   4.156  0.2085 -0.2190  0.6091
 2142SOL    HW118062   0.884   3.065   4.249  0.3166  2.1206  0.1050
 2142SOL    HW218063   0.946   2.964   4.160 -0.9727 -1.0642 -1.2838
 2143SOL     OW18064   0.714   1.365   4.726  0.0544 -0.5819 -0.0461
 2143SOL    HW118065   0.625   1.385   4.754  0.4118 -0.5407  1.0711
 2143SOL    HW218066   0.705   1.341   4.634  0.5692 -0.5549 -0.1046
 2144SOL     OW18067   2.696   3.769   5.881 -0.3423 -0.1977 -0.1424
 2144SOL    HW118068   2.697   3.795   5.789  1.0584  0.4373  0.0553
 2144SOL    HW218069   2.741   3.684   5.886  0.7160  0.3288 -0.7327
 2145SOL     OW18070   4.424   1.173   3.670  0.4013  0.1399  0.0533
 2145SOL    HW118071   4.361   1.244   3.685  0.3282 -0.2227  1.4516
 2145SOL    HW218072   4.493   1.194   3.734 -0.1426  0.5311  0.5077
 2146SOL     OW18073   3.828   3.525   2.595  0.1075 -0.0257  0.3909
 2146SOL    HW118074   3.823   3.435   2.564 -0.5714  0.4780 -0.9678
 2146SOL    HW218075   3.893   3.517   2.665  1.7302  0.2488 -1.0646
 2147SOL     OW18076   1.113   1.680   2.737 -0.5295 -0.0424 -0.3822
 2147SOL    HW118077   1.111   1.705   2.829 -0.9405  1.0272 -0.6846
 2147SOL    HW218078   1.021   1.694   2.713 -1.2115 -0.8265  1.7329
 2148SOL     OW18079   2.328   0.739   4.192 -0.9612 -0.0492  0.4846
 2148SOL    HW118080   2.347   0.713   4.282  0.9466 -3.2760 -0.8311
 2148SOL    HW218081   2.287   0.662   4.153  0.0859 -0.7923  0.8727
 2149SOL     OW18082   3.837   3.508   5.250 -0.1546 -0.2135  0.5226
 2149SOL    HW118083   3.778   3.577   5.219  1.5923  0.9312 -0.3109
 2149SOL    HW218084   3.781   3.432   5.238  0.5289 -0.7987  1.0696
 2150SOL     OW18085   3.965   3.940  14.804 -0.3591 -0.1294  0.0817
 2150SOL    HW118086   3.936   4.031  14.797  0.1981  0.0668  0.3423
 2150SOL    HW218087   3.899   3.900  14.746 -0.2382  1.1510 -0.9350
 2151SOL     OW18088   2.825   3.480  10.561  0.6239 -0.0983 -0.6692
 2151SOL    HW118089   2.900   3.540  10.566 -0.8382  1.5950  1.0300
 2151SOL    HW218090   2.810   3.484  10.467  0.9675 -0.3657 -0.7353
 2152SOL     OW18091   2.588   2.538  10.089 -0.3215  0.1820  0.4573
 2152SOL    HW118092   2.666   2.583  10.057 -0.9699  2.7318  2.4421
 2152SOL    HW218093   2.618   2.447  10.085  1.1407  0.6447  1.0836
 2153SOL     OW18094   1.099   3.288   7.949 -0.0090  0.2797 -0.2935
 2153SOL    HW118095   1.174   3.319   7.898 -0.3113  1.9024  0.2626
 2153SOL    HW218096   1.133   3.300   8.037 -0.3574 -1.4138  0.0718
 2154SOL     OW18097   0.239   0.088   4.090 -0.4958 -0.2797 -0.6220
 2154SOL    HW118098   0.307   0.022   4.077 -0.3243 -0.7357  2.4724
 2154SOL    HW218099   0.175   0.047   4.150  0.6303  1.5221  1.8082
 2155SOL     OW18100   0.505   2.975  14.804  0.1814 -0.2458  0.5691
 2155SOL    HW118101   0.461   2.891  14.792  2.1081 -1.1342 -0.2461
 2155SOL    HW218102   0.491   2.989  14.898 -1.1658 -0.9053  0.4730
 2156SOL     OW18103   3.327   2.186   1.109 -0.0573  0.1103 -0.1408
 2156SOL    HW118104   3.311   2.276   1.138 -1.0523  0.3383 -1.4145
 2156SOL    HW218105   3.379   2.148   1.180 -0.0346  1.2491  0.4550
 2157SOL     OW18106   0.836   1.066  16.107  0.1794 -0.0401  0.3057
 2157SOL    HW118107   0.881   1.026  16.181 -1.3137 -0.6929  0.8542
 2157SOL    HW218108   0.746   1.082  16.137  0.6874  0.9278  1.2945
 2158SOL     OW18109   3.698   2.656   6.060  0.7531 -0.6383 -0.1343
 2158SOL    HW118110   3.616   2.636   6.016 -1.0225  0.5899  2.6481
 2158SOL    HW218111   3.744   2.716   6.002  0.6498  1.2116  1.6988
 2159SOL     OW18112   2.939   2.699   5.468  0.0934 -0.6369 -0.1642
 2159SOL    HW118113   3.025   2.703   5.426 -0.8321 -0.1018 -2.0008
 2159SOL    HW218114   2.962   2.688   5.561 -2.3922  1.3459  0.6571
 2160SOL     OW18115   0.766   4.065   1.728  0.3521  0.1041  0.1946
 2160SOL    HW118116   0.686   4.038   1.682 -0.1897 -0.0591  1.2308
 2160SOL    HW218117   0.776   3.984   1.779 -2.1403 -0.4343 -0.1591
 2161SOL     OW18118   0.929   1.528  11.737  0.2133 -0.0159  0.1269
 2161SOL    HW118119   1.002   1.583  11.706  1.2741 -1.8085 -0.5374
 2161SOL    HW218120   0.958   1.510  11.827 -2.7854 -1.2063  0.8412
 2162SOL     OW18121   3.572   2.371   2.695 -0.0684 -0.4444 -0.3009
 2162SOL    HW118122   3.567   2.452   2.645  1.0706 -0.9869 -1.2701
 2162SOL    HW218123   3.666   2.367   2.709 -0.0353  1.3691  0.0222
 2163SOL     OW18124   3.663   3.172   7.463  0.0153  0.0921 -0.7404
 2163SOL    HW118125   3.593   3.205   7.519 -0.8550 -1.1492 -1.0852
 2163SOL    HW218126   3.643   3.079   7.477 -0.1802  0.4384  1.2170
 2164SOL     OW18127   3.934   1.680  14.294 -0.2513 -0.0126  0.2107
 2164SOL    HW118128   3.882   1.658  14.371  1.0908  1.6783  1.5972
 2164SOL    HW218129   3.943   1.775  14.298 -0.3142 -0.0006  0.0854
 2165SOL     OW18130   4.491   1.091  11.748 -0.1581  0.4394  0.7886
 2165SOL    HW118131   4.475   1.037  11.826  0.9984  1.2667  1.5870
 2165SOL    HW218132   4.504   1.182  11.775 -3.7902  1.8181 -1.9917
 2166SOL     OW18133   2.205   2.617   8.979  0.2542  0.1849 -0.6763
 2166SOL    HW118134   2.281   2.565   8.953  0.1966  0.1716 -0.8146
 2166SOL    HW218135   2.212   2.681   8.908  2.0027  0.4139 -0.3024
 2167SOL     OW18136   3.814   1.451   9.886 -0.6028 -0.0259  0.0640
 2167SOL    HW118137   3.905   1.425   9.875 -0.7135  0.1369 -1.3101
 2167SOL    HW218138   3.842   1.542   9.878 -1.0062  0.3487  2.8867
 2168SOL     OW18139   2.859   0.611   9.389  0.3885  0.0366 -0.3696
 2168SOL    HW118140   2.900   0.525   9.385 -4.1852 -2.2199  1.8996
 2168SOL    HW218141   2.868   0.636   9.481  1.6107 -0.8858 -0.2402
 2169SOL     OW18142   2.624   1.191   9.034  0.4279  0.0951 -0.2809
 2169SOL    HW118143   2.629   1.107   9.079 -1.4800  0.6159  0.9589
 2169SOL    HW218144   2.576   1.177   8.953  0.7433 -0.9719 -0.2786
 2170SOL     OW18145   3.804   2.751   7.418  0.4746 -0.2653 -0.3190
 2170SOL    HW118146   3.866   2.693   7.373 -0.8979 -1.6114 -0.5112
 2170SOL    HW218147   3.839   2.836   7.392  3.8903 -1.0265  1.7217
 2171SOL     OW18148   3.770   4.109   0.733 -0.2242 -0.0152 -0.0842
 2171SOL    HW118149   3.821   4.030   0.716  1.8204  1.1714  0.5645
 2171SOL    HW218150   3.774   4.124   0.827  0.7182  0.5334 -0.2107
 2172SOL     OW18151   1.971   4.716  11.383 -0.0216  0.4015  0.1165
 2172SOL    HW118152   2.045   4.662  11.411 -0.7914 -0.9166 -0.4122
 2172SOL    HW218153   1.938   4.665  11.309 -1.1176  1.7217 -0.3010
 2173SOL     OW18154   1.717   0.626   9.952  0.1356  0.6361 -0.1726
 2173SOL    HW118155   1.805   0.591   9.937  0.1577  0.4194  0.4536
 2173SOL    HW218156   1.692   0.677   9.875  0.8058 -1.4324 -1.7431
 2174SOL     OW18157   1.290   0.201  11.615  0.2709  0.3226 -0.1538
 2174SOL    HW118158   1.211   0.163  11.576 -1.1926  0.7248  2.4756
 2174SOL    HW218159   1.360   0.135  11.614 -1.2269 -1.2841  0.5620
 2175SOL     OW18160   1.871   0.115   8.542 -0.0031  0.6361  0.0172
 2175SOL    HW118161   1.908   0.135   8.456  2.1036 -1.9865  0.3229
 2175SOL    HW218162   1.935   0.139   8.608  0.7558  0.1751 -0.5399
 2176SOL     OW18163   3.712   3.130   0.265 -0.5331  0.3544  0.1993
 2176SOL    HW118164   3.717   3.103   0.173 -0.4638  0.2175  0.2422
 2176SOL    HW218165   3.626   3.094   0.287 -0.8686  1.4231  0.6071
 2177SOL     OW18166   4.449   0.752  11.399 -0.0586  0.4841 -0.6897
 2177SOL    HW118167   4.457   0.846  11.419  0.9779  0.3000 -0.2379
 2177SOL    HW218168   4.370   0.742  11.452 -0.1838 -1.3124 -1.2418
 2178SOL     OW18169   0.735   1.117   6.838 -0.0295  0.3297  0.3791
 2178SOL    HW118170   0.709   1.028   6.862  1.2067  0.2821  1.5228
 2178SOL    HW218171   0.759   1.124   6.746  1.1219 -0.1360  0.6397
 2179SOL     OW18172   4.023   3.522  10.587  0.6305 -0.1184  0.1457
 2179SOL    HW118173   3.998   3.592  10.527  0.5331 -0.2281  0.0617
 2179SOL    HW218174   4.117   3.514  10.570  0.8274 -0.8556  1.5736
 2180SOL     OW18175   0.841   3.376  16.148 -0.0205  0.0346 -0.4882
 2180SOL    HW118176   0.810   3.313  16.213 -0.0951 -0.2584 -0.8045
 2180SOL    HW218177   0.845   3.321  16.070  0.8773 -0.1827 -0.2983
 2181SOL     OW18178   2.440   0.967   4.111  0.2359 -0.5059 -0.2349
 2181SOL    HW118179   2.373   0.900   4.120  0.5292 -0.4787  2.3045
 2181SOL    HW218180   2.505   0.932   4.172 -1.0622 -1.3813  0.6456
 2182SOL     OW18181   1.432   4.259   2.599  0.2773  0.3474 -0.5876
 2182SOL    HW118182   1.452   4.353   2.592  0.9921  0.3668  1.9025
 2182SOL    HW218183   1.522   4.238   2.624 -0.3668  0.4252  1.7725
 2183SOL     OW18184   4.029   0.274   8.478  0.3289  0.0463  0.2260
 2183SOL    HW118185   4.113   0.295   8.518  0.7029  0.1999 -0.6318
 2183SOL    HW218186   3.974   0.270   8.556 -1.8694  2.6625 -1.1846
 2184SOL     OW18187   3.470   4.611   2.114 -0.0292 -0.1678  0.0664
 2184SOL    HW118188   3.456   4.611   2.209 -0.2277  2.0443  0.0366
 2184SOL    HW218189   3.454   4.521   2.085  0.9048  0.1200 -1.3008
 2185SOL     OW18190   3.458   3.802   3.624  0.1582 -0.2804  0.4225
 2185SOL    HW118191   3.503   3.878   3.662 -3.4351  1.5660  1.0449
 2185SOL    HW218192   3.433   3.835   3.538 -2.2253  1.4946  1.7738
 2186SOL     OW18193   2.696   0.941   1.035 -0.2197 -0.1736  0.2864
 2186SOL    HW118194   2.763   1.006   1.054  1.7743 -2.0756 -0.2070
 2186SOL    HW218195   2.678   0.911   1.124 -1.1891  2.5911  1.0000
 2187SOL     OW18196   4.420   0.063  13.539 -0.0356  0.3446 -0.3454
 2187SOL    HW118197   4.504   0.104  13.560  0.4701 -0.4513 -0.8111
 2187SOL    HW218198   4.367   0.111  13.602  0.2777 -0.1978  0.3326
 2188SOL     OW18199   1.146   3.758  15.891 -0.0082  0.5228  0.7154
 2188SOL    HW118200   1.149   3.713  15.975  2.3232 -1.3023 -0.3647
 2188SOL    HW218201   1.056   3.747  15.858  0.2598 -0.9250  0.4783
 2189SOL     OW18202   2.939   3.026   1.479  0.6641 -0.8269  0.5282
 2189SOL    HW118203   2.937   2.945   1.530  3.6664 -1.4296 -0.3336
 2189SOL    HW218204   2.953   2.978   1.397  2.0152  0.4502  0.0123
 2190SOL     OW18205   1.760   3.082   3.483  0.6651  1.1539  0.4790
 2190SOL    HW118206   1.828   3.024   3.448  0.1902 -0.4673  2.2334
 2190SOL    HW218207   1.714   3.094   3.400  2.5030  1.1808 -0.5322
 2191SOL     OW18208   2.934   0.348   9.160  0.0614 -0.3512  0.0729
 2191SOL    HW118209   2.947   0.340   9.254 -3.4212 -0.5699  0.5411
 2191SOL    HW218210   2.934   0.443   9.148 -0.8427 -0.1948  1.4009
 2192SOL     OW18211   0.366   1.006   5.654  0.2511  0.7788  0.2008
 2192SOL    HW118212   0.339   0.979   5.566 -0.2647  0.3688  0.4796
 2192SOL    HW218213   0.340   0.923   5.693  0.8829 -0.3302 -1.7248
 2193SOL     OW18214   2.505   0.245   5.402 -0.0115 -0.7188  0.1064
 2193SOL    HW118215   2.545   0.332   5.391 -1.9734 -0.1596 -2.5412
 2193SOL    HW218216   2.527   0.193   5.325 -0.1103  0.4479 -0.7061
 2194SOL     OW18217   3.310   4.538   1.293 -0.5583 -0.2507  0.4636
 2194SOL    HW118218   3.367   4.614   1.288  0.0194 -0.6886  0.3322
 2194SOL    HW218219   3.360   4.465   1.257 -0.6332  0.9246 -2.0423
 2195SOL     OW18220   0.189   2.864   4.083 -0.4349  0.4735  0.0859
 2195SOL    HW118221   0.233   2.852   4.167  1.0048  1.8700 -0.4832
 2195SOL    HW218222   0.256   2.895   4.023  1.1899 -2.5269  0.3846
 2196SOL     OW18223   1.891   0.807   8.051  0.1058 -0.3584  0.0705
 2196SOL    HW118224   1.864   0.886   8.098 -1.0572 -0.1205 -1.0248
 2196SOL    HW218225   1.811   0.757   8.066 -0.4517  0.9435  1.5204
 2197SOL     OW18226   3.293   0.376   2.477  0.2824  0.1917 -0.6191
 2197SOL    HW118227   3.253   0.395   2.562 -1.1724 -0.4952 -1.1421
 2197SOL    HW218228   3.215   0.346   2.430  1.0696 -1.3596 -0.9638
 2198SOL     OW18229   3.392   3.376   5.195 -0.6962 -0.0789 -0.1607
 2198SOL    HW118230   3.385   3.421   5.111 -0.8337 -0.0170 -0.1171
 2198SOL    HW218231   3.326   3.421   5.248 -0.0592 -0.5388  1.0132
 2199SOL     OW18232   4.270   4.345   1.128 -0.1584  0.7315  0.3720
 2199SOL    HW118233   4.290   4.438   1.119  1.5716  0.3847  0.6553
 2199SOL    HW218234   4.286   4.300   1.045 -0.2505  3.9585 -1.4024
 2200SOL     OW18235   0.527   0.198  17.293  0.1344  0.4961 -0.2709
 2200SOL    HW118236   0.619   0.174  17.303  0.5613  2.1134 -0.4703
 2200SOL    HW218237   0.515   0.274  17.236  1.4536  0.5333 -0.5005
 2201SOL     OW18238   3.223   0.221   9.229  0.6731 -0.1564  0.3579
 2201SOL    HW118239   3.168   0.299   9.221  0.7589 -0.0643  0.7002
 2201SOL    HW218240   3.275   0.226   9.148 -1.2029  2.0616 -0.6986
 2202SOL     OW18241   3.599   2.335   8.913  0.1950 -0.1790  0.0450
 2202SOL    HW118242   3.527   2.284   8.876  0.1126 -0.5348  0.6870
 2202SOL    HW218243   3.565   2.367   8.997 -1.5879 -3.8098  0.7203
 2203SOL     OW18244   2.693   2.914   1.034 -0.3502 -0.1932 -0.2319
 2203SOL    HW118245   2.664   2.840   1.087  0.6901  0.6918  1.5701
 2203SOL    HW218246   2.744   2.957   1.103  1.1816 -1.8205 -0.3679
 2204SOL     OW18247   2.155   2.515   3.184  0.3268 -0.3495  0.6372
 2204SOL    HW118248   2.147   2.455   3.110  1.7427  0.0975  0.1135
 2204SOL    HW218249   2.085   2.579   3.171 -0.8415 -1.2742  2.3797
 2205SOL     OW18250   2.085   0.356   7.295 -0.9911 -0.0299  0.9316
 2205SOL    HW118251   2.087   0.443   7.333  0.2624 -0.6600  2.3285
 2205SOL    HW218252   2.006   0.367   7.242 -0.5907 -0.1011  0.3121
 2206SOL     OW18253   1.087   3.782   5.677  0.2279 -0.2925  0.4976
 2206SOL    HW118254   1.015   3.780   5.614  0.8707 -1.0636 -0.2090
 2206SOL    HW218255   1.087   3.878   5.676  0.9461 -0.2970  0.2280
 2207SOL     OW18256   4.446   0.992   8.954  0.2118 -0.0136 -0.5254
 2207SOL    HW118257   4.412   1.041   9.029 -2.5266 -1.9363 -0.5236
 2207SOL    HW218258   4.539   0.995   8.976 -0.5575  0.9747  2.5401
 2208SOL     OW18259   3.666   2.045  16.741  0.6277 -0.3217 -0.0340
 2208SOL    HW118260   3.645   2.116  16.801 -1.5377 -0.9196 -0.0679
 2208SOL    HW218261   3.738   2.081  16.689  1.3349 -1.2122  0.3288
 2209SOL     OW18262   2.159   2.305   5.799  0.2186 -0.0481 -0.1476
 2209SOL    HW118263   2.165   2.388   5.846 -0.2390  0.9109 -1.7896
 2209SOL    HW218264   2.177   2.333   5.709  0.8809 -0.3230 -0.1042
 2210SOL     OW18265   0.283   3.534  16.296  0.2452  0.5107 -0.2314
 2210SOL    HW118266   0.268   3.507  16.387  3.7028 -0.8394 -0.0937
 2210SOL    HW218267   0.280   3.453  16.245  1.0952 -0.0405  0.5994
 2211SOL     OW18268   3.318   2.566   7.566 -0.8827 -0.7885  0.4177
 2211SOL    HW118269   3.393   2.586   7.510 -2.0467 -2.2169 -1.7008
 2211SOL    HW218270   3.345   2.499   7.628 -0.6900 -0.9453  0.1667
 2212SOL     OW18271   1.759   2.368   8.440  0.1759  0.5453  0.0214
 2212SOL    HW118272   1.808   2.329   8.513  0.5358 -1.1170 -1.0974
 2212SOL    HW218273   1.743   2.458   8.468  0.7142  0.7373 -0.2736
 2213SOL     OW18274   3.539   1.161  13.787  0.3750 -0.1175 -0.0589
 2213SOL    HW118275   3.587   1.120  13.715 -1.0765 -2.6858  0.4510
 2213SOL    HW218276   3.483   1.085  13.804 -0.3435  0.1616 -1.1826
 2214SOL     OW18277   3.710   4.668  11.979 -0.1636  0.0874 -0.0035
 2214SOL    HW118278   3.748   4.699  12.061  0.7568  0.2233 -0.4834
 2214SOL    HW218279   3.754   4.720  11.912 -0.7260  1.6182  0.8102
 2215SOL     OW18280   2.690   2.625   5.408 -0.0920  0.2758 -0.6545
 2215SOL    HW118281   2.696   2.544   5.358 -2.3476  0.7994 -1.7527
 2215SOL    HW218282   2.782   2.650   5.422 -0.3893  0.6143  0.6731
 2216SOL     OW18283   3.413   2.673   7.992  0.2894  0.5561  0.1373
 2216SOL    HW118284   3.498   2.667   8.035 -0.1414 -0.1000  0.9015
 2216SOL    HW218285   3.364   2.734   8.047 -0.4733 -0.1752  0.2700
 2217SOL     OW18286   1.655   1.494   6.238  0.1775 -0.5157  0.1711
 2217SOL    HW118287   1.572   1.543   6.237 -1.0638 -2.5543  3.2221
 2217SOL    HW218288   1.677   1.494   6.145 -1.5563  2.1411 -0.2295
 2218SOL     OW18289   4.099   4.167   4.516 -0.2977 -0.2453 -0.3771
 2218SOL    HW118290   4.135   4.079   4.530 -1.5997 -0.9090 -1.2315
 2218SOL    HW218291   4.022   4.170   4.572  0.5611  2.2104  0.6769
 2219SOL     OW18292   0.224   2.967  15.039 -0.5370  0.6779  0.0862
 2219SOL    HW118293   0.209   3.007  14.953 -0.3675  0.0478 -0.2370
 2219SOL    HW218294   0.212   2.875  15.016  0.7302  0.6011 -0.2577
 2220SOL     OW18295   2.264   0.535   4.018  0.0789  0.0677 -0.1038
 2220SOL    HW118296   2.312   0.474   3.961  1.6509  1.3559 -0.1824
 2220SOL    HW218297   2.173   0.509   4.008  0.3643 -1.0939  0.3100
 2221SOL     OW18298   4.369   0.600   3.350 -0.2627 -0.2130 -0.4747
 2221SOL    HW118299   4.402   0.528   3.297  0.9444 -0.4569  0.6079
 2221SOL    HW218300   4.276   0.590   3.329  0.0287 -1.0717 -1.3530
 2222SOL     OW18301   1.860   0.421   5.832 -0.1698  0.2599 -0.1367
 2222SOL    HW118302   1.887   0.343   5.785 -2.2531 -1.7019  1.8758
 2222SOL    HW218303   1.920   0.489   5.802  0.8112 -0.3518  0.4518
 2223SOL     OW18304   0.430   3.235   7.310 -0.2014  0.4108 -0.0529
 2223SOL    HW118305   0.468   3.296   7.372 -0.0430 -1.0534  1.2777
 2223SOL    HW218306   0.503   3.182   7.276 -1.6350 -2.3974  1.2240
 2224SOL     OW18307   1.533   1.688   1.766  0.5910 -0.3469 -0.8205
 2224SOL    HW118308   1.458   1.747   1.761 -0.6525 -1.9005 -0.4080
 2224SOL    HW218309   1.480   1.611   1.745  1.4026 -0.7595 -1.3963
 2225SOL     OW18310   0.518   3.699  17.538 -0.3850 -0.1774  0.2796
 2225SOL    HW118311   0.558   3.782  17.564  0.9433 -2.0618  4.1501
 2225SOL    HW218312   0.518   3.708  17.442  0.5423  0.2926  0.3199
 2226SOL     OW18313   3.130   1.103   9.817  0.3706 -0.7102  0.7173
 2226SOL    HW118314   3.192   1.174   9.838 -2.2188  1.4634  0.9337
 2226SOL    HW218315   3.185   1.027   9.839 -2.7247 -3.0788  0.1971
 2227SOL     OW18316   1.029   1.446   7.268 -0.2907 -0.1895 -0.5580
 2227SOL    HW118317   1.032   1.506   7.343 -0.7268  0.4636 -1.0695
 2227SOL    HW218318   1.056   1.367   7.315 -1.0297 -0.5925 -0.8130
 2228SOL     OW18319   3.243   0.127  15.828  0.6924  0.0528 -0.0185
 2228SOL    HW118320   3.170   0.149  15.770  1.8129  1.8705 -0.7405
 2228SOL    HW218321   3.208   0.046  15.865  1.5511 -0.7108 -0.8783
 2229SOL     OW18322   2.539   1.341   3.594 -0.1179 -0.5254  0.0564
 2229SOL    HW118323   2.587   1.269   3.552 -0.1970  0.3945 -1.6095
 2229SOL    HW218324   2.600   1.389   3.650  0.7626 -0.9236 -0.5658
 2230SOL     OW18325   0.703   0.245   3.292 -0.0046  0.1302 -0.1899
 2230SOL    HW118326   0.714   0.181   3.222  0.6890  1.1710 -1.0210
 2230SOL    HW218327   0.617   0.224   3.329  0.0738  1.7302  0.9175
 2231SOL     OW18328   3.125   4.372  12.858 -0.1445 -0.5958  0.1359
 2231SOL    HW118329   3.166   4.433  12.795 -0.7938  0.9120  1.1731
 2231SOL    HW218330   3.060   4.425  12.903  2.0060  0.5677  1.8708
 2232SOL     OW18331   3.875   1.573   6.893 -0.2858 -0.4143  0.0950
 2232SOL    HW118332   3.924   1.653   6.907  0.8707 -1.0829 -0.1236
 2232SOL    HW218333   3.942   1.506   6.880 -1.9675 -2.2522  0.7313
 2233SOL     OW18334   4.310   1.497   2.640 -0.3666 -0.2945 -0.0454
 2233SOL    HW118335   4.224   1.457   2.626  0.7495 -2.7424 -0.0001
 2233SOL    HW218336   4.371   1.434   2.601  0.1207 -0.6719  1.3018
 2234SOL     OW18337   3.281   2.634   3.168  0.0596 -0.1487  0.6000
 2234SOL    HW118338   3.229   2.710   3.142  1.6139  0.7656  0.1219
 2234SOL    HW218339   3.331   2.612   3.089  2.2538  2.9819  1.1201
 2235SOL     OW18340   3.807   0.646   2.528 -0.1465 -0.0593 -0.2290
 2235SOL    HW118341   3.868   0.606   2.589 -0.3942 -0.1962 -0.0693
 2235SOL    HW218342   3.862   0.715   2.491 -1.3528  0.8013 -0.4358
 2236SOL     OW18343   2.886   2.721   7.866  0.5123  0.1658 -0.1736
 2236SOL    HW118344   2.918   2.639   7.902  0.8357  1.1157  1.7132
 2236SOL    HW218345   2.817   2.736   7.931  0.2464  2.1175 -0.8919
 2237SOL     OW18346   3.732   0.573   7.793 -0.4702  0.1271  0.2775
 2237SOL    HW118347   3.788   0.496   7.802  0.0447  0.7233  2.0292
 2237SOL    HW218348   3.746   0.613   7.878 -0.7023 -1.9001  1.2660
 2238SOL     OW18349   4.700   3.346   3.431 -0.4594  0.1429  0.0679
 2238SOL    HW118350   0.013   3.336   3.513  0.2095  1.0271 -0.2375
 2238SOL    HW218351   4.613   3.338   3.470 -1.0205 -0.9931 -1.4262
 2239SOL     OW18352   4.314   1.725  11.026  0.0000  0.3160 -0.0888
 2239SOL    HW118353   4.277   1.746  11.112  0.8979  1.0890  0.1101
 2239SOL    HW218354   4.404   1.757  11.022  0.9151 -2.5139 -2.0077
 2240SOL     OW18355   1.689   4.395   6.302 -0.1886 -0.4962  0.3586
 2240SOL    HW118356   1.604   4.394   6.259 -0.7812  1.6003  1.4448
 2240SOL    HW218357   1.687   4.480   6.347  1.5178 -1.4788  2.3117
 2241SOL     OW18358   1.715   2.299  17.452  0.1570  0.1582  0.2180
 2241SOL    HW118359   1.771   2.290  17.528  0.5687  0.9836  0.0095
 2241SOL    HW218360   1.647   2.238  17.482 -0.2934  0.1008 -0.9169
 2242SOL     OW18361   0.136   1.832   2.372  0.0345  0.0230 -0.1979
 2242SOL    HW118362   0.177   1.895   2.431  0.1564  0.0756 -0.3381
 2242SOL    HW218363   0.117   1.761   2.433  0.8186  0.4444  0.5292
 2243SOL     OW18364   2.843   0.263   5.405 -0.2376  0.2612 -0.3521
 2243SOL    HW118365   2.900   0.249   5.481  1.0145  1.5408 -1.0538
 2243SOL    HW218366   2.802   0.177   5.411 -2.5655  1.2381 -2.3940
 2244SOL     OW18367   1.096   1.552  16.392 -0.8315 -0.0361 -0.4054
 2244SOL    HW118368   1.095   1.458  16.413 -1.3559 -0.0330 -0.4115
 2244SOL    HW218369   1.177   1.559  16.342  0.4528 -4.1833  1.0769
 2245SOL     OW18370   3.622   2.942   0.857 -0.2003 -0.4600  0.1081
 2245SOL    HW118371   3.656   2.856   0.830 -0.9463 -0.2849 -1.3848
 2245SOL    HW218372   3.682   3.006   0.819 -1.9563  2.4329  2.2750
 2246SOL     OW18373   0.435   2.527  12.393  0.2910  0.7419 -0.1915
 2246SOL    HW118374   0.495   2.533  12.467 -0.1961  2.7603  0.0376
 2246SOL    HW218375   0.351   2.500  12.428  0.5508  0.9961  0.6332
 2247SOL     OW18376   0.817   4.619   6.661  0.2141 -0.0368  0.6214
 2247SOL    HW118377   0.785   4.641   6.748 -0.8255  1.0505 -0.0429
 2247SOL    HW218378   0.871   4.693   6.632 -1.2602  0.6465 -0.3659
 2248SOL     OW18379   2.780   1.618   0.180 -0.3319  0.1128 -0.0138
 2248SOL    HW118380   2.751   1.669   0.104 -0.6688  0.3902  0.2978
 2248SOL    HW218381   2.741   1.531   0.170 -1.5659  0.8276 -1.5261
 2249SOL     OW18382   3.790   0.958   3.698 -0.3024  0.1355 -0.0881
 2249SOL    HW118383   3.727   0.887   3.695 -0.4670  0.2020  1.8287
 2249SOL    HW218384   3.843   0.926   3.771 -0.3340  1.1818  0.3932
 2250SOL     OW18385   4.059   1.854  13.885 -0.3191  0.5001  0.0110
 2250SOL    HW118386   4.087   1.780  13.832 -0.1924  0.8007 -0.3423
 2250SOL    HW218387   3.964   1.843  13.890 -0.2639 -1.1516 -2.8043
 2251SOL     OW18388   1.340   1.905   7.540  0.2311  0.0130  0.4075
 2251SOL    HW118389   1.430   1.917   7.509 -0.2038 -0.5132 -1.0891
 2251SOL    HW218390   1.353   1.821   7.583 -0.1052 -1.1339 -1.6883
 2252SOL     OW18391   1.610   3.371   7.989 -0.2692 -0.1379 -0.4924
 2252SOL    HW118392   1.601   3.425   7.910 -0.4137  0.7738  0.1518
 2252SOL    HW218393   1.609   3.443   8.051  0.6281 -0.3345 -0.2542
 2253SOL     OW18394   2.232   1.653  11.639 -0.3147 -0.2452 -0.4571
 2253SOL    HW118395   2.141   1.657  11.609 -0.3866 -1.2565 -0.3666
 2253SOL    HW218396   2.236   1.557  11.640 -1.6621 -0.3298 -2.2748
 2254SOL     OW18397   4.610   0.431   8.163  0.0424 -0.3571  0.0445
 2254SOL    HW118398   4.676   0.489   8.124  1.9676 -1.0723  2.2318
 2254SOL    HW218399   4.654   0.347   8.154 -1.4480 -0.9306 -1.8454
 2255SOL     OW18400   1.129   2.392   9.015 -0.4115 -0.4685 -0.3809
 2255SOL    HW118401   1.180   2.460   8.972  2.5930 -0.7730  2.7888
 2255SOL    HW218402   1.197   2.364   9.076 -0.5838  0.8564  0.4070
 2256SOL     OW18403   0.201   0.990   1.467 -0.4300  0.8951  0.0744
 2256SOL    HW118404   0.133   0.934   1.431  0.5103 -0.1349 -0.1113
 2256SOL    HW218405   0.276   0.949   1.424  1.0819  2.5200  1.1344
 2257SOL     OW18406   1.016   1.186   6.883  0.2006 -0.2762  0.2092
 2257SOL    HW118407   0.921   1.179   6.871  0.4816 -1.6347 -1.0807
 2257SOL    HW218408   1.023   1.273   6.924  0.4073 -0.2734  0.1650
 2258SOL     OW18409   3.455   1.434   3.783  0.3655  0.9833 -0.3557
 2258SOL    HW118410   3.543   1.458   3.755 -0.2355  1.3071 -1.9768
 2258SOL    HW218411   3.482   1.356   3.831 -2.1451 -0.3983 -1.2048
 2259SOL     OW18412   2.501   1.121   6.896 -1.3587  0.1512 -0.0527
 2259SOL    HW118413   2.528   1.108   6.986  1.0289 -0.4935 -0.8545
 2259SOL    HW218414   2.424   1.178   6.890  0.7420  3.0023  0.0344
 2260SOL     OW18415   1.959   0.967   0.821 -0.1504 -0.2560  0.4614
 2260SOL    HW118416   1.925   0.893   0.771 -0.0406  0.1277 -0.1787
 2260SOL    HW218417   2.053   0.947   0.821  0.0091  0.4769 -1.3130
 2261SOL     OW18418   1.081   3.608  16.620  0.1854  0.1064  0.1659
 2261SOL    HW118419   1.105   3.561  16.541  3.0294 -0.8710  1.6232
 2261SOL    HW218420   1.004   3.650  16.579  1.4633  0.2922 -2.0304
 2262SOL     OW18421   2.274   1.717   5.836  0.3625  0.3028 -0.2519
 2262SOL    HW118422   2.256   1.744   5.746 -0.0855  1.4940  0.1965
 2262SOL    HW218423   2.315   1.633   5.814 -0.5134 -1.1676  3.6805
 2263SOL     OW18424   3.508   2.222   4.462 -0.0104 -0.1381 -0.1601
 2263SOL    HW118425   3.593   2.205   4.503  1.1872 -0.0591 -2.6443
 2263SOL    HW218426   3.518   2.250   4.371 -0.3815 -1.3711 -0.5731
 2264SOL     OW18427   0.520   4.657  15.684 -0.1999 -0.0733  0.5759
 2264SOL    HW118428   0.426   4.666  15.667 -0.2208 -0.4246  0.5102
 2264SOL    HW218429   0.557   0.004  15.655 -1.1051 -0.3482 -1.3946
 2265SOL     OW18430   0.802   2.850   6.040 -0.3250  0.1775  0.0345
 2265SOL    HW118431   0.786   2.802   5.959  0.7999 -2.6661  1.5237
 2265SOL    HW218432   0.873   2.904   6.005  0.2406  0.2369  1.2918
 2266SOL     OW18433   1.957   1.610   1.199 -0.2765  0.1825  0.5657
 2266SOL    HW118434   2.042   1.649   1.177 -0.0525 -1.2850 -1.1493
 2266SOL    HW218435   1.975   1.565   1.281  2.1761 -0.9100 -0.5741
 2267SOL     OW18436   0.327   4.439   5.861 -0.1013  0.2344  0.0077
 2267SOL    HW118437   0.287   4.377   5.799  2.0666  0.2932 -1.4305
 2267SOL    HW218438   0.419   4.415   5.864  0.4050  2.0532 -1.1319
 2268SOL     OW18439   2.776   0.323   8.690 -0.2503 -0.0429 -0.2458
 2268SOL    HW118440   2.827   0.395   8.728  0.0034 -0.6692  0.5882
 2268SOL    HW218441   2.776   0.362   8.602  2.3345 -0.0083 -0.2397
 2269SOL     OW18442   3.606   2.925   7.500 -0.1181 -0.2624 -0.0244
 2269SOL    HW118443   3.648   2.841   7.480  0.5033 -0.0766  0.5019
 2269SOL    HW218444   3.570   2.908   7.587 -1.9745 -1.4920 -1.0215
 2270SOL     OW18445   1.506   0.644  16.164 -0.4105 -0.3718 -0.2638
 2270SOL    HW118446   1.561   0.611  16.235 -1.1836 -3.0357 -0.9271
 2270SOL    HW218447   1.470   0.721  16.209  0.7028  0.2035 -0.3617
 2271SOL     OW18448   4.637   3.773  12.453  0.2884 -0.2055  0.5040
 2271SOL    HW118449   4.609   3.844  12.511  0.8939  0.9929 -0.6926
 2271SOL    HW218450   4.618   3.697  12.509  2.5147 -0.0570  1.4403
 2272SOL     OW18451   4.717   1.417   5.629  0.7223  0.8979 -0.0320
 2272SOL    HW118452   0.055   1.358   5.645 -2.3525 -3.0639 -0.3243
 2272SOL    HW218453   4.677   1.403   5.715  0.2360 -0.6544 -0.5085
 2273SOL     OW18454   1.129   3.701   4.353 -0.0425 -0.0991 -0.3661
 2273SOL    HW118455   1.107   3.782   4.308  1.5450  1.0281  0.8663
 2273SOL    HW218456   1.082   3.722   4.434  2.6241 -2.1615  1.6934
 2274SOL     OW18457   0.145   2.048  14.071  0.5962 -0.2427  0.1990
 2274SOL    HW118458   0.079   1.980  14.069 -1.0342  1.3399 -0.1243
 2274SOL    HW218459   0.162   2.059  13.977 -0.3345  0.3374  0.1063
 2275SOL     OW18460   2.805   0.250  10.262 -0.0075 -0.3362 -0.7566
 2275SOL    HW118461   2.831   0.173  10.211  0.1909 -0.2209 -0.8291
 2275SOL    HW218462   2.791   0.211  10.349  2.1138  0.5284 -0.0404
 2276SOL     OW18463   0.729   1.377   4.140  0.1842  0.3813 -0.0325
 2276SOL    HW118464   0.739   1.446   4.074 -0.9143  1.7658  1.2501
 2276SOL    HW218465   0.693   1.307   4.086  0.9091  0.4489 -0.6084
 2277SOL     OW18466   3.411   3.937  13.005 -0.0343  0.4102 -0.0030
 2277SOL    HW118467   3.379   4.027  13.008 -1.6553 -0.1577 -0.4482
 2277SOL    HW218468   3.464   3.930  12.926 -1.1172 -1.4456 -0.5739
 2278SOL     OW18469   2.818   0.798   8.371  0.1751 -0.2436 -0.4817
 2278SOL    HW118470   2.741   0.847   8.400 -0.8878 -1.6380 -0.9293
 2278SOL    HW218471   2.892   0.858   8.383 -1.9310  1.9006  1.9518
 2279SOL     OW18472   0.705   0.705  14.682 -0.0275 -0.0189  0.3622
 2279SOL    HW118473   0.654   0.641  14.633  1.4638 -0.9096 -0.0308
 2279SOL    HW218474   0.648   0.780  14.671 -1.0081 -1.1268 -2.0299
 2280SOL     OW18475   2.187   0.191   9.599 -0.1458  0.3233 -0.1162
 2280SOL    HW118476   2.121   0.253   9.627 -0.8236 -0.8959  1.0060
 2280SOL    HW218477   2.146   0.193   9.513 -1.3856 -0.5204  0.4500
 2281SOL     OW18478   1.377   1.480   1.659  0.2870 -0.4944 -0.1514
 2281SOL    HW118479   1.288   1.493   1.692  0.3072 -1.7629  0.4255
 2281SOL    HW218480   1.373   1.511   1.568  0.9660  0.5682  0.1855
 2282SOL     OW18481   3.960   1.469   5.296  0.6155 -0.3856  0.1481
 2282SOL    HW118482   3.927   1.380   5.287 -2.2704  0.6805 -0.0195
 2282SOL    HW218483   3.902   1.523   5.242 -0.2933  1.3550  2.8831
 2283SOL     OW18484   3.903   3.442  10.809  0.0916 -0.2689 -0.3156
 2283SOL    HW118485   3.972   3.421  10.872 -1.1999  0.9006  1.4743
 2283SOL    HW218486   3.959   3.474  10.737 -0.3810  2.2845  0.4696
 2284SOL     OW18487   0.118   1.354   6.707 -0.2512  0.4786 -0.2109
 2284SOL    HW118488   0.098   1.411   6.633 -0.3753  2.1064  1.0655
 2284SOL    HW218489   0.213   1.350   6.699 -0.1500 -1.2267  1.8650
 2285SOL     OW18490   4.263   3.335  15.100 -0.9938  0.1142 -0.4137
 2285SOL    HW118491   4.279   3.428  15.121 -0.1513 -0.9706  3.7685
 2285SOL    HW218492   4.353   3.321  15.070  0.1485  2.0693  1.9780
 2286SOL     OW18493   3.246   1.298   6.562  0.5334 -0.9033 -0.3566
 2286SOL    HW118494   3.274   1.333   6.477 -0.6892 -1.5055 -0.9955
 2286SOL    HW218495   3.271   1.207   6.547  0.7850 -1.0428  0.8632
 2287SOL     OW18496   2.937   1.411   3.899  0.0940 -0.4239 -0.0568
 2287SOL    HW118497   2.965   1.502   3.893 -0.4929 -0.2416 -0.0415
 2287SOL    HW218498   3.020   1.367   3.879  0.2129 -0.4962  0.5894
 2288SOL     OW18499   0.342   1.258   7.308 -0.0818 -0.1763 -0.1640
 2288SOL    HW118500   0.296   1.238   7.390  0.3425 -2.2635 -0.4369
 2288SOL    HW218501   0.322   1.351   7.302 -0.9790 -0.3383  0.2801
 2289SOL     OW18502   2.169   4.666   1.914  0.9438 -0.4705 -0.6310
 2289SOL    HW118503   2.241   4.607   1.894  0.6880 -0.8298 -0.4828
 2289SOL    HW218504   2.187   4.734   1.849 -0.1583 -0.2496 -0.7028
 2290SOL     OW18505   0.164   1.840   4.084  0.1863  0.2880 -0.1932
 2290SOL    HW118506   0.136   1.860   4.174 -1.8339 -0.2217 -0.7150
 2290SOL    HW218507   0.188   1.750   4.107  1.4367  0.6110 -0.2107
 2291SOL     OW18508   0.257   0.927   9.155 -0.0813 -0.0212  0.1731
 2291SOL    HW118509   0.258   0.837   9.186  1.2380 -0.8112 -2.1318
 2291SOL    HW218510   0.236   0.921   9.062 -0.6179  1.1878  0.2099
 2292SOL     OW18511   2.412   4.418   5.516 -0.3790  0.7879 -0.2836
 2292SOL    HW118512   2.433   4.474   5.440 -2.6471  2.5199  0.3979
 2292SOL    HW218513   2.435   4.479   5.585  0.4511  1.2419 -0.9529
 2293SOL     OW18514   0.308   4.382   4.472  0.1911 -0.0158 -0.5873
 2293SOL    HW118515   0.386   4.327   4.460 -0.7374 -1.1441 -1.4303
 2293SOL    HW218516   0.238   4.319   4.454  1.5579 -1.7153 -0.0461
 2294SOL     OW18517   1.891   3.585  12.176 -0.5175  0.0606 -0.0904
 2294SOL    HW118518   1.807   3.630  12.165 -1.2827 -1.1470  0.8570
 2294SOL    HW218519   1.930   3.628  12.253 -0.6222 -0.5600  0.3057
 2295SOL     OW18520   4.317   2.934   4.730  0.1956  0.3103 -0.4828
 2295SOL    HW118521   4.260   3.010   4.734  0.5238  0.4887  0.8143
 2295SOL    HW218522   4.265   2.877   4.674  1.1297 -0.6701 -0.3631
 2296SOL     OW18523   1.239   0.208   4.776 -0.0290  0.4579  0.5117
 2296SOL    HW118524   1.155   0.219   4.821  0.8028  0.7376  2.0030
 2296SOL    HW218525   1.249   0.113   4.768  1.2987  0.6349  0.0540
 2297SOL     OW18526   4.358   4.525  15.155 -0.0880  0.0163 -0.0722
 2297SOL    HW118527   4.339   4.574  15.075  3.3397 -0.9975 -1.5209
 2297SOL    HW218528   4.395   4.449  15.111  0.4709  0.5361 -0.4985
 2298SOL     OW18529   3.958   2.099   1.408  0.7848  0.7149 -0.2627
 2298SOL    HW118530   4.014   2.029   1.443  0.8360 -0.0348 -1.8350
 2298SOL    HW218531   3.945   2.059   1.321  1.4479  1.3441 -0.6537
 2299SOL     OW18532   0.285   3.739  11.113  0.0198  0.1626  0.0459
 2299SOL    HW118533   0.289   3.796  11.190  3.3280 -0.1937  0.1444
 2299SOL    HW218534   0.327   3.656  11.136  1.6790  0.6615 -1.1770
 2300SOL     OW18535   3.289   3.345   2.067  0.2600 -0.0553 -0.5035
 2300SOL    HW118536   3.357   3.343   2.134 -1.2537 -0.2299  1.0241
 2300SOL    HW218537   3.236   3.413   2.108  2.9022  0.5236  1.9812
 2301SOL     OW18538   4.219   3.435   8.653  0.3556  0.4102 -0.4549
 2301SOL    HW118539   4.178   3.411   8.736 -0.2390  0.9916 -0.5842
 2301SOL    HW218540   4.150   3.484   8.609 -0.8976 -0.7281  0.2273
 2302SOL     OW18541   4.734   2.547   0.960 -0.2296 -0.1869  0.5567
 2302SOL    HW118542   4.643   2.550   0.989 -1.4343  0.2116 -3.2162
 2302SOL    HW218543   0.021   2.640   0.973  0.7309 -0.6574  2.2761
 2303SOL     OW18544   2.060   0.068   7.109 -0.3365  0.1506  0.2280
 2303SOL    HW118545   2.057   0.094   7.201 -0.2267  2.0947 -0.3268
 2303SOL    HW218546   1.973   0.069   7.069 -0.0163  1.6307 -0.4432
 2304SOL     OW18547   1.378   2.417   6.986 -0.2820 -0.0376  0.3056
 2304SOL    HW118548   1.311   2.470   6.944  0.6319 -0.2948 -1.4467
 2304SOL    HW218549   1.434   2.413   6.909 -0.8872 -2.2755 -0.0247
 2305SOL     OW18550   3.409   0.970  11.568  0.1946 -0.6529  0.4611
 2305SOL    HW118551   3.341   0.963  11.501  1.8181  0.1604 -1.2669
 2305SOL    HW218552   3.390   1.064  11.574  1.4168 -0.4660  1.6249
 2306SOL     OW18553   4.294   0.340   2.106 -0.1496 -0.7337  0.3810
 2306SOL    HW118554   4.276   0.300   2.191  0.6453 -1.8497  0.0313
 2306SOL    HW218555   4.333   0.264   2.063  1.5427  0.9394 -1.0342
 2307SOL     OW18556   2.297   2.027  14.478 -0.5737 -0.5307 -0.0110
 2307SOL    HW118557   2.248   1.992  14.403  1.2862 -1.7127 -0.6857
 2307SOL    HW218558   2.258   1.983  14.554  1.1553  0.2477  1.3164
 2308SOL     OW18559   0.645   2.559  12.575 -0.5586 -0.2990 -0.1515
 2308SOL    HW118560   0.671   2.544  12.666 -0.3804  2.7990  0.3208
 2308SOL    HW218561   0.695   2.639  12.556  0.3330 -0.7765  0.2334
 2309SOL     OW18562   2.121   1.030   5.096 -0.3722 -0.0821  0.0144
 2309SOL    HW118563   2.108   0.937   5.118 -1.6721 -0.2209 -1.2895
 2309SOL    HW218564   2.060   1.070   5.158  3.5062  1.3140  2.8865
 2310SOL     OW18565   1.247   0.420  10.197  0.1487  0.0961  0.1831
 2310SOL    HW118566   1.277   0.367  10.124  0.7170  0.4206  0.1834
 2310SOL    HW218567   1.313   0.488  10.205  0.7461 -0.5582  0.7665
 2311SOL     OW18568   4.241   0.745   9.331  0.4277  0.1571  0.6149
 2311SOL    HW118569   4.217   0.735   9.239  2.6257  0.1001  0.0493
 2311SOL    HW218570   4.336   0.757   9.324  0.3889 -0.3554 -0.7678
 2312SOL     OW18571   4.010   3.470   2.819  0.2408 -0.3777 -0.3321
 2312SOL    HW118572   4.036   3.387   2.859  0.7366 -0.4677 -0.8496
 2312SOL    HW218573   4.096   3.508   2.804  0.3195  0.2654  1.6833
 2313SOL     OW18574   1.633   2.963   1.931  0.0246  0.3098  0.0001
 2313SOL    HW118575   1.655   2.878   1.969 -1.0408 -0.7333 -1.7396
 2313SOL    HW218576   1.640   2.938   1.839 -0.3332 -0.2920  0.1364
 2314SOL     OW18577   1.002   0.949   7.068  0.4972  0.1437 -0.2264
 2314SOL    HW118578   1.035   1.005   6.998  1.0095 -0.0275 -0.1214
 2314SOL    HW218579   0.997   1.009   7.142 -1.7950  0.2279 -0.4215
 2315SOL     OW18580   2.432   3.786   9.134 -0.2574  0.3001  0.0478
 2315SOL    HW118581   2.507   3.841   9.112 -1.0477  1.8658  1.1981
 2315SOL    HW218582   2.412   3.809   9.225  0.7177  0.5380  0.2029
 2316SOL     OW18583   0.184   2.835  13.109  0.4544  0.6055 -0.2100
 2316SOL    HW118584   0.174   2.906  13.046 -0.3770  0.6630  0.0015
 2316SOL    HW218585   0.184   2.875  13.195  1.7215 -1.4016  0.7293
 2317SOL     OW18586   3.507   2.332   1.562 -0.3868 -0.1532 -0.1406
 2317SOL    HW118587   3.560   2.253   1.576  1.0558  0.9091  0.3603
 2317SOL    HW218588   3.425   2.296   1.597 -1.3978  0.2474 -2.1376
 2318SOL     OW18589   4.529   0.524  12.922  0.4124 -0.1589  0.4627
 2318SOL    HW118590   4.527   0.472  12.841 -0.4604  0.0214  0.3656
 2318SOL    HW218591   4.442   0.565  12.924  0.2107 -0.5547  0.0623
 2319SOL     OW18592   2.191   0.751   6.128  0.0821 -0.1145 -0.5068
 2319SOL    HW118593   2.260   0.736   6.063  1.8101  0.0106  1.3218
 2319SOL    HW218594   2.130   0.811   6.085  1.4275  0.8689 -1.0409
 2320SOL     OW18595   1.013   0.317  10.566 -0.3965  0.1295  0.3136
 2320SOL    HW118596   1.031   0.325  10.472  1.0780  0.6542  0.6321
 2320SOL    HW218597   1.095   0.275  10.592 -0.6026  0.0315  0.8131
 2321SOL     OW18598   1.781   0.144   9.710  0.0296 -0.0368  0.3562
 2321SOL    HW118599   1.839   0.084   9.662 -0.9551 -1.9909  1.5964
 2321SOL    HW218600   1.788   0.106   9.797 -1.3039  1.5607  1.1459
 2322SOL     OW18601   2.632   4.090   0.598  0.1558  0.3469  0.0457
 2322SOL    HW118602   2.598   4.125   0.680 -0.8976 -0.2026 -0.1561
 2322SOL    HW218603   2.555   4.119   0.550  0.8804  2.2904  0.0721
 2323SOL     OW18604   4.724   0.144   7.676  0.1456 -0.1542  0.7935
 2323SOL    HW118605   0.014   0.059   7.641  1.0275  0.4629 -0.0319
 2323SOL    HW218606   4.653   0.110   7.730 -1.2373  0.2965 -0.7359
 2324SOL     OW18607   3.084   2.034   2.594 -0.5969  0.2679 -0.3747
 2324SOL    HW118608   3.021   2.040   2.523  1.2139  0.0287 -2.0176
 2324SOL    HW218609   3.141   1.960   2.572 -0.7732  0.2040 -0.6131
 2325SOL     OW18610   3.622   1.786   4.862  0.4213  0.2783  0.4092
 2325SOL    HW118611   3.708   1.747   4.845  0.2486 -0.4055  1.0424
 2325SOL    HW218612   3.575   1.716   4.908 -0.5418 -0.1502 -1.2323
 2326SOL     OW18613   3.180   3.535   8.225 -0.3626 -0.0071  0.2742
 2326SOL    HW118614   3.249   3.515   8.289 -0.9163  0.9678  1.1938
 2326SOL    HW218615   3.121   3.461   8.241 -0.6639 -0.0486 -1.0354
 2327SOL     OW18616   3.935   3.945  16.364  0.1698 -0.2653  0.2618
 2327SOL    HW118617   3.873   3.991  16.307  1.4214 -0.2934 -1.1142
 2327SOL    HW218618   3.947   4.003  16.440  2.2756 -1.0794  0.5423
 2328SOL     OW18619   3.919   3.845   2.465  0.2015  0.6474  0.2134
 2328SOL    HW118620   3.850   3.792   2.424  0.0431  0.2903  0.9482
 2328SOL    HW218621   3.886   3.924   2.423 -0.0544  0.6795  0.4788
 2329SOL     OW18622   1.053   1.317  11.592 -0.3905  0.1143 -0.7478
 2329SOL    HW118623   0.992   1.391  11.590 -0.6450 -0.0130  1.6882
 2329SOL    HW218624   1.138   1.358  11.607 -0.9382  1.0758 -0.2366
 2330SOL     OW18625   1.032   3.098  14.015  0.2681  0.2936 -0.0354
 2330SOL    HW118626   1.023   3.151  13.936  1.7086  0.8048  0.1470
 2330SOL    HW218627   1.103   3.151  14.052 -0.8794  3.0052 -1.7496
 2331SOL     OW18628   0.108   0.782   5.927 -0.1204 -0.1155 -0.8598
 2331SOL    HW118629   0.059   0.771   6.009  0.7430  4.0388  0.2084
 2331SOL    HW218630   0.064   0.861   5.895  0.4161  0.4419 -0.2326
 2332SOL     OW18631   2.328   2.465   7.737  0.2326 -0.0256 -0.1487
 2332SOL    HW118632   2.329   2.415   7.818  0.9874  0.7842  0.3375
 2332SOL    HW218633   2.418   2.493   7.721  0.1126  0.9557  0.9054
 2333SOL     OW18634   1.088   1.894   3.405 -0.1810  0.0960  0.3600
 2333SOL    HW118635   1.166   1.883   3.458  0.4280 -0.2437 -0.6099
 2333SOL    HW218636   1.021   1.872   3.470  0.9898 -0.2211  1.4633
 2334SOL     OW18637   1.261   1.248  14.686  0.4406  0.3124 -0.6230
 2334SOL    HW118638   1.351   1.271  14.663  0.3103  1.2625 -0.1873
 2334SOL    HW218639   1.217   1.333  14.684 -1.0761 -0.4955 -1.0880
 2335SOL     OW18640   0.802   0.118   3.077 -0.4067  0.4553  0.2651
 2335SOL    HW118641   0.869   0.050   3.073 -0.4594  0.4743 -1.2736
 2335SOL    HW218642   0.754   0.110   2.994  0.3111  1.3981 -0.2450
 2336SOL     OW18643   4.157   1.227  16.720  0.0185  0.4475 -0.3816
 2336SOL    HW118644   4.129   1.172  16.794 -0.0295  0.6202 -0.2696
 2336SOL    HW218645   4.072   1.212  16.678  0.0256 -1.3258  0.2042
 2337SOL     OW18646   1.562   4.261  11.865 -0.5869 -0.5877  0.4101
 2337SOL    HW118647   1.622   4.188  11.882  0.6112  0.3168 -0.0047
 2337SOL    HW218648   1.526   4.260  11.954  2.7676 -0.7738  1.7745
 2338SOL     OW18649   1.009   2.406   0.637 -0.1123  0.3815  0.2625
 2338SOL    HW118650   0.967   2.405   0.723  0.5715 -1.7626  0.5830
 2338SOL    HW218651   1.063   2.328   0.650 -1.2449 -0.2472  1.1700
 2339SOL     OW18652   3.190   3.431   3.165 -0.8600 -0.3646 -0.1806
 2339SOL    HW118653   3.169   3.450   3.074 -1.3407 -0.5777 -0.1114
 2339SOL    HW218654   3.125   3.481   3.214  0.1614  0.2603  0.5642
 2340SOL     OW18655   1.099   0.902   6.736 -0.3161  0.3398 -0.3988
 2340SOL    HW118656   1.028   0.907   6.672 -0.0269  2.8051 -0.5425
 2340SOL    HW218657   1.061   0.822   6.774  1.9116  0.2162  1.5199
 2341SOL     OW18658   2.501   0.565   7.859 -0.0985 -0.3829  0.1092
 2341SOL    HW118659   2.568   0.628   7.886 -0.6989  0.7380 -1.0018
 2341SOL    HW218660   2.497   0.503   7.932  1.9932 -2.3743 -1.4591
 2342SOL     OW18661   1.402   2.639   1.819 -0.7308 -0.0700 -0.0094
 2342SOL    HW118662   1.316   2.618   1.781 -0.6625  0.3761 -0.4121
 2342SOL    HW218663   1.462   2.586   1.768  0.4558 -0.4808  1.8316
 2343SOL     OW18664   1.830   4.581   7.546  0.1691 -0.5719  0.3239
 2343SOL    HW118665   1.745   4.546   7.520  0.6975 -0.4387 -1.5846
 2343SOL    HW218666   1.811   4.673   7.527  2.0293 -0.3001 -0.2610
 2344SOL     OW18667   1.906   0.520   3.732  0.3061 -0.0654 -0.6365
 2344SOL    HW118668   1.894   0.508   3.638  1.3256 -0.0777 -0.7651
 2344SOL    HW218669   1.988   0.570   3.731  0.1548  0.1576 -1.4301
 2345SOL     OW18670   1.812   2.633   3.247  0.3076 -0.2057  0.3219
 2345SOL    HW118671   1.830   2.639   3.154 -1.3627 -3.0129 -0.1833
 2345SOL    HW218672   1.875   2.564   3.270 -0.4035 -0.9359  0.0612
 2346SOL     OW18673   3.124   1.721   3.076  0.1151 -0.2241 -0.3804
 2346SOL    HW118674   3.096   1.647   3.022  0.8539 -0.6039 -0.2400
 2346SOL    HW218675   3.211   1.690   3.099  0.2211 -0.7376 -1.4910
 2347SOL     OW18676   4.662   0.151   6.383 -0.4346 -0.0957 -0.1830
 2347SOL    HW118677   4.638   0.241   6.363  0.6819  0.1826 -0.3155
 2347SOL    HW218678   4.659   0.100   6.301 -1.1163 -0.2814 -0.0381
 2348SOL     OW18679   1.366   2.756  12.878 -0.4591  0.8375 -0.0120
 2348SOL    HW118680   1.389   2.663  12.877  0.3580  1.0295  1.3373
 2348SOL    HW218681   1.440   2.790  12.928  1.3337 -3.7367  0.3988
 2349SOL     OW18682   0.981   0.226   8.204  0.0369  0.7814 -0.3798
 2349SOL    HW118683   1.018   0.304   8.245 -0.8784  1.7946 -1.4929
 2349SOL    HW218684   0.990   0.162   8.274 -1.7124  0.9784  0.0126
 2350SOL     OW18685   1.074   2.402   3.230  0.1658  0.2783 -0.3333
 2350SOL    HW118686   1.150   2.457   3.249 -1.7410  2.7923  0.0451
 2350SOL    HW218687   1.054   2.375   3.320 -1.1372 -2.6597 -1.5001
 2351SOL     OW18688   4.646   4.510  16.589 -0.4887  0.3912 -0.3226
 2351SOL    HW118689   4.631   4.500  16.495 -0.5234  1.3079 -0.4136
 2351SOL    HW218690   0.004   4.524  16.589 -0.2297 -1.3570 -0.9305
 2352SOL     OW18691   0.928   0.558   4.616 -0.1709 -0.1956  0.0448
 2352SOL    HW118692   0.862   0.502   4.574  0.1928 -1.6026  1.3495
 2352SOL    HW218693   0.913   0.528   4.706  1.1532 -0.4883  0.1594
 2353SOL     OW18694   4.534   2.843   6.851 -0.4253 -0.5957 -0.0986
 2353SOL    HW118695   4.459   2.855   6.793 -0.2103 -0.9485 -0.4566
 2353SOL    HW218696   4.494   2.844   6.938 -3.5949 -0.6275 -1.5792
 2354SOL     OW18697   0.151   0.773   7.550 -0.3925 -0.5403  0.1885
 2354SOL    HW118698   0.170   0.833   7.478  3.1649 -3.5754 -1.4485
 2354SOL    HW218699   0.237   0.738   7.576  0.1907  0.5029 -0.3174
 2355SOL     OW18700   1.955   4.465   4.565 -0.2162  0.6208  1.1098
 2355SOL    HW118701   1.952   4.427   4.653 -2.5793 -0.5108  0.5460
 2355SOL    HW218702   1.880   4.418   4.530  1.2612  0.2197 -1.5006
 2356SOL     OW18703   1.508   3.001   4.572  0.4251 -0.3496  0.1013
 2356SOL    HW118704   1.437   3.003   4.636 -1.0487 -0.5978 -1.5136
 2356SOL    HW218705   1.489   3.084   4.528 -0.9837 -1.9452 -2.3196
 2357SOL     OW18706   3.168   4.588   7.954  0.1873 -0.3191  0.1129
 2357SOL    HW118707   3.193   4.658   8.015 -0.6582 -0.6949  0.8959
 2357SOL    HW218708   3.087   4.559   7.996 -0.5824  0.3813 -0.9133
 2358SOL     OW18709   3.125   0.200   6.950  0.4025 -0.4562 -0.3339
 2358SOL    HW118710   3.139   0.156   7.033  2.4793  0.8320 -0.0064
 2358SOL    HW218711   3.158   0.135   6.888  1.4693 -1.3564  1.2078
 2359SOL     OW18712   4.519   3.381   5.632  0.1108 -0.6287 -0.1305
 2359SOL    HW118713   4.563   3.461   5.661  0.4105 -0.5589 -0.7792
 2359SOL    HW218714   4.506   3.406   5.541 -1.9959 -0.9586  0.0768
 2360SOL     OW18715   3.460   1.516   2.063 -0.0458 -0.4370  0.0239
 2360SOL    HW118716   3.422   1.431   2.084 -1.3808  0.8643  2.9140
 2360SOL    HW218717   3.444   1.558   2.148 -3.2711  1.2357 -1.3999
 2361SOL     OW18718   0.897   0.716   2.381 -0.7551 -0.1325 -0.0026
 2361SOL    HW118719   0.988   0.741   2.393 -1.1385  1.6400 -0.7829
 2361SOL    HW218720   0.891   0.684   2.471 -2.2922 -0.9297 -0.3873
 2362SOL     OW18721   3.307   3.149   7.262  0.9138 -0.0485 -0.2363
 2362SOL    HW118722   3.322   3.240   7.288 -2.8854  0.8854 -1.3291
 2362SOL    HW218723   3.238   3.167   7.198 -0.0921  0.0751  0.8877
 2363SOL     OW18724   0.668   0.924   2.418  0.2637  0.0878  0.1353
 2363SOL    HW118725   0.601   0.898   2.482 -0.8272  0.7434 -0.7324
 2363SOL    HW218726   0.721   0.850   2.391  0.5753  0.3609 -0.0023
 2364SOL     OW18727   2.115   0.176  12.398  0.1248 -0.5070 -0.5398
 2364SOL    HW118728   2.149   0.208  12.481 -0.2267  1.0502 -0.9859
 2364SOL    HW218729   2.073   0.095  12.426 -0.3187  0.4308  1.4537
 2365SOL     OW18730   1.999   4.178   5.028 -0.1005  0.4365 -0.1527
 2365SOL    HW118731   2.073   4.149   5.080  0.1902  2.4530  0.5738
 2365SOL    HW218732   1.924   4.143   5.077 -0.7820  1.2136 -0.6278
 2366SOL     OW18733   2.514   3.578  17.706 -0.7441  0.1378  0.2009
 2366SOL    HW118734   2.460   3.651  17.675  0.3396  1.3699  1.2502
 2366SOL    HW218735   2.598   3.621  17.693 -0.0220 -0.9391  1.2594
 2367SOL     OW18736   0.903   1.909   5.167  0.3265  0.1150 -0.4225
 2367SOL    HW118737   0.884   1.993   5.210 -0.6103 -0.1840 -0.2533
 2367SOL    HW218738   0.994   1.927   5.141  0.6099 -1.0490 -0.2341
 2368SOL     OW18739   2.897   4.629   6.978  0.1963  0.0078 -0.3626
 2368SOL    HW118740   2.843   4.552   6.997  0.9391 -0.6159 -0.7785
 2368SOL    HW218741   2.981   4.604   7.016 -0.3170  0.6240  1.1701
 2369SOL     OW18742   1.901   3.199  16.741  0.3638  0.5219 -0.1988
 2369SOL    HW118743   1.896   3.104  16.726 -1.3131  0.6732 -0.6603
 2369SOL    HW218744   1.942   3.197  16.827  0.2185 -1.0295 -0.1698
 2370SOL     OW18745   0.945   1.504   4.772 -0.6112  0.5760  0.3279
 2370SOL    HW118746   0.960   1.520   4.679  0.4885 -1.4968  0.1631
 2370SOL    HW218747   0.869   1.446   4.764 -0.5224  0.5472 -0.2932
 2371SOL     OW18748   2.373   1.924   2.194  0.3059 -0.4990 -0.1924
 2371SOL    HW118749   2.336   1.875   2.267  2.3791  0.2400  1.3487
 2371SOL    HW218750   2.295   1.974   2.170  0.3374 -0.4919 -0.2819
 2372SOL     OW18751   3.003   1.548  14.394  0.2639  0.3375 -0.3615
 2372SOL    HW118752   3.024   1.464  14.435 -1.5210 -0.3091 -0.7725
 2372SOL    HW218753   3.010   1.526  14.301 -4.6930 -1.3886 -0.3058
 2373SOL     OW18754   2.309   3.258   4.367 -0.5723 -0.8806  0.0931
 2373SOL    HW118755   2.304   3.164   4.350  0.1396 -0.8256 -0.4184
 2373SOL    HW218756   2.234   3.293   4.320 -0.3889 -0.1667  0.3441
 2374SOL     OW18757   2.036   3.835   0.886 -0.6234  0.0089 -0.0190
 2374SOL    HW118758   2.109   3.835   0.824 -2.0784 -0.7087 -1.7532
 2374SOL    HW218759   2.065   3.910   0.938  0.7332 -1.0039  0.6677
 2375SOL     OW18760   2.290   2.265   2.034 -0.4157 -0.3201 -0.2277
 2375SOL    HW118761   2.256   2.176   2.026  1.1033 -0.7650 -1.7470
 2375SOL    HW218762   2.231   2.317   1.979 -1.2634 -1.3417 -0.3010
 2376SOL     OW18763   0.009   1.333   5.358  0.8700 -0.2959 -0.3646
 2376SOL    HW118764   0.041   1.258   5.409  2.4382  1.1943  0.8851
 2376SOL    HW218765   4.721   1.389   5.432 -0.1701 -1.1256 -0.0773
 2377SOL     OW18766   3.422   3.781  12.489 -0.1552 -0.0335  0.0879
 2377SOL    HW118767   3.365   3.778  12.566 -0.5383 -0.5500 -0.2181
 2377SOL    HW218768   3.376   3.851  12.443 -0.4337  0.3722  0.9812
 2378SOL     OW18769   3.708   2.884  10.513  0.3098 -0.0681  0.3853
 2378SOL    HW118770   3.783   2.887  10.571  1.0014 -0.2481 -0.4921
 2378SOL    HW218771   3.636   2.849  10.565  0.5645  0.7935  1.3103
 2379SOL     OW18772   2.171   2.521   1.521  0.0974 -0.2340 -0.6191
 2379SOL    HW118773   2.169   2.615   1.500  1.8435 -0.4803 -1.9288
 2379SOL    HW218774   2.256   2.517   1.565  0.7540  1.2708 -1.7201
 2380SOL     OW18775   3.858   4.138   4.273  0.1666  0.4406 -0.4030
 2380SOL    HW118776   3.913   4.063   4.298  1.2204  1.0203 -0.9485
 2380SOL    HW218777   3.884   4.148   4.181 -2.3226 -0.0402 -1.1456
 2381SOL     OW18778   2.124   0.747  16.735 -0.6159  0.2284 -0.0715
 2381SOL    HW118779   2.145   0.789  16.818 -0.4698  1.0418 -0.5149
 2381SOL    HW218780   2.111   0.656  16.762 -1.6844  0.1102 -0.9494
 2382SOL     OW18781   2.489   4.640  11.164  0.0564  0.2601 -0.3124
 2382SOL    HW118782   2.552   4.711  11.178 -0.5636  1.0732 -1.6664
 2382SOL    HW218783   2.539   4.567  11.200 -0.0471  0.1590 -0.3739
 2383SOL     OW18784   1.090   1.098   7.986  0.2911  0.0452  0.3022
 2383SOL    HW118785   1.021   1.106   8.052  1.5863  3.0494  1.3087
 2383SOL    HW218786   1.085   1.006   7.962 -1.6719 -0.2111  1.6217
 2384SOL     OW18787   1.764   2.422  13.352  0.1391  0.3684  1.0614
 2384SOL    HW118788   1.721   2.345  13.388 -0.4181 -0.0931 -0.6013
 2384SOL    HW218789   1.695   2.468  13.305 -0.3225 -0.8830  0.5317
 2385SOL     OW18790   3.979   0.847   2.457  0.3202  0.4097 -0.0456
 2385SOL    HW118791   3.934   0.924   2.422 -0.8825 -0.5447 -0.6254
 2385SOL    HW218792   4.072   0.869   2.459  0.7141 -1.0593 -1.8338
 2386SOL     OW18793   1.496   2.328  10.698  0.2764 -0.1852  0.3113
 2386SOL    HW118794   1.575   2.290  10.660  0.3860 -0.9398  1.2857
 2386SOL    HW218795   1.440   2.254  10.722  1.2703 -0.7185  1.0048
 2387SOL     OW18796   4.442   1.094   9.759 -0.0224  0.1953  0.0121
 2387SOL    HW118797   4.473   1.026   9.818 -0.5752  0.1413  0.2430
 2387SOL    HW218798   4.394   1.040   9.696  0.0143 -0.9315  0.9618
 2388SOL     OW18799   3.487   4.376   6.712  0.2013  0.5441 -0.5155
 2388SOL    HW118800   3.544   4.347   6.641 -0.2040 -2.3464  0.3223
 2388SOL    HW218801   3.486   4.471   6.710  0.5625  0.5776  1.1544
 2389SOL     OW18802   4.609   3.214  14.614 -0.6703 -0.3829  0.6988
 2389SOL    HW118803   4.676   3.180  14.556 -0.8621  0.1749  0.1513
 2389SOL    HW218804   4.537   3.207  14.551  1.3689 -3.8824 -1.2572
 2390SOL     OW18805   2.831   3.363   6.139 -0.2168 -0.4076  0.5202
 2390SOL    HW118806   2.836   3.277   6.098  1.1864  0.0722 -0.2828
 2390SOL    HW218807   2.735   3.370   6.145 -0.3558 -0.6563 -1.5416
 2391SOL     OW18808   4.284   3.446   4.255 -0.2472  0.2091 -0.9986
 2391SOL    HW118809   4.242   3.361   4.265 -0.1332 -0.0416 -2.5996
 2391SOL    HW218810   4.343   3.440   4.330 -0.9485  3.1885 -0.2037
 2392SOL     OW18811   0.006   0.965  15.583 -0.3880 -0.3584 -0.3641
 2392SOL    HW118812   0.087   0.991  15.539 -1.0927  0.1847 -1.3299
 2392SOL    HW218813   4.729   1.050  15.625  0.4591  0.1390 -1.1115
 2393SOL     OW18814   1.066   4.456   6.324 -0.3953 -0.3009 -0.0698
 2393SOL    HW118815   1.022   4.446   6.408 -0.1114 -1.3236 -0.0390
 2393SOL    HW218816   1.132   4.521   6.347 -0.9004 -0.1116  0.8318
 2394SOL     OW18817   0.601   2.799  10.125  0.2900  0.3410  0.3712
 2394SOL    HW118818   0.525   2.747  10.150  0.8025 -0.2536  0.6778
 2394SOL    HW218819   0.623   2.839  10.209  1.2895  0.2714  0.1361
 2395SOL     OW18820   0.471   3.896   6.346 -0.0783 -0.3793 -0.0378
 2395SOL    HW118821   0.381   3.898   6.379  0.0753  0.2379  0.3654
 2395SOL    HW218822   0.445   3.937   6.264 -0.9587 -1.1852 -0.1546
 2396SOL     OW18823   0.810   2.873  14.789  0.0391 -0.7266  0.0035
 2396SOL    HW118824   0.848   2.960  14.798 -1.0029 -0.3266  0.5424
 2396SOL    HW218825   0.720   2.902  14.773  0.5846 -0.8236 -3.3446
 2397SOL     OW18826   0.932   1.021  16.382  0.0077  0.3071  0.2987
 2397SOL    HW118827   0.944   0.941  16.433  1.4331  1.7574  2.2285
 2397SOL    HW218828   0.959   1.091  16.441 -1.1290  0.1708  0.9760
 2398SOL     OW18829   3.935   0.191   0.428  0.3767  0.0069  0.0512
 2398SOL    HW118830   3.906   0.119   0.372  0.4403 -1.3117  1.7332
 2398SOL    HW218831   3.911   0.260   0.365  1.1339  0.5655  0.3740
 2399SOL     OW18832   4.222   1.717   7.319  0.1606 -0.2171 -0.3546
 2399SOL    HW118833   4.152   1.700   7.382  2.3628 -1.3964  1.7503
 2399SOL    HW218834   4.248   1.806   7.342 -1.8473  0.8499 -2.2295
 2400SOL     OW18835   3.326   4.350   8.034 -0.1950 -0.4046  0.2691
 2400SOL    HW118836   3.276   4.321   8.110  1.6540 -1.6250  1.0297
 2400SOL    HW218837   3.277   4.424   7.999  1.0688  0.2940  0.0020
 2401SOL     OW18838   3.396   2.518   5.906 -0.2990 -0.4620 -0.9915
 2401SOL    HW118839   3.325   2.519   5.971  0.5111 -1.3648 -0.0852
 2401SOL    HW218840   3.355   2.557   5.829  0.1721  2.9040  0.4416
 2402SOL     OW18841   0.774   0.247   5.848 -0.2101  0.6829 -0.0623
 2402SOL    HW118842   0.776   0.290   5.763  1.9281  1.5778  0.4482
 2402SOL    HW218843   0.685   0.217   5.865 -0.1854 -1.6908 -4.0859
 2403SOL     OW18844   4.479   4.117   2.493  0.8096  0.0395  0.2446
 2403SOL    HW118845   4.496   4.031   2.531  1.8875 -0.4087 -1.2207
 2403SOL    HW218846   4.426   4.162   2.559 -0.1897 -0.9673  0.1238
 2404SOL     OW18847   0.502   1.842   5.091  0.4305  0.3613  0.0257
 2404SOL    HW118848   0.421   1.793   5.084  0.3249  0.7440 -1.3205
 2404SOL    HW218849   0.502   1.886   5.177  0.7762  1.5751 -0.5910
 2405SOL     OW18850   3.324   1.437   2.469 -0.3475 -0.0593 -0.0253
 2405SOL    HW118851   3.352   1.484   2.391  1.3488 -0.0040  0.6192
 2405SOL    HW218852   3.248   1.391   2.434 -0.4246  0.6345 -0.7691
 2406SOL     OW18853   4.646   1.779   4.828  0.7159 -0.0746 -0.4255
 2406SOL    HW118854   4.627   1.688   4.852  1.6581 -0.4186 -0.9911
 2406SOL    HW218855   4.603   1.815   4.905  0.6880 -0.3773 -0.2981
 2407SOL     OW18856   3.521   2.838   3.266 -0.1001 -0.0818  0.0558
 2407SOL    HW118857   3.559   2.760   3.227  0.2876 -0.3936  1.0587
 2407SOL    HW218858   3.573   2.900   3.216 -1.2911  0.9654  0.0870
 2408SOL     OW18859   2.431   4.412   3.420 -0.3406 -0.4473  0.1173
 2408SOL    HW118860   2.440   4.318   3.434 -1.7471 -0.6569 -0.4240
 2408SOL    HW218861   2.406   4.401   3.329  1.6871 -1.5560 -0.2982
 2409SOL     OW18862   0.514   3.111   2.970  0.5471 -0.0796  0.0838
 2409SOL    HW118863   0.576   3.180   2.994 -0.4872  0.8735 -0.0051
 2409SOL    HW218864   0.498   3.149   2.884 -1.2144  0.1148  0.4988
 2410SOL     OW18865   2.869   0.079   8.750  0.9474 -0.0844 -0.4903
 2410SOL    HW118866   2.831   0.162   8.721 -1.0682 -0.2676  1.5790
 2410SOL    HW218867   2.899   0.107   8.836  0.5630  0.5099 -0.5540
 2411SOL     OW18868   3.362   1.378  11.398 -0.2326 -0.4550 -0.5319
 2411SOL    HW118869   3.363   1.300  11.342  1.6232  0.4426 -1.7204
 2411SOL    HW218870   3.372   1.343  11.487  0.2957 -0.1475 -0.4758
 2412SOL     OW18871   4.216   1.244   1.867  0.3425  0.1242 -0.7949
 2412SOL    HW118872   4.140   1.189   1.849  0.9565 -1.1018  0.3936
 2412SOL    HW218873   4.184   1.327   1.831  0.7155  0.8568  0.5560
 2413SOL     OW18874   2.348   3.905  12.918  0.4972 -0.5162  0.0229
 2413SOL    HW118875   2.411   3.875  12.852  1.0471  0.7253 -0.0203
 2413SOL    HW218876   2.367   3.999  12.915 -2.9696  0.1900  0.4181
 2414SOL     OW18877   0.805   2.751   9.108 -0.4448  0.5090 -0.1143
 2414SOL    HW118878   0.882   2.707   9.143  1.4255  3.3958 -0.5799
 2414SOL    HW218879   0.736   2.719   9.166 -0.4854 -0.5148 -0.7258
 2415SOL     OW18880   3.950   0.258   2.754  0.6899  0.6047 -0.4053
 2415SOL    HW118881   3.898   0.331   2.787 -0.1888  0.7653 -2.1515
 2415SOL    HW218882   3.928   0.184   2.811 -1.5215  2.9534  1.7700
 2416SOL     OW18883   2.668   1.086  12.171  0.3894  0.0146 -0.0557
 2416SOL    HW118884   2.587   1.049  12.137  1.0842 -2.8994  1.3764
 2416SOL    HW218885   2.733   1.055  12.108 -0.8664  1.2464 -1.9691
 2417SOL     OW18886   1.243   4.528  10.389  0.1230 -0.4800 -0.3918
 2417SOL    HW118887   1.245   4.621  10.414  1.1556 -1.1533  2.0826
 2417SOL    HW218888   1.333   4.515  10.361  0.3701 -0.2865  0.3037
 2418SOL     OW18889   4.240   2.950   3.132  0.0163  0.0283 -0.0530
 2418SOL    HW118890   4.334   2.957   3.117 -0.3347  0.1147 -2.1932
 2418SOL    HW218891   4.232   2.867   3.180 -1.3489 -1.6605 -3.2195
 2419SOL     OW18892   2.132   4.040   1.906 -0.1883  0.0612  0.6038
 2419SOL    HW118893   2.193   4.107   1.936  0.1826 -0.2462  0.5249
 2419SOL    HW218894   2.182   3.969   1.946 -1.1327 -0.2498  1.2367
 2420SOL     OW18895   2.894   0.404  11.999  0.5020 -0.8609  0.1488
 2420SOL    HW118896   2.949   0.480  12.017 -0.9886  0.1908  0.2440
 2420SOL    HW218897   2.809   0.434  12.029  1.2636  0.7095  0.7332
 2421SOL     OW18898   2.456   4.464   2.374  0.1606 -0.5857 -0.7193
 2421SOL    HW118899   2.420   4.490   2.459  0.8141  2.1693 -1.2854
 2421SOL    HW218900   2.545   4.438   2.398 -0.0964 -0.6572  0.1391
 2422SOL     OW18901   1.572   1.142   7.216 -0.5800 -0.3192  0.0175
 2422SOL    HW118902   1.647   1.176   7.167  0.1437  2.2510  2.9079
 2422SOL    HW218903   1.580   1.050   7.191 -1.0326 -0.7469  1.5097
 2423SOL     OW18904   0.560   3.970   2.747  0.0277 -0.5772  0.0781
 2423SOL    HW118905   0.495   3.999   2.683  2.6988  1.7615 -1.6107
 2423SOL    HW218906   0.494   3.947   2.811 -0.7918  1.1651 -0.1332
 2424SOL     OW18907   2.877   1.363   7.596 -0.0606  0.4621 -0.6447
 2424SOL    HW118908   2.953   1.410   7.632 -0.6764  2.7841 -2.4010
 2424SOL    HW218909   2.896   1.280   7.640 -2.5965 -0.4420 -1.2781
 2425SOL     OW18910   4.118   0.059  14.864 -0.5174  0.2191  0.1399
 2425SOL    HW118911   4.090   0.143  14.827 -0.7889 -0.1788 -0.5720
 2425SOL    HW218912   4.036   0.015  14.886 -0.6523 -1.5758 -3.9194
 2426SOL     OW18913   0.440   1.246  16.520 -0.0701  0.2720  0.4178
 2426SOL    HW118914   0.385   1.323  16.508 -0.2184  0.3896  1.8175
 2426SOL    HW218915   0.377   1.178  16.498  0.2082 -0.8371  2.9478
 2427SOL     OW18916   4.569   0.673   8.932 -0.4835  0.0817 -0.4237
 2427SOL    HW118917   4.559   0.671   8.837 -1.7512 -1.2711 -0.2640
 2427SOL    HW218918   4.586   0.579   8.939  2.8018  0.6566 -0.5547
 2428SOL     OW18919   4.655   4.622   0.923  0.0176  0.1222  0.3777
 2428SOL    HW118920   4.584   4.643   0.863 -1.0038  0.3551  1.6644
 2428SOL    HW218921   4.722   4.684   0.894  1.3657 -2.0410 -1.1560
 2429SOL     OW18922   0.075   2.474   3.751 -0.4846  0.0449 -0.5260
 2429SOL    HW118923   0.121   2.418   3.814  0.0600  0.0993 -0.8689
 2429SOL    HW218924   0.063   2.409   3.681  0.3237  0.4419 -1.0405
 2430SOL     OW18925   3.746   3.852  12.881  0.1318  0.7776 -0.7704
 2430SOL    HW118926   3.784   3.768  12.856  1.4929 -0.2294  4.5552
 2430SOL    HW218927   3.667   3.862  12.828 -1.2171 -0.7981  0.9247
 2431SOL     OW18928   1.601   3.435   9.337 -0.2311 -0.1516  0.2418
 2431SOL    HW118929   1.613   3.444   9.242  1.5802  1.8273  0.6659
 2431SOL    HW218930   1.538   3.363   9.343 -1.0075  0.3971 -1.2239
 2432SOL     OW18931   4.545   2.961   5.514 -0.3094 -0.0562  0.3586
 2432SOL    HW118932   4.588   3.026   5.460 -1.7243  0.3845 -0.2420
 2432SOL    HW218933   4.455   2.968   5.480  0.3099  1.0715 -1.0219
 2433SOL     OW18934   3.833   1.229   1.744  0.4104 -0.3716 -0.2945
 2433SOL    HW118935   3.769   1.164   1.713  1.4669 -1.6669  0.2453
 2433SOL    HW218936   3.793   1.276   1.817 -1.4136 -1.1309 -0.8119
 2434SOL     OW18937   1.882   2.759   9.728 -0.1413 -0.0319 -0.0497
 2434SOL    HW118938   1.895   2.698   9.655 -1.2934  1.5027 -1.5498
 2434SOL    HW218939   1.931   2.837   9.703 -1.1021  1.4648  2.7181
 2435SOL     OW18940   0.143   0.405   6.284 -0.1709  0.5669 -0.0279
 2435SOL    HW118941   0.107   0.452   6.358  1.6956  1.0147  0.6087
 2435SOL    HW218942   0.186   0.332   6.329  0.0953  0.4751 -0.4225
 2436SOL     OW18943   1.322   1.685  16.644 -0.1964 -0.4748  0.1298
 2436SOL    HW118944   1.237   1.701  16.603  0.0375 -1.5492 -0.7491
 2436SOL    HW218945   1.325   1.590  16.642  0.8894 -0.4995  2.2284
 2437SOL     OW18946   1.794   2.854   6.286 -0.1859  0.2536 -0.5153
 2437SOL    HW118947   1.802   2.782   6.349 -1.0301  0.7348  0.1301
 2437SOL    HW218948   1.787   2.914   6.360 -0.1630 -0.7423  0.2939
 2438SOL     OW18949   2.875   2.663   7.137 -0.3056  0.0938 -0.1073
 2438SOL    HW118950   2.927   2.722   7.191 -0.2936  0.5298 -0.5941
 2438SOL    HW218951   2.875   2.716   7.058 -1.1167  0.8650  0.4050
 2439SOL     OW18952   4.070   3.168  17.538  0.7447  0.0499 -0.2641
 2439SOL    HW118953   4.128   3.238  17.510  2.6148 -0.8036  1.4587
 2439SOL    HW218954   4.012   3.210  17.602  2.0233  0.5483  0.5682
 2440SOL     OW18955   0.303   3.348   6.044  0.1711 -0.4617 -0.1073
 2440SOL    HW118956   0.223   3.297   6.038  0.2944 -0.7625  0.8019
 2440SOL    HW218957   0.319   3.378   6.134 -1.0091 -0.6731  0.1725
 2441SOL     OW18958   1.687   4.015  10.535 -0.5762  0.0260 -0.2233
 2441SOL    HW118959   1.705   4.098  10.579 -0.6842  0.1620 -0.4398
 2441SOL    HW218960   1.604   4.030  10.492 -1.8105 -1.3430  1.6407
 2442SOL     OW18961   3.746   2.986   0.013  0.8629  0.5838 -0.3125
 2442SOL    HW118962   3.814   2.933  17.714 -0.6335 -0.6904 -1.0865
 2442SOL    HW218963   3.670   2.971  17.701  0.3036  5.4388 -0.7822
 2443SOL     OW18964   2.528   2.609   5.635 -0.0127  0.5915  0.7309
 2443SOL    HW118965   2.602   2.626   5.577  0.1215  0.2285  0.8004
 2443SOL    HW218966   2.487   2.530   5.600  1.4543  1.0749 -2.1338
 2444SOL     OW18967   3.123   4.311   5.882 -0.4900 -0.0406  0.0065
 2444SOL    HW118968   3.163   4.235   5.923 -0.2489  0.6038  0.9563
 2444SOL    HW218969   3.145   4.285   5.792 -1.9472  0.4630 -0.4939
 2445SOL     OW18970   1.175   0.416   7.145  0.4523  0.4967  0.3978
 2445SOL    HW118971   1.123   0.387   7.070 -0.2568  1.1161  0.6467
 2445SOL    HW218972   1.106   0.460   7.195  0.9374  0.4497  1.1113
 2446SOL     OW18973   1.528   0.858   3.111 -0.5733  0.0482  0.2048
 2446SOL    HW118974   1.502   0.766   3.110 -1.5669  0.3582 -1.2614
 2446SOL    HW218975   1.624   0.854   3.109 -0.5861 -1.6326  2.6282
 2447SOL     OW18976   1.189   0.167   1.535 -0.1830 -0.5236 -0.1075
 2447SOL    HW118977   1.176   0.215   1.453 -1.8754 -0.3587  0.2543
 2447SOL    HW218978   1.151   0.226   1.601  1.6399 -0.1190  0.5740
 2448SOL     OW18979   1.986   2.181   6.992  0.1842 -0.5053 -0.4942
 2448SOL    HW118980   1.978   2.211   6.901 -0.9260 -1.1443 -0.6041
 2448SOL    HW218981   2.013   2.263   7.034 -1.8193 -0.2939  0.3253
 2449SOL     OW18982   0.894   1.705   9.862  0.7501  0.3722 -0.6719
 2449SOL    HW118983   0.820   1.729   9.805 -2.4607 -2.5054  2.2441
 2449SOL    HW218984   0.939   1.786   9.882  0.8749  0.1232  0.0362
 2450SOL     OW18985   4.255   0.288   2.402 -0.1560 -0.3909  0.3805
 2450SOL    HW118986   4.163   0.300   2.378  0.0319 -0.9515 -0.5923
 2450SOL    HW218987   4.252   0.193   2.407 -0.1706 -0.4206 -0.2761
 2451SOL     OW18988   4.564   3.114   5.735  0.0214  0.3526  0.5037
 2451SOL    HW118989   4.546   3.080   5.647 -0.7561 -0.7096  1.0762
 2451SOL    HW218990   4.539   3.202   5.706  0.0757  0.4707  0.8134
 2452SOL     OW18991   2.350   2.469   9.688  0.0160  0.5908  0.2137
 2452SOL    HW118992   2.338   2.384   9.730 -2.8202  0.1190 -1.5002
 2452SOL    HW218993   2.421   2.450   9.627  0.5112 -0.4272  1.1123
 2453SOL     OW18994   2.340   1.706  11.294  0.1418 -0.6918  0.1905
 2453SOL    HW118995   2.264   1.677  11.244 -2.4373  3.4294  1.7277
 2453SOL    HW218996   2.394   1.629  11.314  0.5278 -0.2200  0.9595
 2454SOL     OW18997   1.113   4.281  12.558 -0.1357  0.0522  0.6304
 2454SOL    HW118998   1.206   4.293  12.541 -0.2495  1.1998  0.8590
 2454SOL    HW218999   1.089   4.220  12.488  1.1531 -2.5566  2.4435
 2455SOL     OW19000   2.731   2.749   8.112  0.0033  0.2824 -0.4706
 2455SOL    HW119001   2.783   2.761   8.192 -0.0634 -0.4231 -0.3210
 2455SOL    HW219002   2.686   2.834   8.115  1.5960  1.0606  1.2625
 2456SOL     OW19003   0.151   3.773   4.545 -0.2313 -0.2229  0.2798
 2456SOL    HW119004   0.237   3.799   4.510 -0.6848  0.4422 -0.3498
 2456SOL    HW219005   0.170   3.692   4.591  0.9259  0.0222  0.2501
 2457SOL     OW19006   3.943   1.087  16.064 -0.2633 -0.2757 -0.0752
 2457SOL    HW119007   3.908   1.006  16.100 -0.2611  0.4735  1.6453
 2457SOL    HW219008   3.958   1.058  15.974 -2.8172 -2.8897  0.3494
 2458SOL     OW19009   3.035   1.263  11.985  0.1127  0.2027  0.2353
 2458SOL    HW119010   2.994   1.191  12.034  2.4204 -0.2921  1.4402
 2458SOL    HW219011   2.958   1.319  11.982  0.5443  0.7477 -0.7090
 2459SOL     OW19012   1.936   2.307   2.757 -0.5746 -0.0693  0.6186
 2459SOL    HW119013   1.998   2.300   2.830  0.1611  1.7829  0.1752
 2459SOL    HW219014   1.980   2.376   2.706 -1.8317 -1.4452 -2.3504
 2460SOL     OW19015   1.295   2.287   2.797 -0.5468  0.2023 -0.5048
 2460SOL    HW119016   1.306   2.192   2.792  0.4555  0.2744  0.4717
 2460SOL    HW219017   1.240   2.293   2.874 -1.7455 -1.2244 -1.2409
 2461SOL     OW19018   4.274   1.181   7.133 -0.2078  0.0435  0.3337
 2461SOL    HW119019   4.264   1.272   7.162  0.5478  0.7698 -1.6970
 2461SOL    HW219020   4.196   1.140   7.169  0.6389 -1.2998  0.6600
 2462SOL     OW19021   3.872   4.202   7.414  0.4327  0.4672  0.5898
 2462SOL    HW119022   3.789   4.196   7.461  0.4215 -4.2342 -0.0313
 2462SOL    HW219023   3.850   4.166   7.328 -0.4004  1.0761  0.5486
 2463SOL     OW19024   4.184   2.776   8.976 -0.2012  0.0247 -0.7038
 2463SOL    HW119025   4.203   2.761   9.068 -0.8112  1.9115 -0.2701
 2463SOL    HW219026   4.241   2.852   8.965 -0.8302  0.5008 -0.6989
 2464SOL     OW19027   4.161   4.438   1.594  0.1689  0.3538  0.4154
 2464SOL    HW119028   4.208   4.356   1.608  0.7860  0.2371 -2.4160
 2464SOL    HW219029   4.095   4.410   1.530  0.7114  1.6696 -0.7370
 2465SOL     OW19030   1.283   0.242  10.636  0.3970  0.2164 -0.1704
 2465SOL    HW119031   1.339   0.250  10.713 -1.1984 -1.4059  1.1549
 2465SOL    HW219032   1.305   0.319  10.584 -0.9620  0.2637 -0.6716
 2466SOL     OW19033   0.435   2.022   8.288 -0.4676  0.0579 -0.2353
 2466SOL    HW119034   0.524   2.052   8.273  0.3438 -1.0859  2.3090
 2466SOL    HW219035   0.417   2.003   8.196 -2.8816 -2.1928  0.7042
 2467SOL     OW19036   2.427   0.207   8.552  0.0611 -0.1727  0.3682
 2467SOL    HW119037   2.492   0.207   8.623  0.1570 -1.7947  0.2839
 2467SOL    HW219038   2.394   0.296   8.567  0.0675 -0.0999 -0.0468
 2468SOL     OW19039   3.001   2.344   8.910  0.1312 -0.2614  1.0132
 2468SOL    HW119040   3.004   2.366   9.003  3.2635 -1.3948  1.1658
 2468SOL    HW219041   2.979   2.251   8.919 -0.3045 -0.5964 -3.4790
 2469SOL     OW19042   0.501   3.915   5.176  0.1472  0.0602  0.2184
 2469SOL    HW119043   0.536   3.891   5.090  1.4430 -3.1394  1.6190
 2469SOL    HW219044   0.466   3.830   5.203 -0.1932  0.0376 -0.3018
 2470SOL     OW19045   0.637   2.263  12.574 -0.5880 -0.2032 -0.1401
 2470SOL    HW119046   0.639   2.358  12.568  0.0500 -0.1959  0.2390
 2470SOL    HW219047   0.652   2.240  12.482 -2.6653  0.8500 -0.7540
 2471SOL     OW19048   1.763   3.974   8.900 -0.6797 -0.1924  0.1639
 2471SOL    HW119049   1.737   4.041   8.963 -0.5553 -0.3766  0.4145
 2471SOL    HW219050   1.799   3.907   8.958  1.2173  0.1692 -0.5806
 2472SOL     OW19051   4.414   2.036   7.066 -0.4716  0.0791 -0.1833
 2472SOL    HW119052   4.321   2.053   7.049 -0.2211  0.6327 -0.9851
 2472SOL    HW219053   4.431   2.074   7.151  4.1743 -0.1784 -1.0069
 2473SOL     OW19054   0.966   1.433   9.078 -0.6553  0.2016 -0.0634
 2473SOL    HW119055   0.965   1.528   9.065  0.9102  0.4017  1.1877
 2473SOL    HW219056   0.882   1.406   9.116  0.5426 -1.4045  1.4141
 2474SOL     OW19057   1.809   2.844   2.785  0.1100  0.1950 -0.0068
 2474SOL    HW119058   1.748   2.890   2.843  0.7169  0.8445  0.1161
 2474SOL    HW219059   1.768   2.760   2.764  1.5731 -0.3745 -0.5031
 2475SOL     OW19060   3.281   1.446   5.409 -0.4056 -0.4108  0.1492
 2475SOL    HW119061   3.250   1.377   5.469 -0.3575 -0.1274  0.4993
 2475SOL    HW219062   3.371   1.452   5.441 -0.3401  1.9340 -0.4792
 2476SOL     OW19063   0.026   3.030   6.893  0.3505  0.1620 -0.2260
 2476SOL    HW119064   4.714   2.972   6.834 -0.3693  1.4828 -0.9561
 2476SOL    HW219065   4.726   3.032   6.981  1.1571  0.5356  0.1045
 2477SOL     OW19066   1.757   0.384   3.480  0.0386  0.2494  0.1320
 2477SOL    HW119067   1.687   0.326   3.509  1.0500 -0.9716  0.1180
 2477SOL    HW219068   1.710   0.467   3.480 -0.4302 -0.0131 -0.8389
 2478SOL     OW19069   3.627   4.577   3.666 -0.1384 -0.1343 -0.0014
 2478SOL    HW119070   3.717   4.552   3.688  0.4394 -0.4944 -2.8405
 2478SOL    HW219071   3.603   4.510   3.603  1.3329 -1.1033  0.4533
 2479SOL     OW19072   2.180   1.299   3.667 -0.4659  0.0064 -0.0713
 2479SOL    HW119073   2.193   1.206   3.647  2.9150 -0.0624  2.4178
 2479SOL    HW219074   2.090   1.319   3.642  0.1062 -0.1282 -2.3253
 2480SOL     OW19075   3.946   4.465   1.961  0.2721 -0.1672 -0.3841
 2480SOL    HW119076   3.889   4.463   1.884 -0.3883 -0.8775  0.1317
 2480SOL    HW219077   4.018   4.411   1.929  0.3633 -0.6205  0.5913
 2481SOL     OW19078   4.424   3.706   4.465  0.4185  0.1162 -0.6445
 2481SOL    HW119079   4.428   3.613   4.443 -0.6602 -0.1835  0.4057
 2481SOL    HW219080   4.349   3.713   4.525 -0.7671 -0.2358 -2.0932
 2482SOL     OW19081   1.236   3.155  12.234 -0.4605 -0.2623  0.0258
 2482SOL    HW119082   1.269   3.175  12.146 -0.7660  0.4175  0.0623
 2482SOL    HW219083   1.283   3.076  12.259  1.7233  1.0867  0.1026
 2483SOL     OW19084   0.545   1.053   6.115 -0.1699 -0.3218 -0.2088
 2483SOL    HW119085   0.458   1.016   6.103 -0.3926 -0.1158  0.7343
 2483SOL    HW219086   0.546   1.126   6.053  0.4998 -1.3337 -1.3782
 2484SOL     OW19087   3.152   4.527   6.030  0.3181  0.7973 -0.1637
 2484SOL    HW119088   3.146   4.445   5.980 -1.4024 -0.1028  1.5196
 2484SOL    HW219089   3.237   4.514   6.072 -0.5472 -1.7020  0.8233
 2485SOL     OW19090   0.134   0.918   8.905  0.0942 -0.1485 -0.2942
 2485SOL    HW119091   0.051   0.955   8.935  0.0835  0.5684 -1.2047
 2485SOL    HW219092   0.110   0.841   8.854  1.1374  0.7448 -2.1171
 2486SOL     OW19093   3.958   3.863   3.959 -0.2107  0.2053  0.1248
 2486SOL    HW119094   3.906   3.783   3.949  1.4603 -0.9035  0.3587
 2486SOL    HW219095   3.983   3.891   3.871 -0.1033 -0.4439 -0.0479
 2487SOL     OW19096   2.472   1.413  14.075 -0.0192 -0.0958  0.1103
 2487SOL    HW119097   2.468   1.410  14.170  1.0933  0.0224  0.1586
 2487SOL    HW219098   2.416   1.337  14.058  1.2999 -1.1973  0.7118
 2488SOL     OW19099   1.334   2.900   6.751 -0.4743  0.2369  0.1615
 2488SOL    HW119100   1.381   2.950   6.685  1.1117 -1.4780 -0.0190
 2488SOL    HW219101   1.380   2.816   6.750  0.9043  1.0016 -0.7480
 2489SOL     OW19102   3.648   0.107   7.178 -0.5264 -0.3357 -0.0310
 2489SOL    HW119103   3.579   0.145   7.124  0.5024  0.4660 -0.8120
 2489SOL    HW219104   3.678   0.046   7.111  1.1109  0.8514 -0.3912
 2490SOL     OW19105   0.494   4.450  17.655  0.7546  0.0008  0.1052
 2490SOL    HW119106   0.552   4.455  17.732 -0.7053 -0.3080  1.2225
 2490SOL    HW219107   0.548   4.471  17.579 -0.1661  1.3652 -0.1623
 2491SOL     OW19108   1.919   2.658   1.248  0.5514  0.2178 -0.0852
 2491SOL    HW119109   1.961   2.638   1.164  1.0523  1.7902 -0.2204
 2491SOL    HW219110   1.949   2.583   1.299 -0.9347  0.5590  1.2802
 2492SOL     OW19111   1.036   1.482   9.797  0.2515 -0.0563 -0.0690
 2492SOL    HW119112   0.998   1.568   9.818 -1.8149 -0.5605 -1.8287
 2492SOL    HW219113   1.080   1.507   9.716  0.3353 -0.3742 -0.1197
 2493SOL     OW19114   2.964   4.308   8.578 -0.5734  0.3598  0.4579
 2493SOL    HW119115   2.894   4.313   8.642  0.2811 -2.0412  1.5756
 2493SOL    HW219116   3.028   4.375   8.604  0.0082  1.3994 -3.5579
 2494SOL     OW19117   4.225   0.887   8.121 -0.0032  0.6590  0.1472
 2494SOL    HW119118   4.281   0.847   8.188  1.0830  0.3986 -0.9285
 2494SOL    HW219119   4.292   0.901   8.055  0.1286 -0.4001  0.0540
 2495SOL     OW19120   0.730   0.421   4.487 -0.1004  0.2056 -0.1561
 2495SOL    HW119121   0.647   0.454   4.521 -1.3858 -1.1895 -1.9576
 2495SOL    HW219122   0.704   0.418   4.395 -0.6142  0.2347 -0.0095
 2496SOL     OW19123   0.680   0.846   3.193  0.7123  0.2708  0.2915
 2496SOL    HW119124   0.704   0.928   3.235  0.0092  0.2555  0.7244
 2496SOL    HW219125   0.710   0.778   3.254  0.9107  0.4948  0.4415
 2497SOL     OW19126   1.253   3.256   6.273  0.6976  0.3875  0.1583
 2497SOL    HW119127   1.248   3.309   6.194 -1.0259  2.2124  1.4749
 2497SOL    HW219128   1.290   3.171   6.251 -0.2981 -0.0871  0.2896
 2498SOL     OW19129   3.090   3.837   9.718  0.4418 -0.4578 -0.4817
 2498SOL    HW119130   3.023   3.902   9.741  0.1824 -0.0922 -2.2180
 2498SOL    HW219131   3.147   3.894   9.665 -0.1417 -0.2046 -0.8435
 2499SOL     OW19132   1.556   3.853  11.711 -0.2447  0.0914  0.4274
 2499SOL    HW119133   1.539   3.928  11.654  2.2391  1.1530  1.1092
 2499SOL    HW219134   1.556   3.893  11.798  1.0155  2.2158 -0.5687
 2500SOL     OW19135   4.214   3.635  10.300  0.2730 -0.2526  0.3483
 2500SOL    HW119136   4.269   3.707  10.270 -1.2642  0.8292  0.1409
 2500SOL    HW219137   4.269   3.603  10.371  1.6342 -0.3678 -0.7526
 2501SOL     OW19138   3.919   0.556  14.014  0.1440  0.2431 -0.7128
 2501SOL    HW119139   3.863   0.618  14.062 -1.6674  0.3863 -2.9827
 2501SOL    HW219140   3.933   0.492  14.084  0.8535 -1.0677 -2.0706
 2502SOL     OW19141   3.316   0.370   8.697  0.0561  0.3057  0.0005
 2502SOL    HW119142   3.249   0.347   8.633 -0.1184 -0.8390  0.5798
 2502SOL    HW219143   3.370   0.430   8.646 -0.7666 -0.0404 -1.2682
 2503SOL     OW19144   1.351   3.503   6.738  0.3229 -0.0443 -0.0697
 2503SOL    HW119145   1.391   3.572   6.793 -0.2379 -1.1398  1.7033
 2503SOL    HW219146   1.278   3.556   6.707 -0.4242  1.3598  4.1113
 2504SOL     OW19147   0.663   4.080   6.626  0.1430 -0.1040 -0.2182
 2504SOL    HW119148   0.656   4.132   6.546  0.4465  0.7577  0.3160
 2504SOL    HW219149   0.691   4.145   6.691  3.3042 -0.4909 -1.2040
 2505SOL     OW19150   2.230   0.835  16.973  0.1239  0.0699 -0.1958
 2505SOL    HW119151   2.236   0.930  16.958  0.8165  0.0756  0.1051
 2505SOL    HW219152   2.322   0.813  16.966  0.6184  2.1287 -0.2765
 2506SOL     OW19153   3.097   1.552  13.209 -0.2387  0.1433  0.3549
 2506SOL    HW119154   3.067   1.567  13.299  1.2184 -0.1218  0.9007
 2506SOL    HW219155   3.164   1.620  13.198 -1.3761  0.9752 -1.3124
 2507SOL     OW19156   4.659   2.633  17.051 -0.6128 -0.1370  0.4222
 2507SOL    HW119157   4.702   2.549  17.037 -0.3543 -0.0372  0.6063
 2507SOL    HW219158   4.720   2.692  17.007 -2.3859 -0.0954 -1.9914
 2508SOL     OW19159   0.738   2.696   8.280  0.5855 -0.4982 -0.2283
 2508SOL    HW119160   0.714   2.775   8.233  0.5169 -0.7833 -0.6773
 2508SOL    HW219161   0.661   2.671   8.330  1.0410  0.2254  0.8277
 2509SOL     OW19162   4.560   1.471   5.164 -0.2129  0.5161 -0.1719
 2509SOL    HW119163   4.525   1.384   5.184  0.5338 -0.3244 -2.5839
 2509SOL    HW219164   4.638   1.471   5.220 -1.3799  1.0942  1.4433
 2510SOL     OW19165   2.281   1.374   1.531  0.4548  0.2082 -0.1882
 2510SOL    HW119166   2.269   1.279   1.533  0.1694  0.2364 -0.6303
 2510SOL    HW219167   2.243   1.387   1.618  0.3969 -0.2922 -0.1385
 2511SOL     OW19168   0.092   4.261   1.590 -0.0052 -0.1261  0.2519
 2511SOL    HW119169   0.123   4.350   1.571  0.9295 -0.4825  0.0914
 2511SOL    HW219170   0.041   4.263   1.670 -0.5576 -0.8071 -0.0888
 2512SOL     OW19171   3.989   3.759   2.013 -0.3067 -0.0050  0.1030
 2512SOL    HW119172   4.052   3.825   2.042  0.0615  0.1145 -0.9994
 2512SOL    HW219173   4.010   3.681   2.065  0.8459 -0.5528 -1.1813
 2513SOL     OW19174   2.370   2.792   8.139  0.2303 -0.5089  0.3789
 2513SOL    HW119175   2.410   2.795   8.225  1.8734 -1.0201 -0.3700
 2513SOL    HW219176   2.287   2.749   8.161  0.8098 -1.6030  0.4049
 2514SOL     OW19177   0.412   1.542   9.464  0.7266 -0.2534  0.4061
 2514SOL    HW119178   0.445   1.591   9.539  2.0630  0.3854 -0.6068
 2514SOL    HW219179   0.392   1.456   9.501  1.8705 -1.0575 -0.8705
 2515SOL     OW19180   2.766   0.977  10.317 -0.0689 -0.1428  0.0992
 2515SOL    HW119181   2.830   0.971  10.388  1.1706  0.0727 -0.9983
 2515SOL    HW219182   2.738   1.068  10.319 -0.0844 -0.1814  1.2468
 2516SOL     OW19183   0.152   0.127   0.931  0.5508 -0.2214  0.0578
 2516SOL    HW119184   0.159   0.148   1.024 -0.0548 -0.2920  0.1202
 2516SOL    HW219185   0.205   0.194   0.887  1.8558 -1.3637 -0.1132
 2517SOL     OW19186   1.158   2.841  16.864  0.4186 -0.0068 -0.4909
 2517SOL    HW119187   1.205   2.765  16.830  0.0681 -0.4130 -0.0702
 2517SOL    HW219188   1.163   2.822  16.958 -0.1793  0.6951 -0.3246
 2518SOL     OW19189   2.676   2.157   2.891 -0.0857  0.4542  0.2458
 2518SOL    HW119190   2.737   2.096   2.932 -1.6246 -1.1156  0.2261
 2518SOL    HW219191   2.628   2.101   2.830  0.7639 -1.1843  1.0582
 2519SOL     OW19192   3.452   4.618   5.871 -0.4681  0.2662 -0.1121
 2519SOL    HW119193   3.428   4.551   5.807  0.5818 -0.1080 -0.1049
 2519SOL    HW219194   3.445   4.571   5.954  0.8020 -0.7859 -0.6054
 2520SOL     OW19195   1.772   4.365   5.914 -0.0158  0.3503 -0.0106
 2520SOL    HW119196   1.690   4.388   5.870 -0.1814  0.5469  0.4031
 2520SOL    HW219197   1.797   4.444   5.962  1.0052 -0.4758  0.8231
 2521SOL     OW19198   3.817   2.392   2.556 -0.2912  0.4925  0.1967
 2521SOL    HW119199   3.822   2.309   2.509  0.2362  0.6770 -0.0642
 2521SOL    HW219200   3.904   2.393   2.596 -0.5505  1.1493  0.7522
 2522SOL     OW19201   3.086   2.912   7.941  0.3509  0.0171  0.1572
 2522SOL    HW119202   3.147   2.891   7.870 -1.1615 -2.4234 -0.3980
 2522SOL    HW219203   3.004   2.873   7.911 -0.1559 -0.2343  1.8783
 2523SOL     OW19204   0.345   4.041   3.500  0.3386  0.6082  0.2262
 2523SOL    HW119205   0.355   3.989   3.420  0.6763  1.2902 -0.1769
 2523SOL    HW219206   0.429   4.023   3.543 -1.0246 -0.9811  2.2620
 2524SOL     OW19207   0.109   2.358   7.100 -0.5396 -0.2199 -0.4365
 2524SOL    HW119208   0.162   2.279   7.108 -0.4263 -0.0329  0.7714
 2524SOL    HW219209   0.112   2.366   7.005  0.9892 -0.3504 -0.4039
 2525SOL     OW19210   4.703   3.289  10.729 -0.6165  0.1921 -0.1207
 2525SOL    HW119211   0.058   3.306  10.752 -0.0904 -1.0092 -1.3527
 2525SOL    HW219212   4.672   3.226  10.795  0.5992 -0.4482 -0.1548
 2526SOL     OW19213   4.265   3.969  11.128 -0.6506 -0.1312 -0.3267
 2526SOL    HW119214   4.285   3.954  11.035 -2.6954  0.4138 -0.8481
 2526SOL    HW219215   4.317   4.048  11.146 -0.7003  0.0012 -0.7779
 2527SOL     OW19216   1.297   3.160  15.462  0.0907 -0.3650 -0.0291
 2527SOL    HW119217   1.336   3.072  15.460 -1.8941 -1.1782 -3.1157
 2527SOL    HW219218   1.307   3.183  15.370  0.4027  0.6414  0.2541
 2528SOL     OW19219   4.271   2.570   7.945  0.2528  0.7282  0.4092
 2528SOL    HW119220   4.214   2.632   7.990  0.1404  1.1666 -0.3381
 2528SOL    HW219221   4.309   2.627   7.878  1.1211  0.4594  0.6727
 2529SOL     OW19222   4.353   2.183   8.039 -1.0062 -0.1798  0.5093
 2529SOL    HW119223   4.399   2.136   8.109  0.5643  0.3500 -0.1514
 2529SOL    HW219224   4.378   2.134   7.961  0.5771 -0.4118  1.1456
 2530SOL     OW19225   3.845   4.669  16.752  0.4700 -0.2854  0.6164
 2530SOL    HW119226   3.810   4.635  16.670  0.9913  0.8399 -0.0729
 2530SOL    HW219227   3.790   0.010  16.764 -1.3987 -1.4491 -0.3603
 2531SOL     OW19228   1.302   4.592   7.493 -0.4934 -0.0370  0.4527
 2531SOL    HW119229   1.306   4.520   7.429  2.3380  0.6604 -0.1417
 2531SOL    HW219230   1.207   4.600   7.502 -0.3144  0.7978  1.6179
 2532SOL     OW19231   2.687   4.586   5.302 -0.0475  0.1583 -0.0469
 2532SOL    HW119232   2.703   4.511   5.359  0.9055 -0.0508 -0.5750
 2532SOL    HW219233   2.594   4.569   5.288  0.2174 -0.6718 -0.8236
 2533SOL     OW19234   0.019   4.734   4.229 -0.5534 -0.5605  0.0776
 2533SOL    HW119235   4.690   4.666   4.214 -1.5641  0.4767 -0.2014
 2533SOL    HW219236   4.704   0.078   4.229  0.5587  0.1531 -1.1845
 2534SOL     OW19237   1.769   0.864  16.353  0.1998  0.1418 -0.4205
 2534SOL    HW119238   1.736   0.776  16.334  0.7521 -0.1262 -0.1427
 2534SOL    HW219239   1.830   0.846  16.425 -3.2627 -1.0411  2.1761
 2535SOL     OW19240   2.935   1.011   9.626 -0.0102  0.0219 -0.2713
 2535SOL    HW119241   2.883   1.092   9.633  0.6084  0.4832 -0.9387
 2535SOL    HW219242   3.007   1.033   9.685  1.1854 -0.8675 -1.4239
 2536SOL     OW19243   4.350   1.821   5.273 -0.2009  0.1693 -0.9742
 2536SOL    HW119244   4.381   1.901   5.316 -1.4120  0.1121  0.0130
 2536SOL    HW219245   4.287   1.853   5.209 -0.9011 -0.9163 -0.8178
 2537SOL     OW19246   3.155   3.238  10.083 -0.4266 -0.7649  0.1775
 2537SOL    HW119247   3.185   3.329  10.085 -1.7889 -0.3055  0.1038
 2537SOL    HW219248   3.231   3.193  10.120  1.7569  2.6960 -0.1455
 2538SOL     OW19249   3.024   3.210  10.469  0.3279  0.6457  0.7943
 2538SOL    HW119250   3.004   3.261  10.391 -1.2842 -0.2289  0.6281
 2538SOL    HW219251   3.051   3.126  10.432 -1.2106  0.4121  0.2240
 2539SOL     OW19252   3.319   4.472   8.710  0.0833 -0.1491 -0.6131
 2539SOL    HW119253   3.335   4.407   8.778 -1.2908  1.0944  0.9066
 2539SOL    HW219254   3.227   4.497   8.718  0.1368 -0.1419 -0.0263
 2540SOL     OW19255   2.819   1.581   8.834 -0.0315  0.4525 -0.3442
 2540SOL    HW119256   2.897   1.562   8.780  0.0479  2.2879 -0.8905
 2540SOL    HW219257   2.846   1.671   8.850  0.1336  0.5651 -1.2603
 2541SOL     OW19258   1.318   4.180   3.054 -0.1899 -0.2605  0.2959
 2541SOL    HW119259   1.379   4.249   3.080  1.5771 -1.3737 -0.9139
 2541SOL    HW219260   1.290   4.147   3.139 -0.6603  1.6868  0.9191
 2542SOL     OW19261   1.004   3.571   9.160  0.1160  0.1921 -0.0044
 2542SOL    HW119262   0.923   3.540   9.200  0.8286 -1.6851  0.0034
 2542SOL    HW219263   1.070   3.549   9.226  0.6082 -2.1029 -1.2212
 2543SOL     OW19264   0.020   4.349   1.832  0.1842  0.1481  0.3727
 2543SOL    HW119265   4.686   4.335   1.896  0.1192 -1.3259 -0.0051
 2543SOL    HW219266   0.035   4.441   1.851 -0.5775  0.5036 -0.7731
 2544SOL     OW19267   2.135   1.252   1.805 -0.1237 -0.4256  0.2435
 2544SOL    HW119268   2.086   1.170   1.810  0.7425 -0.9142  0.6871
 2544SOL    HW219269   2.221   1.222   1.833  0.7790  1.2185 -0.8053
 2545SOL     OW19270   0.154   1.126   3.297  0.0807 -0.5131  0.1034
 2545SOL    HW119271   0.104   1.182   3.238  1.9504  2.6062  1.4848
 2545SOL    HW219272   0.139   1.038   3.263  1.7807 -1.6437  2.2719
 2546SOL     OW19273   1.289   4.321   2.328  0.1485  0.0951  0.2249
 2546SOL    HW119274   1.335   4.350   2.406 -0.1185  4.0268 -1.0705
 2546SOL    HW219275   1.312   4.228   2.328 -0.8957 -0.1686 -3.9343
 2547SOL     OW19276   1.903   3.714   2.186 -0.0578  0.5782  0.4496
 2547SOL    HW119277   1.863   3.690   2.102 -0.3336  1.2774  0.3780
 2547SOL    HW219278   1.832   3.693   2.247  0.9923  1.1453  1.8546
 2548SOL     OW19279   3.523   2.505   6.772 -0.1219  0.0267 -0.7646
 2548SOL    HW119280   3.540   2.595   6.799 -1.8799 -0.1784  1.0969
 2548SOL    HW219281   3.516   2.463   6.858  1.0772 -2.1427 -1.7441
 2549SOL     OW19282   3.310   2.955  12.040 -0.1149 -0.1043  0.0487
 2549SOL    HW119283   3.320   2.914  12.126  0.3407 -1.5227 -0.6755
 2549SOL    HW219284   3.374   2.903  11.991  0.2214 -1.1731  1.5981
 2550SOL     OW19285   3.776   0.948   4.925  0.3865  0.3408 -0.0194
 2550SOL    HW119286   3.685   0.977   4.937 -0.3727 -2.0498 -0.0315
 2550SOL    HW219287   3.817   1.029   4.893 -1.1169  1.3156  0.5048
 2551SOL     OW19288   0.798   2.712   5.799  0.2357 -0.2828  0.3668
 2551SOL    HW119289   0.740   2.737   5.727  0.9237  1.2884  0.3677
 2551SOL    HW219290   0.868   2.679   5.744  0.8366  1.4876  0.0645
 2552SOL     OW19291   0.437   3.898  12.869 -0.7307 -0.1849 -0.4097
 2552SOL    HW119292   0.405   3.838  12.937  0.4290  0.1976  0.4812
 2552SOL    HW219293   0.439   3.983  12.914  1.6400 -0.7149  0.4741
 2553SOL     OW19294   1.739   0.449   8.582  0.2010  0.7324 -0.2615
 2553SOL    HW119295   1.732   0.382   8.650 -1.1778  2.0597  0.9043
 2553SOL    HW219296   1.750   0.385   8.512 -1.1528  0.8344 -0.5695
 2554SOL     OW19297   0.802   1.614  12.596 -0.0870 -0.1471  0.3007
 2554SOL    HW119298   0.772   1.703  12.616 -0.2036 -0.1975  0.3489
 2554SOL    HW219299   0.842   1.631  12.511  1.0725  1.4703  1.1793
 2555SOL     OW19300   4.339   4.624   3.462  0.0031  0.5297  0.5403
 2555SOL    HW119301   4.292   4.708   3.466 -0.5745  0.4005 -2.8908
 2555SOL    HW219302   4.417   4.624   3.516  1.2071 -2.5102 -1.2358
 2556SOL     OW19303   2.508   4.645   6.605  0.0793 -0.3268  0.2618
 2556SOL    HW119304   2.556   4.588   6.545  0.3721  0.2557 -0.0519
 2556SOL    HW219305   2.580   4.668   6.662 -0.2346 -0.3889  0.6863
 2557SOL     OW19306   3.623   0.458  16.229 -0.8707 -0.3006  0.5470
 2557SOL    HW119307   3.718   0.464  16.217 -1.0969  1.3403 -0.3529
 2557SOL    HW219308   3.592   0.431  16.143  0.4372  0.0341 -0.0149
 2558SOL     OW19309   1.976   0.876   4.354  0.4959  0.0811  0.1291
 2558SOL    HW119310   2.064   0.838   4.363 -0.7859 -2.8053  0.3317
 2558SOL    HW219311   1.944   0.789   4.329  0.9516 -0.5762  1.7820
 2559SOL     OW19312   2.908   3.493   2.475  0.2083 -0.1332 -0.1278
 2559SOL    HW119313   2.836   3.473   2.533  0.4911 -1.0686 -0.0965
 2559SOL    HW219314   2.863   3.523   2.396  1.7960  2.0677 -0.2238
 2560SOL     OW19315   3.579   3.565  16.578  0.5873  0.1541 -0.3147
 2560SOL    HW119316   3.637   3.501  16.535 -1.9070 -3.4370  1.7077
 2560SOL    HW219317   3.641   3.617  16.629 -1.0607  0.7247  1.0747
 2561SOL     OW19318   2.957   0.832   4.582 -0.3076 -0.3828  0.2010
 2561SOL    HW119319   3.030   0.890   4.601 -2.0056  1.1351  2.0139
 2561SOL    HW219320   2.900   0.855   4.655  1.6609 -1.3836  2.0334
 2562SOL     OW19321   2.151   0.995   4.715 -0.0040 -0.9364  0.3256
 2562SOL    HW119322   2.092   0.920   4.719 -0.0144 -0.9256  0.3689
 2562SOL    HW219323   2.148   1.022   4.623  0.4219 -4.2485 -0.6572
 2563SOL     OW19324   3.522   2.585  11.640  0.2174 -0.3524 -0.1899
 2563SOL    HW119325   3.503   2.662  11.585  1.2080 -0.2175 -0.3378
 2563SOL    HW219326   3.546   2.530  11.565 -0.7379  0.5351 -1.1517
 2564SOL     OW19327   2.310   0.200   2.374  0.8454  0.3804 -0.4113
 2564SOL    HW119328   2.229   0.237   2.339  1.0290 -1.6513 -2.9563
 2564SOL    HW219329   2.328   0.130   2.311  0.1474 -1.1907  1.1482
 2565SOL     OW19330   4.538   1.583   3.649  0.0678  0.0285 -0.3876
 2565SOL    HW119331   4.445   1.559   3.647 -0.3158  1.5811 -1.0251
 2565SOL    HW219332   4.532   1.668   3.691  1.9883  0.1071 -0.3099
 2566SOL     OW19333   2.713   2.215   6.992  0.0885 -0.0500  0.5702
 2566SOL    HW119334   2.756   2.298   7.013 -0.6259  0.3653  0.3809
 2566SOL    HW219335   2.706   2.223   6.897 -3.6249  2.5931  1.0593
 2567SOL     OW19336   3.095   3.875   9.039 -0.3893  0.0985 -0.5782
 2567SOL    HW119337   3.079   3.791   9.081  1.2848  0.1457  0.1190
 2567SOL    HW219338   3.156   3.848   8.971 -0.6292  1.9433 -1.5501
 2568SOL     OW19339   2.586   1.796   2.905  0.9922  0.0050 -0.7100
 2568SOL    HW119340   2.503   1.749   2.916  1.2951 -0.5252 -0.7019
 2568SOL    HW219341   2.649   1.743   2.856  1.2398  0.4033 -0.8244
 2569SOL     OW19342   3.597   4.574  13.711  0.2140 -0.2084 -0.0695
 2569SOL    HW119343   3.527   4.509  13.701 -0.0998 -0.2575  2.5021
 2569SOL    HW219344   3.624   4.597  13.622 -1.7254 -3.5379 -1.5043
 2570SOL     OW19345   4.343   4.098   5.963  0.1622 -0.1450  0.5934
 2570SOL    HW119346   4.390   4.063   6.039  0.2634  0.5963  0.8696
 2570SOL    HW219347   4.257   4.098   6.007 -1.3123  0.4155 -2.2817
 2571SOL     OW19348   0.100   3.342  12.908 -0.4518 -0.3284 -0.6027
 2571SOL    HW119349   0.193   3.362  12.908 -1.4875  4.5647 -1.6051
 2571SOL    HW219350   0.083   3.337  13.003 -0.1645  1.6374 -0.4521
 2572SOL     OW19351   2.308   3.770   5.188  0.3146 -0.5701 -0.0443
 2572SOL    HW119352   2.352   3.774   5.273  1.7379 -2.0973 -0.7221
 2572SOL    HW219353   2.385   3.751   5.135  1.1295 -0.3283  1.0321
 2573SOL     OW19354   3.784   2.823   2.861 -0.3483 -0.1076  0.3362
 2573SOL    HW119355   3.744   2.906   2.833 -0.5385  0.8740  3.4653
 2573SOL    HW219356   3.834   2.852   2.937 -0.3956  0.0644  0.3038
 2574SOL     OW19357   3.847   0.834  17.050 -0.4743  0.1048  0.0924
 2574SOL    HW119358   3.809   0.747  17.036 -2.7191  1.2058 -0.7877
 2574SOL    HW219359   3.826   0.857  17.140 -2.1313 -0.1705 -0.2189
 2575SOL     OW19360   3.509   1.770   9.235  0.2728 -0.1519 -0.4549
 2575SOL    HW119361   3.478   1.781   9.325  0.2054  1.0705 -0.6335
 2575SOL    HW219362   3.545   1.681   9.239 -0.6140 -0.4884  0.0808
 2576SOL     OW19363   4.499   1.357   9.359 -0.4088 -0.2714  0.1336
 2576SOL    HW119364   4.582   1.313   9.380 -1.6345 -2.1207  1.0744
 2576SOL    HW219365   4.509   1.437   9.411 -0.0248 -1.9803  2.6919
 2577SOL     OW19366   4.311   3.626   2.999 -0.1572  0.7617  0.0092
 2577SOL    HW119367   4.297   3.572   2.922  1.1543 -1.8765  1.6457
 2577SOL    HW219368   4.287   3.714   2.968 -0.3476  0.7179  0.0341
 2578SOL     OW19369   3.956   4.370   7.798  0.2337 -0.0732  0.3896
 2578SOL    HW119370   3.968   4.359   7.892  0.8193  0.1570  0.3408
 2578SOL    HW219371   3.980   4.283   7.765  0.9582 -0.3632  1.6938
 2579SOL     OW19372   0.925   4.172  15.194  0.3132 -0.2478 -0.3326
 2579SOL    HW119373   0.921   4.238  15.263  0.5773  0.5987 -1.1123
 2579SOL    HW219374   0.962   4.096  15.237  0.0344  1.1388  2.3681
 2580SOL     OW19375   2.773   1.060   5.451 -0.1949  1.0085 -0.1481
 2580SOL    HW119376   2.800   1.069   5.360 -1.5615  1.1053 -0.5535
 2580SOL    HW219377   2.685   1.094   5.435 -0.5891  0.2046  0.2707
 2581SOL     OW19378   1.138   1.299  17.653  0.0903  0.4806 -0.1135
 2581SOL    HW119379   1.196   1.328  17.724  1.4916 -0.5300 -0.8389
 2581SOL    HW219380   1.113   1.373  17.598  2.6568  0.0875 -1.8259
 2582SOL     OW19381   1.948   4.712  15.462  0.5597  0.2077 -0.2593
 2582SOL    HW119382   1.912   0.014  15.541  0.8468  1.4153 -0.7092
 2582SOL    HW219383   1.933   4.618  15.471 -0.3417  0.0365 -3.4929
 2583SOL     OW19384   1.568   3.222   8.831 -0.6171 -0.0262  0.5337
 2583SOL    HW119385   1.472   3.215   8.831 -0.4549 -2.1838  1.3896
 2583SOL    HW219386   1.581   3.163   8.905 -2.0323 -0.3961  0.4943
 2584SOL     OW19387   2.195   2.311   8.581 -0.5239 -0.6041  0.3062
 2584SOL    HW119388   2.113   2.300   8.631  0.2930 -2.5612  1.2062
 2584SOL    HW219389   2.191   2.405   8.562 -0.8904 -0.4838  0.9841
 2585SOL     OW19390   2.823   1.181   5.007  0.2013 -0.4403 -0.1210
 2585SOL    HW119391   2.759   1.252   5.012  1.2965  0.6657 -1.7530
 2585SOL    HW219392   2.886   1.228   4.952  0.2037  0.0473  0.3024
 2586SOL     OW19393   2.117   2.413  16.168  0.4946 -0.5266  0.2398
 2586SOL    HW119394   2.158   2.415  16.254 -0.9670 -0.0753  0.9303
 2586SOL    HW219395   2.170   2.349  16.122  1.6396  0.3103  0.3861
 2587SOL     OW19396   4.600   4.492   5.694 -0.2562 -0.4782 -0.0854
 2587SOL    HW119397   4.549   4.424   5.739 -0.1505 -1.3038 -1.2098
 2587SOL    HW219398   4.540   4.565   5.685  0.0336  0.1004  2.6826
 2588SOL     OW19399   4.678   4.128   5.438 -0.2026  0.0048  0.0366
 2588SOL    HW119400   4.689   4.214   5.479  0.7935  0.2397 -0.7280
 2588SOL    HW219401   4.585   4.132   5.418 -0.3419  0.8256  0.8407
 2589SOL     OW19402   3.175   2.139   3.067 -0.5284  0.5263  0.2368
 2589SOL    HW119403   3.266   2.127   3.094 -0.7858  1.2335  1.4207
 2589SOL    HW219404   3.132   2.087   3.136  4.6456 -1.8801  1.6337
 2590SOL     OW19405   4.122   4.404   5.734 -0.5239 -0.3656 -0.2169
 2590SOL    HW119406   4.173   4.343   5.681  0.3020 -1.3646  1.7252
 2590SOL    HW219407   4.170   4.413   5.816  0.7997  0.5805 -1.0982
 2591SOL     OW19408   0.903   2.483   3.765  0.3780 -0.6106 -0.0711
 2591SOL    HW119409   0.862   2.563   3.731  1.6195  0.4933  0.9997
 2591SOL    HW219410   0.832   2.419   3.761 -0.4172  0.1034  2.3279
 2592SOL     OW19411   3.546   3.221   8.269 -1.0835  0.2387  0.3924
 2592SOL    HW119412   3.581   3.193   8.354  1.1793  2.4237  0.1879
 2592SOL    HW219413   3.622   3.251   8.218 -1.1085 -0.1018  0.1556
 2593SOL     OW19414   4.009   1.255   9.140  0.0866  0.3040  0.7836
 2593SOL    HW119415   4.028   1.307   9.062  2.2981 -0.3450  0.9069
 2593SOL    HW219416   3.974   1.326   9.193 -1.3986  0.5318 -0.5050
 2594SOL     OW19417   4.094   1.023   6.618  0.1767  0.4470 -0.1971
 2594SOL    HW119418   4.019   1.066   6.659 -0.2083  0.2036 -0.6561
 2594SOL    HW219419   4.165   1.061   6.670  1.2988 -0.2819 -1.2020
 2595SOL     OW19420   2.717   1.137  11.738  0.1626  0.2455 -0.0900
 2595SOL    HW119421   2.809   1.139  11.713  0.3062  1.3613  0.4938
 2595SOL    HW219422   2.711   1.168  11.829 -0.0433  1.6419 -0.5749
 2596SOL     OW19423   1.895   1.284   2.440  0.0543  0.0680  0.6614
 2596SOL    HW119424   1.946   1.347   2.490  2.9149 -0.3551 -1.6800
 2596SOL    HW219425   1.962   1.237   2.391 -1.1096 -0.8215 -0.0701
 2597SOL     OW19426   0.497   0.850   2.994 -0.3406 -0.3258  0.2674
 2597SOL    HW119427   0.564   0.851   3.063 -0.2402  0.5402  0.1503
 2597SOL    HW219428   0.451   0.768   3.013 -0.1736 -0.4670  0.0616
 2598SOL     OW19429   2.810   3.144  14.296 -0.3489  0.3383  0.2455
 2598SOL    HW119430   2.766   3.228  14.284  0.0900  0.3050 -1.6681
 2598SOL    HW219431   2.742   3.093  14.341  1.4390  0.0949  2.6721
 2599SOL     OW19432   3.612   3.210   7.792  0.1854  0.8567  0.3026
 2599SOL    HW119433   3.529   3.162   7.801  2.0219 -2.4270 -0.1467
 2599SOL    HW219434   3.655   3.211   7.878  0.1408  0.7649  0.3269
 2600SOL     OW19435   2.169   2.358   4.414 -0.4066  0.3606  0.1950
 2600SOL    HW119436   2.214   2.411   4.480  1.6399 -1.3512  0.1834
 2600SOL    HW219437   2.079   2.366   4.445  0.2024  0.9907  1.8197
 2601SOL     OW19438   4.018   2.714  14.683  0.4670  0.6505  0.3210
 2601SOL    HW119439   3.986   2.708  14.593 -1.8447  1.0539  1.1045
 2601SOL    HW219440   4.074   2.790  14.672 -0.5527  1.5253  1.1450
 2602SOL     OW19441   0.593   0.263   7.433 -0.3295 -0.2440 -0.1400
 2602SOL    HW119442   0.526   0.246   7.367 -0.4466 -0.0881 -0.0612
 2602SOL    HW219443   0.666   0.210   7.402  0.5811 -0.0143  1.5901
 2603SOL     OW19444   2.895   3.631   6.071 -0.0390  0.7445  0.5311
 2603SOL    HW119445   2.922   3.600   5.985 -0.0956  1.0708  0.3951
 2603SOL    HW219446   2.849   3.558   6.113 -0.9568  0.1522 -1.5308
 2604SOL     OW19447   0.051   4.592   5.036  0.0308  0.3235 -0.3376
 2604SOL    HW119448   0.036   4.537   4.960  1.8097 -0.1538 -0.3524
 2604SOL    HW219449   0.147   4.590   5.043 -0.1938 -2.0534  1.8820
 2605SOL     OW19450   3.589   0.816   6.651  0.7647 -0.3832 -0.0579
 2605SOL    HW119451   3.654   0.754   6.685  0.8042  0.5060  1.5050
 2605SOL    HW219452   3.532   0.754   6.606  0.1272  1.9380 -2.3936
 2606SOL     OW19453   1.265   2.743   5.237 -0.4531  0.2961 -0.0196
 2606SOL    HW119454   1.223   2.701   5.312 -0.0045 -0.3765 -0.1390
 2606SOL    HW219455   1.307   2.822   5.271  0.9694 -0.3335 -0.2821
 2607SOL     OW19456   2.884   3.315   4.353  0.3183  0.5002 -0.1593
 2607SOL    HW119457   2.975   3.326   4.381 -0.6980  2.1474  2.5260
 2607SOL    HW219458   2.839   3.380   4.408  2.9321  1.2973  1.0464
 2608SOL     OW19459   3.034   1.582   5.459  0.2548  0.2109  0.0094
 2608SOL    HW119460   3.116   1.582   5.410  0.3745 -0.6069  0.2101
 2608SOL    HW219461   3.049   1.501   5.508  1.4001  0.0275 -0.6640
 2609SOL     OW19462   0.697   1.655   3.251  0.2620  0.1105 -0.1944
 2609SOL    HW119463   0.645   1.733   3.231  0.7872  0.7175  0.8122
 2609SOL    HW219464   0.672   1.602   3.175  1.9404  3.0951 -2.8101
 2610SOL     OW19465   3.629   0.057   1.807 -0.3554  0.4205 -0.0829
 2610SOL    HW119466   3.606   0.074   1.899 -0.5710  1.9742 -0.4321
 2610SOL    HW219467   3.674   0.139   1.791  1.8786 -0.5809  1.0776
 2611SOL     OW19468   1.343   1.543   2.904 -0.5346 -0.0470 -0.1424
 2611SOL    HW119469   1.382   1.504   2.982 -1.6451  0.1727  0.5330
 2611SOL    HW219470   1.405   1.615   2.898 -0.4545 -0.0393  0.9266
 2612SOL     OW19471   3.686   2.676   5.673  0.4142 -0.1751  0.3173
 2612SOL    HW119472   3.678   2.581   5.669 -1.8864 -0.0104  0.7790
 2612SOL    HW219473   3.705   2.698   5.582 -1.9005 -2.5886 -0.7455
 2613SOL     OW19474   1.607   0.139   4.567  0.3126 -0.4972  0.0497
 2613SOL    HW119475   1.543   0.077   4.531  0.2598  0.6504 -1.8431
 2613SOL    HW219476   1.554   0.187   4.630  0.6622 -0.0686  0.0158
 2614SOL     OW19477   1.034   0.908   4.388 -0.0388  0.4590  0.0196
 2614SOL    HW119478   1.010   0.991   4.431 -0.6395 -0.5387  1.6023
 2614SOL    HW219479   0.965   0.899   4.322 -0.8616  1.6942  0.6967
 2615SOL     OW19480   4.650   0.916   8.267  0.4495  0.3174 -0.1928
 2615SOL    HW119481   4.677   0.903   8.358  0.8796 -0.4361 -0.4274
 2615SOL    HW219482   4.733   0.902   8.221  0.9480 -1.4034  1.2526
 2616SOL     OW19483   0.353   0.796   4.931 -0.0593 -0.4434  0.1685
 2616SOL    HW119484   0.327   0.724   4.874 -0.6811 -0.3970  0.3994
 2616SOL    HW219485   0.268   0.797   4.974  0.1356 -0.3320  0.5483
 2617SOL     OW19486   2.427   3.399   2.487 -0.4571 -0.0098 -0.1680
 2617SOL    HW119487   2.373   3.477   2.471  1.8247  1.3601 -1.1049
 2617SOL    HW219488   2.508   3.438   2.520 -1.6621  0.4276  2.2970
 2618SOL     OW19489   0.938   0.590   6.282  0.4456 -0.2482 -0.2304
 2618SOL    HW119490   0.972   0.664   6.232  0.4629 -0.8420 -1.1009
 2618SOL    HW219491   0.908   0.522   6.222 -1.2050  0.9925 -0.7908
 2619SOL     OW19492   4.464   0.453  10.423 -0.3274  0.0044 -0.0765
 2619SOL    HW119493   4.510   0.537  10.435  0.7269 -0.5169 -0.4929
 2619SOL    HW219494   4.519   0.406  10.361 -0.3336 -0.8010  0.5302
 2620SOL     OW19495   0.301   2.709   2.870 -0.2183  0.1010 -0.4207
 2620SOL    HW119496   0.311   2.636   2.808  0.7919  0.1097 -0.2655
 2620SOL    HW219497   0.323   2.671   2.955 -0.3458 -0.3998 -0.6119
 2621SOL     OW19498   4.201   4.022   8.406 -0.4187  0.3160  0.2447
 2621SOL    HW119499   4.197   4.117   8.396 -0.5257  0.1277 -1.6073
 2621SOL    HW219500   4.164   3.982   8.327 -1.1635  0.0466  0.7348
 2622SOL     OW19501   2.715   1.636   1.436  0.4218 -0.0424  0.3402
 2622SOL    HW119502   2.642   1.576   1.453 -2.8426  3.2886 -2.0040
 2622SOL    HW219503   2.685   1.719   1.472  1.0188 -0.0214  0.8064
 2623SOL     OW19504   4.248   1.198   8.192 -0.1368 -0.2858  0.1350
 2623SOL    HW119505   4.203   1.136   8.250 -0.0959 -1.1563 -0.7593
 2623SOL    HW219506   4.197   1.279   8.197 -0.8608 -0.6867 -0.8199
 2624SOL     OW19507   1.514   4.126   3.482  0.1132 -0.3320 -0.3266
 2624SOL    HW119508   1.433   4.115   3.434  0.2334  0.2519 -0.6705
 2624SOL    HW219509   1.583   4.107   3.419 -0.4738  0.6987 -1.2733
 2625SOL     OW19510   4.682   3.911   3.849  0.6598 -0.0459 -0.0881
 2625SOL    HW119511   4.611   3.896   3.786  1.6539 -2.5115 -0.6139
 2625SOL    HW219512   0.022   3.946   3.804  0.4219 -1.5677 -1.6901
 2626SOL     OW19513   2.231   2.883   9.485 -0.5330 -0.3028 -0.5324
 2626SOL    HW119514   2.326   2.892   9.476 -0.6509  3.6255  1.9279
 2626SOL    HW219515   2.214   2.795   9.453 -1.2899 -0.4623  0.3118
 2627SOL     OW19516   4.544   0.409   7.449  0.2070 -0.0562  0.4376
 2627SOL    HW119517   4.575   0.462   7.523 -0.8324 -0.8569  1.4456
 2627SOL    HW219518   4.515   0.326   7.485 -1.3577 -0.1546 -1.0616
 2628SOL     OW19519   1.259   1.259   3.040  0.1226 -0.5235  0.0099
 2628SOL    HW119520   1.318   1.329   3.066  0.8227 -2.3239  3.2126
 2628SOL    HW219521   1.321   1.189   3.017  0.8589  0.3233 -0.5910
 2629SOL     OW19522   1.944   3.402   9.009 -0.3810  0.0852 -0.5555
 2629SOL    HW119523   1.907   3.351   8.937  1.4132 -0.2464 -1.2300
 2629SOL    HW219524   1.990   3.331   9.054  0.3796  0.0837 -1.3376
 2630SOL     OW19525   4.203   2.022   2.317  0.5912 -0.1706 -0.0047
 2630SOL    HW119526   4.272   2.054   2.260  0.1068  1.0110  0.0793
 2630SOL    HW219527   4.227   2.070   2.397  0.4788 -3.0810  1.7893
 2631SOL     OW19528   0.815   1.964   4.902  0.0303 -0.5690 -0.2839
 2631SOL    HW119529   0.827   2.052   4.939 -0.6726 -0.0314 -1.3311
 2631SOL    HW219530   0.826   1.909   4.980 -1.9107 -0.9135 -0.2379
 2632SOL     OW19531   1.753   0.794  13.067 -0.0465  0.1604 -0.2465
 2632SOL    HW119532   1.837   0.817  13.027 -1.0954  2.7736 -0.9140
 2632SOL    HW219533   1.755   0.847  13.147 -0.3706 -0.2916  0.0592
 2633SOL     OW19534   2.151   0.444   5.672  0.3661  0.2399 -0.2245
 2633SOL    HW119535   2.138   0.522   5.726  0.1436  2.2433 -3.2062
 2633SOL    HW219536   2.088   0.470   5.606  0.7072  1.0648 -0.2281
 2634SOL     OW19537   0.116   4.169  16.571  0.3740  0.0370  0.1453
 2634SOL    HW119538   0.164   4.249  16.551  1.5375 -0.5997  0.3741
 2634SOL    HW219539   0.121   4.162  16.667  1.2584 -1.8817 -0.0505
 2635SOL     OW19540   4.179   4.490   6.596  0.3156 -0.5662 -0.3817
 2635SOL    HW119541   4.189   4.504   6.690  0.9267  1.1664 -0.6915
 2635SOL    HW219542   4.194   4.581   6.570 -2.7458 -0.4113 -1.6786
 2636SOL     OW19543   2.928   1.977   8.122  0.5227 -0.2877  0.1235
 2636SOL    HW119544   2.908   2.010   8.034  0.1781 -1.5145 -0.2574
 2636SOL    HW219545   2.915   2.058   8.171 -2.1227 -1.0093  0.5660
 2637SOL     OW19546   3.737   2.884   7.013  0.0437  0.3464 -0.0209
 2637SOL    HW119547   3.719   2.927   6.930  0.0537  0.8465  0.2345
 2637SOL    HW219548   3.667   2.926   7.063 -0.9293 -1.9718  0.5848
 2638SOL     OW19549   2.896   3.515   2.900  0.1534 -0.2876 -0.0874
 2638SOL    HW119550   2.845   3.436   2.918 -0.7031  0.9023  2.5669
 2638SOL    HW219551   2.833   3.583   2.876  0.5003 -0.9041 -2.7441
 2639SOL     OW19552   3.573   1.672   9.871 -0.5160  0.5742  0.4458
 2639SOL    HW119553   3.581   1.605   9.939  0.4579 -0.5537 -0.7823
 2639SOL    HW219554   3.485   1.655   9.836  0.0142  1.3603 -1.3080
 2640SOL     OW19555   2.075   3.469   6.472  0.3422  0.1244 -0.5689
 2640SOL    HW119556   2.070   3.433   6.384 -0.4029 -1.7757  0.2423
 2640SOL    HW219557   2.169   3.458   6.484  0.6666  1.9265 -1.5243
 2641SOL     OW19558   4.688   3.444  14.280  0.0651 -0.3098  0.3745
 2641SOL    HW119559   4.597   3.417  14.269  0.6215 -0.9862 -2.6543
 2641SOL    HW219560   4.704   3.503  14.207  2.2875 -0.3805  0.7941
 2642SOL     OW19561   4.563   3.259  15.076 -0.3683 -1.0319 -0.3065
 2642SOL    HW119562   4.552   3.194  15.007  2.5062 -0.6025 -1.1702
 2642SOL    HW219563   4.650   3.242  15.112 -0.4844 -2.1333 -0.5491
 2643SOL     OW19564   0.011   4.506   0.109 -0.6043  0.0571 -0.2362
 2643SOL    HW119565   4.732   4.421   0.150 -2.1445 -0.6544 -2.2823
 2643SOL    HW219566   4.719   4.484   0.020 -0.7847 -2.0450  0.3483
 2644SOL     OW19567   1.039   4.579   2.118  0.0039  0.0631  0.1740
 2644SOL    HW119568   1.043   4.662   2.072 -0.9324 -0.9061 -1.6655
 2644SOL    HW219569   1.131   4.582   2.142  0.9438 -1.8363 -3.1723
 2645SOL     OW19570   3.037   1.937   8.740  0.6783  0.2263 -0.0380
 2645SOL    HW119571   2.973   1.893   8.683 -0.4744  0.3742  1.1193
 2645SOL    HW219572   3.074   2.002   8.681  0.4209  0.0717 -0.3700
 2646SOL     OW19573   2.082   4.691   4.508  0.6216  0.1542 -0.3846
 2646SOL    HW119574   2.037   4.625   4.561 -2.3567  1.0093 -1.8547
 2646SOL    HW219575   2.096   0.018   4.578 -0.5523 -1.0079  0.9173
 2647SOL     OW19576   4.022   0.791   3.119  0.0728  0.1775 -0.1855
 2647SOL    HW119577   4.050   0.730   3.187  1.0238  1.2139  0.3501
 2647SOL    HW219578   3.936   0.815   3.153  0.7537  1.9203  0.2772
 2648SOL     OW19579   2.769   2.495   7.632  0.9856  0.1567  0.3216
 2648SOL    HW119580   2.851   2.478   7.586  0.6494  0.4597 -0.3982
 2648SOL    HW219581   2.801   2.468   7.718  0.5579 -0.1797  0.3757
 2649SOL     OW19582   3.945   1.360   8.597 -0.4865 -0.2757 -0.5571
 2649SOL    HW119583   4.007   1.430   8.577 -1.5283  0.7949 -0.0282
 2649SOL    HW219584   4.003   1.290   8.628 -1.7243 -1.4388 -0.9098
 2650SOL     OW19585   0.814   4.677   7.206 -0.5112 -0.2164  0.0735
 2650SOL    HW119586   0.807   4.590   7.167 -1.7494 -0.0619 -0.0598
 2650SOL    HW219587   0.882   4.649   7.267 -0.0694  0.9189  0.0922
 2651SOL     OW19588   4.094   3.281   3.833  0.1867 -0.3843  0.5068
 2651SOL    HW119589   4.012   3.329   3.824  0.8169  0.1635 -2.0519
 2651SOL    HW219590   4.088   3.225   3.756  0.3827 -0.3954  0.5003
 2652SOL     OW19591   3.464   0.535   8.501 -0.2579  0.0183  0.6682
 2652SOL    HW119592   3.451   0.588   8.423  0.6563 -1.4787 -0.4891
 2652SOL    HW219593   3.547   0.563   8.540  0.9767  0.9078 -2.6895
 2653SOL     OW19594   4.118   3.998  12.006 -0.5286  0.2278 -0.4258
 2653SOL    HW119595   4.201   4.003  12.053  0.9454 -1.5407 -2.8451
 2653SOL    HW219596   4.073   3.952  12.077 -1.6424  0.3718 -1.0355
 2654SOL     OW19597   0.448   2.245   3.622 -0.7582  0.1958  0.2414
 2654SOL    HW119598   0.441   2.315   3.557 -0.6799 -0.4295 -0.4402
 2654SOL    HW219599   0.460   2.172   3.562 -1.3610  1.2497 -1.1755
 2655SOL     OW19600   3.893   1.388   5.958  0.4025 -0.4222  0.1673
 2655SOL    HW119601   3.900   1.424   5.869 -0.4712  1.7936  0.9787
 2655SOL    HW219602   3.832   1.450   5.998 -1.0073 -1.1215 -0.9102
 2656SOL     OW19603   2.127   3.025   4.633  0.3452 -0.3326 -0.1395
 2656SOL    HW119604   2.159   3.053   4.547  0.7789 -0.5376 -0.0443
 2656SOL    HW219605   2.196   3.062   4.688 -1.7425  0.5246  1.9170
 2657SOL     OW19606   4.697   4.253  15.317  0.1824 -0.4676  0.0366
 2657SOL    HW119607   0.005   4.313  15.257 -1.4135  0.3304 -0.3410
 2657SOL    HW219608   0.029   4.186  15.323  0.6801 -0.3208 -4.1317
 2658SOL     OW19609   1.833   0.637  13.368  0.9398  0.1444 -0.0561
 2658SOL    HW119610   1.790   0.698  13.428  0.2448  0.4141 -0.8389
 2658SOL    HW219611   1.926   0.661  13.373  0.8608  0.2805  0.7567
 2659SOL     OW19612   0.446   2.185   1.571 -0.3519  0.5259 -0.2611
 2659SOL    HW119613   0.428   2.155   1.660 -2.0480  0.4744 -0.6237
 2659SOL    HW219614   0.541   2.197   1.578 -0.1354 -0.0810 -2.2278
 2660SOL     OW19615   0.198   4.040   9.771  0.0554 -0.3658 -0.1711
 2660SOL    HW119616   0.264   4.106   9.748 -2.0399  0.4949 -3.6009
 2660SOL    HW219617   0.202   3.980   9.697  2.8644 -0.8050  0.3232
 2661SOL     OW19618   0.913   1.289   5.781 -0.0671 -0.5168  0.2062
 2661SOL    HW119619   0.919   1.238   5.701  0.1964 -0.5001  0.2166
 2661SOL    HW219620   1.004   1.310   5.800 -0.6137 -0.0707  2.4130
 2662SOL     OW19621   4.078   2.082  17.210 -0.6077  0.1638 -0.4760
 2662SOL    HW119622   4.116   2.153  17.262  1.1777  1.9585 -4.2062
 2662SOL    HW219623   4.157   2.066  17.158  0.3929 -0.3637  1.1853
 2663SOL     OW19624   4.734   1.493   7.116  0.0174 -0.1084 -0.3092
 2663SOL    HW119625   0.042   1.498   7.201 -1.7263  0.0171  0.5874
 2663SOL    HW219626   4.655   1.546   7.123 -1.2326 -1.9957 -0.1337
 2664SOL     OW19627   2.753   1.693   1.777  0.0264 -0.3499 -1.0511
 2664SOL    HW119628   2.827   1.739   1.817 -1.0512  2.2199 -2.0536
 2664SOL    HW219629   2.740   1.747   1.700  0.6289  0.3797 -0.6396
 2665SOL     OW19630   0.659   1.660  17.518  0.3464  0.0261  0.3933
 2665SOL    HW119631   0.738   1.711  17.529  1.0260 -0.6701 -1.3279
 2665SOL    HW219632   0.666   1.593  17.586  0.5484 -0.0222  0.3232
 2666SOL     OW19633   1.045   1.632  11.376 -0.4148 -0.2150 -0.2261
 2666SOL    HW119634   1.137   1.632  11.348 -0.1870  0.7356  0.5233
 2666SOL    HW219635   1.013   1.691  11.308  0.4276 -0.4992 -0.8700
 2667SOL     OW19636   0.723   1.701  13.347  0.0530 -0.0886 -0.2428
 2667SOL    HW119637   0.812   1.729  13.324  1.3279 -2.8533  1.3629
 2667SOL    HW219638   0.700   1.664  13.262  0.5979  0.7953 -0.7764
 2668SOL     OW19639   2.189   1.991   7.368  0.3611  0.3501 -0.5427
 2668SOL    HW119640   2.126   1.999   7.297  0.0636  1.3745 -0.1632
 2668SOL    HW219641   2.155   1.906   7.396  1.7083 -0.6703 -1.9946
 2669SOL     OW19642   2.083   0.524  16.868 -0.2404 -0.0174  0.3232
 2669SOL    HW119643   2.163   0.472  16.875  1.8703  3.0583 -0.9429
 2669SOL    HW219644   2.032   0.505  16.947 -2.1369  2.7746 -0.1880
 2670SOL     OW19645   3.330   2.096   0.796  0.3394  0.2767 -0.3589
 2670SOL    HW119646   3.318   2.120   0.888 -0.7095  1.1003 -0.7073
 2670SOL    HW219647   3.425   2.080   0.795 -0.1736 -2.6245 -0.2132
 2671SOL     OW19648   2.124   2.998   5.614  0.4005  0.2797  0.2170
 2671SOL    HW119649   2.089   3.038   5.693  0.9696 -0.4549  0.8327
 2671SOL    HW219650   2.193   2.951   5.659 -0.3994  0.6253  1.7873
 2672SOL     OW19651   4.465   3.981   7.275 -0.2720 -0.3614 -0.1211
 2672SOL    HW119652   4.530   3.943   7.334  0.3866  1.2903  0.2414
 2672SOL    HW219653   4.473   3.937   7.191 -1.8123 -0.5857 -0.1468
 2673SOL     OW19654   1.016   4.056   7.153 -0.5305  0.2433 -0.1065
 2673SOL    HW119655   1.103   4.015   7.157  0.2552  1.7864 -1.2814
 2673SOL    HW219656   0.980   4.009   7.078  1.1115 -1.3397  0.0953
 2674SOL     OW19657   0.617   3.457  14.840  0.1389  0.8478  0.2690
 2674SOL    HW119658   0.582   3.393  14.902 -2.5990  1.0057 -1.1277
 2674SOL    HW219659   0.561   3.457  14.763 -1.7846  5.6432  1.7002
 2675SOL     OW19660   1.164   3.898   4.171  0.3906 -0.0221  0.2177
 2675SOL    HW119661   1.239   3.893   4.111 -1.5124  0.9273 -2.2195
 2675SOL    HW219662   1.111   3.958   4.119  1.2422  2.2831  2.0124
 2676SOL     OW19663   0.390   2.778   5.840  0.0229  0.3387  0.2713
 2676SOL    HW119664   0.401   2.841   5.911  1.1548  0.3137  0.1132
 2676SOL    HW219665   0.331   2.820   5.777 -0.8439 -4.1122 -1.8655
 2677SOL     OW19666   2.464   0.458  14.923 -0.6111 -0.3367  0.0239
 2677SOL    HW119667   2.393   0.498  14.874  0.8637  0.5335 -1.3660
 2677SOL    HW219668   2.460   0.367  14.893 -2.9026 -0.9678  2.2746
 2678SOL     OW19669   0.439   2.839   2.027 -0.0677  0.0505 -0.5200
 2678SOL    HW119670   0.376   2.793   1.973 -0.6336  0.5527 -0.2805
 2678SOL    HW219671   0.382   2.846   2.104 -0.9303 -0.3797 -1.1255
 2679SOL     OW19672   1.021   1.013   6.063 -0.0395 -0.0625  0.2211
 2679SOL    HW119673   1.106   1.028   6.021 -1.2223 -1.2673 -2.6059
 2679SOL    HW219674   1.036   0.936   6.117 -0.6680 -0.7787 -0.6382
 2680SOL     OW19675   0.198   0.190  15.360  0.6042  0.1313  0.3460
 2680SOL    HW119676   0.272   0.246  15.383  1.6549 -0.9917 -0.2584
 2680SOL    HW219677   0.164   0.245  15.289 -0.1000  0.4128  0.8985
 2681SOL     OW19678   3.794   4.219  14.877 -0.3749  0.1009  0.2812
 2681SOL    HW119679   3.819   4.310  14.858 -0.8605  0.0419 -0.6739
 2681SOL    HW219680   3.819   4.214  14.969  0.3183  0.1190  0.0968
 2682SOL     OW19681   3.413   4.157   6.884  0.3978 -0.6132  0.0484
 2682SOL    HW119682   3.501   4.151   6.919  0.6863  0.6705 -0.4655
 2682SOL    HW219683   3.425   4.229   6.822 -0.4622  0.6769  1.3897
 2683SOL     OW19684   1.918   3.407  14.113  0.0893 -0.0412  0.0734
 2683SOL    HW119685   1.892   3.326  14.070 -0.9216  0.4087 -0.1626
 2683SOL    HW219686   1.862   3.405  14.191  0.1304 -1.8754  0.0392
 2684SOL     OW19687   3.098   0.023   9.867 -0.4700  0.4422  0.2778
 2684SOL    HW119688   3.188   0.012   9.898 -0.5191 -0.7217  0.0263
 2684SOL    HW219689   3.086   4.668   9.840  0.9382  0.1444  0.6255
 2685SOL     OW19690   4.016   0.951   4.630  0.6378 -0.2170  0.6780
 2685SOL    HW119691   3.971   0.998   4.700  0.7200  0.2895  0.3912
 2685SOL    HW219692   3.944   0.918   4.578 -0.1410  1.9158  0.4129
 2686SOL     OW19693   1.316   0.952   3.248  0.3252  0.2628 -0.1856
 2686SOL    HW119694   1.356   0.942   3.161  2.0357  3.8684  0.1851
 2686SOL    HW219695   1.380   1.002   3.298  0.8308 -0.4066 -0.1701
 2687SOL     OW19696   0.253   4.108   4.761  0.0698  0.0804  0.4768
 2687SOL    HW119697   0.161   4.124   4.742  0.4666  0.1633 -1.3261
 2687SOL    HW219698   0.254   4.013   4.773  1.6794 -0.1637 -1.5540
 2688SOL     OW19699   1.371   0.126   7.409 -0.7030 -0.2505  0.9628
 2688SOL    HW119700   1.362   0.034   7.432 -1.5574 -0.9362 -2.0328
 2688SOL    HW219701   1.445   0.150   7.464  0.4950  0.3848 -0.9387
 2689SOL     OW19702   0.243   1.560   4.748  0.3669  0.3077  0.1845
 2689SOL    HW119703   0.239   1.642   4.698  1.7202 -0.1237 -0.6354
 2689SOL    HW219704   0.182   1.515   4.690 -2.0476  2.9950  0.6296
 2690SOL     OW19705   2.055   2.892   6.123 -0.1315 -0.4710  0.4040
 2690SOL    HW119706   2.086   2.896   6.213 -0.2952 -0.8307  0.4762
 2690SOL    HW219707   1.965   2.916   6.145  0.0724  1.4666 -0.8345
 2691SOL     OW19708   2.624   3.243   1.708  1.1666  0.0583  0.0433
 2691SOL    HW119709   2.534   3.274   1.702  0.4984 -1.3537  2.7889
 2691SOL    HW219710   2.640   3.236   1.802 -0.9787 -2.5696  0.1934
 2692SOL     OW19711   3.740   4.201   3.040 -0.1135  0.2624  0.0552
 2692SOL    HW119712   3.691   4.208   2.958 -0.8610 -0.6978  0.4229
 2692SOL    HW219713   3.811   4.264   3.023  0.6738 -0.8293 -0.6550
 2693SOL     OW19714   4.518   3.570   3.169 -0.7353  0.2932 -0.0198
 2693SOL    HW119715   4.481   3.620   3.242 -0.8930  0.8442 -0.4766
 2693SOL    HW219716   4.456   3.597   3.101 -0.8764  0.9725  0.3758
 2694SOL     OW19717   0.017   2.699   4.529  0.0493 -0.0665 -0.3247
 2694SOL    HW119718   4.669   2.656   4.546 -0.3968  0.6840 -0.6824
 2694SOL    HW219719   0.040   2.660   4.445 -1.2491  1.5775 -1.4432
 2695SOL     OW19720   3.271   1.700   4.027  0.9155 -0.6369 -0.6748
 2695SOL    HW119721   3.353   1.740   3.995  1.1791  0.1650  1.0082
 2695SOL    HW219722   3.298   1.613   4.055 -0.9827  0.0606  3.2734
 2696SOL     OW19723   1.850   0.940  15.723  0.4301  0.9779  0.3447
 2696SOL    HW119724   1.818   0.975  15.640 -1.2174 -1.9121 -0.2469
 2696SOL    HW219725   1.942   0.959  15.708  0.5125  1.0397  0.9317
 2697SOL     OW19726   2.941   3.712   3.075  0.0483 -0.7314  0.0032
 2697SOL    HW119727   2.918   3.772   3.004  1.2454 -1.4205 -0.9707
 2697SOL    HW219728   2.939   3.631   3.024  0.8436 -0.1929 -0.8834
 2698SOL     OW19729   2.394   4.698   4.285  0.9469 -0.0345 -0.3940
 2698SOL    HW119730   2.314   4.695   4.233 -0.1591 -0.6153  1.3575
 2698SOL    HW219731   2.421   0.053   4.295 -1.7024  1.0852 -3.2611
 2699SOL     OW19732   4.538   3.206   1.377 -0.3491 -0.1477  0.3465
 2699SOL    HW119733   4.631   3.205   1.400 -0.1507  0.4960 -0.4387
 2699SOL    HW219734   4.509   3.274   1.439 -2.4536 -0.3717 -0.3654
 2700SOL     OW19735   0.743   2.157   2.643  0.1834  0.0567  0.0948
 2700SOL    HW119736   0.828   2.142   2.684  0.8361  0.6803 -1.0089
 2700SOL    HW219737   0.747   2.119   2.555  1.7178  1.9652 -0.6433
 2701SOL     OW19738   4.255   3.595   5.657  1.0571 -0.1266 -0.0291
 2701SOL    HW119739   4.351   3.594   5.656  1.0664 -1.3507  1.6074
 2701SOL    HW219740   4.240   3.502   5.637 -0.0869 -0.1346  0.8845
 2702SOL     OW19741   3.442   4.577   3.422  0.5993  0.0917  0.1587
 2702SOL    HW119742   3.509   4.509   3.408 -0.1882 -0.5900 -0.2579
 2702SOL    HW219743   3.469   4.615   3.506  0.4631  0.3841  0.0693
 2703SOL     OW19744   4.659   3.785   9.898  0.7705  0.1868  0.2380
 2703SOL    HW119745   4.704   3.802   9.815 -0.3537  0.6289 -0.2730
 2703SOL    HW219746   4.580   3.743   9.864  0.0262  0.8674  1.1471
 2704SOL     OW19747   0.235   0.138   8.310 -0.1972  0.2857  0.6736
 2704SOL    HW119748   0.317   0.159   8.265 -0.1544  1.4058  1.2747
 2704SOL    HW219749   0.209   0.055   8.271  1.0229  0.0168  0.4327
 2705SOL     OW19750   2.647   3.289   8.612 -0.2008  0.1557 -0.1078
 2705SOL    HW119751   2.580   3.261   8.675  1.0145  2.3719  2.1977
 2705SOL    HW219752   2.671   3.378   8.638  0.0069  1.0822 -3.5954
 2706SOL     OW19753   2.909   3.367   7.941 -0.1149  0.1622  0.1435
 2706SOL    HW119754   2.822   3.329   7.958 -0.1379  0.5175  0.8544
 2706SOL    HW219755   2.971   3.306   7.981 -1.3009 -0.8087  0.5161
 2707SOL     OW19756   0.449   2.758  12.208 -0.1923  0.0192  0.0610
 2707SOL    HW119757   0.421   2.692  12.272  0.0638 -1.0376 -0.9021
 2707SOL    HW219758   0.468   2.832  12.265 -0.3921 -0.2684  0.5028
 2708SOL     OW19759   3.169   4.065   7.956 -1.1931 -0.4148  0.6110
 2708SOL    HW119760   3.214   4.091   8.037 -0.4808 -0.1342  0.1270
 2708SOL    HW219761   3.092   4.018   7.988 -0.0368 -1.5397  1.7282
 2709SOL     OW19762   1.926   4.302   9.288 -0.1739 -0.5958 -0.1453
 2709SOL    HW119763   2.005   4.292   9.341  0.2869  0.1686 -0.6825
 2709SOL    HW219764   1.927   4.214   9.251 -2.7599 -0.2674 -0.9729
 2710SOL     OW19765   1.760   1.929   8.087 -0.2615  0.2170 -0.2860
 2710SOL    HW119766   1.753   1.870   8.162 -0.9417 -0.5552 -0.9529
 2710SOL    HW219767   1.852   1.913   8.068 -0.5519 -0.4297 -1.1193
 2711SOL     OW19768   2.167   3.427  16.274 -0.2815 -0.0987 -0.0858
 2711SOL    HW119769   2.133   3.516  16.284 -1.1054 -0.0119 -3.5739
 2711SOL    HW219770   2.126   3.401  16.191  1.0998  1.0095 -1.1173
 2712SOL     OW19771   2.896   3.180   4.762  0.5541  0.1219 -0.5063
 2712SOL    HW119772   2.847   3.179   4.680  1.5856  1.8431 -1.1444
 2712SOL    HW219773   2.942   3.262   4.745  0.2426  0.1608 -1.1664
 2713SOL     OW19774   1.039   3.411   4.541  0.2164 -0.2032  0.0451
 2713SOL    HW119775   1.122   3.430   4.498 -0.6292  0.5480 -1.2840
 2713SOL    HW219776   1.032   3.467   4.618 -0.0091 -1.4532  0.9310
 2714SOL     OW19777   0.849   1.344   7.561 -0.1008 -0.2135  0.3198
 2714SOL    HW119778   0.933   1.303   7.542 -0.4704 -0.7591 -0.1510
 2714SOL    HW219779   0.842   1.324   7.654  0.6354 -0.6447  0.2845
 2715SOL     OW19780   2.337   3.721   7.996 -0.7613  0.3700 -0.4503
 2715SOL    HW119781   2.297   3.763   7.920  0.8124  1.1402 -0.8508
 2715SOL    HW219782   2.263   3.663   8.013 -2.6758  2.9760  0.0852
 2716SOL     OW19783   2.506   4.258   2.196  0.1531 -0.0789 -0.3270
 2716SOL    HW119784   2.530   4.185   2.253 -1.8561  0.5418  1.3113
 2716SOL    HW219785   2.467   4.319   2.259  1.7781  0.2331  0.3628
 2717SOL     OW19786   1.386   4.426   0.947  0.0298  0.5246 -0.5160
 2717SOL    HW119787   1.453   4.468   1.001  0.8847 -1.9974  0.3794
 2717SOL    HW219788   1.389   4.333   0.969 -0.5643  0.9898  1.4981
 2718SOL     OW19789   3.607   1.267   9.057  0.2240  0.6951  0.2614
 2718SOL    HW119790   3.520   1.302   9.039  0.6171  1.8353  0.5880
 2718SOL    HW219791   3.635   1.315   9.135 -0.4528  1.3951  0.0765
 2719SOL     OW19792   1.755   2.645   7.095  0.1371  0.3793  0.0112
 2719SOL    HW119793   1.781   2.709   7.161 -0.0698  0.2058  0.2608
 2719SOL    HW219794   1.837   2.600   7.076 -0.6487  0.0996 -2.8124
 2720SOL     OW19795   2.887   2.449   6.144  0.4737  0.0647  0.1234
 2720SOL    HW119796   2.926   2.395   6.075 -0.8836 -1.3484  0.4676
 2720SOL    HW219797   2.795   2.422   6.140  0.2800  1.0445 -2.2673
 2721SOL     OW19798   2.435   3.201   7.808  0.2886  0.5077 -0.8538
 2721SOL    HW119799   2.367   3.268   7.817 -1.0196 -0.7590 -1.3385
 2721SOL    HW219800   2.440   3.161   7.895 -2.5882  2.9094  0.4003
 2722SOL     OW19801   2.668   1.653   7.173  0.4717 -0.4027 -0.1030
 2722SOL    HW119802   2.608   1.727   7.184 -0.9155 -1.4420 -0.7042
 2722SOL    HW219803   2.652   1.591   7.244 -0.1116  0.0213  0.1355
 2723SOL     OW19804   1.647   3.037   7.259  0.0083 -0.6064  0.3476
 2723SOL    HW119805   1.695   3.118   7.270 -1.4336  0.2903  0.0732
 2723SOL    HW219806   1.708   2.973   7.296  0.2808 -0.4350  0.1889
 2724SOL     OW19807   3.630   2.306   3.462 -0.4486 -0.4928  0.0219
 2724SOL    HW119808   3.651   2.398   3.478  1.4822 -1.0377  0.5771
 2724SOL    HW219809   3.612   2.304   3.368  1.1284 -2.0742 -0.2497
 2725SOL     OW19810   4.507   0.023  15.258 -0.0633  0.4781  0.1675
 2725SOL    HW119811   4.450   4.686  15.237  0.7532 -0.2993  0.6744
 2725SOL    HW219812   4.577   0.003  15.196  0.8222  0.4865  1.1555
 2726SOL     OW19813   4.158   2.360  16.179 -0.2508  0.1007 -0.7282
 2726SOL    HW119814   4.159   2.265  16.186 -1.4963  0.2115  1.1129
 2726SOL    HW219815   4.064   2.379  16.188  0.4836  1.8888  3.2179
 2727SOL     OW19816   2.760   3.516   4.516 -0.3691 -0.3431 -0.3077
 2727SOL    HW119817   2.672   3.534   4.483 -0.9970  0.7823  1.9722
 2727SOL    HW219818   2.745   3.455   4.589  2.1123  0.5285  0.9305
 2728SOL     OW19819   0.168   3.819  10.034 -0.1345 -0.4823  0.2091
 2728SOL    HW119820   0.132   3.907  10.039 -2.6779 -1.4476 -1.0622
 2728SOL    HW219821   0.102   3.766   9.989 -0.3970 -0.3386  0.4215
 2729SOL     OW19822   0.601   0.935   7.930 -0.2975  0.3804  0.5362
 2729SOL    HW119823   0.601   0.877   8.006  0.8347 -1.9050 -1.1873
 2729SOL    HW219824   0.510   0.965   7.932  0.1038  1.5195  1.2643
 2730SOL     OW19825   3.850   2.515   9.027 -0.4324 -0.2726  0.1150
 2730SOL    HW119826   3.807   2.492   9.109  0.6298  1.3213  1.1253
 2730SOL    HW219827   3.822   2.444   8.969  1.6742 -0.2810 -0.8830
 2731SOL     OW19828   1.139   1.424   7.693  0.0121 -0.0144  0.2763
 2731SOL    HW119829   1.093   1.507   7.680 -0.2753 -0.0950  0.7906
 2731SOL    HW219830   1.126   1.411   7.787 -0.8662 -2.1644 -0.1231
 2732SOL     OW19831   3.980   0.994   8.086  0.5575  0.0757  0.1608
 2732SOL    HW119832   3.926   0.927   8.129 -0.5471 -0.2158 -1.6493
 2732SOL    HW219833   4.070   0.962   8.090  1.2694  2.3524  1.9954
 2733SOL     OW19834   0.019   3.042  12.955 -0.9479 -0.1319 -0.3208
 2733SOL    HW119835   0.085   3.109  12.970 -1.5329  0.6239 -1.1092
 2733SOL    HW219836   4.685   3.075  13.011 -0.6283 -0.8237  0.4957
 2734SOL     OW19837   3.815   3.034   5.913 -0.0589  0.6201 -0.2941
 2734SOL    HW119838   3.740   2.997   5.867  0.1758 -0.1817 -0.0427
 2734SOL    HW219839   3.787   3.016   6.002  0.7136  2.5501  0.3309
 2735SOL     OW19840   3.617   3.252   1.658  0.3819 -0.2085  0.0781
 2735SOL    HW119841   3.699   3.296   1.681  0.0579 -0.7398  2.1797
 2735SOL    HW219842   3.582   3.211   1.736 -0.7233  0.6255  0.0250
 2736SOL     OW19843   3.341   1.863   7.281  0.1940  0.4786  0.2876
 2736SOL    HW119844   3.387   1.894   7.203  0.6216  0.5924  0.5864
 2736SOL    HW219845   3.249   1.850   7.257  0.0943  2.0712 -0.1538
 2737SOL     OW19846   0.897   0.669   2.840  0.8394  0.0034  0.1901
 2737SOL    HW119847   0.814   0.633   2.870  1.1216  0.1964  1.1941
 2737SOL    HW219848   0.887   0.657   2.745 -0.0350  2.7504 -0.0823
 2738SOL     OW19849   3.261   1.040  15.640  0.0197  0.4479 -0.3391
 2738SOL    HW119850   3.215   1.113  15.682 -1.9232 -0.9076 -0.0780
 2738SOL    HW219851   3.192   1.003  15.584  0.8420 -0.4066 -0.7746
 2739SOL     OW19852   1.532   2.581   3.176 -0.3455  0.4027  0.7826
 2739SOL    HW119853   1.504   2.667   3.143  0.2356  1.0752  2.0644
 2739SOL    HW219854   1.623   2.587   3.203 -0.5422  2.8379  0.9106
 2740SOL     OW19855   3.344   0.624   2.846 -0.1071 -0.4365 -0.7239
 2740SOL    HW119856   3.416   0.613   2.785 -0.1034 -2.7905 -0.3099
 2740SOL    HW219857   3.286   0.674   2.788 -0.2959 -1.2190 -1.2158
 2741SOL     OW19858   1.653   0.519  15.980  0.1346 -0.2559 -0.2650
 2741SOL    HW119859   1.704   0.600  15.979 -0.4511  0.1115 -0.9994
 2741SOL    HW219860   1.577   0.549  16.030  0.1852 -0.7722  0.1117
 2742SOL     OW19861   2.159   1.709   2.589 -0.0130  0.3979  0.1407
 2742SOL    HW119862   2.238   1.749   2.625  1.1370 -0.1375 -1.7657
 2742SOL    HW219863   2.188   1.690   2.499  2.2831  1.9025  0.5570
 2743SOL     OW19864   4.000   1.730   4.199 -0.0601 -0.0455 -0.1262
 2743SOL    HW119865   4.077   1.779   4.224  0.6665 -0.8405 -0.7771
 2743SOL    HW219866   3.988   1.754   4.107  1.6840 -1.2135 -0.6495
 2744SOL     OW19867   1.499   0.319   4.738  0.0840  0.4117 -0.1543
 2744SOL    HW119868   1.524   0.286   4.824 -0.0636  0.4054 -0.1139
 2744SOL    HW219869   1.404   0.325   4.748  0.1301  0.7899  0.0473
 2745SOL     OW19870   0.230   1.330   2.136  0.3244 -0.1517 -0.1737
 2745SOL    HW119871   0.323   1.316   2.120  0.8806  2.4871  0.7453
 2745SOL    HW219872   0.227   1.425   2.119  0.4844  0.4351  3.2304
 2746SOL     OW19873   3.155   0.365   1.822  0.0759  0.1615  0.5068
 2746SOL    HW119874   3.235   0.332   1.862  0.3923  1.6299  1.0680
 2746SOL    HW219875   3.178   0.458   1.828 -0.7076  0.3516  0.5566
 2747SOL     OW19876   3.730   0.637  16.442 -0.1182 -0.1718  0.1047
 2747SOL    HW119877   3.702   0.703  16.379  3.1605  0.4637 -0.6579
 2747SOL    HW219878   3.672   0.564  16.419  1.7296 -1.5803 -0.1194
 2748SOL     OW19879   1.063   3.135   4.630  0.2630  0.4913 -0.3980
 2748SOL    HW119880   1.071   3.220   4.587 -0.1753 -0.4896 -2.4372
 2748SOL    HW219881   1.015   3.162   4.708 -1.5545  0.0838 -1.3568
 2749SOL     OW19882   4.682   0.198  15.450  0.4978 -0.6454  0.4817
 2749SOL    HW119883   4.659   0.285  15.418 -1.3947  0.1947  4.0425
 2749SOL    HW219884   0.034   0.192  15.415  1.5162 -1.8490  3.2539
 2750SOL     OW19885   4.069   1.167   0.166  0.4232  0.0601 -0.3661
 2750SOL    HW119886   4.071   1.220   0.086 -2.3338  0.2410 -0.3296
 2750SOL    HW219887   4.031   1.228   0.230 -0.9007 -1.8897  0.6927
 2751SOL     OW19888   3.507   2.898   8.441  0.2790  0.2802 -0.6035
 2751SOL    HW119889   3.558   2.825   8.405  2.3931  1.2785  0.3616
 2751SOL    HW219890   3.546   2.922   8.525 -1.1426  2.2273 -0.5085
 2752SOL     OW19891   4.322   3.648   0.080 -0.5657 -0.2480  0.1424
 2752SOL    HW119892   4.298   3.681  17.737 -2.8968  0.2399  0.9858
 2752SOL    HW219893   4.284   3.561   0.090  0.0701 -0.4159  1.1420
 2753SOL     OW19894   0.231   2.704  17.310  0.3870  0.2235  0.4559
 2753SOL    HW119895   0.172   2.768  17.350 -2.3477 -1.6439 -0.6288
 2753SOL    HW219896   0.275   2.760  17.245  0.0948 -1.1273 -0.9103
 2754SOL     OW19897   2.595   3.013   5.903 -0.2256  0.2371 -0.9831
 2754SOL    HW119898   2.620   3.104   5.887  0.6477 -0.2296 -2.3272
 2754SOL    HW219899   2.658   2.956   5.859 -1.2269 -0.0346 -2.0765
 2755SOL     OW19900   0.565   1.227   4.981 -0.1161  0.0827 -0.7230
 2755SOL    HW119901   0.496   1.221   5.047  0.7290  0.8948  0.2322
 2755SOL    HW219902   0.542   1.312   4.944  1.0424  1.1526  1.0543
 2756SOL     OW19903   0.556   1.094   9.472 -0.4208  0.9827  0.0703
 2756SOL    HW119904   0.529   1.178   9.510  0.6004  1.1628  0.3844
 2756SOL    HW219905   0.536   1.096   9.378 -1.5325 -1.0555  0.2790
 2757SOL     OW19906   4.386   3.927   1.575 -0.3196  0.0777  0.0179
 2757SOL    HW119907   4.452   3.921   1.506  1.0051  2.3887  1.0427
 2757SOL    HW219908   4.423   3.997   1.629  0.9724  0.1586 -0.9791
 2758SOL     OW19909   1.615   2.597   9.814  0.8019 -1.0096 -0.6253
 2758SOL    HW119910   1.680   2.574   9.881 -1.4886  1.9141  2.6386
 2758SOL    HW219911   1.668   2.652   9.756  1.6534  2.0136  2.9923
 2759SOL     OW19912   0.890   3.554   7.299 -0.4017  0.2451 -0.1567
 2759SOL    HW119913   0.934   3.514   7.224  0.9821  1.6290 -0.0863
 2759SOL    HW219914   0.847   3.629   7.257  0.0359  0.0531 -0.9498
 2760SOL     OW19915   2.060   0.224   8.745  0.4233  0.6207  0.3698
 2760SOL    HW119916   2.138   0.168   8.750  1.3021  1.8434  0.3983
 2760SOL    HW219917   2.093   0.304   8.704 -2.7621  1.2989 -0.8719
 2761SOL     OW19918   1.659   0.623   8.092 -0.1526 -0.3551  0.2347
 2761SOL    HW119919   1.696   0.536   8.077 -2.3407 -1.0878 -0.7775
 2761SOL    HW219920   1.566   0.603   8.098 -0.4671 -0.0248 -3.3936
 2762SOL     OW19921   4.597   0.636   8.664 -0.3276  0.3539  0.4928
 2762SOL    HW119922   4.549   0.595   8.591 -1.3608 -0.5719  1.6883
 2762SOL    HW219923   4.689   0.619   8.648 -0.5948  0.6750 -1.4077
 2763SOL     OW19924   4.568   2.986   4.783  0.3802 -0.0762 -0.0528
 2763SOL    HW119925   4.562   3.081   4.786 -1.7450 -0.1957 -0.7359
 2763SOL    HW219926   4.483   2.956   4.752  0.3841  0.1057 -0.2388
 2764SOL     OW19927   1.894   2.980   8.464 -0.2587 -0.6272  0.5080
 2764SOL    HW119928   1.822   3.038   8.440  0.9402  0.6448 -0.0017
 2764SOL    HW219929   1.908   2.935   8.381  1.9394  0.3864  0.3160
 2765SOL     OW19930   1.328   3.255  11.986  0.0840 -0.0955  0.5142
 2765SOL    HW119931   1.297   3.324  11.927  3.0991 -0.3883 -1.4247
 2765SOL    HW219932   1.417   3.288  11.996 -0.0342  0.0749  0.9949
 2766SOL     OW19933   0.626   3.346   6.466  0.0025  0.7083  1.2318
 2766SOL    HW119934   0.628   3.332   6.561  3.5469  0.8521  1.1613
 2766SOL    HW219935   0.651   3.437   6.450  0.0961  0.6906  1.2808
 2767SOL     OW19936   1.987   3.178  11.843  0.7068  0.0946 -0.1313
 2767SOL    HW119937   1.966   3.228  11.923  0.2096 -0.2688 -0.0343
 2767SOL    HW219938   1.988   3.094  11.887  0.6852  0.2944  0.2524
 2768SOL     OW19939   3.350   4.111   9.001 -0.2167 -0.0575 -0.1083
 2768SOL    HW119940   3.403   4.036   9.027  0.5028  0.5372  0.1261
 2768SOL    HW219941   3.401   4.156   8.934  2.4718  0.7372  2.4666
 2769SOL     OW19942   2.642   1.578   2.037  0.6940 -0.1329 -0.2433
 2769SOL    HW119943   2.680   1.638   1.972 -0.8106  1.3009  0.2210
 2769SOL    HW219944   2.559   1.624   2.038 -0.1379 -1.6435  0.4766
 2770SOL     OW19945   0.884   2.390   5.939 -0.5228 -0.2272  0.4955
 2770SOL    HW119946   0.901   2.366   6.030  2.3480  3.7839  1.0056
 2770SOL    HW219947   0.892   2.304   5.898 -0.1037 -0.0828  0.2703
 2771SOL     OW19948   3.666   1.566   8.645 -0.5357  0.2001 -0.2618
 2771SOL    HW119949   3.726   1.638   8.626  0.7036 -1.5076 -2.8120
 2771SOL    HW219950   3.595   1.570   8.581  0.3667  2.5237 -1.1409
 2772SOL     OW19951   0.465   4.661   8.575 -0.3938 -0.0169 -0.7004
 2772SOL    HW119952   0.495   4.700   8.493  0.9731 -0.9037 -0.6096
 2772SOL    HW219953   0.528   4.705   8.633  0.7303 -0.2618 -1.7560
 2773SOL     OW19954   2.332   3.664   2.460  0.2397 -0.0763  0.5454
 2773SOL    HW119955   2.271   3.681   2.389  0.0711 -1.1324  0.4496
 2773SOL    HW219956   2.382   3.746   2.453 -0.5236  0.2758 -0.7771
 2774SOL     OW19957   0.608   0.379  14.813 -0.0316 -0.6970  0.1412
 2774SOL    HW119958   0.536   0.337  14.860  0.4036 -1.9169 -0.2925
 2774SOL    HW219959   0.645   0.433  14.883  0.7603 -1.3711  0.2462
 2775SOL     OW19960   0.882   2.075  10.912 -0.0567  0.3580 -0.4624
 2775SOL    HW119961   0.908   1.999  10.859  1.0376  0.8980 -0.6918
 2775SOL    HW219962   0.960   2.107  10.957  0.4398  1.3632 -2.0662
 2776SOL     OW19963   3.294   0.369   5.811 -0.0774  0.4193  0.1305
 2776SOL    HW119964   3.321   0.419   5.889 -1.8180 -1.4213  1.8956
 2776SOL    HW219965   3.314   0.283   5.847  2.6219  0.9253 -0.1596
 2777SOL     OW19966   0.192   3.968   7.278  0.2387 -0.3408 -0.5960
 2777SOL    HW119967   0.285   3.960   7.302 -0.9080  1.2526  4.4200
 2777SOL    HW219968   0.157   3.936   7.361  1.2749  2.4045  0.9096
 2778SOL     OW19969   2.720   2.074  10.714 -0.2453 -0.6602 -0.0693
 2778SOL    HW119970   2.702   2.164  10.686  2.5019 -0.3011 -0.6920
 2778SOL    HW219971   2.811   2.083  10.742  0.2879 -1.7202 -1.5013
 2779SOL     OW19972   3.722   1.393   3.716  0.0911  0.1325 -0.0748
 2779SOL    HW119973   3.787   1.340   3.672 -1.5324  0.1963 -2.5561
 2779SOL    HW219974   3.761   1.480   3.718  1.8968 -0.6878 -0.2723
 2780SOL     OW19975   4.266   0.008   2.313  0.3451 -0.0620 -0.0131
 2780SOL    HW119976   4.195   4.695   2.273 -0.6642  0.0707  1.6409
 2780SOL    HW219977   4.334   0.008   2.245 -1.4661  2.7621 -1.7925
 2781SOL     OW19978   1.768   0.920   8.699  0.1848 -0.2620  0.2772
 2781SOL    HW119979   1.799   0.829   8.704  1.6160  0.2259  0.2884
 2781SOL    HW219980   1.835   0.970   8.747  1.4671 -1.4077 -0.3067
 2782SOL     OW19981   0.961   2.199   9.416 -0.0504 -0.7208 -0.1676
 2782SOL    HW119982   0.924   2.287   9.410  1.6846  0.0252 -0.1205
 2782SOL    HW219983   0.938   2.174   9.506 -0.1238 -0.0642 -0.0052
 2783SOL     OW19984   2.698   0.471   3.917 -0.7869  0.4034 -0.6129
 2783SOL    HW119985   2.786   0.467   3.956 -0.6907  0.6508 -0.8038
 2783SOL    HW219986   2.717   0.501   3.828 -1.3411  0.0051 -0.8629
 2784SOL     OW19987   0.485   2.655   7.124 -0.5616 -0.3902 -0.1563
 2784SOL    HW119988   0.526   2.736   7.155  0.8894 -1.7612  1.5244
 2784SOL    HW219989   0.404   2.681   7.079  0.9414  0.4312 -2.3957
 2785SOL     OW19990   2.913   0.461  16.106 -0.1972  0.3933  0.0924
 2785SOL    HW119991   2.910   0.523  16.178  0.9470  0.3935  0.1487
 2785SOL    HW219992   2.957   0.523  16.047 -1.3762  0.8707 -0.2854
 2786SOL     OW19993   2.718   3.626   1.257 -0.1573 -0.0866  0.3576
 2786SOL    HW119994   2.729   3.536   1.225 -1.5313  0.4443 -1.5228
 2786SOL    HW219995   2.812   3.644   1.270  0.0768 -1.3975  0.5008
 2787SOL     OW19996   1.010   1.991   6.560 -0.1157  0.4753 -0.3673
 2787SOL    HW119997   1.008   2.054   6.632 -1.0446 -1.0922  0.9632
 2787SOL    HW219998   1.036   2.044   6.484  1.7575  0.6313  0.3931
 2788SOL     OW19999   0.776   3.309  12.615  0.1769  0.5112  0.3413
 2788SOL    HW120000   0.822   3.274  12.539 -2.2186  0.1572 -0.9281
 2788SOL    HW220001   0.683   3.290  12.603  0.0281  2.3769 -1.4483
 2789SOL     OW20002   4.210   0.952   1.920  0.0001  0.1272 -0.0109
 2789SOL    HW120003   4.267   0.907   1.859  0.0938  0.6020 -0.2761
 2789SOL    HW220004   4.258   0.928   1.999 -0.1757 -2.1411 -0.6039
 2790SOL     OW20005   1.490   3.380  10.821  0.2075 -0.7313 -0.2701
 2790SOL    HW120006   1.445   3.307  10.778  1.1746 -1.9153  0.7229
 2790SOL    HW220007   1.419   3.410  10.877  0.4332  0.7193 -0.7620
 2791SOL     OW20008   3.634   2.703  12.128  0.2117 -0.7936  0.3678
 2791SOL    HW120009   3.701   2.645  12.165  0.9238 -0.1643  0.0462
 2791SOL    HW220010   3.634   2.770  12.196  1.4872  1.2765 -1.6915
 2792SOL     OW20011   2.207   3.808   4.027 -0.6071 -0.0068 -0.5048
 2792SOL    HW120012   2.261   3.877   3.990 -0.8004  0.3491 -0.1262
 2792SOL    HW220013   2.199   3.740   3.960 -4.0452 -0.5580  0.4517
 2793SOL     OW20014   0.064   3.772   8.164 -0.3265  0.4316 -0.4595
 2793SOL    HW120015   0.088   3.738   8.250  2.4814 -0.2837 -1.5198
 2793SOL    HW220016   0.152   3.803   8.140 -0.0264 -1.2627 -1.5719
 2794SOL     OW20017   4.229   4.421   7.950 -0.5079  0.1559  0.5769
 2794SOL    HW120018   4.234   4.346   7.889  1.5276 -0.2889  1.2940
 2794SOL    HW220019   4.253   4.379   8.032  1.1023 -1.4188 -0.6813
 2795SOL     OW20020   4.622   2.122  12.697 -0.4520  0.4277  0.1195
 2795SOL    HW120021   4.715   2.110  12.721 -1.0672 -2.8390  0.9058
 2795SOL    HW220022   4.634   2.163  12.612  0.1606 -0.3712 -0.1826
 2796SOL     OW20023   3.073   2.798   6.402  0.9236  0.0506  0.0372
 2796SOL    HW120024   3.163   2.765   6.403  1.3164  1.1033 -0.1718
 2796SOL    HW220025   3.029   2.715   6.384  1.7970 -0.4746  0.3281
 2797SOL     OW20026   3.983   0.745   3.646  0.4260 -0.0423  0.1589
 2797SOL    HW120027   3.941   0.772   3.728  0.9101 -1.3081  0.8203
 2797SOL    HW220028   4.060   0.801   3.641  0.1357  0.5200  1.8646
 2798SOL     OW20029   1.911   1.836   5.323  0.1186  0.1717  0.3453
 2798SOL    HW120030   1.869   1.754   5.347  0.2720  0.9715  3.3069
 2798SOL    HW220031   1.880   1.858   5.235 -2.0632 -0.6519  0.9193
 2799SOL     OW20032   4.022   2.510   3.273 -0.7276 -0.0166  0.3264
 2799SOL    HW120033   3.986   2.425   3.300  1.3642 -1.0261 -0.1022
 2799SOL    HW220034   4.047   2.495   3.182  0.1191 -1.5848  0.8209
 2800SOL     OW20035   3.087   1.960  13.283  0.7395 -0.7155 -0.3626
 2800SOL    HW120036   3.124   1.952  13.371  1.1756  1.6978 -0.3076
 2800SOL    HW220037   3.137   2.025  13.233 -1.1667 -0.6450 -2.1890
 2801SOL     OW20038   3.136   1.607   6.851 -0.0456 -0.0720  0.4005
 2801SOL    HW120039   3.107   1.697   6.840  2.0233  0.5194 -0.2378
 2801SOL    HW220040   3.050   1.571   6.870 -0.8533  1.5300 -0.2770
 2802SOL     OW20041   4.599   2.783   3.328 -0.0608  0.2817 -0.0616
 2802SOL    HW120042   4.632   2.861   3.374  2.3220 -0.6891 -0.1321
 2802SOL    HW220043   4.668   2.721   3.305  0.9402  0.9358  1.1473
 2803SOL     OW20044   3.014   4.219   3.848  0.9059 -0.2725  0.2203
 2803SOL    HW120045   2.937   4.187   3.893 -0.4258  0.4517 -1.5559
 2803SOL    HW220046   3.002   4.314   3.845 -2.9861 -0.8354 -1.8947
 2804SOL     OW20047   4.602   0.191   1.834 -0.5088  0.7034 -0.3912
 2804SOL    HW120048   4.559   0.107   1.850 -0.2346  0.4597 -0.9362
 2804SOL    HW220049   4.690   0.161   1.814 -0.9685 -1.3268  0.5703
 2805SOL     OW20050   4.076   3.524   2.423  0.3254 -0.6691  0.2155
 2805SOL    HW120051   4.155   3.528   2.476  1.4760  1.1469 -1.6324
 2805SOL    HW220052   4.001   3.563   2.468  0.5195  1.7804 -1.6106
 2806SOL     OW20053   3.916   4.071   3.469 -0.5816 -0.7467 -0.4237
 2806SOL    HW120054   3.991   4.113   3.428  1.9551 -0.6008  4.4220
 2806SOL    HW220055   3.839   4.101   3.420  0.3034  0.3942 -1.0983
 2807SOL     OW20056   2.337   2.383  16.375 -0.8838  0.1110  0.4126
 2807SOL    HW120057   2.364   2.294  16.397  4.4141  1.0357 -2.3197
 2807SOL    HW220058   2.262   2.382  16.435 -0.8509 -3.1221  0.3563
 2808SOL     OW20059   3.689   0.138  16.825  0.8704  0.6852  0.1214
 2808SOL    HW120060   3.684   0.223  16.779 -1.5206  0.1089 -0.6771
 2808SOL    HW220061   3.657   0.163  16.911  0.6729 -0.3268  0.3414
 2809SOL     OW20062   1.168   2.834   2.241 -0.3736  0.4334  0.1191
 2809SOL    HW120063   1.240   2.789   2.195 -0.5015 -0.6602  0.9772
 2809SOL    HW220064   1.139   2.772   2.308 -1.6696  1.8942  0.8772
 2810SOL     OW20065   2.426   4.361   9.412  0.0138 -0.1819  0.1655
 2810SOL    HW120066   2.424   4.393   9.322  0.3590 -1.2375 -0.2210
 2810SOL    HW220067   2.434   4.444   9.458  0.9091 -0.0043 -0.3110
 2811SOL     OW20068   2.215   0.183   1.778 -0.0494 -0.3658  0.1193
 2811SOL    HW120069   2.138   0.145   1.735 -1.9702 -0.6613  3.8391
 2811SOL    HW220070   2.250   0.236   1.706  2.8703  0.0583  1.8632
 2812SOL     OW20071   0.630   3.656  10.966 -0.4248 -0.5182 -0.0156
 2812SOL    HW120072   0.690   3.605  10.911  0.4989  0.7547 -0.1831
 2812SOL    HW220073   0.688   3.669  11.041  1.2740  0.4387 -1.4785
 2813SOL     OW20074   3.885   2.633   4.949  0.2847  0.5113  0.0067
 2813SOL    HW120075   3.974   2.599   4.958  0.1256 -0.6552 -2.7926
 2813SOL    HW220076   3.856   2.579   4.875 -0.3067  0.0140  0.6046
 2814SOL     OW20077   1.834   4.667   4.068  0.0108 -0.3284  0.3106
 2814SOL    HW120078   1.771   4.600   4.041 -1.8467  1.0347  1.3039
 2814SOL    HW220079   1.812   4.683   4.160 -2.5672  0.4464 -0.4548
 2815SOL     OW20080   0.265   2.365  10.871  0.3976 -0.0598 -0.0757
 2815SOL    HW120081   0.270   2.286  10.817 -0.1182 -0.8630  1.0618
 2815SOL    HW220082   0.284   2.328  10.957 -4.3430 -3.0603 -0.2843
 2816SOL     OW20083   2.461   3.073   8.776  0.1771 -0.0920  0.2331
 2816SOL    HW120084   2.469   3.041   8.866 -0.9397 -0.0612  0.3381
 2816SOL    HW220085   2.393   3.140   8.783 -0.7408 -0.8978 -1.1932
 2817SOL     OW20086   0.583   3.625   5.474 -0.2388 -0.1602 -0.2973
 2817SOL    HW120087   0.604   3.645   5.383 -2.9518  1.5206 -0.5586
 2817SOL    HW220088   0.669   3.600   5.508  0.5189  2.3220 -0.3698
 2818SOL     OW20089   3.024   0.981   8.351  0.0407 -0.4728  0.2394
 2818SOL    HW120090   3.036   1.042   8.279  0.6320 -1.5418 -0.5556
 2818SOL    HW220091   3.071   1.020   8.425  1.5717 -0.2167 -0.8781
 2819SOL     OW20092   0.397   3.029   4.720 -0.2486 -0.6811 -0.4317
 2819SOL    HW120093   0.360   3.000   4.803 -1.1931  1.3895 -0.1318
 2819SOL    HW220094   0.331   3.095   4.700  1.1263  1.1788  1.2781
 2820SOL     OW20095   1.661   3.367  15.039 -0.6435  0.1174 -0.1752
 2820SOL    HW120096   1.635   3.415  15.118  0.2007 -2.4376  1.6826
 2820SOL    HW220097   1.750   3.397  15.023 -0.4496  0.1448  0.9022
 2821SOL     OW20098   1.485   2.995  16.132 -0.5779 -0.1101  0.3641
 2821SOL    HW120099   1.471   2.900  16.143 -2.0904  0.0991  0.2329
 2821SOL    HW220100   1.510   3.000  16.040 -1.8433  0.3251  0.0355
 2822SOL     OW20101   0.098   2.764  10.937 -0.6808 -0.3414  0.4244
 2822SOL    HW120102   0.020   2.784  10.886 -0.3378  2.0154  0.8340
 2822SOL    HW220103   0.155   2.830  10.898 -0.3640 -1.2839 -0.7491
 2823SOL     OW20104   0.378   2.149  11.057  0.2600 -0.1398 -0.3432
 2823SOL    HW120105   0.351   2.060  11.033 -0.8912 -0.0042  0.4365
 2823SOL    HW220106   0.413   2.135  11.145  0.6840 -1.9513 -0.8080
 2824SOL     OW20107   3.998   4.084   0.379  0.6624 -0.0715  0.6696
 2824SOL    HW120108   4.087   4.089   0.413  0.4879 -0.5726  1.1873
 2824SOL    HW220109   4.006   4.104   0.286 -1.4074  0.7226  0.6573
 2825SOL     OW20110   2.773   0.388   2.250  0.2540  0.3566  0.1928
 2825SOL    HW120111   2.685   0.379   2.215 -0.3682 -0.5284  1.9524
 2825SOL    HW220112   2.757   0.336   2.329 -1.3694 -0.8500 -0.9255
 2826SOL     OW20113   4.367   0.254   6.076  0.0462 -0.0749  1.1169
 2826SOL    HW120114   4.399   0.250   5.986 -1.4607 -1.4325  0.6433
 2826SOL    HW220115   4.291   0.312   6.070 -0.3781 -0.8812 -1.1856
 2827SOL     OW20116   4.578   2.838  17.244 -0.3274  0.5392 -0.2620
 2827SOL    HW120117   4.501   2.876  17.203  1.0556  2.2823 -1.2404
 2827SOL    HW220118   4.596   2.771  17.178 -0.3789  0.1420  0.1303
 2828SOL     OW20119   0.470   2.929   9.910  0.7851 -0.3092 -0.4358
 2828SOL    HW120120   0.511   2.871   9.846 -0.2283 -0.4173 -0.9744
 2828SOL    HW220121   0.500   2.880   9.986 -1.9645 -0.5586  0.4958
 2829SOL     OW20122   1.629   1.217   9.237  0.0521 -0.0776 -0.2263
 2829SOL    HW120123   1.568   1.179   9.172  1.2227 -1.9072 -0.2654
 2829SOL    HW220124   1.594   1.300   9.269  1.1130 -0.3982  1.7181
 2830SOL     OW20125   2.536   1.895   8.919 -0.1194  0.4886  0.3802
 2830SOL    HW120126   2.540   1.841   8.998  0.9510  0.2661  0.1777
 2830SOL    HW220127   2.628   1.888   8.894 -0.3440  1.8436 -0.8144
 2831SOL     OW20128   0.908   0.305   1.860  0.4875  0.0485  0.0644
 2831SOL    HW120129   0.913   0.338   1.949 -2.5826 -0.4734  0.4211
 2831SOL    HW220130   0.914   0.394   1.825 -2.7647  0.0734 -0.4829
 2832SOL     OW20131   1.096   2.520   7.247  0.4533 -0.1415 -0.7042
 2832SOL    HW120132   1.032   2.550   7.312 -0.1343 -1.0578 -0.8655
 2832SOL    HW220133   1.178   2.537   7.294 -0.2579 -0.5593  0.6836
 2833SOL     OW20134   4.413   1.629   7.614 -0.0889 -0.0177 -0.3077
 2833SOL    HW120135   4.460   1.602   7.535 -0.4282  1.0595 -0.8748
 2833SOL    HW220136   4.416   1.548   7.665 -1.3153 -1.8032 -3.1101
 2834SOL     OW20137   3.477   2.029   4.776  0.2922  0.4825 -0.7363
 2834SOL    HW120138   3.400   2.031   4.719 -0.2974  2.5618  0.1331
 2834SOL    HW220139   3.496   1.937   4.793 -1.7972  0.0187 -0.9153
 2835SOL     OW20140   0.418   2.637   0.383  0.4767  0.2686 -0.4002
 2835SOL    HW120141   0.413   2.665   0.292 -2.5864  0.0654 -0.2760
 2835SOL    HW220142   0.483   2.567   0.387 -0.9775 -0.9472  2.1071
 2836SOL     OW20143   2.551   3.365   9.087 -0.4726 -0.1850 -0.3344
 2836SOL    HW120144   2.515   3.276   9.091  3.0240 -1.6405 -1.2554
 2836SOL    HW220145   2.482   3.424   9.057 -0.2274 -1.1855 -2.8657
 2837SOL     OW20146   3.362   2.953  16.777 -0.0962  0.2878  0.2809
 2837SOL    HW120147   3.357   3.048  16.788  0.1358  0.5503 -1.9910
 2837SOL    HW220148   3.392   2.937  16.688 -0.0188  1.7588  0.0427
 2838SOL     OW20149   0.185   0.069  13.718 -0.2881 -0.1946 -0.3265
 2838SOL    HW120150   0.125   0.107  13.654 -0.0372  1.8990  0.6737
 2838SOL    HW220151   0.251   0.032  13.661 -1.3545  0.7376 -2.1848
 2839SOL     OW20152   1.221   3.369   9.099  0.8396 -0.4571  0.3686
 2839SOL    HW120153   1.281   3.440   9.075  0.7487  0.5735  3.2285
 2839SOL    HW220154   1.133   3.392   9.069  1.7251  0.8360 -1.2707
 2840SOL     OW20155   0.093   4.625   1.839  0.0435 -0.0666 -0.0785
 2840SOL    HW120156   0.145   4.637   1.919 -0.5583  2.0189  0.0036
 2840SOL    HW220157   0.103   4.716   1.811  0.9223 -0.6216 -1.5410
 2841SOL     OW20158   4.249   0.843   6.969 -0.3915 -0.7944  0.4883
 2841SOL    HW120159   4.155   0.860   6.975 -0.2549 -0.3822  1.4654
 2841SOL    HW220160   4.265   0.800   7.054  1.1963 -0.3359  0.4315
 2842SOL     OW20161   2.526   2.714   4.657 -0.1906 -0.0628  0.6146
 2842SOL    HW120162   2.448   2.689   4.706 -0.3007 -0.7507  0.0957
 2842SOL    HW220163   2.573   2.641   4.616  1.1624 -0.3454  2.6673
 2843SOL     OW20164   1.653   1.775   7.238  0.3844  0.4354  0.3775
 2843SOL    HW120165   1.560   1.769   7.217 -0.1912  1.3162  2.6555
 2843SOL    HW220166   1.673   1.843   7.173  0.1936  1.9911  1.9278
 2844SOL     OW20167   3.191   0.111   3.150  0.2509  0.0494 -0.8349
 2844SOL    HW120168   3.244   0.169   3.096  0.2048  1.9502  1.1683
 2844SOL    HW220169   3.181   0.157   3.233 -0.9891 -0.8668 -0.4728
 2845SOL     OW20170   2.962   4.614   6.238  0.0694 -0.5724 -0.3138
 2845SOL    HW120171   3.013   4.568   6.172 -0.7238  0.1743 -1.4310
 2845SOL    HW220172   3.032   4.654   6.290 -1.6035 -0.6875  2.0312
 2846SOL     OW20173   4.512   0.448   6.657 -0.2928 -0.0488 -0.4328
 2846SOL    HW120174   4.449   0.474   6.725  0.3178 -3.1309  1.3098
 2846SOL    HW220175   4.576   0.402   6.711 -2.0155  0.8533  2.4254
 2847SOL     OW20176   3.610   1.620  15.729  0.4048 -0.2351  0.0430
 2847SOL    HW120177   3.662   1.543  15.709  1.3019  0.9573 -2.2035
 2847SOL    HW220178   3.589   1.658  15.644  0.0434 -0.8450 -0.1439
 2848SOL     OW20179   2.365   3.436   7.401 -0.2841 -0.1832 -0.2581
 2848SOL    HW120180   2.370   3.523   7.360 -0.4000 -0.5449 -1.0405
 2848SOL    HW220181   2.451   3.414   7.437  1.0754  3.5355 -1.1318
 2849SOL     OW20182   2.144   2.314   9.244  0.0936 -0.5479  0.0142
 2849SOL    HW120183   2.102   2.342   9.163 -0.3704 -1.9209 -0.2167
 2849SOL    HW220184   2.086   2.245   9.274 -0.3301 -0.7014 -1.1563
 2850SOL     OW20185   2.036   4.265   0.931 -0.3982 -0.2612  0.1392
 2850SOL    HW120186   2.126   4.296   0.932 -0.3350 -0.4691  1.6853
 2850SOL    HW220187   2.048   4.170   0.930 -2.6981 -0.5647  0.2908
 2851SOL     OW20188   1.902   1.329   5.158 -0.2043  0.2294 -0.5817
 2851SOL    HW120189   1.958   1.291   5.090  0.6438 -0.5042  0.5210
 2851SOL    HW220190   1.843   1.381   5.104 -2.3073  1.1008  2.5453
 2852SOL     OW20191   4.537   2.284  10.148  0.1748  0.3055  0.3561
 2852SOL    HW120192   4.626   2.254  10.125  0.3093  0.9537  0.0516
 2852SOL    HW220193   4.495   2.198  10.149 -1.0381  0.8737 -1.4480
 2853SOL     OW20194   2.179   3.706   1.104 -0.2823 -0.1462 -0.7126
 2853SOL    HW120195   2.261   3.662   1.080 -0.0279  0.2548 -0.5681
 2853SOL    HW220196   2.141   3.711   1.016 -1.3333  1.0325 -0.1926
 2854SOL     OW20197   0.634   3.586   8.653 -0.6169  0.0410  0.1709
 2854SOL    HW120198   0.573   3.622   8.589  2.0962  0.9063 -1.9346
 2854SOL    HW220199   0.616   3.494   8.631 -1.2489  0.5277 -1.3493
 2855SOL     OW20200   3.439   3.864   2.696 -0.1034 -0.1786  0.4120
 2855SOL    HW120201   3.510   3.816   2.654 -1.1432 -1.7924  0.5042
 2855SOL    HW220202   3.419   3.807   2.770 -0.3557  0.2099  0.6505
 2856SOL     OW20203   1.473   2.166   5.899 -0.1077 -0.1570  0.2608
 2856SOL    HW120204   1.393   2.195   5.943 -0.2954  0.5330 -0.5312
 2856SOL    HW220205   1.452   2.183   5.808 -0.3204 -2.0534 -0.0432
 2857SOL     OW20206   0.693   0.508   3.228 -0.0441 -1.1882  0.0221
 2857SOL    HW120207   0.701   0.413   3.241  0.7924 -0.9883  1.0043
 2857SOL    HW220208   0.786   0.527   3.243 -0.3326  0.2600 -0.0784
 2858SOL     OW20209   3.974   1.976   3.008 -0.2508 -0.1249 -0.1730
 2858SOL    HW120210   3.980   1.978   2.913 -0.1370  1.3323 -0.1282
 2858SOL    HW220211   4.020   1.897   3.038  1.6364  2.0428  2.7002
 2859SOL     OW20212   3.392   2.240   8.692 -0.0436  0.0077 -0.4451
 2859SOL    HW120213   3.471   2.253   8.640 -0.9113  0.6063 -1.6078
 2859SOL    HW220214   3.423   2.178   8.759 -0.5788 -0.5173 -0.6859
 2860SOL     OW20215   2.348   1.101   1.891 -0.4525 -0.4253  0.1766
 2860SOL    HW120216   2.438   1.115   1.863 -0.6728 -0.8057 -0.7137
 2860SOL    HW220217   2.364   1.090   1.985  0.9925  0.2604  0.0119
 2861SOL     OW20218   3.873   0.892   3.423  0.0663  0.4642  0.1037
 2861SOL    HW120219   3.802   0.833   3.396  0.4170 -0.4397  1.2054
 2861SOL    HW220220   3.869   0.866   3.515 -0.0184 -0.1805 -0.0782
 2862SOL     OW20221   3.801   3.694   6.402 -0.2810 -0.6034  0.1434
 2862SOL    HW120222   3.781   3.620   6.458  0.5143  0.0921  1.3432
 2862SOL    HW220223   3.809   3.642   6.322 -0.7196  0.6618 -0.7231
 2863SOL     OW20224   0.418   1.193   5.863  0.5848 -0.4303  0.2532
 2863SOL    HW120225   0.490   1.247   5.832  1.3525 -1.8686 -0.4387
 2863SOL    HW220226   0.397   1.145   5.783 -0.6321 -2.6990  1.9471
 2864SOL     OW20227   1.027   1.375  17.056  0.5044 -0.2419  0.5305
 2864SOL    HW120228   1.071   1.398  17.138  1.8174  0.5348 -0.3889
 2864SOL    HW220229   0.936   1.405  17.064  0.4600 -0.5815  1.3360
 2865SOL     OW20230   3.402   4.206  10.686  0.3236 -0.8090 -0.0846
 2865SOL    HW120231   3.458   4.279  10.659  0.0929 -0.9183 -0.8578
 2865SOL    HW220232   3.402   4.216  10.781 -1.0648 -0.4677 -0.1288
 2866SOL     OW20233   4.298   3.512  10.569 -0.4963 -0.6929  0.2031
 2866SOL    HW120234   4.323   3.502  10.661  0.8127 -2.3045 -0.3360
 2866SOL    HW220235   4.338   3.434  10.531  0.6553  1.3051 -2.6905
 2867SOL     OW20236   0.998   0.535  10.829 -0.4732 -0.4659 -0.1224
 2867SOL    HW120237   0.996   0.475  10.755  0.5150  0.4670 -0.9074
 2867SOL    HW220238   1.043   0.478  10.891 -0.4802  0.8760  1.1419
 2868SOL     OW20239   2.592   0.226   4.603 -0.7497  0.9484  0.0600
 2868SOL    HW120240   2.642   0.144   4.605 -1.0952  0.7555  0.8406
 2868SOL    HW220241   2.643   0.293   4.649 -1.4354  0.6623  1.2349
 2869SOL     OW20242   0.289   0.348   3.482  0.2865 -0.0210 -0.1979
 2869SOL    HW120243   0.233   0.425   3.468  1.3867  0.6739 -0.7127
 2869SOL    HW220244   0.361   0.380   3.535  0.4677  1.5075 -1.3788
 2870SOL     OW20245   0.455   2.097   3.027 -0.4230 -0.0624 -0.0807
 2870SOL    HW120246   0.518   2.151   2.979 -2.1604  1.1537 -1.0085
 2870SOL    HW220247   0.417   2.170   3.077 -0.9417 -0.5370  0.2123
 2871SOL     OW20248   4.588   3.509   7.238 -0.1757  0.2316  0.0464
 2871SOL    HW120249   4.517   3.540   7.183  0.5623  0.0010 -1.0402
 2871SOL    HW220250   4.615   3.438   7.180  1.1745  1.0782 -0.3605
 2872SOL     OW20251   2.400   1.180   3.260 -0.0120 -0.5465  0.2581
 2872SOL    HW120252   2.371   1.116   3.325  1.4516 -2.2171 -0.7326
 2872SOL    HW220253   2.345   1.252   3.289 -0.2818 -0.8393  0.4644
 2873SOL     OW20254   0.603   0.621  10.661 -0.3427  0.1851 -0.0573
 2873SOL    HW120255   0.631   0.579  10.742  1.1753 -1.9441 -1.7074
 2873SOL    HW220256   0.625   0.548  10.602  0.3240  1.1723 -1.0351
 2874SOL     OW20257   4.312   3.507   3.692  0.2939 -0.0086  0.1195
 2874SOL    HW120258   4.218   3.498   3.679  0.3890 -0.4799 -0.2575
 2874SOL    HW220259   4.321   3.597   3.722  0.8834  0.2216 -0.7387
 2875SOL     OW20260   0.524   1.915  17.525 -0.1074 -0.2266  0.2426
 2875SOL    HW120261   0.551   1.826  17.500  0.9311  0.5248 -1.3251
 2875SOL    HW220262   0.592   1.973  17.493 -1.1259 -1.1314 -3.5642
 2876SOL     OW20263   4.691   2.601   4.965  0.5410 -0.0478  0.3253
 2876SOL    HW120264   4.656   2.583   5.053  0.8158 -1.4335  0.1566
 2876SOL    HW220265   4.653   2.530   4.913  0.0476  0.5461 -0.1188
 2877SOL     OW20266   2.805   4.654   3.627  0.5173  0.1693  0.3334
 2877SOL    HW120267   2.736   4.648   3.693  1.3349  1.7520  1.3237
 2877SOL    HW220268   2.766   4.595   3.562  0.3895  2.3111 -1.5633
 2878SOL     OW20269   0.103   1.751   1.359 -0.1691  0.0836 -0.2596
 2878SOL    HW120270   0.142   1.762   1.445  0.6326 -1.2302 -0.4513
 2878SOL    HW220271   0.021   1.706   1.378  0.5075 -0.2257  1.8421
 2879SOL     OW20272   4.616   4.524   4.190  0.3445  0.2789  0.1900
 2879SOL    HW120273   4.573   4.481   4.117  2.4220  0.0441 -0.8781
 2879SOL    HW220274   4.567   4.487   4.263 -1.6821  0.4989 -1.0645
 2880SOL     OW20275   0.709   3.320  12.931  0.4926  0.0993  0.5613
 2880SOL    HW120276   0.730   3.235  12.969 -2.9870  0.1867  2.7143
 2880SOL    HW220277   0.753   3.319  12.846 -0.5275  0.0741  0.0339
 2881SOL     OW20278   4.258   3.631  16.797 -0.1829  0.1325 -0.6248
 2881SOL    HW120279   4.339   3.664  16.835 -0.6340 -1.4208  1.7224
 2881SOL    HW220280   4.278   3.547  16.757  0.2071  0.3221 -0.8300
 2882SOL     OW20281   0.034   2.641   0.181  0.3491  0.3176  0.3055
 2882SOL    HW120282   0.106   2.594   0.139  0.2896  0.3282  0.1941
 2882SOL    HW220283   0.015   2.577   0.250 -3.6776 -1.1980 -2.2482
 2883SOL     OW20284   1.843   1.712   9.781  0.5191  0.1324  0.1810
 2883SOL    HW120285   1.891   1.761   9.714 -0.8280 -0.5684 -1.2817
 2883SOL    HW220286   1.878   1.626   9.756 -0.0902 -0.1368  0.2684
 2884SOL     OW20287   3.644   3.021   6.740 -0.6002 -0.5289 -0.3536
 2884SOL    HW120288   3.573   3.055   6.686  0.1254  2.3239  0.5123
 2884SOL    HW220289   3.639   3.080   6.815 -2.4539 -1.7475  0.4902
 2885SOL     OW20290   0.683   2.136   1.737  0.0337 -0.1023  0.0165
 2885SOL    HW120291   0.713   2.222   1.766 -1.3934 -0.2609  1.9654
 2885SOL    HW220292   0.765   2.088   1.748  0.7718  0.7501 -1.9209
 2886SOL     OW20293   0.448   2.963  14.061  0.1518 -0.3009  0.4771
 2886SOL    HW120294   0.383   2.978  13.993  0.7589  1.2782  0.2240
 2886SOL    HW220295   0.520   3.014  14.024  1.4044  0.0166  3.3082
 2887SOL     OW20296   4.370   2.097   5.355  0.1783  0.1819 -0.2481
 2887SOL    HW120297   4.454   2.136   5.332  1.0097 -0.6647  1.3762
 2887SOL    HW220298   4.303   2.138   5.300 -0.9797 -0.7694  0.4647
 2888SOL     OW20299   1.808   1.960   5.526  0.6523  0.7200 -0.5202
 2888SOL    HW120300   1.818   2.054   5.510  0.9014  0.7996  0.0980
 2888SOL    HW220301   1.855   1.922   5.452 -0.4538 -1.1430 -0.2682
 2889SOL     OW20302   2.599   4.181   4.944  0.0057 -0.4037  0.4214
 2889SOL    HW120303   2.642   4.122   4.882  1.2583 -0.2548  1.1384
 2889SOL    HW220304   2.648   4.262   4.927 -1.2692 -0.0767 -1.7082
 2890SOL     OW20305   3.668   4.615  15.630 -0.0992  0.4344  0.2615
 2890SOL    HW120306   3.668   4.628  15.725  0.5656  1.8837  0.0838
 2890SOL    HW220307   3.664   4.705  15.596 -2.7932 -0.1587 -0.9399
 2891SOL     OW20308   0.401   0.624  10.924 -0.4950 -0.0767 -0.4394
 2891SOL    HW120309   0.445   0.680  10.988 -0.9864  0.6448 -0.7393
 2891SOL    HW220310   0.442   0.538  10.935  2.2970  0.9778 -2.4841
 2892SOL     OW20311   2.129   1.722   6.218  0.4784  0.1919 -0.4289
 2892SOL    HW120312   2.062   1.785   6.193 -0.8875 -1.9245 -2.1841
 2892SOL    HW220313   2.091   1.703   6.304 -0.4988  2.9437 -0.2562
 2893SOL     OW20314   3.679   0.039   6.880  0.0702  0.1607 -0.6187
 2893SOL    HW120315   3.730   4.725   6.817 -0.1720  1.5813 -1.9567
 2893SOL    HW220316   3.660   0.107   6.815  1.2174  2.0022  0.9874
 2894SOL     OW20317   1.700   1.247   3.408 -0.0638  0.8415  0.2710
 2894SOL    HW120318   1.711   1.181   3.476 -1.0048 -1.0996 -1.4842
 2894SOL    HW220319   1.666   1.187   3.342  0.0733  0.9926  0.0627
 2895SOL     OW20320   2.050   0.630   7.414  0.3568 -0.6752  0.1536
 2895SOL    HW120321   2.046   0.726   7.408  0.8356 -0.4346  3.2067
 2895SOL    HW220322   1.957   0.608   7.412  0.2442 -0.1215 -0.7301
 2896SOL     OW20323   2.354   2.011   0.769  0.1857 -0.0925 -0.2268
 2896SOL    HW120324   2.450   2.013   0.762  0.1446 -0.7177 -1.0413
 2896SOL    HW220325   2.334   2.059   0.850  0.3021 -1.8509  0.8546
 2897SOL     OW20326   0.162   4.035   1.182 -0.2861 -0.0655  0.0476
 2897SOL    HW120327   0.232   4.091   1.216 -1.5784  1.1865  0.6113
 2897SOL    HW220328   0.164   3.964   1.247 -2.5884  2.1454  2.5264
 2898SOL     OW20329   0.666   3.694   3.278  0.2824  0.1152  0.0064
 2898SOL    HW120330   0.677   3.720   3.186 -2.9840  0.7705 -0.1805
 2898SOL    HW220331   0.619   3.611   3.278  1.9882 -0.8404 -1.5841
 2899SOL     OW20332   1.952   1.876   8.972 -0.5179  0.2553 -0.5649
 2899SOL    HW120333   2.047   1.871   8.959 -0.7591  0.2569 -2.3055
 2899SOL    HW220334   1.924   1.928   8.897  2.6035  0.6226 -1.4593
 2900SOL     OW20335   2.742   2.170   5.893 -0.6878  0.2948  0.0416
 2900SOL    HW120336   2.795   2.114   5.949  0.1674  0.8584 -0.2107
 2900SOL    HW220337   2.733   2.115   5.816 -1.2554  1.1829 -0.5303
 2901SOL     OW20338   2.854   2.522  12.029 -0.1518  0.1125 -0.2455
 2901SOL    HW120339   2.776   2.575  12.044 -1.7566 -2.2300 -0.3817
 2901SOL    HW220340   2.911   2.591  11.995 -1.5938  1.5887  0.3271
 2902SOL     OW20341   3.071   1.798   7.238 -0.3667  0.0706 -0.2317
 2902SOL    HW120342   3.041   1.723   7.289 -2.4810  0.6585 -0.5951
 2902SOL    HW220343   3.018   1.794   7.159  0.0836 -0.4676 -0.4979
 2903SOL     OW20344   1.008   1.567  16.779 -0.6641 -0.1175  0.1119
 2903SOL    HW120345   1.012   1.496  16.843 -0.0125  2.7079  3.1912
 2903SOL    HW220346   0.933   1.542  16.725  0.7160 -1.0514 -1.3661
 2904SOL     OW20347   4.128   0.448   4.702 -0.5395 -0.3926 -0.7286
 2904SOL    HW120348   4.176   0.382   4.751 -1.3096  0.5560  1.3166
 2904SOL    HW220349   4.138   0.426   4.609  0.5484  0.3446 -0.7863
 2905SOL     OW20350   4.370   2.829   5.097 -0.0494 -0.1013 -0.1492
 2905SOL    HW120351   4.417   2.909   5.119 -1.5115 -0.0685  2.8703
 2905SOL    HW220352   4.283   2.861   5.077  0.5268  1.8658  0.5064
 2906SOL     OW20353   1.423   2.222   2.307 -0.4689  0.4519  0.1850
 2906SOL    HW120354   1.371   2.142   2.298  1.7575 -0.8961 -0.6323
 2906SOL    HW220355   1.500   2.183   2.349  0.4517  1.7913 -0.2652
 2907SOL     OW20356   4.063   4.677   3.581 -0.4041  0.7141 -0.0296
 2907SOL    HW120357   4.135   4.697   3.640 -2.2678  0.7913  2.2121
 2907SOL    HW220358   3.993   4.655   3.642  0.2422 -0.7634  0.1612
 2908SOL     OW20359   3.121   1.815  12.950 -0.4824 -0.3982 -0.3771
 2908SOL    HW120360   3.146   1.901  12.916 -0.4260 -0.5280 -0.6613
 2908SOL    HW220361   3.206   1.793  12.987 -0.6722  1.9861  1.4747
 2909SOL     OW20362   2.690   4.610   8.770  0.4174 -0.1520  0.4180
 2909SOL    HW120363   2.665   4.603   8.678  2.3219 -0.6366 -0.0628
 2909SOL    HW220364   2.742   4.689   8.780  0.9475 -0.1260 -2.6070
 2910SOL     OW20365   3.803   0.831   7.453  0.2656 -0.2801 -0.1158
 2910SOL    HW120366   3.829   0.792   7.369 -1.8642 -0.1250 -0.8605
 2910SOL    HW220367   3.754   0.762   7.498  0.1863  0.6484  1.2107
 2911SOL     OW20368   1.758   1.663   4.440 -0.5292 -0.6300 -0.0369
 2911SOL    HW120369   1.669   1.685   4.412  1.3478  3.3681 -2.7080
 2911SOL    HW220370   1.795   1.602   4.376  1.2909  1.3040 -0.8091
 2912SOL     OW20371   4.666   1.862   3.868  0.0603 -0.5052 -0.4353
 2912SOL    HW120372   4.609   1.931   3.903 -0.3905 -1.1013  0.0299
 2912SOL    HW220373   4.674   1.812   3.950  0.5970  1.0149  0.4558
 2913SOL     OW20374   1.506   3.614  11.861  0.7805  0.2228  0.1189
 2913SOL    HW120375   1.547   3.672  11.796 -2.6199  2.7869  0.2818
 2913SOL    HW220376   1.488   3.672  11.935  0.7697  0.1242  0.1931
 2914SOL     OW20377   2.389   1.622   8.689 -0.5990 -0.7361  0.8304
 2914SOL    HW120378   2.375   1.567   8.612  0.6455 -0.7687  0.6151
 2914SOL    HW220379   2.329   1.696   8.680  1.4046  0.7335 -0.7203
 2915SOL     OW20380   1.617   0.720  17.211  0.1860  0.5613 -0.1482
 2915SOL    HW120381   1.601   0.669  17.132 -1.5120  2.3689 -0.9848
 2915SOL    HW220382   1.686   0.667  17.251  0.2078  1.9556  1.7077
 2916SOL     OW20383   3.201   1.274  12.454  0.3083 -0.1996 -0.1118
 2916SOL    HW120384   3.137   1.322  12.506 -0.7560 -0.0542 -1.5774
 2916SOL    HW220385   3.199   1.326  12.374 -1.0076  1.4132  0.9752
 2917SOL     OW20386   1.668   0.213   3.213  0.0609  0.0474  0.3216
 2917SOL    HW120387   1.691   0.284   3.273  0.0723  0.3041  0.0154
 2917SOL    HW220388   1.676   0.138   3.272  0.2732 -0.8608 -0.8605
 2918SOL     OW20389   0.726   1.330   8.106  0.2587  0.0010 -0.5234
 2918SOL    HW120390   0.632   1.328   8.124  0.2438 -2.2685 -0.8508
 2918SOL    HW220391   0.747   1.411   8.152 -1.4969 -0.8947  1.8656
 2919SOL     OW20392   1.613   3.916   6.784  0.6200 -0.0255  0.1111
 2919SOL    HW120393   1.707   3.908   6.797  0.2057 -0.9521  2.5837
 2919SOL    HW220394   1.592   3.958   6.868 -0.9558  2.1999 -1.4007
 2920SOL     OW20395   2.539   0.475   8.915 -0.0287  0.2747  0.2340
 2920SOL    HW120396   2.631   0.477   8.941 -0.1199  0.0998  0.5702
 2920SOL    HW220397   2.553   0.501   8.824  1.0437  0.6166  0.4869
 2921SOL     OW20398   2.282   1.149   8.284  0.5074 -1.0652  0.0978
 2921SOL    HW120399   2.371   1.167   8.313 -0.2867 -1.2482  2.5919
 2921SOL    HW220400   2.298   1.128   8.191  1.5852 -2.7924  0.6648
 2922SOL     OW20401   2.446   3.128   2.574  0.3542 -0.1785 -0.2545
 2922SOL    HW120402   2.356   3.139   2.606  0.8029  2.5297  0.0957
 2922SOL    HW220403   2.462   3.222   2.566 -0.1186 -0.3195 -2.9133
 2923SOL     OW20404   4.632   2.152   1.102  0.1537 -0.1320  0.0219
 2923SOL    HW120405   4.591   2.070   1.126  0.6353 -0.6661 -0.9828
 2923SOL    HW220406   4.675   2.175   1.185  2.0637 -0.6195 -0.8177
 2924SOL     OW20407   3.476   4.605   5.429  0.0244 -0.1322  0.2940
 2924SOL    HW120408   3.396   4.616   5.481  0.3046  0.7565  0.5379
 2924SOL    HW220409   3.457   4.650   5.347  0.3837 -0.4346  0.0473
 2925SOL     OW20410   4.146   2.036   1.881  0.0878  0.5396 -0.1524
 2925SOL    HW120411   4.160   2.090   1.804 -0.7370  1.2028  0.1644
 2925SOL    HW220412   4.096   2.098   1.935 -1.6438 -1.6038  0.7064
 2926SOL     OW20413   2.099   1.675  16.673 -0.0731 -0.2997 -0.3423
 2926SOL    HW120414   2.192   1.662  16.693  0.3287  1.5860 -1.0188
 2926SOL    HW220415   2.093   1.635  16.586  0.5738  1.0311 -0.9868
 2927SOL     OW20416   0.059   2.094   7.989  0.7192  0.1765  1.1850
 2927SOL    HW120417   0.064   2.102   7.894 -1.5035  1.7110  1.1725
 2927SOL    HW220418   0.052   2.187   8.013  0.9108  0.9630 -1.7767
 2928SOL     OW20419   0.796   2.193   7.951 -0.0790 -0.0622 -0.2271
 2928SOL    HW120420   0.883   2.163   7.978  0.1002 -0.0113 -0.7446
 2928SOL    HW220421   0.755   2.116   7.911  0.3143 -0.8485  0.8833
 2929SOL     OW20422   0.770   4.422  14.727 -0.1967 -0.2046  0.1204
 2929SOL    HW120423   0.856   4.385  14.745 -0.0642 -0.5365 -1.1689
 2929SOL    HW220424   0.792   4.505  14.685 -1.3146  1.2140  2.3242
 2930SOL     OW20425   3.656   0.345  11.330 -0.3199  0.0611 -0.5012
 2930SOL    HW120426   3.605   0.351  11.411 -0.5838 -3.1322 -0.4514
 2930SOL    HW220427   3.598   0.397  11.274 -1.8617 -2.1137 -0.9209
 2931SOL     OW20428   2.476   2.320   4.121 -0.0104  0.4019 -0.2616
 2931SOL    HW120429   2.570   2.337   4.106 -0.1870  2.6315  1.1862
 2931SOL    HW220430   2.438   2.359   4.042 -3.6475 -1.6608  0.5141
 2932SOL     OW20431   1.624   4.004  14.367 -0.5918 -0.1831 -0.1576
 2932SOL    HW120432   1.590   4.040  14.449 -0.9889  0.7924 -0.7625
 2932SOL    HW220433   1.641   3.912  14.389  0.2867 -0.8087 -3.5500
 2933SOL     OW20434   1.123   2.692   8.691 -0.0068  0.0646 -0.0191
 2933SOL    HW120435   1.116   2.746   8.612 -0.0535  0.0413 -0.0305
 2933SOL    HW220436   1.105   2.758   8.758  0.1132 -0.7261  0.7798
 2934SOL     OW20437   3.174   4.728  12.040  0.9793  0.2359 -0.0933
 2934SOL    HW120438   3.188   0.053  11.968  0.5016  0.2039 -0.2121
 2934SOL    HW220439   3.253   0.013  12.091  0.9311  1.1634 -0.4095
 2935SOL     OW20440   3.634   0.916   9.238 -0.3793 -0.5416 -0.3431
 2935SOL    HW120441   3.598   0.931   9.151  3.1418  0.8100 -1.5364
 2935SOL    HW220442   3.583   0.840   9.266 -0.6732 -0.4107 -0.5168
 2936SOL     OW20443   0.056   1.617   1.647  0.8056  0.3331  0.1087
 2936SOL    HW120444   4.731   1.546   1.630 -0.8188  1.6465  0.4542
 2936SOL    HW220445   0.139   1.578   1.673  0.4253 -1.0485 -0.7853
 2937SOL     OW20446   3.771   3.570   0.762  0.2531  0.5416  0.7396
 2937SOL    HW120447   3.851   3.529   0.729 -0.8262 -2.7780  2.3050
 2937SOL    HW220448   3.739   3.493   0.808  1.8790 -2.0707 -2.4764
 2938SOL     OW20449   1.838   1.696   2.129  0.4963  0.1676 -0.8020
 2938SOL    HW120450   1.892   1.738   2.062 -0.6788  1.0704 -1.1775
 2938SOL    HW220451   1.891   1.617   2.142 -0.7273 -0.6070 -0.4157
 2939SOL     OW20452   1.419   2.137  14.269 -0.6334  0.4178 -0.1506
 2939SOL    HW120453   1.503   2.157  14.311 -0.7950 -0.5579  0.6615
 2939SOL    HW220454   1.431   2.196  14.195 -0.1537 -4.1222 -3.6535
 2940SOL     OW20455   2.467   0.921   3.083  0.2617  0.2021 -0.1207
 2940SOL    HW120456   2.374   0.906   3.098  0.1102  0.1310 -1.0996
 2940SOL    HW220457   2.505   0.925   3.170 -0.2896 -2.8470  0.2631
 2941SOL     OW20458   3.532   3.276   9.152  0.4608  0.0751 -0.0078
 2941SOL    HW120459   3.524   3.233   9.067  0.3135  3.1080 -1.5691
 2941SOL    HW220460   3.577   3.356   9.122  0.0533  0.5537  0.6610
 2942SOL     OW20461   2.002   1.981   6.263  0.3016  0.0060 -0.1102
 2942SOL    HW120462   1.917   1.971   6.220 -0.3225  0.8427  0.9291
 2942SOL    HW220463   2.014   2.076   6.263  0.7502 -0.0499  1.8248
 2943SOL     OW20464   2.361   1.326   5.021  0.1763  0.4932 -0.5371
 2943SOL    HW120465   2.450   1.352   5.044  0.2366 -0.7452  0.6149
 2943SOL    HW220466   2.369   1.244   4.971  0.8658  0.1409  0.1483
 2944SOL     OW20467   0.544   0.812   8.867 -0.1117  0.3816  0.0012
 2944SOL    HW120468   0.630   0.849   8.849  0.2395 -0.3754  0.1216
 2944SOL    HW220469   0.505   0.898   8.881  3.5074  1.6932  1.7487
 2945SOL     OW20470   4.052   1.621  12.391  0.2922 -0.1917 -0.3753
 2945SOL    HW120471   4.067   1.530  12.417  0.7037  0.6541  2.3517
 2945SOL    HW220472   4.079   1.621  12.299 -0.3713  1.6001 -0.5634
 2946SOL     OW20473   3.331   3.032   4.143 -0.3621  0.0600  0.1451
 2946SOL    HW120474   3.259   3.072   4.096  0.3815  2.7725  1.3401
 2946SOL    HW220475   3.283   2.971   4.199 -1.8525  2.5717  1.5916
 2947SOL     OW20476   4.097   1.159   5.520  0.0781 -0.2694 -0.4727
 2947SOL    HW120477   4.186   1.193   5.511 -0.4029  0.8014 -1.2629
 2947SOL    HW220478   4.059   1.185   5.436  3.4610  0.7133 -1.6944
 2948SOL     OW20479   4.293   4.313   8.166  0.2105  0.5368  0.8226
 2948SOL    HW120480   4.272   4.231   8.122  2.3991 -0.0247  0.8161
 2948SOL    HW220481   4.245   4.306   8.249  0.1074  0.3149  0.7435
 2949SOL     OW20482   1.975   3.656  16.316 -0.0808  0.2053  0.5269
 2949SOL    HW120483   1.938   3.567  16.315 -0.0701  0.2006  0.9799
 2949SOL    HW220484   1.983   3.675  16.409  0.6767 -1.1784  0.7443
 2950SOL     OW20485   4.103   1.755   1.993  0.6811 -0.2501  0.1052
 2950SOL    HW120486   4.074   1.756   2.084 -1.3951 -0.5238 -0.5480
 2950SOL    HW220487   4.129   1.847   1.993  0.6675 -0.2448 -0.1401
 2951SOL     OW20488   2.429   2.478   8.926 -0.5371  0.2480 -0.7792
 2951SOL    HW120489   2.442   2.383   8.934  1.5837  0.6373  0.1468
 2951SOL    HW220490   2.496   2.508   8.865 -1.0352  0.1556 -1.3740
 2952SOL     OW20491   4.625   2.953   4.474  0.3086  0.0449 -0.3337
 2952SOL    HW120492   4.666   2.870   4.499  0.9746  0.9202  1.5545
 2952SOL    HW220493   4.532   2.935   4.481 -0.1795  1.7034 -2.7213
 2953SOL     OW20494   3.173   0.504   6.053  0.0952  0.5464  0.3008
 2953SOL    HW120495   3.151   0.582   6.104  2.3299  1.4584 -0.1563
 2953SOL    HW220496   3.099   0.496   5.993 -0.5303 -2.0343  1.3925
 2954SOL     OW20497   4.481   2.392   7.444  0.2000 -0.0287 -0.2513
 2954SOL    HW120498   4.560   2.412   7.494  0.1144  0.9758 -0.5229
 2954SOL    HW220499   4.489   2.468   7.387 -0.8918  1.2546  1.3109
 2955SOL     OW20500   2.951   3.128   3.110  0.5527 -0.3155 -0.0482
 2955SOL    HW120501   2.911   3.199   3.059 -0.6019 -2.7215 -2.4718
 2955SOL    HW220502   2.929   3.052   3.056  2.5136 -0.4709 -0.6199
 2956SOL     OW20503   3.582   3.086  12.125  0.0896 -0.1309  0.1752
 2956SOL    HW120504   3.519   3.016  12.140 -0.1832  0.3083  1.0562
 2956SOL    HW220505   3.664   3.057  12.166 -0.9606 -0.2709  2.1517
 2957SOL     OW20506   3.363   3.428   8.407  0.0531  0.3263 -0.2321
 2957SOL    HW120507   3.425   3.465   8.470  0.0375  0.0196 -0.0383
 2957SOL    HW220508   3.427   3.377   8.357  0.7963  0.1184  0.9212
 2958SOL     OW20509   1.899   2.068  12.341 -0.0647 -0.1892 -0.0672
 2958SOL    HW120510   1.891   1.975  12.361 -1.0717 -0.1826 -0.4642
 2958SOL    HW220511   1.868   2.079  12.251  1.3662 -1.0581 -0.6720
 2959SOL     OW20512   0.944   0.209   9.114  0.0914  0.2883 -0.6026
 2959SOL    HW120513   0.953   0.203   9.019 -0.3479 -1.1363 -0.5414
 2959SOL    HW220514   0.862   0.257   9.127  0.9114  0.9011  2.3847
 2960SOL     OW20515   2.649   3.860   8.262  0.3571  0.3551 -0.2291
 2960SOL    HW120516   2.688   3.817   8.186 -1.5373 -1.4415 -0.1906
 2960SOL    HW220517   2.553   3.859   8.252  0.1883  0.3526  1.3672
 2961SOL     OW20518   3.697   3.084  16.597  0.0012  0.3636 -0.2215
 2961SOL    HW120519   3.641   3.009  16.579  0.8631 -0.3910  0.2922
 2961SOL    HW220520   3.644   3.147  16.547 -1.5313 -1.5712 -1.0392
 2962SOL     OW20521   4.285   2.675   4.150 -0.8316 -0.4310 -0.7155
 2962SOL    HW120522   4.234   2.748   4.117 -0.2695  0.0592 -0.4967
 2962SOL    HW220523   4.346   2.667   4.077  1.3143  0.7141  0.9135
 2963SOL     OW20524   4.252   2.688  13.923  0.1704 -0.1055  0.0437
 2963SOL    HW120525   4.214   2.704  14.009  3.2160  2.4196  0.8954
 2963SOL    HW220526   4.179   2.638  13.885  0.1505  0.3223 -0.4914
 2964SOL     OW20527   1.915   4.616   2.891 -0.4203  0.2850  0.3919
 2964SOL    HW120528   1.998   4.575   2.916  0.7608  1.3555 -1.8015
 2964SOL    HW220529   1.890   4.549   2.827  0.0081 -0.0696  0.5910
 2965SOL     OW20530   1.430   1.378   8.870  0.4532  0.6411 -0.0571
 2965SOL    HW120531   1.361   1.381   8.936  0.1997  0.2495 -0.2982
 2965SOL    HW220532   1.503   1.412   8.921  1.5246 -0.3377 -0.9222
 2966SOL     OW20533   0.170   4.334   3.330  0.0253 -0.2676 -0.0629
 2966SOL    HW120534   0.238   4.279   3.290 -0.4470  1.4271 -3.2250
 2966SOL    HW220535   0.218   4.417   3.326 -0.3377 -0.1411 -1.9698
 2967SOL     OW20536   2.288   2.927   4.100 -0.5535  0.2349  0.7144
 2967SOL    HW120537   2.303   3.003   4.045  1.5271  0.0351  1.0180
 2967SOL    HW220538   2.295   2.962   4.188  0.1563 -0.8264  1.0863
 2968SOL     OW20539   3.937   1.965   4.563 -0.3857 -0.2634 -0.2270
 2968SOL    HW120540   3.987   1.935   4.487  1.5435 -3.2432  2.2178
 2968SOL    HW220541   3.866   1.901   4.564  0.1386 -0.8488 -0.9955
 2969SOL     OW20542   4.711   0.317   6.771 -0.4518  0.4237  0.1360
 2969SOL    HW120543   4.726   0.326   6.865  1.1008 -0.8624  0.0139
 2969SOL    HW220544   4.716   0.222   6.756  1.5074  0.7636 -1.4177
 2970SOL     OW20545   3.623   2.629   3.057 -0.3568 -0.3529  0.1318
 2970SOL    HW120546   3.634   2.669   2.971  0.0189  0.9192  0.7736
 2970SOL    HW220547   3.563   2.555   3.052 -1.1893  0.1502  2.7902
 2971SOL     OW20548   1.534   0.513  17.692  0.2463  0.1316  0.0601
 2971SOL    HW120549   1.452   0.479  17.656  0.1347  1.6926 -1.1584
 2971SOL    HW220550   1.587   0.434  17.691  2.1593  1.4081  0.7587
 2972SOL     OW20551   1.793   0.056  15.665 -0.7153 -0.7432  0.4540
 2972SOL    HW120552   1.838   0.086  15.744  0.2350  2.0473 -1.1732
 2972SOL    HW220553   1.739   4.728  15.712 -2.2132 -0.6327 -1.1392
 2973SOL     OW20554   3.237   2.357   5.584 -0.5436  0.2566  0.0096
 2973SOL    HW120555   3.246   2.438   5.634  1.6800  1.0183 -1.6303
 2973SOL    HW220556   3.142   2.344   5.587 -0.5254 -0.8757 -4.0027
 2974SOL     OW20557   2.615   2.119   0.839  0.0181 -0.1428 -0.2109
 2974SOL    HW120558   2.665   2.170   0.902 -1.5922  1.2569 -0.0546
 2974SOL    HW220559   2.598   2.179   0.767 -1.5226 -1.5375 -1.0238
 2975SOL     OW20560   1.819   3.959   3.560  0.6490 -0.0402 -0.6318
 2975SOL    HW120561   1.757   4.025   3.592  0.2528 -0.1016 -1.2582
 2975SOL    HW220562   1.760   3.903   3.509 -0.4375  0.4085  0.1321
 2976SOL     OW20563   1.305   0.037   8.955 -0.1000  0.6356 -0.0080
 2976SOL    HW120564   1.270   0.115   8.999  0.3173  0.5562  0.4700
 2976SOL    HW220565   1.395   0.070   8.944  0.2258 -0.9300 -2.0196
 2977SOL     OW20566   2.785   0.835  16.312 -0.2059 -0.2180 -0.4435
 2977SOL    HW120567   2.700   0.802  16.282 -0.6649  0.4790  0.0728
 2977SOL    HW220568   2.794   0.799  16.400 -1.3254  2.2051  0.6691
 2978SOL     OW20569   4.726   0.664   7.273 -0.1325 -0.0882 -0.2994
 2978SOL    HW120570   0.081   0.638   7.261  0.3960  0.0573  3.4118
 2978SOL    HW220571   4.731   0.755   7.303 -0.0817 -0.2053  0.0507
 2979SOL     OW20572   1.882   4.586   9.606  0.4767 -0.4044 -0.5247
 2979SOL    HW120573   1.860   4.584   9.699  0.8194  0.2225 -0.4250
 2979SOL    HW220574   1.977   4.574   9.599  0.4434  0.3641 -2.4264
 2980SOL     OW20575   4.605   4.112  15.020  0.0520 -0.2305 -0.0723
 2980SOL    HW120576   4.683   4.056  15.020  1.2077  1.3831  2.8173
 2980SOL    HW220577   4.613   4.148  15.108  2.3617  1.3406 -0.9222
 2981SOL     OW20578   1.848   1.998  11.315 -0.6167 -0.0488 -0.7769
 2981SOL    HW120579   1.887   1.915  11.343  0.1038 -0.1479 -2.0467
 2981SOL    HW220580   1.925   2.054  11.305  0.2977 -1.2840 -0.6747
 2982SOL     OW20581   0.352   1.222   0.053 -0.0251  0.1976 -0.4409
 2982SOL    HW120582   0.441   1.228   0.018  1.1328  0.1742  2.4828
 2982SOL    HW220583   0.322   1.311   0.038  0.7721 -0.2752 -4.9116
 2983SOL     OW20584   3.336   0.492   9.165 -0.4658  0.3426  0.1413
 2983SOL    HW120585   3.297   0.486   9.251  0.7885 -2.1412  0.5469
 2983SOL    HW220586   3.428   0.507   9.187 -0.3661  0.0152 -0.0485
 2984SOL     OW20587   3.117   2.866   9.651  0.3462  0.3486 -0.5301
 2984SOL    HW120588   3.067   2.820   9.584 -2.1119  2.6796 -0.2729
 2984SOL    HW220589   3.108   2.797   9.717  1.6877 -0.0371 -0.7377
 2985SOL     OW20590   0.117   3.118   4.440  0.3615 -0.1933 -0.3149
 2985SOL    HW120591   0.029   3.082   4.451 -0.0165  0.9683  0.4921
 2985SOL    HW220592   0.135   3.118   4.534  1.2641 -0.1409 -0.4888
 2986SOL     OW20593   0.817   4.723   3.635  0.1942  0.1067 -0.0148
 2986SOL    HW120594   0.834   4.723   3.729  1.0334 -0.4595 -0.1682
 2986SOL    HW220595   0.725   0.012   3.631 -0.2974 -1.7872 -0.9569
 2987SOL     OW20596   3.758   1.607   6.106 -0.0511  0.0516 -0.1350
 2987SOL    HW120597   3.765   1.637   6.196 -1.9221 -0.0924  0.0531
 2987SOL    HW220598   3.682   1.659   6.082 -0.0276  0.6185  1.0211
 2988SOL     OW20599   2.627   2.946   8.596 -0.1984 -0.9474 -0.1698
 2988SOL    HW120600   2.701   3.002   8.571 -0.7807 -0.3329 -0.5130
 2988SOL    HW220601   2.577   3.001   8.656  1.2965  2.2183 -1.8074
 2989SOL     OW20602   4.434   2.380   4.060 -0.3215  0.3049 -0.0255
 2989SOL    HW120603   4.511   2.343   4.104  1.0127 -1.3238 -3.7417
 2989SOL    HW220604   4.459   2.471   4.048 -0.7984  0.2966 -1.0462
 2990SOL     OW20605   3.341   1.950  10.805 -0.5580  0.3900 -0.1883
 2990SOL    HW120606   3.286   1.992  10.871 -0.5128  0.0341  0.0769
 2990SOL    HW220607   3.331   2.003  10.726 -1.0493  0.4787 -0.0683
 2991SOL     OW20608   4.145   3.018   8.704 -0.0341 -0.2034  0.1806
 2991SOL    HW120609   4.221   3.013   8.762 -0.3985 -0.2664  0.6532
 2991SOL    HW220610   4.081   3.054   8.766 -0.6788 -0.2976 -0.4197
 2992SOL     OW20611   1.442   0.259   4.208 -0.0046  0.0067 -0.1415
 2992SOL    HW120612   1.526   0.301   4.225  1.0220 -0.9778 -2.8258
 2992SOL    HW220613   1.420   0.227   4.295 -1.1661  1.3338  0.0586
 2993SOL     OW20614   2.730   1.484   3.702  0.5438  0.3946 -0.3682
 2993SOL    HW120615   2.812   1.447   3.734  0.7031 -0.0537 -1.2902
 2993SOL    HW220616   2.700   1.542   3.772 -0.9519 -2.0072  0.9716
 2994SOL     OW20617   2.094   4.207   4.447 -0.6102  0.3684  0.1810
 2994SOL    HW120618   2.165   4.209   4.511  0.6571  1.0111 -1.2396
 2994SOL    HW220619   2.063   4.297   4.451  0.1062  0.5675  1.2368
 2995SOL     OW20620   3.744   4.655  12.264  0.0712 -0.5171 -0.0438
 2995SOL    HW120621   3.693   4.577  12.283 -1.0036  0.5898  1.6400
 2995SOL    HW220622   3.751   4.696  12.350  1.1797  0.5729 -0.6437
 2996SOL     OW20623   2.162   1.060   4.003 -0.1270 -0.0567 -0.3276
 2996SOL    HW120624   2.070   1.061   4.029 -0.2190  0.3558 -0.6633
 2996SOL    HW220625   2.200   1.136   4.046 -0.6954  0.1116 -0.1288
 2997SOL     OW20626   4.043   3.879   7.408 -0.1792 -0.7144 -0.0614
 2997SOL    HW120627   4.108   3.948   7.393 -0.7470 -0.3214 -0.6878
 2997SOL    HW220628   3.966   3.927   7.378 -0.4203 -0.9893  0.1188
 2998SOL     OW20629   0.180   1.952  13.706 -0.0207 -0.0388 -0.6038
 2998SOL    HW120630   0.165   2.035  13.661  3.0741  0.2395 -1.1268
 2998SOL    HW220631   0.150   1.896  13.634 -2.2939  0.8365 -0.3248
 2999SOL     OW20632   4.668   0.227  10.392  0.5088  0.0781 -0.0979
 2999SOL    HW120633   4.703   0.145  10.355 -1.0999 -0.5898 -0.1662
 2999SOL    HW220634   4.584   0.206  10.431  0.5355 -0.0873 -0.1260
 3000SOL     OW20635   2.435   3.829  17.600 -0.2398 -0.0992 -0.0995
 3000SOL    HW120636   2.347   3.863  17.615  0.0147  0.5147  0.0198
 3000SOL    HW220637   2.444   3.823  17.505 -2.3328  2.1457 -0.4348
 3001SOL     OW20638   4.684   1.411  14.731  0.8213  0.0922 -0.1954
 3001SOL    HW120639   0.040   1.391  14.742  1.0218  0.5300 -1.0924
 3001SOL    HW220640   4.692   1.500  14.695  0.2382  0.0484 -0.4450
 3002SOL     OW20641   0.104   0.544   3.595  0.1209  0.1838  0.1047
 3002SOL    HW120642   0.066   0.470   3.642  0.3765  0.2323  0.3878
 3002SOL    HW220643   0.029   0.595   3.563  1.8357  2.4855 -0.2109
 3003SOL     OW20644   1.768   0.252   5.390 -0.2165  0.1894 -0.1731
 3003SOL    HW120645   1.716   0.175   5.368  0.0632  0.2886 -1.1500
 3003SOL    HW220646   1.819   0.213   5.461 -0.0255 -3.8633 -2.5312
 3004SOL     OW20647   1.011   2.560   6.450  0.0787 -0.0205  0.1209
 3004SOL    HW120648   0.957   2.622   6.401  0.9358  0.7219  0.1077
 3004SOL    HW220649   1.046   2.619   6.517 -0.7309 -0.1734  0.6646
 3005SOL     OW20650   4.110   3.467   1.847 -0.1626 -0.2166  0.7727
 3005SOL    HW120651   4.197   3.503   1.830  0.7833 -1.3444  3.1646
 3005SOL    HW220652   4.070   3.542   1.892  0.1909 -0.8529  2.1490
 3006SOL     OW20653   0.262   1.118   8.764 -0.4194 -0.6948 -0.1799
 3006SOL    HW120654   0.218   1.064   8.830  1.2225 -0.1065  1.3758
 3006SOL    HW220655   0.310   1.048   8.720  0.3536 -0.0619 -0.3357
 3007SOL     OW20656   4.111   0.866   7.450 -0.1520 -0.4494 -0.1540
 3007SOL    HW120657   4.067   0.911   7.522 -1.1287  0.6252 -1.4035
 3007SOL    HW220658   4.169   0.803   7.492 -0.0490  0.5708  1.2197
 3008SOL     OW20659   4.160   1.146   9.404 -0.2185  0.4483 -0.5539
 3008SOL    HW120660   4.162   1.140   9.309 -0.5637 -0.6745 -0.4934
 3008SOL    HW220661   4.086   1.089   9.426  0.6129 -0.1422  0.6971
 3009SOL     OW20662   4.650   3.903   6.653 -0.6986  0.1521 -0.2396
 3009SOL    HW120663   4.555   3.894   6.666 -0.7241  0.6201 -0.1040
 3009SOL    HW220664   4.674   3.811   6.641  2.7203  1.5201 -3.8121
 3010SOL     OW20665   4.079   0.675   4.887  0.1444 -0.3844 -0.2653
 3010SOL    HW120666   3.985   0.693   4.886  0.1644  0.0124  3.8062
 3010SOL    HW220667   4.080   0.600   4.828 -0.5988  0.9832 -2.0331
 3011SOL     OW20668   4.481   2.639   4.564 -0.3226  0.2142 -0.2130
 3011SOL    HW120669   4.388   2.660   4.578 -0.5936 -0.1291 -1.4835
 3011SOL    HW220670   4.473   2.549   4.534  0.3992 -0.6507  2.1869
 3012SOL     OW20671   2.481   4.081   8.055 -0.4607  0.0949  0.2080
 3012SOL    HW120672   2.451   4.160   8.010  1.2739  2.1997  2.7663
 3012SOL    HW220673   2.540   4.122   8.118 -0.4462 -0.4654  0.5500
 3013SOL     OW20674   4.252   1.969   0.091 -0.0181 -0.2631 -0.3319
 3013SOL    HW120675   4.300   2.006   0.165 -0.8892 -0.9554  0.5895
 3013SOL    HW220676   4.272   1.875   0.096  1.4089 -0.0370 -2.0399
 3014SOL     OW20677   2.917   0.186   8.359 -0.2836  0.4711  0.3559
 3014SOL    HW120678   2.942   0.213   8.271  1.5343 -0.1014  0.7080
 3014SOL    HW220679   2.823   0.203   8.371  0.7733  4.8485  2.5739
 3015SOL     OW20680   3.422   3.250   3.770  0.5087  0.1921 -0.2848
 3015SOL    HW120681   3.328   3.271   3.775  0.6337  0.9001 -1.0297
 3015SOL    HW220682   3.436   3.309   3.696 -0.7721  0.3435 -0.4131
 3016SOL     OW20683   3.052   1.398  16.530  0.0046 -0.0714 -0.4794
 3016SOL    HW120684   3.145   1.377  16.522 -0.0779 -1.5272  2.5585
 3016SOL    HW220685   3.043   1.484  16.489 -1.2365  0.4382  0.9016
 3017SOL     OW20686   0.030   1.088   1.205  0.4353 -0.4262 -0.0574
 3017SOL    HW120687   0.120   1.109   1.178  0.5084  1.5572  1.6857
 3017SOL    HW220688   0.029   0.992   1.206  1.9785 -0.4287  1.3788
 3018SOL     OW20689   1.723   4.035   3.323  0.1976  0.3079 -0.6234
 3018SOL    HW120690   1.787   3.964   3.321 -2.5035 -2.1719  0.9764
 3018SOL    HW220691   1.768   4.088   3.257  1.6588 -1.2441 -0.8780
 3019SOL     OW20692   1.723   1.530   2.386 -0.4914  0.2213 -0.8822
 3019SOL    HW120693   1.658   1.481   2.336 -0.8906 -0.3677  0.1992
 3019SOL    HW220694   1.806   1.502   2.346 -0.0188  0.3324  0.0143
 3020SOL     OW20695   0.530   3.253   2.741 -0.3338  0.1418 -0.4538
 3020SOL    HW120696   0.559   3.322   2.680  2.7623  0.9669  1.9532
 3020SOL    HW220697   0.452   3.298   2.772 -1.4218 -2.9544  1.2853
 3021SOL     OW20698   3.623   1.959   6.397 -0.0345 -0.4968 -0.3231
 3021SOL    HW120699   3.572   1.931   6.474  0.3397  0.9881  0.4617
 3021SOL    HW220700   3.612   2.054   6.406 -0.6651 -0.5852 -0.1016
 3022SOL     OW20701   1.905   3.238   4.071  0.2817  0.6798  0.0898
 3022SOL    HW120702   1.910   3.320   4.021 -1.9098  0.1333 -1.0042
 3022SOL    HW220703   1.915   3.168   4.007 -0.7532  1.1042 -0.5215
 3023SOL     OW20704   1.689   3.892   6.178  0.3357  0.1522 -0.0970
 3023SOL    HW120705   1.673   3.905   6.271 -1.7792  0.7102 -0.5317
 3023SOL    HW220706   1.783   3.911   6.179  0.4461 -0.2624 -1.6521
 3024SOL     OW20707   3.559   0.761  10.061  0.4538 -0.5809 -0.0445
 3024SOL    HW120708   3.539   0.672  10.030  0.6570 -0.2704 -1.0619
 3024SOL    HW220709   3.651   0.762  10.036  1.0843 -1.9692  2.1725
 3025SOL     OW20710   4.575   3.104   3.609  0.0338 -0.6480 -0.5869
 3025SOL    HW120711   4.526   3.084   3.689  2.3220 -1.6004  0.5498
 3025SOL    HW220712   4.505   3.148   3.560  0.9752  1.9699  0.4191
 3026SOL     OW20713   2.452   0.390   3.869  0.1156 -0.5608 -0.4224
 3026SOL    HW120714   2.530   0.444   3.857  0.2556 -0.3225  1.5668
 3026SOL    HW220715   2.477   0.311   3.916 -0.4891  0.0617  0.9427
 3027SOL     OW20716   1.752   1.987  10.510 -0.4192  0.4448  0.0273
 3027SOL    HW120717   1.682   1.923  10.495  0.1119  0.1161 -1.1249
 3027SOL    HW220718   1.812   1.939  10.566 -0.0452 -0.4166 -1.1098
 3028SOL     OW20719   4.709   2.425   6.003  0.8759  0.2768 -0.9751
 3028SOL    HW120720   0.047   2.365   6.002 -1.1994 -2.2792  1.3709
 3028SOL    HW220721   4.649   2.384   5.941  0.9345 -1.4068  0.1037
 3029SOL     OW20722   3.547   1.789   3.291  0.1770  0.0882  0.1991
 3029SOL    HW120723   3.506   1.852   3.350  2.3176  1.9760 -0.3683
 3029SOL    HW220724   3.625   1.843   3.280 -0.5324  0.6193 -2.1416
 3030SOL     OW20725   2.387   0.626   4.420 -0.0564 -0.3368  0.1184
 3030SOL    HW120726   2.333   0.599   4.493 -1.5666  1.4151 -0.3475
 3030SOL    HW220727   2.430   0.695   4.470 -1.1500  0.5360 -0.1590
 3031SOL     OW20728   3.477   2.561   1.018 -0.6327  0.4167  0.1827
 3031SOL    HW120729   3.387   2.587   0.998 -0.3822 -0.2949 -1.8887
 3031SOL    HW220730   3.489   2.490   0.956 -1.1754 -0.4394  1.0726
 3032SOL     OW20731   1.430   2.742   6.233  0.1188  1.1778 -0.0519
 3032SOL    HW120732   1.460   2.770   6.147  3.2705  1.0187  0.9700
 3032SOL    HW220733   1.337   2.764   6.228 -0.5227 -1.9602 -1.9772
 3033SOL     OW20734   0.938   2.619   8.038  0.2656  0.2237  0.5818
 3033SOL    HW120735   0.996   2.607   7.963 -0.5371 -0.4886  0.0756
 3033SOL    HW220736   0.927   2.713   8.022 -0.1183  0.3558  1.6142
 3034SOL     OW20737   1.051   1.633   7.474 -0.0598 -0.6299  0.5275
 3034SOL    HW120738   1.080   1.720   7.447  0.5369 -1.1187 -0.4019
 3034SOL    HW220739   1.007   1.645   7.559 -1.1108  2.2671 -0.4332
 3035SOL     OW20740   1.626   3.692  12.243  0.3112  0.2044  0.2378
 3035SOL    HW120741   1.617   3.597  12.245  1.3685  0.1079  0.6316
 3035SOL    HW220742   1.671   3.696  12.328 -0.2846 -1.9505  0.6631
 3036SOL     OW20743   1.244   1.030   3.703 -0.1628  0.0901  0.4576
 3036SOL    HW120744   1.165   1.073   3.672 -1.2742 -1.9900  0.4473
 3036SOL    HW220745   1.211   0.940   3.698 -1.4652  0.6506 -0.7999
 3037SOL     OW20746   3.200   1.081  10.816  0.1917 -0.9045 -0.8995
 3037SOL    HW120747   3.138   1.085  10.889  0.9437  1.5695 -0.4037
 3037SOL    HW220748   3.214   1.173  10.793 -0.4560 -0.8130 -0.9416
 3038SOL     OW20749   3.024   1.756   8.944  0.1420  0.1767 -0.3160
 3038SOL    HW120750   3.053   1.819   8.878  0.6379  2.6930  2.2869
 3038SOL    HW220751   3.110   1.743   8.982 -0.8454 -3.4836  0.6102
 3039SOL     OW20752   0.176   3.791   9.286  0.1384  0.0871 -0.3419
 3039SOL    HW120753   0.206   3.861   9.228 -1.5661  0.0699 -1.2563
 3039SOL    HW220754   0.137   3.739   9.216 -0.0285  1.6876 -1.4283
 3040SOL     OW20755   3.092   2.772  11.282 -0.6188  0.0762  0.1962
 3040SOL    HW120756   3.162   2.779  11.218 -1.9449  0.8166 -1.1697
 3040SOL    HW220757   3.108   2.838  11.350 -2.9634  0.0219  0.8225
 3041SOL     OW20758   3.075   3.029   4.910  0.4678  0.2237 -0.3963
 3041SOL    HW120759   3.141   3.093   4.938  0.7954 -0.6603  0.8348
 3041SOL    HW220760   3.011   3.083   4.864  0.6183 -0.2701 -1.2019
 3042SOL     OW20761   3.582   0.345  15.973  0.5787 -0.2471 -0.0978
 3042SOL    HW120762   3.489   0.333  15.988  0.4123 -0.5997 -1.4020
 3042SOL    HW220763   3.587   0.276  15.906 -2.5036  0.4822 -1.0570
 3043SOL     OW20764   2.450   4.246   4.631  0.1135 -0.2868 -0.2446
 3043SOL    HW120765   2.356   4.234   4.645  0.3276 -0.3050  1.1678
 3043SOL    HW220766   2.455   4.332   4.588 -1.6044  0.0836  0.3021
 3044SOL     OW20767   0.434   4.059   7.996  0.2058  0.2236 -0.3262
 3044SOL    HW120768   0.496   4.026   7.931 -1.9136 -2.0190 -1.1950
 3044SOL    HW220769   0.351   4.077   7.951  0.1238  3.4461  1.0909
 3045SOL     OW20770   3.839   2.001   9.407 -0.1150  0.1723  0.4087
 3045SOL    HW120771   3.858   2.056   9.332  0.3966  2.3546  2.1441
 3045SOL    HW220772   3.747   2.023   9.418  0.1574  0.2342  2.5995
 3046SOL     OW20773   2.517   0.313  10.575 -0.0747 -0.4275 -0.2005
 3046SOL    HW120774   2.606   0.278  10.572 -0.2124 -0.8912  1.2147
 3046SOL    HW220775   2.490   0.306  10.484 -0.1160 -1.4870 -0.1065
 3047SOL     OW20776   3.311   2.150   5.099  0.1736  0.3921 -0.0817
 3047SOL    HW120777   3.317   2.191   5.186 -0.3695  1.7595 -0.6818
 3047SOL    HW220778   3.360   2.211   5.044  0.7926  0.6140  0.7167
 3048SOL     OW20779   1.409   2.849   1.594 -0.0495 -1.1224  0.1578
 3048SOL    HW120780   1.405   2.764   1.550 -0.4857 -0.3456 -1.2982
 3048SOL    HW220781   1.365   2.839   1.679 -2.0116 -1.0638 -0.8345
 3049SOL     OW20782   0.490   1.072   8.939 -0.9513 -0.2522 -0.3379
 3049SOL    HW120783   0.549   1.145   8.921 -1.3294 -0.4497 -2.4214
 3049SOL    HW220784   0.415   1.122   8.971  1.1695  2.1612  0.8977
 3050SOL     OW20785   1.313   1.759  15.485  0.1547 -0.0667  0.1672
 3050SOL    HW120786   1.248   1.688  15.480  0.5269 -0.4112  0.2294
 3050SOL    HW220787   1.392   1.715  15.454  0.5372  1.0043 -0.3626
 3051SOL     OW20788   3.976   1.492  13.559  0.2479  0.1187  0.0968
 3051SOL    HW120789   4.007   1.428  13.494  2.4501 -0.0544  1.3451
 3051SOL    HW220790   3.897   1.516  13.511  0.6289 -3.7690 -2.5114
 3052SOL     OW20791   2.871   1.130   7.780  0.0945  0.5464 -0.2155
 3052SOL    HW120792   2.866   1.064   7.711  2.1847  0.5619 -0.3526
 3052SOL    HW220793   2.896   1.081   7.858  0.9241  0.1061 -0.7587
 3053SOL     OW20794   4.175   4.284   9.430  0.1977 -0.2005  0.2757
 3053SOL    HW120795   4.166   4.376   9.457  0.3899 -0.5913  1.6700
 3053SOL    HW220796   4.104   4.245   9.480 -2.3301  1.9795 -1.6077
 3054SOL     OW20797   1.539   0.156   8.997 -0.1612  0.1150  0.3980
 3054SOL    HW120798   1.585   0.183   9.077 -0.8966 -0.4423  0.9972
 3054SOL    HW220799   1.497   0.241   8.983 -0.1853 -0.2899 -2.0409
 3055SOL     OW20800   1.296   1.428   9.958  0.1408  0.4734 -0.4075
 3055SOL    HW120801   1.253   1.439  10.042  1.3401 -0.3104  0.3072
 3055SOL    HW220802   1.241   1.459   9.887  1.8730  1.4199 -1.3518
 3056SOL     OW20803   3.740   1.415   1.930  0.3494  0.1126 -0.1491
 3056SOL    HW120804   3.792   1.494   1.923 -0.0297  0.4910  1.2498
 3056SOL    HW220805   3.654   1.449   1.956 -0.0229  0.2254 -1.5496
 3057SOL     OW20806   4.606   0.914   1.767 -0.1658  0.0369 -0.3900
 3057SOL    HW120807   4.592   1.002   1.802  1.2244  0.3825 -0.7119
 3057SOL    HW220808   4.693   0.930   1.731 -0.5596 -2.5979 -2.5007
 3058SOL     OW20809   4.651   3.453   2.317  0.5047  0.5825 -0.2500
 3058SOL    HW120810   4.649   3.411   2.404  2.5013 -1.3950 -1.1348
 3058SOL    HW220811   4.674   3.372   2.270 -2.7734 -1.2370  1.2588
 3059SOL     OW20812   3.980   2.978   3.029  0.7908 -0.2038 -0.4478
 3059SOL    HW120813   3.941   3.061   3.053 -0.1448 -0.4129 -1.2518
 3059SOL    HW220814   4.072   2.995   3.051  0.5535  0.2134  0.2132
 3060SOL     OW20815   0.722   3.299   8.345  0.2505 -0.6087  0.0716
 3060SOL    HW120816   0.679   3.311   8.429 -0.0083  0.2451 -0.1862
 3060SOL    HW220817   0.692   3.209   8.332  1.1123 -1.2985  2.8286
 3061SOL     OW20818   0.797   2.505   7.562  0.1098 -0.4553  0.1839
 3061SOL    HW120819   0.783   2.459   7.645 -2.2733  0.2406  0.1780
 3061SOL    HW220820   0.891   2.499   7.545 -0.5864 -0.1273 -3.8343
 3062SOL     OW20821   1.400   0.221  10.903 -1.1411  0.6801 -0.2227
 3062SOL    HW120822   1.418   0.160  10.975 -1.0820 -1.4236 -1.9983
 3062SOL    HW220823   1.489   0.254  10.889 -1.8475  1.6069 -2.5430
 3063SOL     OW20824   4.392   2.611   3.465  0.4083  0.0487  0.7697
 3063SOL    HW120825   4.454   2.607   3.391 -0.4910  1.7600 -0.0662
 3063SOL    HW220826   4.377   2.517   3.473 -2.1708  0.3052 -0.9198
 3064SOL     OW20827   1.234   2.962   7.793 -0.3224 -0.3978  0.1023
 3064SOL    HW120828   1.326   2.951   7.767  0.4153  1.6353  1.8712
 3064SOL    HW220829   1.244   2.955   7.888 -1.2920 -0.8374  0.1710
 3065SOL     OW20830   2.332   1.038   1.155  0.2870 -0.2616  0.6159
 3065SOL    HW120831   2.344   1.122   1.111  1.6984 -1.3106 -1.0021
 3065SOL    HW220832   2.297   0.979   1.088  2.7005 -1.5094  0.4373
 3066SOL     OW20833   4.386   1.443   9.093 -0.6472  0.0440 -1.0882
 3066SOL    HW120834   4.411   1.534   9.110 -1.3718 -0.0242  0.3534
 3066SOL    HW220835   4.421   1.408   9.175 -0.3777 -1.0082 -1.6481
 3067SOL     OW20836   0.157   2.397  14.958  0.1742 -0.3241 -0.0729
 3067SOL    HW120837   0.122   2.392  15.048 -0.4704  1.2603 -0.2399
 3067SOL    HW220838   0.223   2.330  14.975 -0.2966 -0.9077 -0.5346
 3068SOL     OW20839   3.704   1.784  12.018  0.1090  0.1367 -0.0852
 3068SOL    HW120840   3.747   1.719  11.963 -0.6313  1.4222 -2.1877
 3068SOL    HW220841   3.715   1.738  12.102 -1.8232  1.0913  0.7089
 3069SOL     OW20842   2.422   3.160   6.619 -0.0488 -0.2857 -0.0562
 3069SOL    HW120843   2.419   3.065   6.621  2.6047 -0.3984 -1.9579
 3069SOL    HW220844   2.340   3.174   6.667 -0.1312 -0.9843 -0.0045
 3070SOL     OW20845   4.588   4.184  16.446 -0.4178  0.6518  0.8990
 3070SOL    HW120846   4.640   4.215  16.520 -0.0134 -0.0404  0.9124
 3070SOL    HW220847   4.572   4.262  16.393 -0.9370 -0.7547 -1.0302
 3071SOL     OW20848   4.311   3.761   3.810  0.1835 -0.2126  0.4024
 3071SOL    HW120849   4.276   3.850   3.813  1.6575  0.4578 -2.2107
 3071SOL    HW220850   4.267   3.725   3.886 -2.0245 -0.1515 -0.8397
 3072SOL     OW20851   2.305   4.162   8.793  0.5971 -0.1253 -0.3301
 3072SOL    HW120852   2.212   4.149   8.776  0.5976 -0.8569  0.2251
 3072SOL    HW220853   2.344   4.154   8.706  2.0068 -1.9008  0.4507
 3073SOL     OW20854   1.346   4.519   8.621 -0.0112 -0.8729  0.3172
 3073SOL    HW120855   1.292   4.567   8.684 -0.2379  0.1018 -0.6222
 3073SOL    HW220856   1.299   4.436   8.622 -2.2167  0.3543 -1.7629
 3074SOL     OW20857   1.807   3.151  10.477  0.4834 -0.0694 -0.3005
 3074SOL    HW120858   1.856   3.122  10.400 -0.2992  1.4164 -1.3726
 3074SOL    HW220859   1.845   3.237  10.496 -0.6590  0.9589 -2.7006
 3075SOL     OW20860   3.966   4.402   3.965 -0.3166 -1.0848 -0.2115
 3075SOL    HW120861   3.965   4.481   4.019 -1.3154 -1.6613  0.6197
 3075SOL    HW220862   3.963   4.336   4.034 -0.0186 -2.5753 -1.6218
 3076SOL     OW20863   3.306   1.500   7.398  0.4986 -0.3979  0.2891
 3076SOL    HW120864   3.227   1.483   7.347  1.8504 -0.2951 -1.8276
 3076SOL    HW220865   3.374   1.471   7.338 -0.6359 -0.7559 -0.8437
 3077SOL     OW20866   0.104   4.110  10.013 -0.2303  0.5338  0.4027
 3077SOL    HW120867   0.194   4.134  10.033  0.1752 -1.4910  1.0086
 3077SOL    HW220868   0.124   4.088   9.922  1.0779 -0.3142  0.9069
 3078SOL     OW20869   0.258   4.237   6.360  0.3037 -0.3528 -0.3235
 3078SOL    HW120870   0.256   4.333   6.356 -2.2448 -0.4094 -0.4541
 3078SOL    HW220871   0.315   4.228   6.437  1.8684  4.6966 -0.8828
 3079SOL     OW20872   2.660   2.834   4.410 -0.5287  0.1534 -0.3978
 3079SOL    HW120873   2.611   2.832   4.328  2.1792 -1.1390 -1.9703
 3079SOL    HW220874   2.600   2.789   4.469  0.5138 -1.2457 -0.3794
 3080SOL     OW20875   1.847   2.688  12.260  0.0885  0.1242 -0.0808
 3080SOL    HW120876   1.918   2.624  12.251 -0.6316 -0.7370  0.4787
 3080SOL    HW220877   1.784   2.649  12.319  0.2441 -2.2874 -1.5108
 3081SOL     OW20878   0.907   2.185   0.525  0.2559 -0.5419  0.3217
 3081SOL    HW120879   0.940   2.266   0.564 -0.0558  0.6092 -1.7842
 3081SOL    HW220880   0.837   2.222   0.471 -1.4383  0.9539  3.5383
 3082SOL     OW20881   3.730   3.526   5.571  0.8366  0.2790 -0.2578
 3082SOL    HW120882   3.724   3.489   5.483  3.0138  1.6529 -0.9743
 3082SOL    HW220883   3.785   3.467   5.622  1.1185  0.3826 -0.4463
 3083SOL     OW20884   3.766   4.128   7.160 -0.7124  0.1197 -0.6799
 3083SOL    HW120885   3.676   4.142   7.132 -1.1143  2.2993  1.6871
 3083SOL    HW220886   3.815   4.202   7.123 -1.5829  0.4795 -1.1096
 3084SOL     OW20887   2.198   2.391   7.495  0.4688 -0.1091 -0.1769
 3084SOL    HW120888   2.265   2.434   7.548 -0.1641  2.5047 -1.4874
 3084SOL    HW220889   2.178   2.326   7.562  0.5394 -0.9207 -0.9571
 3085SOL     OW20890   3.108   4.578   4.210  0.0454  0.3923 -0.0596
 3085SOL    HW120891   3.132   4.671   4.208 -1.7189  0.8720  1.5985
 3085SOL    HW220892   3.098   4.558   4.117  0.0840 -0.6825  0.1663
 3086SOL     OW20893   2.677   2.223  10.118 -0.0569 -0.1815 -0.3574
 3086SOL    HW120894   2.670   2.128  10.108  1.0517 -0.5727  2.4879
 3086SOL    HW220895   2.641   2.247  10.033 -0.5634 -0.5838 -0.2552
 3087SOL     OW20896   3.519   3.676   3.225  0.3617 -0.3099  0.0980
 3087SOL    HW120897   3.429   3.662   3.255 -0.7398  0.7166 -2.7111
 3087SOL    HW220898   3.501   3.753   3.172  2.9074  2.1001  2.7789
 3088SOL     OW20899   0.318   3.950  15.672 -0.6329  0.7127  0.2056
 3088SOL    HW120900   0.298   3.949  15.765 -0.4709 -1.2857  0.2305
 3088SOL    HW220901   0.392   3.889  15.665 -2.4585 -1.6163  1.1532
 3089SOL     OW20902   1.417   3.409   7.534 -0.4380  0.0116 -0.2855
 3089SOL    HW120903   1.479   3.432   7.465  0.7699  0.2198  0.8733
 3089SOL    HW220904   1.337   3.455   7.508 -1.9161 -2.9494 -0.9947
 3090SOL     OW20905   1.255   1.599  11.858 -0.2879 -0.8894 -0.1655
 3090SOL    HW120906   1.217   1.626  11.774 -0.4680 -0.3186  0.0992
 3090SOL    HW220907   1.203   1.522  11.880 -1.0355 -0.7134 -1.2636
 3091SOL     OW20908   0.384   2.345  11.488  0.7586 -0.1853 -0.0404
 3091SOL    HW120909   0.355   2.313  11.402  1.3609  2.3652 -1.1858
 3091SOL    HW220910   0.347   2.434  11.489  1.2238  0.0183 -0.7387
 3092SOL     OW20911   1.119   1.842   5.574 -0.0942  0.2329 -0.1492
 3092SOL    HW120912   1.052   1.775   5.591  0.1527  1.2642  4.9048
 3092SOL    HW220913   1.078   1.923   5.604 -0.3906  0.6429 -1.6494
 3093SOL     OW20914   2.807   4.224   8.995 -0.1816  0.4538 -0.5004
 3093SOL    HW120915   2.893   4.228   8.952  0.2635  0.4384  0.3880
 3093SOL    HW220916   2.751   4.212   8.918 -1.8501 -0.4233  0.8712
 3094SOL     OW20917   0.520   2.878   8.186  0.5183 -0.3916 -0.0336
 3094SOL    HW120918   0.519   2.896   8.092 -0.5913  0.1466  0.0820
 3094SOL    HW220919   0.430   2.849   8.197  0.3425  1.0751  2.4322
 3095SOL     OW20920   4.018   2.439  11.432  0.7165 -0.0069 -0.0986
 3095SOL    HW120921   3.999   2.513  11.489  3.0100 -0.0022  0.6680
 3095SOL    HW220922   3.928   2.409  11.419  0.9206  0.0566 -1.6931
 3096SOL     OW20923   3.909   3.119  13.242 -0.1168  0.1441 -0.0639
 3096SOL    HW120924   3.967   3.093  13.170 -0.3519  1.1415 -0.6141
 3096SOL    HW220925   3.826   3.139  13.197  0.6561 -0.4551 -1.7709
 3097SOL     OW20926   0.071   3.533   5.009 -0.3881 -0.0778  0.2049
 3097SOL    HW120927   0.159   3.498   5.023 -0.1771 -0.1763 -1.3617
 3097SOL    HW220928   0.031   3.502   5.090 -1.2729 -1.7839 -0.8847
 3098SOL     OW20929   0.723   3.201  16.318  0.4499 -0.4153 -0.0579
 3098SOL    HW120930   0.635   3.239  16.319  0.9813  0.7589  0.9786
 3098SOL    HW220931   0.716   3.137  16.388 -1.5417  1.2518  1.2557
 3099SOL     OW20932   2.930   1.860   1.902  0.1334 -0.2325  0.4780
 3099SOL    HW120933   2.899   1.950   1.897 -0.4465 -0.4353  0.3081
 3099SOL    HW220934   3.024   1.877   1.905  0.4546 -1.7565 -0.7494
 3100SOL     OW20935   3.905   3.516   1.200  0.4050 -0.4801  0.5863
 3100SOL    HW120936   3.959   3.512   1.278  0.8847 -5.2295 -0.0161
 3100SOL    HW220937   3.881   3.423   1.195 -1.0929 -0.1202  1.0046
 3101SOL     OW20938   0.465   0.706   9.424  0.1384  0.5580 -0.5272
 3101SOL    HW120939   0.545   0.671   9.385  0.3246 -0.0423  0.3778
 3101SOL    HW220940   0.393   0.699   9.361 -0.2731 -0.3492  0.0412
 3102SOL     OW20941   1.240   4.583  13.259  0.1575 -0.9031  0.2193
 3102SOL    HW120942   1.195   4.589  13.174  0.0777  0.2528  0.3422
 3102SOL    HW220943   1.169   4.580  13.323 -0.1141 -2.3609 -0.1541
 3103SOL     OW20944   2.916   2.946   7.296 -0.2134 -0.5449 -0.5684
 3103SOL    HW120945   2.836   2.983   7.258  0.9553 -0.3860 -2.9052
 3103SOL    HW220946   2.893   2.965   7.387 -1.4893  0.4142 -1.0964
 3104SOL     OW20947   2.613   2.674  14.453 -0.4992  0.8776  0.3814
 3104SOL    HW120948   2.531   2.628  14.431  1.3613 -2.0192 -0.5183
 3104SOL    HW220949   2.675   2.618  14.405 -1.3894 -1.0284  1.4531
 3105SOL     OW20950   0.344   4.136  16.870 -0.3510  0.0533  0.5765
 3105SOL    HW120951   0.281   4.074  16.833 -0.1555  1.2583 -1.7430
 3105SOL    HW220952   0.299   4.177  16.944 -0.6775  1.1640 -0.2334
 3106SOL     OW20953   2.207   1.682   4.198 -0.1478 -0.5633  0.1705
 3106SOL    HW120954   2.148   1.621   4.154 -2.8067  1.2841  1.1686
 3106SOL    HW220955   2.155   1.760   4.217  1.8755  1.0166 -0.6470
 3107SOL     OW20956   2.664   1.860   4.831  0.2043  0.3074 -0.1639
 3107SOL    HW120957   2.613   1.779   4.837 -0.7622  0.9632  0.3785
 3107SOL    HW220958   2.595   1.914   4.869 -0.6117 -1.1718  0.4850
 3108SOL     OW20959   3.653   0.631   7.545  0.1552  0.0049 -0.0017
 3108SOL    HW120960   3.663   0.613   7.638 -0.5625  2.6042  0.5864
 3108SOL    HW220961   3.586   0.566   7.527  0.8670 -0.5086 -0.7891
 3109SOL     OW20962   1.280   1.166   4.715  0.2320 -0.6045 -0.2558
 3109SOL    HW120963   1.270   1.210   4.630 -0.1727 -2.3289 -1.1065
 3109SOL    HW220964   1.190   1.173   4.747  1.7948 -0.0990  3.9088
 3110SOL     OW20965   0.620   4.734   5.459  0.4545 -0.3106  0.1401
 3110SOL    HW120966   0.627   4.728   5.554 -0.8112  0.0785  0.2577
 3110SOL    HW220967   0.615   0.092   5.448 -1.0503 -0.3110  0.9236
 3111SOL     OW20968   1.354   1.923   1.066 -0.0352  0.1398  0.0211
 3111SOL    HW120969   1.328   1.845   1.116 -3.2196  0.7914 -0.6142
 3111SOL    HW220970   1.273   1.974   1.075  1.2286  2.0074  0.7363
 3112SOL     OW20971   4.588   4.412  16.840  0.2141 -0.5120  0.0823
 3112SOL    HW120972   4.596   4.450  16.753  0.4350  2.3958  1.3831
 3112SOL    HW220973   4.497   4.384  16.845  0.5683 -1.7866 -0.6853
 3113SOL     OW20974   2.805   0.494   7.732 -0.1711 -0.5265  0.4767
 3113SOL    HW120975   2.776   0.442   7.657 -2.5161  0.4672  0.7248
 3113SOL    HW220976   2.856   0.567   7.697 -0.3357 -0.8709 -0.4820
 3114SOL     OW20977   1.802   4.166   2.632 -0.0641 -0.0927  0.5803
 3114SOL    HW120978   1.748   4.183   2.709 -1.5543 -0.2546 -0.4203
 3114SOL    HW220979   1.736   4.126   2.576  0.5967  2.5486 -2.0955
 3115SOL     OW20980   1.885   3.137  16.356  0.0015  0.6039  0.0519
 3115SOL    HW120981   1.885   3.177  16.269 -1.8365  0.8457  0.1584
 3115SOL    HW220982   1.942   3.061  16.347 -1.7525 -0.8861  1.4346
 3116SOL     OW20983   2.052   2.847   2.695 -0.3420 -0.0238  0.0559
 3116SOL    HW120984   2.064   2.909   2.624  0.7539 -0.8464 -0.4821
 3116SOL    HW220985   1.961   2.853   2.724  0.0929  1.6729  1.0244
 3117SOL     OW20986   2.252   1.831   9.272 -0.2605 -0.2779  0.4117
 3117SOL    HW120987   2.171   1.882   9.278  0.1876  0.7115 -1.6639
 3117SOL    HW220988   2.236   1.759   9.332 -1.1966  2.4261  3.4423
 3118SOL     OW20989   1.100   3.033   6.601  0.3354  0.0665  0.0734
 3118SOL    HW120990   1.125   3.056   6.690  0.7237  1.1615 -0.3227
 3118SOL    HW220991   1.136   3.106   6.551 -0.2019  0.8676  0.8642
 3119SOL     OW20992   4.217   1.695   3.416  1.0055  0.4626 -0.1746
 3119SOL    HW120993   4.142   1.644   3.446  1.4040 -0.6140 -1.0093
 3119SOL    HW220994   4.186   1.698   3.325  1.7259 -0.8673 -0.4668
 3120SOL     OW20995   3.447   3.640  16.351  0.3707  0.0238 -0.0868
 3120SOL    HW120996   3.486   3.727  16.345 -0.2572  0.4029  1.2297
 3120SOL    HW220997   3.464   3.623  16.444  0.6139 -0.0998 -0.1553
 3121SOL     OW20998   1.582   0.747   4.845 -0.3729 -0.0387  0.0123
 3121SOL    HW120999   1.540   0.716   4.925  1.5852 -1.1655  0.5862
 3121SOL    HW221000   1.509   0.774   4.789  0.3665 -0.6668 -1.2464
 3122SOL     OW21001   1.219   2.619  16.340  0.5114 -0.2814  0.3916
 3122SOL    HW121002   1.246   2.694  16.392  0.4573 -0.3146  0.4676
 3122SOL    HW221003   1.223   2.564  16.418 -1.3147  3.5923  3.2212
 3123SOL     OW21004   4.419   2.507   2.631  0.3521 -0.0318 -0.1591
 3123SOL    HW121005   4.409   2.455   2.552 -0.2183  1.4442 -1.0629
 3123SOL    HW221006   4.328   2.525   2.656  0.1002  0.0726 -1.1475
 3124SOL     OW21007   3.859   3.829   0.281 -0.5512 -0.0940  0.3687
 3124SOL    HW121008   3.866   3.848   0.188  1.4197  0.9868  0.7206
 3124SOL    HW221009   3.916   3.752   0.287 -0.5207 -0.1227 -0.3929
 3125SOL     OW21010   1.849   2.929   0.423  0.0202 -0.4513 -0.2543
 3125SOL    HW121011   1.766   2.905   0.465  0.1682  0.2242  0.4075
 3125SOL    HW221012   1.818   2.964   0.339 -0.1004  0.8869  0.3590
 3126SOL     OW21013   3.091   3.980   4.531 -0.3848  0.4673 -0.2259
 3126SOL    HW121014   3.049   3.894   4.537  1.0034 -0.2764 -1.1816
 3126SOL    HW221015   3.182   3.953   4.528 -0.2623  0.7111  1.2747
 3127SOL     OW21016   3.547   1.970  13.113  0.2258  0.1728 -0.2080
 3127SOL    HW121017   3.604   2.040  13.146 -0.2332 -0.0845  1.1011
 3127SOL    HW221018   3.610   1.910  13.072 -1.5527 -1.5903 -0.3591
 3128SOL     OW21019   4.234   2.575   5.690  0.4729  0.1604 -0.8093
 3128SOL    HW121020   4.257   2.557   5.782 -0.9924 -0.5583 -0.5732
 3128SOL    HW221021   4.279   2.654   5.662  0.3021  1.6321  3.0826
 3129SOL     OW21022   0.145   4.528   3.088  0.3194  0.0256 -0.0134
 3129SOL    HW121023   0.071   4.478   3.123 -0.0634  0.5939 -0.0111
 3129SOL    HW221024   0.210   4.466   3.122 -0.1965 -1.4488 -1.7287
 3130SOL     OW21025   2.355   2.896   6.595 -0.6900  0.3792  0.6436
 3130SOL    HW121026   2.422   2.876   6.529 -2.4690 -0.8344 -0.7918
 3130SOL    HW221027   2.388   2.852   6.673  0.7511 -0.9342 -0.7140
 3131SOL     OW21028   1.227   1.161  15.074  0.3991 -0.0919  0.1723
 3131SOL    HW121029   1.231   1.242  15.024  1.9021  1.0835  2.1999
 3131SOL    HW221030   1.219   1.200  15.161 -4.6469 -1.7416  0.4428
 3132SOL     OW21031   2.877   0.710   7.117 -0.3693 -0.0353  0.2368
 3132SOL    HW121032   2.915   0.785   7.162  1.0735  0.0526 -1.1128
 3132SOL    HW221033   2.855   0.642   7.181 -1.2838 -1.2822 -1.3918
 3133SOL     OW21034   0.288   1.795   3.436  0.4535 -0.1442  0.0131
 3133SOL    HW121035   0.347   1.721   3.445 -2.3263 -2.4340 -0.7609
 3133SOL    HW221036   0.203   1.753   3.449 -0.2520  1.3553  0.3332
 3134SOL     OW21037   0.971   0.303   5.190  0.8013  0.5178  0.3233
 3134SOL    HW121038   1.019   0.288   5.272 -0.4531  0.2184  0.9967
 3134SOL    HW221039   1.002   0.393   5.187  0.4696  0.6287  0.3146
 3135SOL     OW21040   4.281   4.292   2.640 -0.4682  0.2032  0.1354
 3135SOL    HW121041   4.205   4.235   2.630 -1.3595  0.9528  2.5197
 3135SOL    HW221042   4.324   4.265   2.721  1.6045 -1.2507 -1.4427
 3136SOL     OW21043   4.228   2.194   9.039  0.4564 -0.0418 -0.0334
 3136SOL    HW121044   4.269   2.228   8.960 -0.9254 -0.3578 -0.8934
 3136SOL    HW221045   4.228   2.279   9.083  0.9464 -0.2882  0.4455
 3137SOL     OW21046   2.132   1.243   2.293  0.0663  0.1592 -0.6216
 3137SOL    HW121047   2.154   1.166   2.241  0.3659  0.8496 -1.5193
 3137SOL    HW221048   2.165   1.309   2.232  0.8547  2.0540  1.8545
 3138SOL     OW21049   1.848   4.376   8.034  0.0263  0.5980  0.0496
 3138SOL    HW121050   1.888   4.414   8.112  0.1521  1.1218 -0.2717
 3138SOL    HW221051   1.888   4.290   8.024 -1.0369  0.0529  0.4718
 3139SOL     OW21052   1.854   3.925   2.385 -0.0242 -0.1287 -0.4159
 3139SOL    HW121053   1.829   3.865   2.456 -0.3288  1.7631  1.0992
 3139SOL    HW221054   1.878   3.862   2.317 -0.3344  3.5204 -3.8867
 3140SOL     OW21055   0.521   2.090  11.518 -0.3818  0.0758  0.3894
 3140SOL    HW121056   0.456   2.160  11.524  0.9285  1.4634 -1.6241
 3140SOL    HW221057   0.522   2.064  11.426 -0.7779  0.2918  0.3241
 3141SOL     OW21058   1.317   2.750   8.206  0.2912  0.4872 -0.3363
 3141SOL    HW121059   1.368   2.828   8.228 -0.6301  0.7306  0.9494
 3141SOL    HW221060   1.240   2.785   8.161 -1.0111 -0.0030  1.4905
 3142SOL     OW21061   4.503   4.554   6.597  0.5888 -0.0101 -0.7795
 3142SOL    HW121062   4.419   4.580   6.560  0.1635  0.0751  0.2348
 3142SOL    HW221063   4.520   4.464   6.570 -1.1152  0.4146 -3.3129
 3143SOL     OW21064   2.535   0.170   6.044  0.2041  0.0596  0.6234
 3143SOL    HW121065   2.584   0.101   6.089 -0.3294 -0.5440  0.2599
 3143SOL    HW221066   2.549   0.245   6.103 -0.1054  0.8535 -0.3100
 3144SOL     OW21067   0.943   2.378   2.330 -0.2900 -0.3089  0.2552
 3144SOL    HW121068   0.990   2.324   2.393  0.8549  0.7265  0.2882
 3144SOL    HW221069   1.015   2.440   2.318  0.5850 -1.3682  0.0896
 3145SOL     OW21070   0.088   0.412   4.006 -0.3138 -0.1616  0.1218
 3145SOL    HW121071   0.183   0.416   4.019 -0.2641  0.2838 -0.3840
 3145SOL    HW221072   0.079   0.503   4.033 -0.6355 -0.0466 -0.3704
 3146SOL     OW21073   0.125   1.670  12.202 -0.2197 -0.0101  0.7510
 3146SOL    HW121074   0.108   1.750  12.253 -2.2465  0.3023 -0.3650
 3146SOL    HW221075   0.046   1.679  12.148  0.7723  1.0456 -0.5421
 3147SOL     OW21076   3.633   4.166   7.972 -0.6922  0.1798 -0.2543
 3147SOL    HW121077   3.679   4.177   8.055 -0.3204  0.2796 -0.4723
 3147SOL    HW221078   3.557   4.223   7.981 -0.6161  0.4795 -1.4639
 3148SOL     OW21079   0.962   4.708   5.054 -0.0372 -0.0214  0.7488
 3148SOL    HW121080   1.010   4.708   5.137 -1.5180 -1.7188  1.6071
 3148SOL    HW221081   0.894   0.035   5.075  0.7004  1.2104 -0.5629
 3149SOL     OW21082   2.144   4.391   0.246  0.8988 -0.2134  0.0112
 3149SOL    HW121083   2.185   4.304   0.246  2.9514  0.7583  0.1111
 3149SOL    HW221084   2.223   4.436   0.277  0.9495 -1.0703  1.1329
 3150SOL     OW21085   4.576   1.205   6.427 -0.2282  0.2939 -0.0107
 3150SOL    HW121086   4.591   1.147   6.501  0.2679  0.1602 -0.2170
 3150SOL    HW221087   4.660   1.207   6.381  0.1013 -1.3047  0.5399
 3151SOL     OW21088   0.034   4.009  16.112  0.2640 -0.2252 -0.5399
 3151SOL    HW121089   0.008   4.031  16.022 -2.1317  0.3665  0.3184
 3151SOL    HW221090   0.073   3.921  16.107 -1.1214 -0.6495 -3.8053
 3152SOL     OW21091   2.753   1.533   3.095 -0.0992 -0.5129 -0.2153
 3152SOL    HW121092   2.823   1.547   3.159  0.2008  0.9702 -0.8581
 3152SOL    HW221093   2.681   1.537   3.158 -0.9581 -1.4890 -1.1432
 3153SOL     OW21094   0.135   1.119   7.758 -0.7838  0.3689 -0.3646
 3153SOL    HW121095   0.060   1.067   7.728 -0.8201  0.2264 -0.0355
 3153SOL    HW221096   0.093   1.176   7.822 -1.2832 -1.0030  0.5462
 3154SOL     OW21097   0.561   1.174   7.107 -0.2036  0.5122 -0.1044
 3154SOL    HW121098   0.477   1.187   7.151 -0.1779  1.4266 -0.3318
 3154SOL    HW221099   0.528   1.098   7.059 -0.4500 -0.3273  1.3921
 3155SOL     OW21100   1.020   3.212   1.220 -0.1352  0.1046  0.3469
 3155SOL    HW121101   0.937   3.243   1.183 -0.6223  0.8030  2.0157
 3155SOL    HW221102   1.069   3.192   1.141  1.0502 -2.1827  1.6597
 3156SOL     OW21103   3.654   1.662   2.312 -0.2802  0.1151  0.4137
 3156SOL    HW121104   3.725   1.619   2.360  0.8067  0.3119 -1.0460
 3156SOL    HW221105   3.700   1.709   2.243 -0.8850 -2.4239 -1.7582
 3157SOL     OW21106   2.701   0.275   4.200  0.3295  0.5593  0.2264
 3157SOL    HW121107   2.640   0.348   4.193 -1.2252 -0.7722 -0.1317
 3157SOL    HW221108   2.685   0.236   4.286  0.5782 -0.9829 -0.4145
 3158SOL     OW21109   0.684   4.136   1.349  0.1978  0.0129  0.0881
 3158SOL    HW121110   0.747   4.195   1.392 -0.6667  0.4781  0.7248
 3158SOL    HW221111   0.652   4.086   1.424  0.0054  0.7530  0.5026
 3159SOL     OW21112   3.361   0.331   4.138  0.2352  0.6290 -0.1162
 3159SOL    HW121113   3.397   0.292   4.218 -0.9465  0.6161  0.3964
 3159SOL    HW221114   3.276   0.355   4.174  1.0236 -0.3721  2.4299
 3160SOL     OW21115   4.132   3.758   1.317  0.0876  0.3298  0.0605
 3160SOL    HW121116   4.079   3.680   1.331  0.6430 -0.0487  0.0430
 3160SOL    HW221117   4.172   3.761   1.404 -1.2226 -1.5446  0.7165
 3161SOL     OW21118   4.466   0.200   1.340 -0.0517  0.4193  0.0078
 3161SOL    HW121119   4.375   0.177   1.359 -0.0553  0.8589  0.5273
 3161SOL    HW221120   4.491   0.123   1.289  0.2537 -1.0504  2.4103
 3162SOL     OW21121   3.357   0.875  10.730 -0.4732 -0.6843 -0.8548
 3162SOL    HW121122   3.319   0.957  10.761 -0.4195 -1.1319  0.3972
 3162SOL    HW221123   3.302   0.872  10.652 -2.8423  1.1898  0.7472
 3163SOL     OW21124   0.087   1.122   5.519 -0.4148 -0.1936  0.5801
 3163SOL    HW121125   0.116   1.152   5.604 -2.2364  1.9697  0.4352
 3163SOL    HW221126   0.145   1.049   5.496  0.1754  1.1819 -2.3564
 3164SOL     OW21127   1.978   0.993   1.300 -0.5328 -0.5497 -0.5086
 3164SOL    HW121128   1.911   1.058   1.321 -0.7331 -0.5319 -1.1931
 3164SOL    HW221129   2.055   1.046   1.281 -2.3737  2.3734  0.1988
 3165SOL     OW21130   4.493   2.440   4.858  0.2401  0.3805 -0.1855
 3165SOL    HW121131   4.451   2.519   4.824  0.3221  0.7973  0.6912
 3165SOL    HW221132   4.495   2.390   4.776 -2.7067  1.4721 -0.9479
 3166SOL     OW21133   0.199   0.536   6.764  0.6313  0.2617 -0.6865
 3166SOL    HW121134   0.141   0.579   6.827 -2.3064 -3.1830 -1.0287
 3166SOL    HW221135   0.242   0.616   6.733  1.8050  0.0498  0.3780
 3167SOL     OW21136   4.161   4.220   3.678  0.5523 -0.0020  0.1972
 3167SOL    HW121137   4.150   4.304   3.724  0.7838 -0.0675  0.3707
 3167SOL    HW221138   4.206   4.252   3.600  0.3844  0.0419  0.1192
 3168SOL     OW21139   4.013   0.102   3.238  0.0018 -0.0284 -0.1780
 3168SOL    HW121140   3.985   0.116   3.328  1.4861 -2.3829  0.6468
 3168SOL    HW221141   4.090   0.046   3.241  0.2862  0.4265  0.8427
 3169SOL     OW21142   3.640   2.415  11.478  0.2797  0.5479 -0.2642
 3169SOL    HW121143   3.684   2.456  11.404 -1.2195 -0.3677 -1.6626
 3169SOL    HW221144   3.709   2.348  11.480  0.8966  1.2145  0.9658
 3170SOL     OW21145   1.191   2.647   4.435  0.4063  0.6024  0.0342
 3170SOL    HW121146   1.162   2.737   4.426 -1.4037  0.1387  1.0950
 3170SOL    HW221147   1.114   2.605   4.397  0.9237 -0.2483 -0.0729
 3171SOL     OW21148   0.106   2.727   6.668  0.1012  0.5016  0.6204
 3171SOL    HW121149   0.073   2.783   6.597 -1.4188  0.4468  1.3002
 3171SOL    HW221150   0.098   2.654   6.607 -2.0574 -0.1733  1.7069
 3172SOL     OW21151   0.510   2.717   8.487  0.0768 -0.6203 -0.7577
 3172SOL    HW121152   0.448   2.764   8.431  0.0394  1.1376  0.7437
 3172SOL    HW221153   0.476   2.628   8.484  0.0055 -0.6191 -0.0367
 3173SOL     OW21154   3.643   2.926   6.441  0.4153  0.1804  0.2776
 3173SOL    HW121155   3.663   2.834   6.424 -1.0465 -0.0876  0.0352
 3173SOL    HW221156   3.551   2.934   6.465  0.3912  1.4362 -0.2772
 3174SOL     OW21157   2.812   0.195   6.574 -0.2183  0.3045 -0.5230
 3174SOL    HW121158   2.825   0.103   6.598 -0.1665 -0.0247 -1.8373
 3174SOL    HW221159   2.816   0.245   6.656 -3.1177 -2.2412  1.1807
 3175SOL     OW21160   4.582   3.773   7.116  0.0366  0.5044 -0.4531
 3175SOL    HW121161   4.538   3.720   7.049 -0.7903  0.0424  0.4665
 3175SOL    HW221162   4.642   3.809   7.050 -0.2810 -0.1768 -1.1153
 3176SOL     OW21163   2.172   3.581   5.039  0.0644  0.3375  0.1552
 3176SOL    HW121164   2.195   3.538   5.121 -0.6807  0.6183  0.5134
 3176SOL    HW221165   2.228   3.657   5.056 -0.6654  0.3829  2.4362
 3177SOL     OW21166   4.263   2.101   4.862  0.0263  0.4359 -0.9202
 3177SOL    HW121167   4.329   2.157   4.822 -0.6012 -0.3644 -3.0727
 3177SOL    HW221168   4.180   2.135   4.827 -0.0256  0.2469 -0.9800
 3178SOL     OW21169   3.800   3.790   5.709 -0.0049 -0.0574  0.4052
 3178SOL    HW121170   3.769   3.705   5.677 -1.2449 -0.7117  3.4028
 3178SOL    HW221171   3.757   3.856   5.655 -2.2325 -1.6428  0.2288
 3179SOL     OW21172   2.501   2.056   7.037  0.3138  0.5623 -0.5189
 3179SOL    HW121173   2.572   2.119   7.035  0.1552  0.8696  4.5973
 3179SOL    HW221174   2.543   1.974   7.009  2.1222  1.8023 -1.4165
 3180SOL     OW21175   3.423   2.349  15.221  0.5525  0.1833  0.1305
 3180SOL    HW121176   3.393   2.258  15.228  0.5256  0.3689  2.3934
 3180SOL    HW221177   3.367   2.397  15.282  0.8195 -1.0701  1.3631
 3181SOL     OW21178   2.597   3.959  10.991  0.6507  0.3178  0.6277
 3181SOL    HW121179   2.515   4.004  11.013  0.9086  2.4142 -2.7090
 3181SOL    HW221180   2.572   3.878  10.946  0.2364  0.6686  0.2301
 3182SOL     OW21181   2.692   1.150   9.746  0.2194  0.6930  0.5651
 3182SOL    HW121182   2.731   1.218   9.692 -0.7888 -1.0650 -2.3537
 3182SOL    HW221183   2.759   1.136   9.813  1.8720 -2.1996 -1.7202
 3183SOL     OW21184   0.326   4.126   7.514  0.0849  0.1168 -0.2620
 3183SOL    HW121185   0.385   4.073   7.461 -0.9608 -1.0935 -0.2056
 3183SOL    HW221186   0.306   4.196   7.451 -0.2420  1.4382  1.3120
 3184SOL     OW21187   0.066   2.191   1.309  0.4296  0.2285  0.2083
 3184SOL    HW121188   0.125   2.132   1.357  0.6350  1.7203  1.8143
 3184SOL    HW221189   0.088   2.272   1.356  1.7752  0.3621 -0.6452
 3185SOL     OW21190   2.672   1.790   6.875 -0.5731 -0.3206 -0.2670
 3185SOL    HW121191   2.738   1.765   6.940  0.7316 -2.2245 -2.3226
 3185SOL    HW221192   2.733   1.824   6.809 -0.7919  2.5563  0.9896
 3186SOL     OW21193   4.443   1.598   1.915 -0.4746  0.2092 -0.2690
 3186SOL    HW121194   4.515   1.545   1.949 -2.1055  0.7495  4.0417
 3186SOL    HW221195   4.367   1.585   1.972  0.8779 -1.8722  1.0702
 3187SOL     OW21196   0.090   3.333   6.761  0.5146  0.4927 -0.2397
 3187SOL    HW121197   0.060   3.293   6.843  0.2442 -0.4653 -0.7965
 3187SOL    HW221198   0.076   3.426   6.779  0.0628  0.5421 -0.8672
 3188SOL     OW21199   4.633   4.577  17.086 -0.1766 -0.0251 -0.1553
 3188SOL    HW121200   4.599   4.656  17.127  3.7586  2.2021 -1.1436
 3188SOL    HW221201   4.560   4.560  17.027 -0.1586 -1.5198  0.2613
 3189SOL     OW21202   2.606   2.071   2.233  0.9401  0.0579 -0.2950
 3189SOL    HW121203   2.523   2.026   2.222  1.4688 -1.0985  0.4591
 3189SOL    HW221204   2.665   2.000   2.207  1.0104  0.3941 -1.0846
 3190SOL     OW21205   3.097   0.200   4.995  0.3813 -0.2137  0.1945
 3190SOL    HW121206   3.082   0.287   5.030  0.8363  0.8152 -2.1792
 3190SOL    HW221207   3.070   0.139   5.064 -0.3877  1.1732  1.1241
 3191SOL     OW21208   0.362   3.366  12.193  0.5858  0.3900 -0.5460
 3191SOL    HW121209   0.432   3.371  12.258 -0.8906  0.4508  1.0523
 3191SOL    HW221210   0.308   3.443  12.211  1.8280  0.6179  2.2959
 3192SOL     OW21211   0.041   0.749   6.921  0.0187  0.1959 -0.4831
 3192SOL    HW121212   0.081   0.836   6.926 -1.0506  0.5753  1.7589
 3192SOL    HW221213   0.103   0.701   6.976  0.2648  0.5337 -0.4642
 3193SOL     OW21214   3.864   4.153  10.249 -0.4222 -0.1550  0.0744
 3193SOL    HW121215   3.926   4.080  10.254  0.4614  0.6375  0.6282
 3193SOL    HW221216   3.847   4.169  10.341  0.8510  0.2723  0.2415
 3194SOL     OW21217   4.597   1.123   2.006  0.5955  0.1763 -0.0358
 3194SOL    HW121218   4.530   1.188   2.022 -2.1613 -2.7975  0.4719
 3194SOL    HW221219   4.547   1.041   2.004  0.6037  0.2054 -2.1005
 3195SOL     OW21220   1.033   4.638   7.539  0.1159 -0.7965 -0.0735
 3195SOL    HW121221   0.987   4.566   7.497 -1.6383  0.8225 -0.9355
 3195SOL    HW221222   1.033   4.606   7.629 -1.9902  1.9653  0.9101
 3196SOL     OW21223   4.359   0.479  14.094 -0.0315 -0.2662  0.2375
 3196SOL    HW121224   4.433   0.540  14.092 -1.2094  1.0885 -1.0192
 3196SOL    HW221225   4.296   0.531  14.046 -1.0438 -1.0682  0.7071
 3197SOL     OW21226   0.649   2.495   6.983  0.2861 -0.2262 -0.5875
 3197SOL    HW121227   0.574   2.538   7.025  0.3111 -1.5873  0.8365
 3197SOL    HW221228   0.703   2.478   7.060 -2.2743 -3.2667  0.5125
 3198SOL     OW21229   2.826   3.114   4.506 -0.4174 -0.7179 -0.5722
 3198SOL    HW121230   2.865   3.169   4.438 -0.9210 -0.3039 -0.5203
 3198SOL    HW221231   2.837   3.032   4.457 -1.9660 -1.2511 -0.0324
 3199SOL     OW21232   1.711   3.577   1.106 -0.1332 -0.1906  0.4739
 3199SOL    HW121233   1.645   3.646   1.097  0.7207  0.6519  0.6873
 3199SOL    HW221234   1.754   3.583   1.021  0.9873  2.3915  1.2193
 3200SOL     OW21235   1.124   3.437   2.428  0.2965 -0.4138  0.5348
 3200SOL    HW121236   1.147   3.411   2.339 -0.3571  0.4812  0.1044
 3200SOL    HW221237   1.196   3.493   2.455  1.5359 -0.6437 -2.3264
 3201SOL     OW21238   2.356   1.925   5.403  0.3657  0.1484  0.0362
 3201SOL    HW121239   2.405   1.970   5.333  1.1933  1.6678  1.5936
 3201SOL    HW221240   2.268   1.954   5.378  0.4974  0.8889  0.4354
 3202SOL     OW21241   2.750   3.255   5.320  0.1996  0.0760 -0.1418
 3202SOL    HW121242   2.785   3.197   5.387 -0.9059 -0.8999 -0.4249
 3202SOL    HW221243   2.769   3.217   5.234  2.3652  0.1506  0.3148
 3203SOL     OW21244   4.087   0.316   6.045 -0.0518  0.2604 -0.6370
 3203SOL    HW121245   4.017   0.261   6.009 -0.0066 -0.0997 -0.1836
 3203SOL    HW221246   4.110   0.356   5.961 -0.9051 -0.3772 -1.1846
 3204SOL     OW21247   1.080   0.809   7.871  0.4819  0.4169 -0.0446
 3204SOL    HW121248   1.003   0.844   7.827  0.3840 -1.2970 -1.2409
 3204SOL    HW221249   1.041   0.723   7.885  1.9376 -0.3520 -0.6548
 3205SOL     OW21250   3.891   4.570   8.460 -0.0072 -0.0625 -0.6913
 3205SOL    HW121251   3.849   4.619   8.390 -1.7145  2.4159  2.0830
 3205SOL    HW221252   3.986   4.584   8.458  0.4630 -2.6845  2.1711
 3206SOL     OW21253   1.053   3.117   2.567  0.5961 -0.2173 -0.2883
 3206SOL    HW121254   1.043   3.210   2.545 -0.8609 -0.4841 -0.7817
 3206SOL    HW221255   1.039   3.078   2.481  2.1815  0.4813 -0.8643
 3207SOL     OW21256   4.557   3.356  17.655 -0.4382 -0.3084  0.0165
 3207SOL    HW121257   4.503   3.393  17.725  2.6839  1.8075  1.3148
 3207SOL    HW221258   4.567   3.268  17.690 -0.1508 -0.2798  0.0044
 3208SOL     OW21259   0.055   3.192   6.068 -0.2906  0.4656  0.0645
 3208SOL    HW121260   4.715   3.231   6.111 -1.5107 -2.1816  0.2843
 3208SOL    HW221261   0.067   3.105   6.105 -0.2485  1.0392  1.4375
 3209SOL     OW21262   1.505   0.385   2.599  0.1335 -0.1524 -0.3339
 3209SOL    HW121263   1.524   0.444   2.526  2.2246 -0.1568  0.1992
 3209SOL    HW221264   1.572   0.319   2.579  1.1986  1.6414 -2.6920
 3210SOL     OW21265   0.677   0.078  11.972  0.3965  0.3349  0.5026
 3210SOL    HW121266   0.670   0.064  11.878  1.6878  0.7586  0.3444
 3210SOL    HW221267   0.596   0.128  11.980 -0.0549 -0.6377  1.9162
 3211SOL     OW21268   4.339   0.782   4.739  0.0568  0.9638 -0.7974
 3211SOL    HW121269   4.381   0.697   4.728  0.2690  0.8329  1.0094
 3211SOL    HW221270   4.250   0.756   4.715  0.0680  0.6090 -0.4634
 3212SOL     OW21271   1.182   0.123   8.566  0.0938  0.1804  0.6574
 3212SOL    HW121272   1.143   0.111   8.479  0.2824  1.2715  0.4297
 3212SOL    HW221273   1.122   0.065   8.614  0.6028 -1.4292 -0.6398
 3213SOL     OW21274   2.836   1.367   7.933 -0.0461 -0.7649 -0.0000
 3213SOL    HW121275   2.845   1.289   7.878  0.6954 -1.1371  0.6609
 3213SOL    HW221276   2.914   1.410   7.899 -0.4387  1.0209  1.3850
 3214SOL     OW21277   3.296   3.062   8.299 -0.1570  0.4243 -0.1306
 3214SOL    HW121278   3.322   3.015   8.379  0.5976 -3.0593 -2.3992
 3214SOL    HW221279   3.355   3.137   8.298 -0.4862  0.6698 -0.8265
 3215SOL     OW21280   1.593   4.506   9.810  0.0173 -0.2296  0.0190
 3215SOL    HW121281   1.561   4.455   9.736 -0.7961  0.4689 -0.1089
 3215SOL    HW221282   1.524   4.572   9.810  1.3192  1.1295  1.7856
 3216SOL     OW21283   0.481   1.514   8.806 -0.4436 -0.0922 -0.7085
 3216SOL    HW121284   0.566   1.525   8.763  1.2330 -3.5885  1.7921
 3216SOL    HW221285   0.417   1.520   8.735 -2.0699 -1.5839  0.6642
 3217SOL     OW21286   1.832   1.363   3.904  0.3722 -0.1049  0.3353
 3217SOL    HW121287   1.753   1.415   3.892  0.1292 -0.3518  0.9012
 3217SOL    HW221288   1.793   1.276   3.908 -1.9868  0.8824 -1.4142
 3218SOL     OW21289   0.427   0.315  15.445  0.3632 -0.0490 -0.1078
 3218SOL    HW121290   0.440   0.338  15.537  2.4720 -0.0872 -0.4109
 3218SOL    HW221291   0.455   0.400  15.411  0.1798  0.2372  0.4660
 3219SOL     OW21292   3.204   3.931  16.383  0.7380 -0.4147 -0.3246
 3219SOL    HW121293   3.175   4.022  16.396 -1.8132 -1.6277  2.3400
 3219SOL    HW221294   3.209   3.907  16.475  1.6754  0.7817 -0.0564
 3220SOL     OW21295   1.525   4.101  11.559 -0.6925 -0.2515  0.5011
 3220SOL    HW121296   1.452   4.107  11.498  1.9634  0.0811 -2.7120
 3220SOL    HW221297   1.522   4.192  11.589 -0.4247  0.2330 -0.9445
 3221SOL     OW21298   0.671   3.790  17.151  0.2853  0.6596 -0.3966
 3221SOL    HW121299   0.645   3.882  17.148  0.2997  0.6184 -1.8704
 3221SOL    HW221300   0.721   3.782  17.232 -1.3128 -0.8580  0.4512
 3222SOL     OW21301   4.205   4.202   7.125  0.4074  0.0671  0.4449
 3222SOL    HW121302   4.219   4.110   7.104 -0.5161  0.3999 -1.5557
 3222SOL    HW221303   4.147   4.230   7.054 -1.2442  0.3691  1.9066
 3223SOL     OW21304   0.831   3.581   7.569  0.4475  0.4113  0.3440
 3223SOL    HW121305   0.884   3.551   7.496 -0.1119  0.1795  0.0354
 3223SOL    HW221306   0.831   3.505   7.627 -0.0602  0.2487  0.1288
 3224SOL     OW21307   1.812   2.641  13.688 -0.6471 -0.9287  0.0682
 3224SOL    HW121308   1.866   2.720  13.684 -1.5614 -0.2883  0.3404
 3224SOL    HW221309   1.785   2.635  13.597 -2.3296 -0.8914  0.5679
 3225SOL     OW21310   3.141   1.836   4.579 -0.5917 -0.6294 -0.6662
 3225SOL    HW121311   3.216   1.887   4.548 -1.8945  2.6404  1.6506
 3225SOL    HW221312   3.161   1.812   4.669 -1.9850 -0.5405 -0.3450
 3226SOL     OW21313   3.140   4.552   0.995 -0.8154  0.2953  0.5113
 3226SOL    HW121314   3.081   4.602   1.051  0.2838 -0.1092  2.0477
 3226SOL    HW221315   3.095   4.468   1.004 -0.3181 -0.0178  0.1091
 3227SOL     OW21316   1.408   1.365   6.644  0.6863 -0.0074 -0.1677
 3227SOL    HW121317   1.389   1.457   6.629  1.7401  0.4363  1.2459
 3227SOL    HW221318   1.391   1.330   6.556 -0.2315 -0.6066  0.2477
 3228SOL     OW21319   1.233   1.279  15.339 -0.3172  0.8232 -0.1086
 3228SOL    HW121320   1.205   1.281  15.431  1.7773 -0.7168  0.5614
 3228SOL    HW221321   1.321   1.245  15.354 -1.9114 -2.0428  2.6290
 3229SOL     OW21322   3.130   1.882   8.288 -1.0518  0.0745 -0.0005
 3229SOL    HW121323   3.060   1.911   8.230  2.2726  0.8917 -3.5647
 3229SOL    HW221324   3.190   1.859   8.217 -1.2245  2.4007 -0.9023
 3230SOL     OW21325   2.352   0.017   3.649 -0.6172 -0.3235  0.0685
 3230SOL    HW121326   2.437   4.728   3.612 -1.0737 -0.9686 -0.5525
 3230SOL    HW221327   2.339   0.106   3.618  0.2679 -0.6735 -1.2936
 3231SOL     OW21328   4.400   2.976   5.919 -0.2047  0.0850  0.7616
 3231SOL    HW121329   4.335   3.046   5.914 -0.1451  0.0768 -0.1715
 3231SOL    HW221330   4.474   3.015   5.874 -1.1645  0.9793 -0.0479
 3232SOL     OW21331   4.083   3.913   5.175 -0.0437 -0.2122  0.5246
 3232SOL    HW121332   4.011   3.852   5.161  0.9602 -1.4252  0.6232
 3232SOL    HW221333   4.154   3.857   5.207  0.1020  0.5122  1.4798
 3233SOL     OW21334   3.918   4.052   6.812  0.7450 -0.0709 -0.4226
 3233SOL    HW121335   3.955   4.003   6.885 -1.9197 -1.1625  0.2321
 3233SOL    HW221336   3.917   3.990   6.739  0.0988  1.2078 -1.5101
 3234SOL     OW21337   0.943   1.095  16.682  0.3243  0.0856  0.5359
 3234SOL    HW121338   0.937   1.103  16.777  1.3355 -1.1509  0.7136
 3234SOL    HW221339   0.958   1.000  16.673 -2.9507 -0.3293 -0.3450
 3235SOL     OW21340   1.021   1.487   0.105 -0.4161  0.6828 -0.0946
 3235SOL    HW121341   1.019   1.559   0.168 -0.5237 -0.4938  1.2435
 3235SOL    HW221342   1.108   1.447   0.113 -0.9750 -0.6404 -0.5389
 3236SOL     OW21343   0.180   2.972   2.815 -0.2917  0.1140 -0.0773
 3236SOL    HW121344   0.164   3.008   2.902 -0.6281  1.1334 -0.5592
 3236SOL    HW221345   0.227   2.894   2.844 -0.3180  0.9478  2.2377
 3237SOL     OW21346   0.840   3.777   8.587  0.3527  0.8704  0.6619
 3237SOL    HW121347   0.772   3.713   8.609 -0.0604  1.5385  1.3383
 3237SOL    HW221348   0.879   3.732   8.513 -3.3500  1.1020 -1.4427
 3238SOL     OW21349   2.795   0.466   1.791 -0.4022  0.3078 -0.7608
 3238SOL    HW121350   2.835   0.406   1.854  2.3321 -0.0142 -2.8090
 3238SOL    HW221351   2.755   0.526   1.853 -1.7899 -0.6819 -0.7114
 3239SOL     OW21352   4.733   4.004  10.692 -0.1619  0.1392 -0.2637
 3239SOL    HW121353   0.010   4.098  10.696  0.6251 -0.0224  1.0040
 3239SOL    HW221354   0.013   3.992  10.786  0.3924  0.6853 -0.2897
 3240SOL     OW21355   1.217   3.561   8.775 -0.0702 -0.0301  0.8960
 3240SOL    HW121356   1.141   3.598   8.820  0.6847 -0.6611  2.6956
 3240SOL    HW221357   1.273   3.634   8.751 -0.0073 -0.2017  0.5248
 3241SOL     OW21358   2.633   2.092   6.484 -0.8698  0.5705 -0.1441
 3241SOL    HW121359   2.579   2.015   6.501  0.1421 -0.7241 -2.7482
 3241SOL    HW221360   2.682   2.067   6.405  1.3858 -0.0466  1.4708
 3242SOL     OW21361   1.911   4.591   6.658 -0.2525 -0.1682  0.1246
 3242SOL    HW121362   1.865   4.658   6.606  3.0662  1.3483 -0.8167
 3242SOL    HW221363   1.941   4.526   6.595  1.6036 -1.8963  2.8242
 3243SOL     OW21364   1.111   4.587  16.646 -0.5858 -0.3498 -0.2616
 3243SOL    HW121365   1.078   4.610  16.559 -0.2388  0.5380 -0.1639
 3243SOL    HW221366   1.057   4.515  16.678  0.9907 -1.1437  0.6515
 3244SOL     OW21367   1.004   3.652   8.919  0.1708 -0.2452 -0.4923
 3244SOL    HW121368   1.005   3.612   9.006  0.3012 -2.2032 -1.3734
 3244SOL    HW221369   0.962   3.737   8.933  1.6618  0.0925  1.9004
 3245SOL     OW21370   1.386   0.981   4.924 -0.4007 -0.1957 -0.1870
 3245SOL    HW121371   1.340   1.063   4.907 -0.1009  0.2218  1.0156
 3245SOL    HW221372   1.350   0.920   4.859  0.5810 -0.4295 -0.5188
 3246SOL     OW21373   4.711   0.987   5.822  0.3890 -0.0397 -0.2781
 3246SOL    HW121374   4.723   1.060   5.763  0.7529 -1.4558 -1.9376
 3246SOL    HW221375   4.620   1.014   5.838 -0.1093 -0.7661 -1.9092
 3247SOL     OW21376   1.019   1.527  17.558 -0.0641  0.2696 -0.1938
 3247SOL    HW121377   0.968   1.604  17.534 -1.4847 -1.2589 -2.0180
 3247SOL    HW221378   0.980   1.511  17.644 -0.0005  1.5864  0.0855
 3248SOL     OW21379   0.548   4.724  10.715  0.1181  0.0879 -0.1458
 3248SOL    HW121380   0.538   4.666  10.791  2.2652 -0.3347 -0.1671
 3248SOL    HW221381   0.597   0.062  10.751  0.9302 -0.3944 -0.2490
 3249SOL     OW21382   3.282   3.123   5.655 -0.4806 -0.2669  0.3752
 3249SOL    HW121383   3.290   3.218   5.670  0.8696 -0.4677  0.9457
 3249SOL    HW221384   3.365   3.106   5.609 -1.7738 -0.8740 -1.7082
 3250SOL     OW21385   1.394   0.869   2.441 -0.6282 -0.5875  0.2605
 3250SOL    HW121386   1.468   0.826   2.483  0.2947  0.8465  0.0846
 3250SOL    HW221387   1.372   0.939   2.503  2.8315  1.3574 -0.7284
 3251SOL     OW21388   2.986   2.227   5.603 -0.4089 -0.3469 -0.1106
 3251SOL    HW121389   2.904   2.237   5.554  0.8037  1.7735 -1.7090
 3251SOL    HW221390   3.039   2.171   5.546 -0.2122 -0.8488  0.5681
 3252SOL     OW21391   1.412   1.483  14.738 -0.3745  0.4120 -0.9208
 3252SOL    HW121392   1.505   1.489  14.720 -0.0098  1.1144  1.2348
 3252SOL    HW221393   1.381   1.542  14.669 -0.6703 -0.6667 -1.7144
 3253SOL     OW21394   3.617   1.358   6.988 -0.1767  0.1165  0.2403
 3253SOL    HW121395   3.701   1.312   6.991  0.2667  0.8649 -0.6463
 3253SOL    HW221396   3.607   1.348   6.894 -0.7897 -0.7336  0.3950
 3254SOL     OW21397   2.277   0.142   9.856 -0.1172  0.2012 -0.5611
 3254SOL    HW121398   2.243   0.166   9.770  1.9925  1.5560 -1.0088
 3254SOL    HW221399   2.366   0.175   9.844  0.5184 -0.6675  1.7010
 3255SOL     OW21400   1.373   2.536   5.083  0.1948  0.3342  0.0166
 3255SOL    HW121401   1.343   2.596   5.151 -0.7151 -0.6841  0.5378
 3255SOL    HW221402   1.439   2.588   5.038  0.8437  1.0685  1.8305
 3256SOL     OW21403   3.988   2.550   7.608  0.0296 -0.1017 -0.0450
 3256SOL    HW121404   3.897   2.575   7.626 -0.1174 -2.1752  2.2333
 3256SOL    HW221405   3.986   2.540   7.513 -1.4555 -0.5673  0.0346
 3257SOL     OW21406   2.956   0.345   4.109 -0.4717  0.1429  0.2002
 3257SOL    HW121407   2.873   0.333   4.155 -0.1505 -0.0265  0.7446
 3257SOL    HW221408   3.009   0.384   4.179  2.1861 -2.9812 -0.1276
 3258SOL     OW21409   0.282   0.076  14.185 -0.3719 -0.5951  0.0033
 3258SOL    HW121410   0.229   0.138  14.135 -2.4159 -1.8528  0.6371
 3258SOL    HW221411   0.213   0.015  14.209 -1.2945  0.4981  0.1060
 3259SOL     OW21412   2.737   1.690   2.685  0.0673 -0.1997  0.2080
 3259SOL    HW121413   2.713   1.767   2.633 -0.7844 -0.9941 -0.5817
 3259SOL    HW221414   2.727   1.626   2.615  2.8287  0.1480 -0.4976
 3260SOL     OW21415   4.487   4.583   4.512  0.7970 -0.7014  0.2968
 3260SOL    HW121416   4.506   4.521   4.583  0.6252  1.3661  2.1636
 3260SOL    HW221417   4.564   4.639   4.519  0.4350 -0.0918 -0.6321
 3261SOL     OW21418   3.106   0.044   7.716  0.6736 -0.2452 -0.1563
 3261SOL    HW121419   3.059   4.717   7.771  2.4120 -0.9764  0.4964
 3261SOL    HW221420   3.029   0.101   7.708 -0.7343 -2.0600  0.3183
 3262SOL     OW21421   1.304   4.171  11.775 -1.2964 -0.2923  0.0285
 3262SOL    HW121422   1.309   4.256  11.731  2.3202 -0.5081  0.0328
 3262SOL    HW221423   1.397   4.167  11.797 -1.4982  0.0169  0.9643
 3263SOL     OW21424   3.509   3.190   6.278 -0.0228  0.6644 -0.4710
 3263SOL    HW121425   3.419   3.185   6.310  0.8302 -1.0961  1.5793
 3263SOL    HW221426   3.537   3.217   6.365  0.6849 -0.9287 -0.2049
 3264SOL     OW21427   0.947   0.667  12.078 -0.1976  0.4741 -0.0313
 3264SOL    HW121428   0.871   0.638  12.128 -0.9662 -0.3567 -1.6676
 3264SOL    HW221429   0.902   0.738  12.032 -1.2219  0.2657  0.6551
 3265SOL     OW21430   0.300   3.342   4.763 -0.3306  0.2991 -0.0650
 3265SOL    HW121431   0.319   3.333   4.669 -0.2281  1.9168 -0.1982
 3265SOL    HW221432   0.376   3.307   4.810 -0.5060 -0.3164 -0.2345
 3266SOL     OW21433   1.499   4.305   8.820  0.1897 -0.1389  0.3098
 3266SOL    HW121434   1.446   4.364   8.766  0.9694  0.8394  0.5995
 3266SOL    HW221435   1.424   4.257   8.855 -0.9185  0.6991 -0.8875
 3267SOL     OW21436   1.893   2.616  17.263  0.1693  0.2736 -0.2250
 3267SOL    HW121437   1.955   2.631  17.191 -0.7968 -0.1849 -1.1531
 3267SOL    HW221438   1.953   2.558  17.308 -2.6802 -2.3301  0.1969
 3268SOL     OW21439   4.381   1.793   1.373 -0.0079  0.7593 -0.0156
 3268SOL    HW121440   4.451   1.733   1.349 -0.7807  0.1684 -0.8064
 3268SOL    HW221441   4.418   1.874   1.337 -0.2134  0.1987 -1.5290
 3269SOL     OW21442   0.987   1.292   2.671  0.5062  0.3273 -0.4029
 3269SOL    HW121443   1.017   1.203   2.692 -1.9964 -0.0798  1.6044
 3269SOL    HW221444   1.017   1.342   2.747  1.5400 -0.3678 -0.3527
 3270SOL     OW21445   3.947   0.953   6.011  0.3974 -0.8757  0.4862
 3270SOL    HW121446   4.002   1.025   5.978 -0.0499 -0.1220  1.3809
 3270SOL    HW221447   3.960   0.949   6.106  0.0112 -2.4892  0.4703
 3271SOL     OW21448   4.548   0.317   3.582  0.5606 -0.9146  0.6341
 3271SOL    HW121449   4.620   0.331   3.643 -0.3931  2.2718  1.0281
 3271SOL    HW221450   4.592   0.266   3.515  0.3993 -1.5461  1.0134
 3272SOL     OW21451   2.191   0.708   7.727 -0.2413 -0.0921 -0.0196
 3272SOL    HW121452   2.239   0.739   7.804  1.2405  2.4462 -1.9965
 3272SOL    HW221453   2.105   0.746   7.742 -0.8077 -1.3183 -0.1061
 3273SOL     OW21454   1.672   1.011   9.648 -0.2365 -0.0973  0.1501
 3273SOL    HW121455   1.739   1.048   9.592 -0.3461  1.2845  0.9256
 3273SOL    HW221456   1.642   1.087   9.697 -0.4438  0.3390 -0.6584
 3274SOL     OW21457   1.815   0.152  10.092 -0.4220 -0.0660  0.2147
 3274SOL    HW121458   1.783   0.125  10.178 -0.6380  0.4874  0.3090
 3274SOL    HW221459   1.887   0.213  10.109  0.4328 -1.4886  1.8428
 3275SOL     OW21460   2.968   1.727   9.444 -0.5552  0.1355  1.0692
 3275SOL    HW121461   2.910   1.785   9.393  1.8382  1.8188  0.3000
 3275SOL    HW221462   3.053   1.724   9.400 -0.1420  1.7328  1.7591
 3276SOL     OW21463   0.836   2.007   6.951  0.1770 -0.0441  0.0306
 3276SOL    HW121464   0.905   1.984   7.014  1.3592  1.1400 -0.8312
 3276SOL    HW221465   0.857   2.095   6.919  1.0195  0.2255  1.3182
 3277SOL     OW21466   1.386   2.325  17.485 -0.0735 -0.0463  0.4459
 3277SOL    HW121467   1.412   2.400  17.538  2.9630 -1.8086  1.4854
 3277SOL    HW221468   1.466   2.274  17.502 -0.3489 -1.3274 -2.0693
 3278SOL     OW21469   2.260   1.920   9.750  0.3500 -0.0023 -0.1791
 3278SOL    HW121470   2.272   1.914   9.844 -1.1041 -1.3909 -0.0877
 3278SOL    HW221471   2.255   1.829   9.719 -2.4566  0.3560 -0.7210
 3279SOL     OW21472   1.976   3.340   6.864 -1.4090 -0.4393  0.1253
 3279SOL    HW121473   1.896   3.392   6.853 -0.0305  1.6065 -0.1143
 3279SOL    HW221474   1.945   3.271   6.923 -2.7071 -0.0389 -0.0856
 3280SOL     OW21475   4.501   1.092   2.283  0.7351  0.3407 -0.2046
 3280SOL    HW121476   4.470   1.167   2.233  1.8708  1.4453  0.7280
 3280SOL    HW221477   4.503   1.017   2.224  2.1859 -0.5019  0.9292
 3281SOL     OW21478   1.377   4.422   7.891  0.2426 -0.3062 -0.0495
 3281SOL    HW121479   1.441   4.395   7.825  0.0164  0.0438 -0.4128
 3281SOL    HW221480   1.436   4.434   7.965 -0.7745 -2.1788  1.0589
 3282SOL     OW21481   1.540   0.785   9.782 -0.5788 -0.2610 -0.0595
 3282SOL    HW121482   1.449   0.815   9.771 -0.8264 -0.6037  1.1001
 3282SOL    HW221483   1.594   0.843   9.728  0.0544  0.2413  1.1219
 3283SOL     OW21484   0.348   3.968   2.553  0.1066 -0.0838 -0.2351
 3283SOL    HW121485   0.279   3.901   2.553 -1.8126  1.9152  0.8951
 3283SOL    HW221486   0.407   3.925   2.491 -0.3727 -0.0789 -0.6999
 3284SOL     OW21487   4.265   3.337   6.419  0.2009  0.0027 -0.3158
 3284SOL    HW121488   4.340   3.285   6.388  1.4753  1.3055  0.5396
 3284SOL    HW221489   4.208   3.273   6.461 -0.5903 -0.2520 -1.8013
 3285SOL     OW21490   3.907   0.374   7.822  0.3275  0.6241  0.3765
 3285SOL    HW121491   3.954   0.302   7.781  3.0292  2.2713  0.6132
 3285SOL    HW221492   3.984   0.405   7.868  0.5659  1.7835 -0.8034
 3286SOL     OW21493   4.669   1.013   4.157 -0.1650  0.5735  0.2049
 3286SOL    HW121494   4.580   0.978   4.168 -0.1427  0.5124  0.1939
 3286SOL    HW221495   4.713   0.948   4.211  0.5460 -0.9078 -2.1171
 3287SOL     OW21496   1.592   3.142   3.274  0.5153  0.2304  0.9639
 3287SOL    HW121497   1.523   3.201   3.244  0.0655  0.0357  1.6229
 3287SOL    HW221498   1.537   3.072   3.310 -2.1959  1.4801 -0.7886
 3288SOL     OW21499   0.154   3.730  14.598  0.4030  0.4933  0.2321
 3288SOL    HW121500   0.130   3.646  14.560 -1.9045  1.1503  0.2444
 3288SOL    HW221501   0.243   3.713  14.630  1.2716  0.3832 -2.2876
 3289SOL     OW21502   0.090   1.226   6.020  0.0324 -0.1479 -0.1243
 3289SOL    HW121503   0.126   1.137   6.028  2.1086  0.9282  2.3468
 3289SOL    HW221504   0.109   1.258   6.108  0.8584  3.4876 -1.6418
 3290SOL     OW21505   4.494   3.458  15.254 -0.6031  0.1324  0.1092
 3290SOL    HW121506   4.531   3.369  15.253  1.8082  1.1281  0.7270
 3290SOL    HW221507   4.544   3.499  15.325  2.3345 -0.0736 -1.8345
 3291SOL     OW21508   0.447   1.981   1.381  0.3465 -0.3644 -0.1255
 3291SOL    HW121509   0.360   1.944   1.393 -0.8382  1.9442 -1.6350
 3291SOL    HW221510   0.438   2.056   1.440 -0.2222  0.2000 -0.9233
 3292SOL     OW21511   3.427   0.514   5.565  0.3129  0.7494  0.1778
 3292SOL    HW121512   3.370   0.588   5.586  0.6558  1.1508 -0.2861
 3292SOL    HW221513   3.516   0.541   5.588 -0.1650  2.3026  0.2458
 3293SOL     OW21514   2.725   0.419  16.468  0.3675 -0.2344  0.6286
 3293SOL    HW121515   2.753   0.481  16.535 -1.3784  1.8999 -0.6176
 3293SOL    HW221516   2.675   0.355  16.518 -2.3190  0.2746 -1.3862
 3294SOL     OW21517   4.204   3.585   4.024  0.7340 -0.6330 -0.1693
 3294SOL    HW121518   4.220   3.528   4.099 -0.4023 -0.3482  0.2847
 3294SOL    HW221519   4.110   3.589   4.037  0.6957  0.7671 -0.8575
 3295SOL     OW21520   1.460   1.481   2.214  0.0583 -0.0619 -0.2032
 3295SOL    HW121521   1.447   1.404   2.270 -3.0476  0.5132 -0.1355
 3295SOL    HW221522   1.375   1.519   2.239 -0.0443 -0.2064 -0.3327
 3296SOL     OW21523   2.743   0.367   5.016  0.7158  0.1796 -0.0554
 3296SOL    HW121524   2.702   0.383   5.100  2.0871 -1.4805  0.9453
 3296SOL    HW221525   2.747   0.271   5.008  0.5070  0.3533 -2.2224
 3297SOL     OW21526   1.604   1.428  12.472 -0.0902  0.3257 -0.2471
 3297SOL    HW121527   1.567   1.342  12.458 -0.7371  0.3650  1.1957
 3297SOL    HW221528   1.629   1.426  12.565 -0.0937 -0.3913 -0.2644
 3298SOL     OW21529   0.830   0.923   8.885 -0.1063 -0.1467 -0.4671
 3298SOL    HW121530   0.856   0.917   8.793  4.0116  1.6468  0.6058
 3298SOL    HW221531   0.838   1.017   8.902  0.3827 -0.2559 -0.1115
 3299SOL     OW21532   2.345   1.693  17.267  0.1168 -0.0628 -0.3278
 3299SOL    HW121533   2.275   1.744  17.308  0.7298  0.2688  0.2886
 3299SOL    HW221534   2.360   1.632  17.339 -0.5954 -0.9671 -0.9507
 3300SOL     OW21535   0.608   2.758   1.617 -0.1973 -0.0051 -0.0492
 3300SOL    HW121536   0.540   2.700   1.582 -0.4374 -0.0392  0.4734
 3300SOL    HW221537   0.661   2.746   1.538  1.6202 -0.4009  1.2236
 3301SOL     OW21538   3.341   0.269   4.617  0.0934 -0.1515  0.5540
 3301SOL    HW121539   3.319   0.197   4.677  0.1345 -0.5215  0.1208
 3301SOL    HW221540   3.319   0.345   4.671 -1.0420 -1.1202  1.4499
 3302SOL     OW21541   1.204   2.938   3.168 -0.2221  0.6287 -0.1283
 3302SOL    HW121542   1.210   2.959   3.261  0.8859 -1.1249  0.1871
 3302SOL    HW221543   1.148   3.013   3.146 -0.2143  0.8540  0.6297
 3303SOL     OW21544   1.465   2.922   3.404  0.0723  0.1231 -0.1965
 3303SOL    HW121545   1.541   2.872   3.433  0.1227  0.7140  0.6591
 3303SOL    HW221546   1.411   2.929   3.482 -0.5455  2.2646 -0.8304
 3304SOL     OW21547   2.042   2.621   4.214 -0.1637  0.0611  0.0945
 3304SOL    HW121548   1.955   2.582   4.225  0.6517 -1.0612  2.7233
 3304SOL    HW221549   2.014   2.712   4.209 -1.0921 -0.1962  0.5053
 3305SOL     OW21550   1.905   1.102   9.800 -0.1116 -0.7476  0.5870
 3305SOL    HW121551   1.933   1.030   9.744 -3.4683 -0.6539 -1.2185
 3305SOL    HW221552   1.848   1.057   9.862  0.2832  0.6295  1.9456
 3306SOL     OW21553   1.618   2.619   7.444 -0.0497  0.4407 -0.0210
 3306SOL    HW121554   1.634   2.527   7.465  2.4357  0.6635 -0.8848
 3306SOL    HW221555   1.559   2.610   7.369 -0.3634 -0.2889  0.3199
 3307SOL     OW21556   3.676   0.371   3.189 -0.0843 -0.0416  0.0837
 3307SOL    HW121557   3.605   0.376   3.253  0.2358  1.6885  0.2839
 3307SOL    HW221558   3.634   0.309   3.129  3.8000 -0.5441 -2.1063
 3308SOL     OW21559   2.048   4.037   4.188 -0.3289 -0.1186  0.1182
 3308SOL    HW121560   2.124   4.038   4.130  0.7529 -0.0531  1.5034
 3308SOL    HW221561   2.074   4.088   4.266 -0.3185  0.0890 -0.0216
 3309SOL     OW21562   4.409   4.214  11.179  0.1649  0.4272 -0.1817
 3309SOL    HW121563   4.498   4.208  11.144  0.1454  1.4642 -0.4237
 3309SOL    HW221564   4.425   4.282  11.245 -0.2907  1.3559 -1.0236
 3310SOL     OW21565   0.266   3.287   2.784  0.9649  0.3128 -0.4430
 3310SOL    HW121566   0.230   3.218   2.728  0.1329  0.7996 -0.5086
 3310SOL    HW221567   0.220   3.284   2.868  0.2369 -0.5599 -0.8743
 3311SOL     OW21568   0.497   1.902   1.744 -0.0106  0.3216  0.3298
 3311SOL    HW121569   0.579   1.948   1.726 -0.3155 -0.5700 -3.2295
 3311SOL    HW221570   0.474   1.918   1.836  1.0751 -1.4964  0.9060
 3312SOL     OW21571   0.712   1.052   4.218 -0.3037  0.0383 -0.6447
 3312SOL    HW121572   0.687   0.962   4.241 -1.7966  0.5574 -0.2937
 3312SOL    HW221573   0.660   1.067   4.140 -1.6200 -2.6894 -0.3008
 3313SOL     OW21574   1.691   2.239   4.511  0.3735  0.3784  0.0994
 3313SOL    HW121575   1.682   2.148   4.539  1.0523  0.2566 -0.0837
 3313SOL    HW221576   1.635   2.281   4.576  2.6015  2.3995  0.6831
 3314SOL     OW21577   2.292   2.511  15.950 -0.7587 -0.2428  0.3876
 3314SOL    HW121578   2.334   2.535  16.032 -1.4025  2.1044  0.0371
 3314SOL    HW221579   2.329   2.424  15.934  0.8687  0.2978  1.1969
 3315SOL     OW21580   0.914   0.192  10.891 -0.2342  0.2722  0.0320
 3315SOL    HW121581   0.945   0.103  10.877 -2.8406 -0.5534 -0.3761
 3315SOL    HW221582   0.994   0.229  10.927  0.0591  0.5226 -0.8643
 3316SOL     OW21583   2.766   3.396   7.372 -0.3197  0.3455  0.0158
 3316SOL    HW121584   2.711   3.318   7.356  1.3844 -0.9088  0.3475
 3316SOL    HW221585   2.724   3.451   7.438 -0.4049  0.0774  0.1841
 3317SOL     OW21586   2.925   3.791   2.588  0.0163  0.5659 -0.3752
 3317SOL    HW121587   2.834   3.767   2.603 -0.4917  2.6150 -0.1244
 3317SOL    HW221588   2.966   3.732   2.525 -1.3176  0.5668 -1.2432
 3318SOL     OW21589   2.826   0.559  16.696 -0.2352  0.1274 -0.6402
 3318SOL    HW121590   2.835   0.622  16.767 -0.2837  0.6188 -1.0676
 3318SOL    HW221591   2.898   0.504  16.727 -1.3522 -0.0785  1.5156
 3319SOL     OW21592   2.177   4.357   5.950  0.3411  0.0685 -0.1202
 3319SOL    HW121593   2.121   4.368   6.026 -1.6259  0.2944 -1.6057
 3319SOL    HW221594   2.154   4.428   5.890 -2.0794 -1.8290 -1.4282
 3320SOL     OW21595   1.033   1.136  16.940 -0.3067  0.5316  0.0321
 3320SOL    HW121596   1.023   1.223  16.979  2.1254  0.0039  1.8089
 3320SOL    HW221597   1.105   1.156  16.880  0.4097 -1.2841  0.2844
 3321SOL     OW21598   1.088   0.076   7.066 -0.1077  0.0982  0.0960
 3321SOL    HW121599   1.162   0.121   7.108 -0.9971  1.3107  0.3456
 3321SOL    HW221600   1.085   4.731   7.117 -0.0168  1.0886  1.6783
 3322SOL     OW21601   0.139   2.638  15.191 -0.5636 -0.5307  0.2417
 3322SOL    HW121602   0.107   2.679  15.271  2.8179  0.1133  1.2377
 3322SOL    HW221603   0.146   2.548  15.221 -0.4978  0.1977  2.4181
 3323SOL     OW21604   3.808   4.309   0.132 -0.6533  0.0535  0.0306
 3323SOL    HW121605   3.825   4.304   0.227 -1.4661  4.5657  0.4367
 3323SOL    HW221606   3.887   4.263   0.104 -0.5904  0.7252 -0.8798
 3324SOL     OW21607   4.287   1.472   5.734 -0.6061  0.1768  0.3751
 3324SOL    HW121608   4.219   1.454   5.669  0.0843 -0.3482 -0.1979
 3324SOL    HW221609   4.319   1.384   5.753 -1.3567 -0.7664 -2.8596
 3325SOL     OW21610   0.196   3.218  17.321 -0.2081 -0.3045 -0.1735
 3325SOL    HW121611   0.236   3.294  17.279 -1.7959  0.9448  0.5896
 3325SOL    HW221612   0.147   3.254  17.395 -1.3341  0.2893 -1.2163
 3326SOL     OW21613   2.795   2.904  16.401  0.6143 -0.2953 -0.0431
 3326SOL    HW121614   2.831   2.869  16.320 -2.0715 -2.2567 -0.3898
 3326SOL    HW221615   2.709   2.929  16.368  0.0175 -0.1694  1.6090
 3327SOL     OW21616   1.384   1.582   6.289 -0.4575  0.3785 -0.2224
 3327SOL    HW121617   1.390   1.594   6.384 -1.5794  2.5207 -0.4235
 3327SOL    HW221618   1.293   1.553   6.287 -0.1881 -0.2701 -2.8270
 3328SOL     OW21619   3.210   4.103   9.847 -0.7016 -0.3269  0.0261
 3328SOL    HW121620   3.141   4.090   9.912 -1.7029  2.1556 -0.5201
 3328SOL    HW221621   3.260   4.173   9.889 -0.5923  0.3684 -1.2448
 3329SOL     OW21622   1.754   0.210   4.927 -0.1425  0.1345  0.1835
 3329SOL    HW121623   1.790   0.148   4.991  0.5225 -0.5512 -0.8491
 3329SOL    HW221624   1.660   0.212   4.944  0.0587 -1.6708  1.6053
 3330SOL     OW21625   2.074   2.079   5.728 -0.6414 -0.4709 -0.4546
 3330SOL    HW121626   2.015   2.107   5.657 -1.3800 -0.7679  0.0512
 3330SOL    HW221627   2.110   2.165   5.752 -1.7443 -0.7190  2.0077
 3331SOL     OW21628   1.605   4.259   9.575 -0.7752  0.7000 -0.1255
 3331SOL    HW121629   1.645   4.330   9.525 -0.6594 -0.5006 -1.7586
 3331SOL    HW221630   1.677   4.252   9.638 -1.0151 -1.6740 -0.1197
 3332SOL     OW21631   0.887   1.716   5.697  0.3192  0.0673  0.0519
 3332SOL    HW121632   0.878   1.696   5.790 -0.6205 -0.2819 -0.1086
 3332SOL    HW221633   0.836   1.796   5.686 -0.7590 -0.8160 -1.4347
 3333SOL     OW21634   2.142   0.516   1.692 -0.0846 -0.0751 -0.7146
 3333SOL    HW121635   2.176   0.604   1.704 -0.5067  0.1687 -1.2724
 3333SOL    HW221636   2.217   0.480   1.645 -0.3901 -0.0925 -1.1940
 3334SOL     OW21637   4.008   2.540   0.585  0.5944  0.1785  0.1136
 3334SOL    HW121638   3.967   2.527   0.670  1.2127  0.9841  0.5294
 3334SOL    HW221639   4.009   2.455   0.540  0.8576  0.6579 -0.7964
 3335SOL     OW21640   1.830   0.621   2.751  0.0561 -0.2546  0.7389
 3335SOL    HW121641   1.886   0.572   2.690  0.5385  1.5151 -0.2350
 3335SOL    HW221642   1.886   0.671   2.810  0.7173 -1.4018  1.0842
 3336SOL     OW21643   1.201   4.403   2.751  0.0788  0.5774 -0.1657
 3336SOL    HW121644   1.238   4.416   2.837 -2.1147 -0.1609  0.9022
 3336SOL    HW221645   1.264   4.340   2.716 -0.8558  0.6341 -1.9710
 3337SOL     OW21646   4.296   2.550   2.113  0.1057 -0.0198  0.1084
 3337SOL    HW121647   4.335   2.615   2.171  1.4920 -0.7233 -0.0307
 3337SOL    HW221648   4.285   2.475   2.172 -2.5264 -0.2273 -0.6362
 3338SOL     OW21649   2.410   3.029   5.463 -0.2799  0.4051  0.1534
 3338SOL    HW121650   2.411   3.072   5.549 -0.8749  2.3776 -0.8156
 3338SOL    HW221651   2.316   3.021   5.447 -0.5332 -0.4013  2.1181
 3339SOL     OW21652   0.751   3.713   7.979  0.7015  0.4936 -0.3586
 3339SOL    HW121653   0.812   3.640   7.969  1.3826  0.9799  0.2101
 3339SOL    HW221654   0.708   3.691   8.061 -0.3020  0.5712 -0.8643
 3340SOL     OW21655   0.415   3.519  13.319  0.6641 -0.2244 -0.5677
 3340SOL    HW121656   0.488   3.518  13.257  1.8379  0.5045  0.8271
 3340SOL    HW221657   0.420   3.609  13.351 -1.5080  0.2232 -1.4758
 3341SOL     OW21658   1.583   0.942   8.058 -0.4273  0.4010  0.0404
 3341SOL    HW121659   1.650   0.967   7.994  1.0321 -0.4305  1.2487
 3341SOL    HW221660   1.508   0.913   8.006  0.6370 -2.3504  0.0351
 3342SOL     OW21661   3.921   2.883  10.192 -0.5756  0.3122  0.9347
 3342SOL    HW121662   3.866   2.877  10.114  0.0591  0.3243  0.4859
 3342SOL    HW221663   3.861   2.881  10.266  0.2731 -3.8920  1.5458
 3343SOL     OW21664   3.854   0.322   6.613 -0.1608  0.3270  0.1051
 3343SOL    HW121665   3.767   0.288   6.636  1.4859 -1.4951  3.6168
 3343SOL    HW221666   3.844   0.389   6.545 -2.1603  1.2223  1.2928
 3344SOL     OW21667   4.095   2.456   1.974  0.4672  0.3538 -0.2098
 3344SOL    HW121668   4.150   2.431   1.899  1.8507  0.8985  0.6332
 3344SOL    HW221669   4.164   2.503   2.020 -0.6573 -0.1926  2.0315
 3345SOL     OW21670   2.658   4.016   8.826  0.3891 -0.3146  0.3059
 3345SOL    HW121671   2.567   3.998   8.846 -0.2811  2.5435 -0.0807
 3345SOL    HW221672   2.705   3.944   8.867 -0.9347 -0.8840  0.8135
 3346SOL     OW21673   4.268   3.369   0.061  0.0404 -0.0230 -0.0333
 3346SOL    HW121674   4.287   3.284   0.100 -0.2559 -0.2686 -0.4257
 3346SOL    HW221675   4.174   3.355   0.069  0.1369 -0.4938  0.2967
 3347SOL     OW21676   2.323   0.213   3.070 -0.9804  0.2973  0.0381
 3347SOL    HW121677   2.412   0.227   3.103 -0.7431  1.3123 -1.0532
 3347SOL    HW221678   2.294   0.166   3.149  0.2635 -2.6111 -1.2249
 3348SOL     OW21679   2.676   1.701   6.206  0.1947 -1.1771 -0.4681
 3348SOL    HW121680   2.590   1.665   6.227 -1.7332  3.1310 -0.9155
 3348SOL    HW221681   2.731   1.675   6.279  0.8633 -0.4926 -0.7307
 3349SOL     OW21682   3.252   4.525  10.159 -0.1952 -0.0214 -0.4833
 3349SOL    HW121683   3.301   4.602  10.132  1.6661 -0.2307  2.2481
 3349SOL    HW221684   3.192   4.558  10.226 -0.6991  0.3912 -1.1521
 3350SOL     OW21685   2.319   3.871   2.019  0.6293  0.1871  0.1599
 3350SOL    HW121686   2.363   3.855   1.935  0.1702  0.1435 -0.0701
 3350SOL    HW221687   2.295   3.784   2.051  0.0454  1.4067  3.0138
 3351SOL     OW21688   1.493   2.787   7.821 -0.0405  0.2147  0.3775
 3351SOL    HW121689   1.490   2.692   7.838  1.1320  0.0446 -0.3829
 3351SOL    HW221690   1.515   2.787   7.728 -1.0622 -0.5826  0.1223
 3352SOL     OW21691   2.568   0.243  13.782 -0.1987 -0.0262 -0.2557
 3352SOL    HW121692   2.477   0.247  13.811 -0.4091  1.0133 -1.0214
 3352SOL    HW221693   2.611   0.314  13.829  0.2974 -0.8937  0.5825
 3353SOL     OW21694   0.255   4.451  11.344 -0.6059  0.0681 -0.2416
 3353SOL    HW121695   0.189   4.413  11.286 -0.8108 -0.5472  0.3953
 3353SOL    HW221696   0.286   4.381  11.402 -0.2285  0.7636  0.3846
 3354SOL     OW21697   3.440   3.824   6.881  0.1413 -0.7128 -0.5000
 3354SOL    HW121698   3.399   3.908   6.902 -1.3165 -1.4561 -0.3529
 3354SOL    HW221699   3.386   3.772   6.941 -1.3598  4.5626  2.7576
 3355SOL     OW21700   0.929   1.809   3.618 -0.5158 -0.2286  0.3764
 3355SOL    HW121701   0.873   1.734   3.598 -1.8636  1.1999 -1.2225
 3355SOL    HW221702   0.982   1.784   3.693 -1.3673  0.5298  1.2245
 3356SOL     OW21703   2.330   1.221   4.103 -0.6555 -0.1825 -0.2964
 3356SOL    HW121704   2.325   1.286   4.033  1.4979 -0.3259 -0.5774
 3356SOL    HW221705   2.398   1.157   4.083 -0.4346 -0.0067 -0.1090
 3357SOL     OW21706   1.710   1.030   5.997 -0.0265 -0.8706  0.2389
 3357SOL    HW121707   1.671   1.018   5.910  1.7957  3.1669 -1.1633
 3357SOL    HW221708   1.767   1.106   5.981 -0.1340 -1.3589 -2.4061
 3358SOL     OW21709   3.520   4.340  11.224  0.0326 -0.0697  0.3765
 3358SOL    HW121710   3.547   4.397  11.297  0.4116  1.4810 -0.9770
 3358SOL    HW221711   3.556   4.398  11.157  0.5168 -0.2388  0.4867
 3359SOL     OW21712   0.469   2.431   2.274 -0.3812  0.2431 -0.1982
 3359SOL    HW121713   0.407   2.436   2.201 -0.8386 -2.0342  0.0320
 3359SOL    HW221714   0.544   2.415   2.216  0.2780 -1.3096  1.0811
 3360SOL     OW21715   1.269   4.424   4.595 -0.1955 -0.0270 -0.4399
 3360SOL    HW121716   1.190   4.391   4.638 -0.4766 -0.3984 -1.2401
 3360SOL    HW221717   1.286   4.346   4.542 -0.8078 -0.4022 -0.0851
 3361SOL     OW21718   2.836   2.159  13.122  0.0350 -0.5966 -0.2409
 3361SOL    HW121719   2.831   2.070  13.088  0.0208 -0.5687 -0.3134
 3361SOL    HW221720   2.895   2.147  13.196 -0.4914  0.2074  0.3078
 3362SOL     OW21721   1.402   4.571  11.075  0.1710 -0.3601  0.0779
 3362SOL    HW121722   1.489   4.611  11.068 -0.2165  0.5685  0.6176
 3362SOL    HW221723   1.353   4.624  11.012  0.7472  0.1575  0.0606
 3363SOL     OW21724   2.068   0.698  10.157 -0.4817  0.0344  0.1104
 3363SOL    HW121725   2.017   0.747  10.222  0.0621  0.0637  0.5248
 3363SOL    HW221726   2.069   0.754  10.079 -0.7459  0.2301  0.2472
 3364SOL     OW21727   0.543   4.302  14.678  0.2675 -0.9093 -0.5739
 3364SOL    HW121728   0.628   4.335  14.708  1.3575 -4.5564  0.3067
 3364SOL    HW221729   0.517   4.375  14.622 -1.0189 -0.3686  0.7506
 3365SOL     OW21730   4.650   0.290   1.125 -0.4670 -0.2029 -0.3211
 3365SOL    HW121731   4.613   0.325   1.044  1.5963  1.6655 -0.4750
 3365SOL    HW221732   4.582   0.236   1.163  0.2843 -0.0977  1.1582
 3366SOL     OW21733   0.276   2.902   3.468 -0.4155  0.4227  0.2883
 3366SOL    HW121734   0.193   2.940   3.498 -1.0678  0.9627 -2.2172
 3366SOL    HW221735   0.342   2.967   3.492  0.3733 -0.6477  1.0490
 3367SOL     OW21736   0.733   2.263   3.750  0.2928 -0.1401  0.1089
 3367SOL    HW121737   0.761   2.188   3.699 -2.2363 -1.5778  0.8518
 3367SOL    HW221738   0.639   2.273   3.734  0.7159  1.7573 -1.2236
 3368SOL     OW21739   1.563   1.546  17.676 -0.2710 -0.4385  0.1064
 3368SOL    HW121740   1.592   1.637  17.680  0.4287 -0.6408 -0.3839
 3368SOL    HW221741   1.619   1.503  17.741  0.2527 -0.1116 -0.1235
 3369SOL     OW21742   2.664   2.148  13.749 -0.1868  0.9621  0.1181
 3369SOL    HW121743   2.624   2.214  13.806  0.5985  3.3941 -2.1693
 3369SOL    HW221744   2.600   2.076  13.752 -0.6153  1.2786 -1.5880
 3370SOL     OW21745   1.358   1.228  11.777  0.3602 -0.0876 -0.1515
 3370SOL    HW121746   1.405   1.153  11.740  1.1458 -0.0183  0.7333
 3370SOL    HW221747   1.315   1.180  11.848  1.2826  0.2958  0.6477
 3371SOL     OW21748   3.932   3.441   8.021  0.1104 -0.1071 -0.4404
 3371SOL    HW121749   3.916   3.514   7.962 -2.5808 -2.3402 -2.4427
 3371SOL    HW221750   4.018   3.404   7.999 -1.0052 -2.0575 -1.4943
 3372SOL     OW21751   3.465   2.539   4.980 -0.2930  0.1103 -0.7928
 3372SOL    HW121752   3.456   2.444   4.987  1.0955  0.0035 -0.3067
 3372SOL    HW221753   3.376   2.550   5.013 -0.0640  2.2368 -0.9249
 3373SOL     OW21754   2.681   2.532   2.069  0.1916  0.5229 -0.1723
 3373SOL    HW121755   2.702   2.585   2.145 -1.5113  1.2116 -0.1665
 3373SOL    HW221756   2.610   2.486   2.114  2.7658 -1.3479  1.9122
 3374SOL     OW21757   0.892   3.332   5.445 -0.4288 -0.6543  0.4405
 3374SOL    HW121758   0.805   3.312   5.409 -0.3355  1.9354 -1.2495
 3374SOL    HW221759   0.859   3.410   5.488  3.0603  0.9104  0.2312
 3375SOL     OW21760   2.213   0.451  13.069 -0.6157 -0.1368 -0.6097
 3375SOL    HW121761   2.243   0.538  13.095  0.7136 -0.1399 -2.1165
 3375SOL    HW221762   2.123   0.468  13.099 -0.6047  0.7202 -1.0421
 3376SOL     OW21763   4.127   2.773   7.057  0.1810 -0.1433 -0.3637
 3376SOL    HW121764   4.129   2.868   7.066 -0.4598 -0.0393 -1.3859
 3376SOL    HW221765   4.214   2.745   7.087  0.5576  1.5629  0.1214
 3377SOL     OW21766   4.399   2.338   3.491  0.2804 -0.5666  0.0286
 3377SOL    HW121767   4.370   2.249   3.511  2.3987 -1.8357 -2.5808
 3377SOL    HW221768   4.445   2.330   3.408  1.3529  2.0975  0.3596
 3378SOL     OW21769   0.956   2.877  10.253 -0.4595  0.4323  0.4560
 3378SOL    HW121770   0.871   2.845  10.280 -1.1125 -0.3272 -2.4790
 3378SOL    HW221771   0.915   2.947  10.202 -1.1013  0.1188  0.5424
 3379SOL     OW21772   3.501   0.664   5.918 -0.0763 -0.1285 -0.0953
 3379SOL    HW121773   3.567   0.599   5.941 -0.0936 -0.4196 -0.8891
 3379SOL    HW221774   3.563   0.730   5.886  0.5528 -1.4138 -1.5092
 3380SOL     OW21775   3.190   0.904  16.153  0.0158  0.0638  0.2667
 3380SOL    HW121776   3.168   0.966  16.222  1.3786  1.1189 -0.2518
 3380SOL    HW221777   3.285   0.894  16.163  0.2475  1.5428 -0.4300
 3381SOL     OW21778   2.194   4.726   6.220  0.3150 -0.2841 -0.6473
 3381SOL    HW121779   2.110   0.016   6.259  1.1430  0.6922  0.4711
 3381SOL    HW221780   2.227   4.682   6.299 -0.2839 -2.4515 -1.6268
 3382SOL     OW21781   0.480   0.424   5.911  0.2691 -0.5573  0.3074
 3382SOL    HW121782   0.417   0.442   5.980  0.1648 -0.8421  0.2855
 3382SOL    HW221783   0.476   0.505   5.859  2.5560 -0.2148  0.6733
 3383SOL     OW21784   2.638   4.051   4.665 -0.1279 -0.4961  0.4325
 3383SOL    HW121785   2.696   4.078   4.593 -0.2335  1.3657  1.0499
 3383SOL    HW221786   2.561   4.107   4.656  0.3053 -0.0176 -0.3669
 3384SOL     OW21787   2.382   2.545  14.313 -0.2139  0.2192  0.2206
 3384SOL    HW121788   2.347   2.600  14.383 -4.4247  0.5434 -2.2127
 3384SOL    HW221789   2.392   2.609  14.243  0.7598 -0.9055 -0.6661
 3385SOL     OW21790   3.886   1.377   5.679  0.0757 -0.1922 -0.4755
 3385SOL    HW121791   3.968   1.403   5.637  0.2479 -2.0913 -1.3193
 3385SOL    HW221792   3.829   1.416   5.613  0.5770  2.3722  0.6097
 3386SOL     OW21793   3.028   2.064   3.295 -0.5632  0.3423  0.1888
 3386SOL    HW121794   2.958   2.095   3.237  1.8161  2.5356 -1.5362
 3386SOL    HW221795   2.975   2.016   3.359  1.7406 -1.5101  0.6999
 3387SOL     OW21796   3.389   4.177  17.111 -0.1367 -0.6648 -0.4628
 3387SOL    HW121797   3.428   4.264  17.098 -2.4940  0.5772  0.8029
 3387SOL    HW221798   3.363   4.196  17.201  2.9250  0.3795  0.2178
 3388SOL     OW21799   4.529   0.480   4.129 -0.7397 -0.0449 -0.1563
 3388SOL    HW121800   4.603   0.537   4.109 -0.5122  0.3971  1.9433
 3388SOL    HW221801   4.496   0.523   4.207  0.1464 -0.5993  0.5343
 3389SOL     OW21802   0.381   3.644  15.884 -0.0093  0.3948  0.1831
 3389SOL    HW121803   0.413   3.595  15.960 -2.7492 -1.0238  0.4312
 3389SOL    HW221804   0.427   3.597  15.815  0.0354  1.1294 -0.2853
 3390SOL     OW21805   0.685   1.976   3.959 -0.3935 -0.1159 -0.1583
 3390SOL    HW121806   0.636   1.939   4.033 -1.0742 -2.3400 -1.7181
 3390SOL    HW221807   0.613   2.008   3.905  0.5641  2.3961  0.0736
 3391SOL     OW21808   0.139   3.860   4.979 -0.0885 -0.7003 -0.0159
 3391SOL    HW121809   0.151   3.835   5.071 -1.8241 -1.1044  0.0903
 3391SOL    HW221810   0.044   3.864   4.977 -0.2024 -2.4878  1.5946
 3392SOL     OW21811   3.416   2.034   1.973 -0.7345  0.8949  0.7311
 3392SOL    HW121812   3.374   2.036   2.059 -1.2695  3.3729  0.4008
 3392SOL    HW221813   3.500   1.993   1.993  0.1060  1.3354 -1.8419
 3393SOL     OW21814   3.769   3.818   3.232 -0.3647 -0.4470 -0.6116
 3393SOL    HW121815   3.724   3.734   3.240  0.4042 -0.8661 -0.7197
 3393SOL    HW221816   3.705   3.889   3.235  0.9788  0.8284 -2.2285
 3394SOL     OW21817   1.261   0.629   5.112 -0.4598 -0.2341  0.0013
 3394SOL    HW121818   1.230   0.712   5.076  2.2699  0.9485  0.4292
 3394SOL    HW221819   1.174   0.609   5.149  0.3283 -1.9514  0.9386
 3395SOL     OW21820   3.845   3.246   1.210 -0.2430 -0.0501 -0.3063
 3395SOL    HW121821   3.751   3.233   1.221 -0.4771  3.1175  1.4408
 3395SOL    HW221822   3.862   3.236   1.116 -1.0313  0.5278 -0.5101
 3396SOL     OW21823   3.548   4.454   6.353 -0.0924 -0.4389  0.2399
 3396SOL    HW121824   3.632   4.460   6.308  0.9493  2.4698  2.5260
 3396SOL    HW221825   3.555   4.381   6.414  0.9696  0.1197  0.7800
 3397SOL     OW21826   2.295   4.655  11.346 -0.0056 -0.2958 -0.0646
 3397SOL    HW121827   2.370   4.610  11.307  0.5358 -0.6762  1.4109
 3397SOL    HW221828   2.250   4.587  11.395 -0.5652  1.3873  1.7860
 3398SOL     OW21829   4.039   1.881   7.816  0.4777  0.0861  0.4559
 3398SOL    HW121830   4.044   1.976   7.825  1.4784 -0.1027  1.9209
 3398SOL    HW221831   4.113   1.852   7.762  0.5901  0.1418  0.5801
 3399SOL     OW21832   0.614   1.018  13.676 -0.0178  0.3612  0.0899
 3399SOL    HW121833   0.545   0.953  13.695  0.4187 -0.3418 -0.7154
 3399SOL    HW221834   0.587   1.105  13.705  1.6505  1.0792 -0.5405
 3400SOL     OW21835   1.192   0.006   8.070 -0.0713  0.3313  0.1508
 3400SOL    HW121836   1.231   0.092   8.087 -0.3887  0.4129  0.4674
 3400SOL    HW221837   1.248   4.718   7.996 -1.2128 -0.4489 -0.4692
 3401SOL     OW21838   0.532   3.807  15.617 -0.0465 -0.0831 -0.5860
 3401SOL    HW121839   0.587   3.800  15.539  1.2128 -2.7786  0.5093
 3401SOL    HW221840   0.560   3.724  15.656  2.3390  0.5171 -1.0094
 3402SOL     OW21841   1.154   0.792   3.673 -0.2467  0.2667 -0.1937
 3402SOL    HW121842   1.113   0.740   3.604 -0.2672 -2.4394  1.8485
 3402SOL    HW221843   1.101   0.781   3.752 -0.3642 -0.3564 -0.3593
 3403SOL     OW21844   2.695   2.125   4.313  0.0630 -0.1338 -0.2775
 3403SOL    HW121845   2.620   2.108   4.370 -0.2022 -0.6453 -0.7744
 3403SOL    HW221846   2.711   2.038   4.275  0.7950 -0.0023 -0.2556
 3404SOL     OW21847   2.141   2.033   2.104 -0.1915  0.1498  0.2334
 3404SOL    HW121848   2.052   2.052   2.135 -0.8146 -0.0937 -1.3974
 3404SOL    HW221849   2.119   1.965   2.040 -4.1461 -1.7018  3.5190
 3405SOL     OW21850   2.243   2.694   4.422 -0.0661  0.3647  0.0744
 3405SOL    HW121851   2.187   2.642   4.366  0.3228 -0.1265  0.1416
 3405SOL    HW221852   2.281   2.625   4.477 -0.5171 -1.1942 -1.6103
 3406SOL     OW21853   2.263   1.805   3.876 -0.9419 -0.1536  0.0483
 3406SOL    HW121854   2.197   1.856   3.829  0.2245 -0.0723 -1.5067
 3406SOL    HW221855   2.247   1.844   3.962  1.9142 -0.3270  0.6479
 3407SOL     OW21856   3.791   4.719   1.256  0.0560  0.0860 -0.1065
 3407SOL    HW121857   3.722   0.020   1.200 -1.1976 -1.9698  0.0539
 3407SOL    HW221858   3.790   0.057   1.317 -0.6564  0.1169 -0.1472
 3408SOL     OW21859   2.637   3.714   3.490  0.4303 -0.2783  0.4131
 3408SOL    HW121860   2.681   3.791   3.525  0.6768 -1.6166  3.0411
 3408SOL    HW221861   2.683   3.712   3.406  1.2845 -1.6221  0.9172
 3409SOL     OW21862   1.856   3.865  16.161  0.1911  0.2009  0.2360
 3409SOL    HW121863   1.909   3.785  16.170  2.1080  1.1700 -2.3699
 3409SOL    HW221864   1.791   3.827  16.102  1.3106 -2.2147  0.5408
 3410SOL     OW21865   3.818   2.924   4.091  0.0491  0.3579  0.0051
 3410SOL    HW121866   3.821   2.981   4.014  1.9485  0.5544  0.2219
 3410SOL    HW221867   3.764   2.851   4.062  1.0123 -0.6290  0.6655
 3411SOL     OW21868   2.910   2.398   7.097 -0.1068  0.2179 -0.2249
 3411SOL    HW121869   2.887   2.491   7.090  0.4746  0.3611 -0.2173
 3411SOL    HW221870   2.972   2.397   7.170 -0.0344 -1.3832 -0.3156
 3412SOL     OW21871   0.900   4.498  10.170 -0.1822  0.3833 -0.7171
 3412SOL    HW121872   0.907   4.581  10.217  0.7173  0.6784 -1.3680
 3412SOL    HW221873   0.813   4.511  10.133  0.2405 -1.1378 -2.2188
 3413SOL     OW21874   0.702   2.524  11.357  0.3397  0.1617  0.0084
 3413SOL    HW121875   0.691   2.478  11.274 -2.2003 -2.6423  1.8917
 3413SOL    HW221876   0.661   2.459  11.415  1.6720 -0.2029  0.5447
 3414SOL     OW21877   2.724   2.657  10.826 -0.4331 -0.0289  0.2048
 3414SOL    HW121878   2.637   2.653  10.867 -1.4566 -0.7872 -2.0254
 3414SOL    HW221879   2.745   2.564  10.829  1.0340  0.2435 -1.5730
 3415SOL     OW21880   0.277   3.023  16.898 -0.8520  0.1843 -0.0063
 3415SOL    HW121881   0.332   3.081  16.951 -0.8001 -1.0145  1.2715
 3415SOL    HW221882   0.330   2.944  16.886  1.2744  1.6979 -0.5444
 3416SOL     OW21883   1.298   1.411  14.978 -0.1489 -0.4489  0.4107
 3416SOL    HW121884   1.353   1.428  14.902 -1.5680 -0.2443 -0.5754
 3416SOL    HW221885   1.210   1.419  14.940  0.6244  1.0845 -1.0126
 3417SOL     OW21886   2.500   2.381  15.600 -0.1317  0.1014  0.4225
 3417SOL    HW121887   2.484   2.463  15.646  0.5531  0.2128  0.4656
 3417SOL    HW221888   2.588   2.397  15.565  0.9047  0.4619  3.2449
 3418SOL     OW21889   2.439   0.645   8.395  0.2869 -0.5182  0.6632
 3418SOL    HW121890   2.390   0.708   8.448 -1.7205  0.2624 -2.1028
 3418SOL    HW221891   2.392   0.649   8.312  0.8602 -1.4996  0.2929
 3419SOL     OW21892   4.011   2.363   1.344 -0.5618 -0.1286  0.4436
 3419SOL    HW121893   3.998   2.269   1.359 -0.6645 -0.3611 -1.1462
 3419SOL    HW221894   3.931   2.397   1.384 -0.1047  0.2874  1.0173
 3420SOL     OW21895   0.382   0.307   7.630  0.2060 -0.3563  0.6953
 3420SOL    HW121896   0.402   0.263   7.547  1.6259  1.8261 -0.1419
 3420SOL    HW221897   0.448   0.376   7.642 -0.8244  0.4757  1.5479
 3421SOL     OW21898   2.177   3.695   5.459  0.5013  0.1214  0.5801
 3421SOL    HW121899   2.183   3.635   5.385  0.3546 -0.9723  1.4590
 3421SOL    HW221900   2.129   3.767   5.417 -1.5842 -2.2177 -1.0281
 3422SOL     OW21901   4.242   0.088   3.794  0.3494  0.0178  0.0022
 3422SOL    HW121902   4.333   0.067   3.774  0.1208 -0.9040 -0.0820
 3422SOL    HW221903   4.227   0.173   3.753  0.7794 -0.6996 -1.6414
 3423SOL     OW21904   0.320   3.445   5.479  0.4603  0.0995  0.3681
 3423SOL    HW121905   0.330   3.490   5.563  1.0249  0.1110  0.2886
 3423SOL    HW221906   0.240   3.392   5.487  0.6178 -0.1198  0.4861
 3424SOL     OW21907   4.000   3.820   6.985 -0.4960  0.2781  0.1878
 3424SOL    HW121908   3.955   3.786   6.908  1.1399  1.6689 -1.3582
 3424SOL    HW221909   3.930   3.826   7.051 -0.8427  1.6371 -0.2936
 3425SOL     OW21910   2.121   2.112   5.066  0.2103 -0.6146 -0.2684
 3425SOL    HW121911   2.178   2.039   5.041 -0.4960 -1.9965  2.1557
 3425SOL    HW221912   2.036   2.093   5.025 -0.6915  2.9574 -0.0740
 3426SOL     OW21913   3.686   2.573   8.586  0.3290 -0.2641 -0.1159
 3426SOL    HW121914   3.670   2.498   8.643  0.2123  0.2694  0.5431
 3426SOL    HW221915   3.715   2.636   8.651 -0.6643 -0.8832  0.9273
 3427SOL     OW21916   2.756   3.217  10.473  0.1436 -0.3234  0.4108
 3427SOL    HW121917   2.836   3.165  10.488  0.4575  0.0265 -0.0747
 3427SOL    HW221918   2.768   3.295  10.528  2.3605  0.3565 -1.0611
 3428SOL     OW21919   3.449   0.710  11.660 -0.5073  0.8601 -0.2152
 3428SOL    HW121920   3.432   0.801  11.636  1.5277  1.4127  0.4624
 3428SOL    HW221921   3.535   0.711  11.701 -0.1194  1.5142 -1.0606
 3429SOL     OW21922   4.260   3.465   0.738 -0.9018  0.3425  0.4278
 3429SOL    HW121923   4.267   3.414   0.657 -0.3595  2.0260 -0.5993
 3429SOL    HW221924   4.348   3.450   0.773 -1.0707 -1.1076  0.2193
 3430SOL     OW21925   2.392   1.682   4.783  0.8114 -0.5587 -0.2149
 3430SOL    HW121926   2.349   1.767   4.785  1.3169 -0.2934 -0.6255
 3430SOL    HW221927   2.322   1.620   4.804 -0.9026  1.1232 -0.9706
 3431SOL     OW21928   2.968   2.240   0.420  0.1281 -0.0669 -0.6572
 3431SOL    HW121929   3.039   2.189   0.459 -1.3131 -0.3690  1.5530
 3431SOL    HW221930   2.940   2.179   0.351 -1.4467 -1.3824  1.1386
 3432SOL     OW21931   2.144   0.532   2.012 -0.1977 -0.3555  0.6750
 3432SOL    HW121932   2.070   0.502   1.960 -1.2660  1.9201  0.8831
 3432SOL    HW221933   2.203   0.458   1.996 -1.2577 -0.7891 -1.3037
 3433SOL     OW21934   2.936   0.502   2.871 -0.1630  0.1916 -0.2250
 3433SOL    HW121935   3.018   0.479   2.827  0.3441  2.5187 -0.4934
 3433SOL    HW221936   2.878   0.428   2.859 -2.2844  1.9128 -0.5603
 3434SOL     OW21937   3.802   2.124   2.065 -0.2028 -0.0904  0.2601
 3434SOL    HW121938   3.891   2.158   2.056 -0.6447  1.0528  0.2185
 3434SOL    HW221939   3.745   2.174   2.006  0.5217  0.5209  0.0856
 3435SOL     OW21940   2.658   0.368  10.053 -0.9061 -0.2438  0.4679
 3435SOL    HW121941   2.687   0.318  10.130 -1.9870 -2.7199 -0.7521
 3435SOL    HW221942   2.731   0.429  10.057  0.0474 -1.2948 -1.0679
 3436SOL     OW21943   1.098   1.711   3.199 -0.5774  0.1901  0.2050
 3436SOL    HW121944   1.082   1.788   3.254  2.8081  0.7728  0.3535
 3436SOL    HW221945   1.124   1.642   3.260  1.3006  0.6273 -0.1079
 3437SOL     OW21946   4.628   4.370   3.375  0.2205  0.4598 -0.2295
 3437SOL    HW121947   4.590   4.283   3.366 -1.0223  1.4000 -4.2005
 3437SOL    HW221948   4.719   4.345   3.358  0.1160 -1.4024  2.0610
 3438SOL     OW21949   2.952   4.444   5.102 -0.2154  0.4068  0.2442
 3438SOL    HW121950   3.011   4.509   5.065  0.7222 -0.5883  0.0021
 3438SOL    HW221951   2.970   4.459   5.195 -0.9353 -0.8186  0.5807
 3439SOL     OW21952   4.119   0.731   7.202 -0.7878  0.6585 -0.2694
 3439SOL    HW121953   4.027   0.718   7.181 -0.3181 -0.2362 -1.7822
 3439SOL    HW221954   4.110   0.739   7.297  0.7855  1.0009 -0.1391
 3440SOL     OW21955   3.965   0.893  13.409  0.6441  0.3953  0.4653
 3440SOL    HW121956   3.906   0.822  13.435 -0.3894  0.6521 -1.1702
 3440SOL    HW221957   3.896   0.951  13.376 -0.9224 -1.4171  0.5960
 3441SOL     OW21958   4.443   2.387   2.950 -0.5677 -0.1958 -0.0502
 3441SOL    HW121959   4.397   2.443   3.012 -0.3148 -0.4803  0.3995
 3441SOL    HW221960   4.423   2.431   2.867 -1.1120  0.6947  0.5532
 3442SOL     OW21961   0.357   2.321   3.230 -0.2163 -0.6383 -0.3284
 3442SOL    HW121962   0.399   2.340   3.314  1.9399 -2.7914 -0.9115
 3442SOL    HW221963   0.347   2.411   3.200  2.8587  0.4287  1.7668
 3443SOL     OW21964   1.126   4.199   8.270 -0.3159  0.3613  0.6014
 3443SOL    HW121965   1.203   4.220   8.218  0.9175  0.3119  2.3797
 3443SOL    HW221966   1.053   4.231   8.217 -0.0884 -3.3283 -1.9522
 3444SOL     OW21967   2.690   2.675   5.906  0.1600  0.0303 -0.0097
 3444SOL    HW121968   2.603   2.654   5.938  0.1219 -0.6542 -0.5475
 3444SOL    HW221969   2.670   2.694   5.814 -2.1714 -1.2456  0.2561
 3445SOL     OW21970   3.116   1.590   1.438 -0.1722  0.3516  0.2668
 3445SOL    HW121971   3.191   1.531   1.439 -0.8053 -0.4916 -1.6668
 3445SOL    HW221972   3.103   1.611   1.530  0.7666  0.7553  0.3047
 3446SOL     OW21973   3.411   2.473  10.536  0.2369 -0.3508 -0.6365
 3446SOL    HW121974   3.481   2.409  10.518 -1.7971 -2.8799  0.4298
 3446SOL    HW221975   3.447   2.525  10.608 -1.5289  0.8678 -0.6404
 3447SOL     OW21976   2.891   2.691  16.078 -0.2967 -0.1524 -0.4205
 3447SOL    HW121977   2.976   2.685  16.033 -0.1677 -0.6747 -0.1105
 3447SOL    HW221978   2.880   2.786  16.072  0.3341 -0.0153  0.5511
 3448SOL     OW21979   2.015   1.697   9.991 -0.2487  0.6660  0.5558
 3448SOL    HW121980   1.934   1.724   9.947 -1.3031 -0.9836  1.5220
 3448SOL    HW221981   1.978   1.630  10.049 -0.3686  0.5806  0.3797
 3449SOL     OW21982   2.879   0.180   7.688 -0.1459 -0.1433  0.1174
 3449SOL    HW121983   2.834   0.149   7.767  0.8086 -0.1321  0.6666
 3449SOL    HW221984   2.839   0.117   7.628  0.0906 -0.0659 -0.1208
 3450SOL     OW21985   4.042   3.007   4.569 -0.0248  0.2360  0.3135
 3450SOL    HW121986   4.027   2.990   4.476 -0.2747 -0.3086  0.4566
 3450SOL    HW221987   3.982   2.938   4.599 -1.5419  1.7140  0.6896
 3451SOL     OW21988   3.383   1.661   3.093  0.6226 -0.3931  0.4128
 3451SOL    HW121989   3.427   1.713   3.027 -0.6280 -0.0515 -0.1519
 3451SOL    HW221990   3.436   1.684   3.170 -1.5811 -1.4172  2.2496
 3452SOL     OW21991   1.011   0.073   6.608 -0.2169 -0.1268 -0.3771
 3452SOL    HW121992   1.104   0.092   6.620 -0.6349  0.8976  1.3091
 3452SOL    HW221993   0.993   0.160   6.572  0.7491  0.6609  1.0116
 3453SOL     OW21994   2.295   4.417   7.359 -0.3683  0.2142  0.3939
 3453SOL    HW121995   2.332   4.337   7.397 -3.7800 -0.1741  2.8733
 3453SOL    HW221996   2.212   4.389   7.322 -0.0365 -0.0873 -0.1188
 3454SOL     OW21997   1.768   2.583   2.742 -0.4321  0.1479  0.5676
 3454SOL    HW121998   1.678   2.551   2.734  0.1879 -1.6398  0.7413
 3454SOL    HW221999   1.794   2.587   2.650 -1.6089 -0.8443  0.1794
 3455SOL     OW22000   0.353   3.010   7.704  0.6032  0.1049 -0.1834
 3455SOL    HW122001   0.357   3.104   7.722  1.5803 -0.1000  0.6397
 3455SOL    HW222002   0.356   3.014   7.609  1.5225  1.8320 -0.0921
 3456SOL     OW22003   3.601   2.039  11.034  0.0310 -0.3180 -0.1417
 3456SOL    HW122004   3.512   2.050  11.067 -1.0962 -0.1610 -3.2306
 3456SOL    HW222005   3.590   2.093  10.956 -0.6244  1.1285  0.9544
 3457SOL     OW22006   0.221   1.863   6.344  0.0864 -1.0028  0.1681
 3457SOL    HW122007   0.168   1.804   6.290 -0.3191  0.6021 -1.2279
 3457SOL    HW222008   0.278   1.902   6.276  0.6687 -0.6658  0.8486
 3458SOL     OW22009   0.210   1.190   9.544 -0.5463  0.1518 -0.7726
 3458SOL    HW122010   0.138   1.144   9.587  0.0777 -0.0255  0.0792
 3458SOL    HW222011   0.192   1.164   9.453 -0.4625  2.6898 -1.5208
 3459SOL     OW22012   0.604   1.008   2.084  0.0418  0.2595  0.0760
 3459SOL    HW122013   0.696   1.032   2.090 -0.3509  1.8003 -0.1205
 3459SOL    HW222014   0.614   0.914   2.099  0.5099  0.5267  1.4048
 3460SOL     OW22015   2.570   3.436   3.517 -0.1613  0.0346 -0.2164
 3460SOL    HW122016   2.576   3.528   3.492  0.1076  0.2601  0.6801
 3460SOL    HW222017   2.533   3.388   3.443 -2.0032 -0.7810  1.2328
 3461SOL     OW22018   2.893   1.698   7.703 -0.0704  0.3368  0.0240
 3461SOL    HW122019   2.927   1.644   7.774 -1.0164  0.6331  0.6964
 3461SOL    HW222020   2.951   1.674   7.630 -1.4729 -1.0384 -0.6523
 3462SOL     OW22021   1.544   1.528   2.630  0.2792 -0.4248 -0.5517
 3462SOL    HW122022   1.458   1.560   2.602 -0.8057 -1.8757  1.0972
 3462SOL    HW222023   1.591   1.519   2.547  1.2241  3.6014 -0.4548
 3463SOL     OW22024   4.284   1.280   4.238  0.3321  0.4219 -0.1937
 3463SOL    HW122025   4.296   1.199   4.287 -1.1074 -0.5570 -1.4447
 3463SOL    HW222026   4.254   1.241   4.155  0.7599 -2.2864  0.9177
 3464SOL     OW22027   2.472   1.092   8.825 -1.0280 -0.0341  0.1853
 3464SOL    HW122028   2.505   1.147   8.754 -0.4074  1.8955  1.9710
 3464SOL    HW222029   2.381   1.121   8.828 -0.0431  3.0513  0.5109
 3465SOL     OW22030   3.607   3.305   7.225  0.1920 -0.5503 -0.7027
 3465SOL    HW122031   3.631   3.245   7.295 -2.6152 -0.8253  0.0110
 3465SOL    HW222032   3.605   3.392   7.266 -0.9847 -1.4921  1.1878
 3466SOL     OW22033   4.531   2.653   1.136  0.7600  0.2819 -0.6765
 3466SOL    HW122034   4.463   2.716   1.113 -0.6334 -0.4945  1.3749
 3466SOL    HW222035   4.486   2.571   1.114 -1.0653  1.5983 -1.8841
 3467SOL     OW22036   2.896   1.712  14.588 -0.9520  0.0154 -0.7195
 3467SOL    HW122037   2.881   1.796  14.544  2.6228 -0.1001 -2.0949
 3467SOL    HW222038   2.923   1.659  14.513 -0.5773  0.4784 -0.9102
 3468SOL     OW22039   4.625   4.212  11.009 -0.0814 -0.6710 -0.3211
 3468SOL    HW122040   4.577   4.138  10.972 -1.6210 -0.1569  0.6242
 3468SOL    HW222041   4.644   4.263  10.930  0.3399 -0.0212  0.2027
 3469SOL     OW22042   1.077   3.930  16.632 -0.2543  0.8203  0.1454
 3469SOL    HW122043   1.056   3.886  16.550 -0.6465 -1.0404  1.2162
 3469SOL    HW222044   1.041   4.018  16.623 -0.8214  0.9799  3.9051
 3470SOL     OW22045   0.437   3.265   7.766  0.4259  0.1940 -0.2223
 3470SOL    HW122046   0.416   3.358   7.762  3.1852  0.6947 -2.7960
 3470SOL    HW222047   0.530   3.273   7.745  0.2638  1.3524 -0.5113
 3471SOL     OW22048   1.394   4.691   4.591  0.1347  0.1940 -0.1936
 3471SOL    HW122049   1.456   4.618   4.591  1.9271  1.6799  2.2766
 3471SOL    HW222050   1.330   4.661   4.656  0.8531 -0.2368  0.3246
 3472SOL     OW22051   4.129   1.067   3.935  0.0746  0.1781  0.0321
 3472SOL    HW122052   4.038   1.041   3.950 -0.1822  1.3781  0.5585
 3472SOL    HW222053   4.124   1.161   3.955  0.3758  0.2606 -0.2936
 3473SOL     OW22054   4.727   0.113   7.182 -0.3054 -0.4437 -0.5919
 3473SOL    HW122055   0.002   0.208   7.185  1.9906 -0.7227 -0.8766
 3473SOL    HW222056   0.015   0.083   7.094 -0.6444 -0.3379 -0.7239
 3474SOL     OW22057   3.881   1.878   7.578 -0.1204 -0.3868 -0.3781
 3474SOL    HW122058   3.933   1.862   7.656 -2.9299 -1.0131  1.3920
 3474SOL    HW222059   3.938   1.842   7.511 -0.7742  0.7090 -1.5331
 3475SOL     OW22060   3.957   2.900  16.269 -0.2742  0.6206  0.3797
 3475SOL    HW122061   3.952   2.964  16.340 -1.7045  0.8794  0.0470
 3475SOL    HW222062   3.903   2.931  16.196  0.7030 -0.3050 -0.7248
 3476SOL     OW22063   3.980   4.572   7.610  0.0436  0.4208  0.0193
 3476SOL    HW122064   3.915   4.637   7.637 -0.1757  0.5933 -0.9130
 3476SOL    HW222065   3.966   4.507   7.678  1.1920 -0.6879 -0.8134
 3477SOL     OW22066   3.471   4.120   7.173 -0.2539  0.0105 -0.0974
 3477SOL    HW122067   3.425   4.045   7.212  0.2261  0.0203  0.4902
 3477SOL    HW222068   3.398   4.168   7.134  0.2836 -0.8444 -2.1718
 3478SOL     OW22069   3.027   3.446   7.058  0.2090 -0.0479  0.4145
 3478SOL    HW122070   3.076   3.406   6.985  1.5895 -1.1220  1.9143
 3478SOL    HW222071   2.942   3.433   7.016  0.7100 -2.2161  0.0785
 3479SOL     OW22072   3.102   3.614   8.864  0.1063 -0.5988  0.2082
 3479SOL    HW122073   3.112   3.537   8.920  0.1293 -0.4985  0.3400
 3479SOL    HW222074   3.176   3.670   8.885 -0.8409  1.2864 -1.3840
 3480SOL     OW22075   3.297   0.261   8.968  0.0610  0.5016 -0.0830
 3480SOL    HW122076   3.278   0.264   8.874  0.3806 -2.0417 -0.2237
 3480SOL    HW222077   3.307   0.352   8.994 -0.1622  1.8553 -4.7752
 3481SOL     OW22078   4.221   2.724   4.564  0.4789  0.1959  0.0835
 3481SOL    HW122079   4.264   2.777   4.496 -2.6602  3.6517  0.7792
 3481SOL    HW222080   4.130   2.720   4.536  0.3970 -0.0534  0.3855
 3482SOL     OW22081   4.417   4.138   6.237 -0.7914 -0.2710 -0.0833
 3482SOL    HW122082   4.467   4.174   6.309  0.2465  1.4096 -1.6574
 3482SOL    HW222083   4.340   4.104   6.282  0.0295  0.2567  1.7012
 3483SOL     OW22084   2.117   1.734   3.104  0.4148 -0.1019  0.0301
 3483SOL    HW122085   2.166   1.668   3.055 -0.7281  0.0103 -1.2624
 3483SOL    HW222086   2.036   1.728   3.054 -0.9727  1.6256  2.0506
 3484SOL     OW22087   0.625   3.052  16.558 -0.4129  0.2751  0.0651
 3484SOL    HW122088   0.535   3.077  16.577 -0.6412 -0.2152 -0.3807
 3484SOL    HW222089   0.604   2.987  16.491  2.1529  2.1742 -2.6177
 3485SOL     OW22090   1.513   3.267   2.798  0.0476 -0.1528 -0.0719
 3485SOL    HW122091   1.445   3.285   2.863 -1.6660  0.7311 -2.0920
 3485SOL    HW222092   1.588   3.232   2.846 -0.7924  0.9171  2.0089
 3486SOL     OW22093   0.423   0.289   0.532 -0.0959  0.4411 -0.3260
 3486SOL    HW122094   0.347   0.287   0.474  0.8914 -3.0187 -1.5332
 3486SOL    HW222095   0.380   0.276   0.616  1.6452 -0.9382  0.3555
 3487SOL     OW22096   2.403   2.858   9.941  0.1411  0.2513  0.6082
 3487SOL    HW122097   2.337   2.789   9.939  0.1452  0.2846 -0.8744
 3487SOL    HW222098   2.399   2.892  10.031  0.8426  1.1288  0.3152
 3488SOL     OW22099   1.052   2.090   8.109 -0.4462  0.2922 -0.2538
 3488SOL    HW122100   0.989   2.021   8.093 -2.2387  1.5936  1.2659
 3488SOL    HW222101   1.040   2.111   8.201  0.7965  0.7845 -0.1970
 3489SOL     OW22102   3.315   4.153  16.183 -0.8543  0.2511 -0.4718
 3489SOL    HW122103   3.338   4.060  16.188  1.0689  0.7688  0.1871
 3489SOL    HW222104   3.315   4.169  16.088  0.2640 -1.5505 -0.7814
 3490SOL     OW22105   4.021   1.455  16.312  0.0005  0.0993 -0.1898
 3490SOL    HW122106   3.964   1.532  16.312  0.5552  0.5026  1.0307
 3490SOL    HW222107   4.018   1.426  16.220 -0.6135  1.1528 -0.5015
 3491SOL     OW22108   1.923   4.256  13.287 -0.0402  0.6453  0.0940
 3491SOL    HW122109   1.851   4.296  13.239 -1.4043  0.8083  2.2681
 3491SOL    HW222110   1.996   4.266  13.225 -0.5419  1.0042 -0.4379
 3492SOL     OW22111   4.534   0.094   7.984  0.0606  0.1348 -0.1488
 3492SOL    HW122112   4.489   0.010   7.980 -1.6710  1.1373 -2.0974
 3492SOL    HW222113   4.468   0.147   7.938  0.4830  0.3626 -0.4877
 3493SOL     OW22114   2.770   2.752  15.096 -0.4090 -0.3152  0.3614
 3493SOL    HW122115   2.731   2.699  15.026  0.4186  1.0804 -1.1363
 3493SOL    HW222116   2.765   2.837  15.052 -1.7498 -0.1426  0.8578
 3494SOL     OW22117   2.665   0.826   5.046 -0.3857 -0.2471 -0.4065
 3494SOL    HW122118   2.734   0.866   4.992  0.6408  0.5622  1.5188
 3494SOL    HW222119   2.701   0.780   5.121  0.3616 -0.7429 -1.0737
 3495SOL     OW22120   1.957   3.108   5.413  0.2414  0.0880  0.4260
 3495SOL    HW122121   2.019   3.038   5.430 -0.5540 -1.1926 -1.9533
 3495SOL    HW222122   1.983   3.160   5.489 -1.6501  0.8519  0.5640
 3496SOL     OW22123   2.552   2.049   2.685 -0.1258  0.4097  0.1201
 3496SOL    HW122124   2.615   2.011   2.625  0.6679  0.3228  1.0102
 3496SOL    HW222125   2.506   2.110   2.627 -0.9742  1.6271  2.0698
 3497SOL     OW22126   3.289   3.142   2.265  0.1610 -0.3868  0.5994
 3497SOL    HW122127   3.350   3.215   2.278 -0.3058  0.4217 -1.7524
 3497SOL    HW222128   3.208   3.188   2.286 -0.2701 -1.2424  0.7930
 3498SOL     OW22129   4.543   3.042   2.660  0.8512 -0.2351  0.1890
 3498SOL    HW122130   4.481   3.088   2.603 -0.0317 -3.5848 -1.5555
 3498SOL    HW222131   4.504   2.956   2.648  1.2643 -0.3994  0.0254
 3499SOL     OW22132   0.956   2.745   6.804 -0.0152  0.1289 -1.0022
 3499SOL    HW122133   0.864   2.736   6.778 -0.3131  2.4616 -0.7320
 3499SOL    HW222134   0.949   2.753   6.899 -1.7123  0.6425 -1.1767
 3500SOL     OW22135   4.232   0.093   6.254  0.1171  0.4461  0.7796
 3500SOL    HW122136   4.283   0.151   6.198 -1.0940 -0.8063 -1.6336
 3500SOL    HW222137   4.166   0.153   6.289 -2.1272  0.3537 -3.2213
 3501SOL     OW22138   3.973   4.214   2.643  0.3956 -0.0805  0.1030
 3501SOL    HW122139   3.955   4.157   2.717 -0.1713 -0.8293 -0.6145
 3501SOL    HW222140   3.894   4.268   2.647  0.7291  0.4583 -0.5244
 3502SOL     OW22141   3.185   0.389  17.436  0.2136  0.0329 -0.0599
 3502SOL    HW122142   3.263   0.417  17.390 -0.2865  0.5605 -0.5862
 3502SOL    HW222143   3.162   0.465  17.491  2.3292  1.1559 -0.7418
 3503SOL     OW22144   3.792   1.435   4.781  0.8877 -0.1215 -1.0996
 3503SOL    HW122145   3.711   1.429   4.730 -1.0301  0.0548  1.9801
 3503SOL    HW222146   3.843   1.367   4.736  1.4765  0.0507 -0.6992
 3504SOL     OW22147   4.167   2.565   2.686 -0.6102  0.3978  0.6546
 3504SOL    HW122148   4.182   2.631   2.754  0.8609 -0.5674  1.2832
 3504SOL    HW222149   4.077   2.586   2.663 -0.5431  0.8207  0.7805
 3505SOL     OW22150   4.443   1.144   4.430 -0.2467  0.3865  0.4874
 3505SOL    HW122151   4.380   1.073   4.416  0.2975 -0.0220  0.0910
 3505SOL    HW222152   4.504   1.095   4.484  0.0204 -0.5423 -0.6415
 3506SOL     OW22153   0.378   1.367   6.065  0.4458  0.4329  0.1729
 3506SOL    HW122154   0.326   1.440   6.031  1.7527  2.5669  2.7280
 3506SOL    HW222155   0.386   1.303   5.994  0.5875  1.4103 -0.6928
 3507SOL     OW22156   1.124   1.317   3.697  0.2278 -0.3688 -0.2795
 3507SOL    HW122157   1.139   1.292   3.788 -2.9766  0.5463  0.5158
 3507SOL    HW222158   1.089   1.240   3.652  0.6328  0.5894 -2.2639
 3508SOL     OW22159   3.366   2.605   0.147  0.0754  0.7702  0.4736
 3508SOL    HW122160   3.355   2.513   0.124 -1.5259  1.2174 -0.5517
 3508SOL    HW222161   3.447   2.628   0.103 -1.3986  0.3844 -2.4439
 3509SOL     OW22162   2.999   4.326   1.099 -0.1539  0.4921 -0.8062
 3509SOL    HW122163   3.006   4.250   1.042 -0.3410 -1.2173  1.4647
 3509SOL    HW222164   2.908   4.301   1.115  0.3457  0.1068  1.3514
 3510SOL     OW22165   3.418   2.443  10.185  0.0320  0.0232  0.3057
 3510SOL    HW122166   3.399   2.537  10.182  1.6109  0.3170 -0.4347
 3510SOL    HW222167   3.503   2.448  10.228  0.2919  0.7263 -0.2789
 3511SOL     OW22168   2.949   0.673   1.569 -0.4323 -0.3769 -0.5475
 3511SOL    HW122169   2.922   0.581   1.567 -1.2636 -0.1712  1.3296
 3511SOL    HW222170   2.988   0.666   1.656 -0.2578 -1.5931 -0.7165
 3512SOL     OW22171   4.624   1.341   5.906 -0.2719  0.5036  0.2877
 3512SOL    HW122172   4.586   1.399   5.972  0.9111  0.8361  0.6879
 3512SOL    HW222173   4.666   1.283   5.970 -0.2276  1.3648  1.0513
 3513SOL     OW22174   0.997   3.574  10.869 -0.3695 -0.5387 -0.0433
 3513SOL    HW122175   1.065   3.580  10.802 -0.0463 -0.3463  0.3026
 3513SOL    HW222176   0.937   3.636  10.827  0.0609  0.4334  0.7690
 3514SOL     OW22177   1.031   0.248  13.777 -0.0407 -0.0813 -0.4252
 3514SOL    HW122178   0.948   0.284  13.745 -1.6537 -3.7262 -0.3749
 3514SOL    HW222179   1.058   0.293  13.857 -1.0918 -0.4030  0.1058
 3515SOL     OW22180   2.684   2.476   8.544  0.6575  0.3960 -0.1063
 3515SOL    HW122181   2.613   2.432   8.497  0.9962  0.1546 -0.3815
 3515SOL    HW222182   2.747   2.498   8.476 -1.1318  4.0656 -0.6302
 3516SOL     OW22183   0.220   3.323   2.166  0.6956 -0.4494 -0.4684
 3516SOL    HW122184   0.308   3.287   2.173 -0.6778 -4.0820 -2.0744
 3516SOL    HW222185   0.181   3.290   2.247  1.4464  1.5737  0.7253
 3517SOL     OW22186   1.638   0.013   2.294 -0.4404 -0.3487  0.0787
 3517SOL    HW122187   1.698   4.675   2.295 -1.3288 -1.0709 -2.1492
 3517SOL    HW222188   1.603   4.735   2.382 -0.3287 -0.5237  0.0954
 3518SOL     OW22189   4.022   1.183   2.769 -0.1375  0.4283 -0.6917
 3518SOL    HW122190   3.939   1.179   2.722 -0.2359 -0.7638 -0.4216
 3518SOL    HW222191   4.049   1.093   2.753 -2.2214  0.0646 -2.1910
 3519SOL     OW22192   1.996   2.805   7.673  0.7232 -0.1717  0.2568
 3519SOL    HW122193   1.996   2.712   7.696  0.9944 -0.5138 -1.1189
 3519SOL    HW222194   2.081   2.826   7.712  1.0203  0.8570 -0.9475
 3520SOL     OW22195   0.053   2.196  11.087  0.2316  0.1037 -0.0947
 3520SOL    HW122196   0.094   2.110  11.087 -3.2702 -1.5373  0.2893
 3520SOL    HW222197   0.013   2.190  11.000  0.9570  0.2173 -0.4344
 3521SOL     OW22198   2.559   4.090   2.869  0.7107 -0.4846 -0.0919
 3521SOL    HW122199   2.522   4.024   2.927 -0.5234  0.8289  0.5971
 3521SOL    HW222200   2.651   4.094   2.897  1.1642 -0.7518 -1.5291
 3522SOL     OW22201   0.569   4.172  12.352 -0.4907  0.8861 -0.2182
 3522SOL    HW122202   0.535   4.127  12.429  2.3357 -1.6934 -0.4719
 3522SOL    HW222203   0.540   4.114  12.282  2.5002 -0.0242 -0.7159
 3523SOL     OW22204   2.036   1.910   7.982  0.1480  0.5128 -0.0895
 3523SOL    HW122205   2.096   1.927   7.909  0.1368 -1.3238 -0.5323
 3523SOL    HW222206   2.106   1.869   8.033 -1.7563 -1.8483  0.6384
 3524SOL     OW22207   2.602   4.589  13.858 -0.0913 -0.0662  0.3498
 3524SOL    HW122208   2.530   4.525  13.860  1.1280 -1.3902  1.5341
 3524SOL    HW222209   2.664   4.518  13.842 -0.1574 -0.4766  1.9163
 3525SOL     OW22210   3.976   4.426   3.461 -0.6493 -0.2078  0.3397
 3525SOL    HW122211   4.012   4.509   3.492 -0.9354 -0.3224  0.9778
 3525SOL    HW222212   3.949   4.396   3.548  0.5882 -0.3184  0.6725
 3526SOL     OW22213   4.543   0.411   8.951  0.0454  0.2916 -0.7025
 3526SOL    HW122214   4.508   0.333   8.994  1.5444  0.6915  1.2389
 3526SOL    HW222215   4.634   0.388   8.934 -0.0299 -1.6015  1.4134
 3527SOL     OW22216   1.399   1.465   3.384 -0.1367  0.4861  0.2387
 3527SOL    HW122217   1.330   1.403   3.407 -1.2125  2.8775  3.5929
 3527SOL    HW222218   1.463   1.460   3.455 -0.5608 -0.0319  0.5775
 3528SOL     OW22219   2.494   0.971   6.358 -0.1646  0.2825 -0.0219
 3528SOL    HW122220   2.470   0.879   6.355  0.8462  0.0804 -1.9719
 3528SOL    HW222221   2.420   1.020   6.392 -0.9336 -0.9956  0.1250
 3529SOL     OW22222   1.476   2.667  11.568  0.3192 -0.3814  0.2893
 3529SOL    HW122223   1.529   2.746  11.567 -2.9514  1.7843 -0.9737
 3529SOL    HW222224   1.425   2.674  11.487  1.7005 -0.0571 -0.5565
 3530SOL     OW22225   3.312   4.046   5.079  0.4152 -0.1041  0.3464
 3530SOL    HW122226   3.380   4.070   5.017  1.6536 -2.6927  0.7169
 3530SOL    HW222227   3.251   4.012   5.013  1.0750  0.4653 -0.5599
 3531SOL     OW22228   2.336   2.268   7.001  0.5895 -0.2234 -0.1888
 3531SOL    HW122229   2.321   2.254   7.094 -2.9027 -3.0348 -1.1883
 3531SOL    HW222230   2.394   2.193   6.985  1.0668  0.0607  0.2015
 3532SOL     OW22231   1.267   1.864   3.622 -0.5996  0.2062  0.0228
 3532SOL    HW122232   1.233   1.789   3.670 -1.4455 -0.6263 -1.8624
 3532SOL    HW222233   1.315   1.910   3.691  0.2910 -2.2793  1.0451
 3533SOL     OW22234   1.612   1.217  13.629 -0.0583  0.3447  0.0538
 3533SOL    HW122235   1.648   1.296  13.589 -0.1892  1.4627  2.1517
 3533SOL    HW222236   1.557   1.267  13.689 -1.8159 -2.3402  0.6858
 3534SOL     OW22237   4.342   0.988   4.893  0.6974 -0.3833  0.5905
 3534SOL    HW122238   4.376   0.945   4.971 -1.2082 -0.4251  1.4026
 3534SOL    HW222239   4.336   0.907   4.842  1.1869 -0.4909  0.7082
 3535SOL     OW22240   0.638   2.469   7.351  0.0099  0.0448 -0.3701
 3535SOL    HW122241   0.624   2.548   7.298 -1.6994  0.2408  0.3364
 3535SOL    HW222242   0.674   2.498   7.435  1.4513  0.8245 -1.2660
 3536SOL     OW22243   2.929   2.328  12.930 -0.0225 -0.4620 -0.1586
 3536SOL    HW122244   2.921   2.389  13.004 -1.0106 -0.9898  0.1716
 3536SOL    HW222245   2.911   2.245  12.974  2.4742 -0.6544  0.5090
 3537SOL     OW22246   2.423   1.255  12.855  0.0338  0.6698  0.2268
 3537SOL    HW122247   2.517   1.274  12.855 -0.4146  2.8085 -1.5933
 3537SOL    HW222248   2.399   1.246  12.763 -1.6413  1.4424  0.5886
 3538SOL     OW22249   1.259   1.076   5.961 -0.3810 -0.4342  0.1378
 3538SOL    HW122250   1.238   1.124   5.881  0.5812  0.7415  0.5844
 3538SOL    HW222251   1.296   1.144   6.018 -0.7640 -0.0598 -0.0542
 3539SOL     OW22252   0.915   2.549   8.911  0.4154  0.3824 -0.1645
 3539SOL    HW122253   0.967   2.495   8.851 -0.3885 -0.7319  0.1524
 3539SOL    HW222254   0.953   2.541   8.999 -0.3372  1.9773  0.2988
 3540SOL     OW22255   2.120   2.834   6.476 -0.0163  0.0523 -0.4985
 3540SOL    HW122256   2.079   2.918   6.498  0.7509  0.5930 -1.1228
 3540SOL    HW222257   2.199   2.847   6.529  0.3439  0.5006 -1.1516
 3541SOL     OW22258   0.753   0.561  10.926  0.2561  0.0352  0.3014
 3541SOL    HW122259   0.845   0.547  10.902  0.2368  0.8758 -0.2523
 3541SOL    HW222260   0.746   0.655  10.909  2.6747  0.0144 -0.7632
 3542SOL     OW22261   3.049   3.602   8.001 -0.0591 -0.0604 -0.1313
 3542SOL    HW122262   3.010   3.515   7.993 -1.4676  0.6019 -0.4564
 3542SOL    HW222263   3.078   3.600   8.092  0.0323 -0.7879 -0.1745
 3543SOL     OW22264   1.551   1.483   9.632  0.1063 -0.8576  0.3824
 3543SOL    HW122265   1.552   1.511   9.541  2.5510  0.3522  0.7785
 3543SOL    HW222266   1.514   1.395   9.634  1.0073 -1.2140  1.3039
 3544SOL     OW22267   3.357   1.102   2.757  0.6687 -0.0149 -0.1482
 3544SOL    HW122268   3.396   1.027   2.803  3.0546  1.1257 -0.3431
 3544SOL    HW222269   3.390   1.102   2.668  1.2126 -0.2998  0.0508
 3545SOL     OW22270   4.576   4.280   7.804 -0.4058  0.0496 -0.3900
 3545SOL    HW122271   4.657   4.252   7.760  0.4795  1.5018  0.3306
 3545SOL    HW222272   4.594   4.243   7.890  1.8865 -0.4942 -1.1003
 3546SOL     OW22273   0.454   3.310  16.337 -0.7254  0.3087  0.5634
 3546SOL    HW122274   0.431   3.252  16.409  0.2246  1.0602  1.4685
 3546SOL    HW222275   0.491   3.389  16.376 -0.1045  1.2355 -1.8937
 3547SOL     OW22276   4.473   0.141   8.993  0.0183 -0.3548  0.6114
 3547SOL    HW122277   4.459   0.102   8.907  2.2051  0.7680 -0.2489
 3547SOL    HW222278   4.384   0.165   9.020 -0.7740 -2.4756 -0.1146
 3548SOL     OW22279   0.923   1.306   2.398 -0.3111 -0.5700  0.3885
 3548SOL    HW122280   0.947   1.297   2.491  3.3327 -2.7696 -0.7385
 3548SOL    HW222281   0.832   1.276   2.398 -0.9831  1.4623  0.4315
 3549SOL     OW22282   1.850   4.030   8.265 -0.4047  0.1426  0.2568
 3549SOL    HW122283   1.853   4.098   8.332 -1.4139 -1.2273  1.6951
 3549SOL    HW222284   1.900   3.965   8.314  0.1712 -0.3245 -0.9646
 3550SOL     OW22285   2.677   3.670   2.842 -0.3804 -0.2292  0.1570
 3550SOL    HW122286   2.600   3.647   2.895  0.9186  0.2363  2.2365
 3550SOL    HW222287   2.642   3.716   2.766 -0.2341 -0.0761  0.1824
 3551SOL     OW22288   3.486   1.568   8.443  0.2872 -0.3497  0.2236
 3551SOL    HW122289   3.483   1.574   8.348 -0.9947  0.2827  0.3135
 3551SOL    HW222290   3.468   1.474   8.450  0.5574 -0.2933  1.6765
 3552SOL     OW22291   1.999   1.507   0.116  0.1482 -0.9372  0.6640
 3552SOL    HW122292   2.018   1.459   0.196  2.1423  0.7502  1.2179
 3552SOL    HW222293   1.905   1.519   0.127  0.6705  1.5236  2.5896
 3553SOL     OW22294   3.178   2.193   7.745 -0.7046  0.6461  0.2426
 3553SOL    HW122295   3.258   2.149   7.719 -1.7988 -2.4207  2.0824
 3553SOL    HW222296   3.214   2.264   7.798  0.3585  0.4871 -0.2810
 3554SOL     OW22297   4.731   3.370   1.724  0.2338  0.7143  0.8441
 3554SOL    HW122298   0.085   3.346   1.705 -0.9387 -1.4140 -2.1299
 3554SOL    HW222299   0.006   3.462   1.745 -2.0699  0.7971  1.7900
 3555SOL     OW22300   0.896   1.723  14.010  0.0638  0.3643 -0.2162
 3555SOL    HW122301   0.817   1.763  14.047  0.8404  0.9729  0.7792
 3555SOL    HW222302   0.956   1.797  13.996 -0.0026  0.1774 -1.4980
 3556SOL     OW22303   3.689   0.607   3.038 -0.1715 -0.0372 -0.7931
 3556SOL    HW122304   3.642   0.557   3.105 -0.9465  0.2011 -1.1493
 3556SOL    HW222305   3.758   0.658   3.079 -0.4984 -0.9496  0.9095
 3557SOL     OW22306   2.110   3.163   4.915 -0.2785 -0.1393 -0.0308
 3557SOL    HW122307   2.188   3.108   4.919 -0.3652 -0.1848  0.9533
 3557SOL    HW222308   2.113   3.203   5.002  2.2600  1.5664 -0.8939
 3558SOL     OW22309   4.166   0.820   5.091 -0.1467  0.5443 -0.0209
 3558SOL    HW122310   4.259   0.830   5.111  0.2478  0.0179 -1.6068
 3558SOL    HW222311   4.162   0.770   5.009  0.0313  0.7695 -0.1638
 3559SOL     OW22312   1.416   3.735  17.709 -0.2989 -0.2912  0.1546
 3559SOL    HW122313   1.404   3.640  17.708 -2.7679  0.0360 -0.8280
 3559SOL    HW222314   1.403   3.760  17.617  1.4545  1.8936  0.4909
 3560SOL     OW22315   0.759   3.541  15.274 -0.0099 -0.3991  0.1104
 3560SOL    HW122316   0.760   3.583  15.188  3.1506  0.0843  0.3633
 3560SOL    HW222317   0.735   3.612  15.335 -0.4203 -2.3891  2.2666
 3561SOL     OW22318   1.437   3.689   6.416  0.3264 -0.3920  0.3506
 3561SOL    HW122319   1.355   3.642   6.428  1.0976 -1.2041  2.3757
 3561SOL    HW222320   1.396   3.775   6.408 -0.9926 -0.7106  3.8660
 3562SOL     OW22321   2.292   3.586  13.934 -0.0879  1.0314  0.0289
 3562SOL    HW122322   2.297   3.653  13.866  1.0371  0.0784 -0.8086
 3562SOL    HW222323   2.226   3.523  13.905  2.0052 -1.3349  0.4611
 3563SOL     OW22324   3.205   2.684   3.439 -0.4654 -0.3690  0.0464
 3563SOL    HW122325   3.258   2.670   3.361  0.0123  1.7474 -0.0296
 3563SOL    HW222326   3.257   2.755   3.477 -2.2252  1.1474 -0.3889
 3564SOL     OW22327   3.581   4.492   7.423 -0.0568 -0.0092 -0.0149
 3564SOL    HW122328   3.547   4.539   7.499 -0.4493  0.2392 -0.3379
 3564SOL    HW222329   3.656   4.545   7.397  0.5389 -0.9679 -0.2481
 3565SOL     OW22330   1.252   4.047   2.634  0.3866 -0.7299  0.2327
 3565SOL    HW122331   1.313   4.114   2.604  1.4034 -1.7009  0.1474
 3565SOL    HW222332   1.288   4.031   2.721 -0.7437  0.6431  0.9562
 3566SOL     OW22333   4.491   2.631   0.359  0.1943  0.5827 -0.8159
 3566SOL    HW122334   4.577   2.591   0.351  0.3104  0.3692  1.7647
 3566SOL    HW222335   4.485   2.645   0.453 -1.4298  2.2513 -1.1481
 3567SOL     OW22336   3.662   2.711  15.805 -0.0820  0.0156 -0.6648
 3567SOL    HW122337   3.675   2.733  15.713 -2.2971 -1.7261 -1.3960
 3567SOL    HW222338   3.583   2.756  15.834  1.2749  1.9630  0.0313
 3568SOL     OW22339   1.201   3.297   8.245 -0.4616  0.3962 -0.3364
 3568SOL    HW122340   1.222   3.251   8.326 -0.4661  0.8227 -0.0949
 3568SOL    HW222341   1.255   3.375   8.254 -1.2299  0.8021  0.6914
 3569SOL     OW22342   2.187   3.898   9.049 -0.2253  0.0945 -0.0096
 3569SOL    HW122343   2.250   3.844   9.096 -1.1750  0.4778  1.6863
 3569SOL    HW222344   2.166   3.838   8.977  0.8062  2.2625 -2.1127
 3570SOL     OW22345   0.040   1.080  10.198  0.0892  0.8966 -1.0651
 3570SOL    HW122346   0.053   0.993  10.160 -0.3305 -0.5918  2.2229
 3570SOL    HW222347   4.683   1.069  10.218  0.7248 -0.9048  0.8334
 3571SOL     OW22348   3.750   4.425   6.175 -0.2278 -0.4346  0.3597
 3571SOL    HW122349   3.741   4.375   6.094  0.0057  0.6965 -0.3650
 3571SOL    HW222350   3.839   4.406   6.205 -0.2652 -0.4724  0.4475
 3572SOL     OW22351   0.664   3.081   6.853  0.0083  0.3313  0.3022
 3572SOL    HW122352   0.703   3.100   6.767 -2.2427 -0.1541 -0.8332
 3572SOL    HW222353   0.575   3.107   6.827 -0.4252  0.1598  1.6106
 3573SOL     OW22354   4.621   1.950   1.306  0.3503  0.3154  0.6182
 3573SOL    HW122355   4.681   2.024   1.319 -0.2933  0.8706  0.4361
 3573SOL    HW222356   4.690   1.885   1.316 -0.4462 -0.3159  1.9583
 3574SOL     OW22357   3.593   0.680   1.472 -0.6714 -0.3761  0.1084
 3574SOL    HW122358   3.648   0.755   1.449 -0.5494 -0.5380 -0.1250
 3574SOL    HW222359   3.576   0.705   1.562 -1.5068  0.9381 -0.4207
 3575SOL     OW22360   3.873   4.509   3.197 -0.0715 -0.1862  0.1224
 3575SOL    HW122361   3.938   4.514   3.267  0.2458 -0.3138 -0.1720
 3575SOL    HW222362   3.906   4.442   3.138  1.0944  1.3675 -0.9909
 3576SOL     OW22363   0.024   3.883   1.794  0.2420  0.5435  1.0257
 3576SOL    HW122364   0.001   3.949   1.729 -1.1542 -1.1960 -0.2503
 3576SOL    HW222365   0.118   3.898   1.797  0.6947 -1.9790 -0.4879
 3577SOL     OW22366   4.486   2.737  11.517 -0.5357  0.5333  0.3342
 3577SOL    HW122367   4.547   2.746  11.590 -0.0070 -2.1417  0.1991
 3577SOL    HW222368   4.411   2.695  11.558 -0.1991  0.6659  1.0879
 3578SOL     OW22369   3.014   0.344   0.581 -0.2668 -0.5842 -0.4794
 3578SOL    HW122370   3.091   0.321   0.632 -0.3874  1.3485  0.5741
 3578SOL    HW222371   3.054   0.388   0.506  1.4288 -1.4791 -0.0861
 3579SOL     OW22372   3.109   3.294   0.897 -0.1697 -0.4903 -0.4726
 3579SOL    HW122373   3.095   3.387   0.915  2.1410 -0.2295  0.0433
 3579SOL    HW222374   3.168   3.297   0.822  1.2365  1.5939  0.7238
 3580SOL     OW22375   0.129   0.152   1.738  0.2668  0.0097 -0.5731
 3580SOL    HW122376   0.213   0.182   1.772 -0.0659  0.0337  0.2486
 3580SOL    HW222377   0.112   0.210   1.664  0.6234 -0.1778 -0.8024
 3581SOL     OW22378   0.356   2.033   9.751  0.3613 -0.3765  0.4464
 3581SOL    HW122379   0.448   2.033   9.727  0.5860  0.8059  1.2883
 3581SOL    HW222380   0.314   2.054   9.668  2.2995 -0.4443 -0.5516
 3582SOL     OW22381   0.684   0.576   9.295 -0.2438  0.2679  0.3772
 3582SOL    HW122382   0.698   0.651   9.237  1.1979  0.2803  0.7468
 3582SOL    HW222383   0.744   0.605   9.364  0.7672  0.9715 -0.8095
 3583SOL     OW22384   4.537   4.189   7.076 -0.3975 -0.0130 -0.0925
 3583SOL    HW122385   4.624   4.174   7.113 -0.3977 -1.5461 -0.7099
 3583SOL    HW222386   4.489   4.249   7.132 -0.4457  1.4544 -1.7162
 3584SOL     OW22387   2.709   4.153   4.437 -0.2104 -0.1003  0.0709
 3584SOL    HW122388   2.669   4.173   4.353 -1.1399  2.8471  1.2131
 3584SOL    HW222389   2.795   4.121   4.410 -0.3434 -1.8723  1.7093
 3585SOL     OW22390   3.036   2.320   5.964 -1.0818 -0.3716  0.2012
 3585SOL    HW122391   3.095   2.251   5.996 -1.7961 -1.2239 -0.3027
 3585SOL    HW222392   2.995   2.269   5.894  1.0547  0.1459 -1.4260
 3586SOL     OW22393   0.166   3.578   4.726 -0.5583 -0.5312 -0.0267
 3586SOL    HW122394   0.230   3.507   4.733 -0.5486 -0.7725 -2.5512
 3586SOL    HW222395   0.111   3.567   4.804 -1.5572 -2.3543 -0.9709
 3587SOL     OW22396   1.788   3.312   5.315 -0.2388  0.0381 -0.6659
 3587SOL    HW122397   1.726   3.320   5.388  2.6494  2.4199  1.5318
 3587SOL    HW222398   1.830   3.230   5.341 -0.1631 -0.1234 -1.3174
 3588SOL     OW22399   0.032   2.856   5.024 -0.4264 -0.2604 -0.4026
 3588SOL    HW122400   0.017   2.775   4.975 -3.9551 -0.4034  0.9003
 3588SOL    HW222401   4.684   2.901   5.013 -0.3966 -0.0226  0.3733
 3589SOL     OW22402   0.331   3.182   6.489  0.1528  0.9562 -0.0459
 3589SOL    HW122403   0.418   3.176   6.528  0.2598 -1.5824 -0.6676
 3589SOL    HW222404   0.265   3.161   6.554  1.7607 -1.2580  0.8910
 3590SOL     OW22405   1.436   4.442   6.205  0.1042 -0.2188 -0.9773
 3590SOL    HW122406   1.369   4.497   6.246  0.6026 -0.2869 -0.0612
 3590SOL    HW222407   1.402   4.440   6.116  0.2423  1.2385 -1.0540
 3591SOL     OW22408   4.091   4.149   7.588 -0.6447  0.1682 -0.0414
 3591SOL    HW122409   4.011   4.167   7.538  0.6332 -0.7353 -2.4247
 3591SOL    HW222410   4.147   4.112   7.520  0.1315 -1.7859  1.6422
 3592SOL     OW22411   4.721   2.716  17.575  0.0079  0.2696 -0.6201
 3592SOL    HW122412   0.011   2.729  17.666 -0.0378  0.4377 -0.6316
 3592SOL    HW222413   4.633   2.680  17.583  0.9805 -1.3098  3.2422
 3593SOL     OW22414   0.090   0.988  16.043 -0.1252 -1.2430 -0.0527
 3593SOL    HW122415   0.081   0.893  16.044  1.1434 -1.3464  2.4060
 3593SOL    HW222416   0.053   1.013  16.128  0.1903 -0.4047 -0.1556
 3594SOL     OW22417   2.354   4.014   2.698  0.8008 -0.4727  0.1461
 3594SOL    HW122418   2.430   4.030   2.753  3.0254 -1.0004 -2.7757
 3594SOL    HW222419   2.333   3.922   2.714 -0.0610 -0.3233 -0.1139
 3595SOL     OW22420   2.076   1.335   5.760  0.1839  0.3389  0.1274
 3595SOL    HW122421   2.069   1.255   5.706 -1.1762  1.4509 -1.3528
 3595SOL    HW222422   2.029   1.405   5.714  0.3882  0.0980 -0.4595
 3596SOL     OW22423   0.151   4.010   3.686  0.1651  0.4633 -0.2142
 3596SOL    HW122424   0.184   4.060   3.761 -2.0121  1.0227  0.3712
 3596SOL    HW222425   0.223   4.021   3.623  0.4705  0.0505  0.0552
 3597SOL     OW22426   2.179   0.621  12.682  0.7129 -0.7594  0.1079
 3597SOL    HW122427   2.084   0.629  12.676  0.8653  0.3412 -1.0431
 3597SOL    HW222428   2.193   0.709  12.718 -2.6996  0.2547 -1.0040
 3598SOL     OW22429   1.336   3.605   2.562 -0.3250  0.2725  0.1041
 3598SOL    HW122430   1.363   3.513   2.556 -0.2884  0.4319 -2.4624
 3598SOL    HW222431   1.391   3.645   2.495 -0.3214 -2.2741 -1.4510
 3599SOL     OW22432   2.276   3.980   5.689 -0.1222  0.3861  0.4641
 3599SOL    HW122433   2.187   3.998   5.720 -1.2487  0.3162 -2.6682
 3599SOL    HW222434   2.293   4.056   5.634  0.7098 -0.2740 -0.1883
 3600SOL     OW22435   3.816   0.272  14.991 -0.4116 -0.0089 -0.1122
 3600SOL    HW122436   3.837   0.181  14.970 -0.6551  0.3689 -1.9946
 3600SOL    HW222437   3.882   0.321  14.942 -0.5823  0.0340 -0.3011
 3601SOL     OW22438   0.141   4.085   6.599 -0.5034  0.4517 -0.2803
 3601SOL    HW122439   0.066   4.043   6.642 -0.6927  0.0713 -0.9784
 3601SOL    HW222440   0.097   4.117   6.520  1.2088  1.1081 -0.9440
 3602SOL     OW22441   3.613   2.232   1.904  0.0546 -0.2461  0.2943
 3602SOL    HW122442   3.542   2.170   1.921 -2.1955  1.4838 -2.8221
 3602SOL    HW222443   3.557   2.294   1.858 -2.6562 -1.3508  2.1056
 3603SOL     OW22444   2.804   1.910   9.076  0.3256 -0.1208  0.8418
 3603SOL    HW122445   2.876   1.846   9.074 -1.0066 -1.7272  3.8229
 3603SOL    HW222446   2.849   1.989   9.045 -0.6048 -0.6286 -1.7324
 3604SOL     OW22447   3.935   4.700  10.256  0.7830 -0.3302 -0.2983
 3604SOL    HW122448   3.949   4.627  10.196  0.3423  0.1624 -0.9927
 3604SOL    HW222449   3.929   4.644  10.333 -1.1563 -1.6568 -1.4209
 3605SOL     OW22450   3.449   4.394  12.539  0.1399 -0.2569 -0.1352
 3605SOL    HW122451   3.392   4.470  12.523 -1.5696 -0.8387  3.2579
 3605SOL    HW222452   3.526   4.400  12.482  0.5201  1.1170  0.5168
 3606SOL     OW22453   2.691   2.283   6.717  0.2591  0.3407  0.2634
 3606SOL    HW122454   2.618   2.317   6.666 -0.0728  1.0214  1.1952
 3606SOL    HW222455   2.705   2.204   6.664 -0.0572 -0.8998  2.0554
 3607SOL     OW22456   0.006   0.254   4.446 -0.2313  0.2621 -0.1506
 3607SOL    HW122457   4.708   0.246   4.357 -4.4836  1.7097  1.3159
 3607SOL    HW222458   4.719   0.345   4.465 -1.5446 -0.8268  3.5196
 3608SOL     OW22459   2.337   2.257   2.860 -0.0019  0.2388  0.2104
 3608SOL    HW122460   2.295   2.173   2.840 -0.9248  1.0811 -1.4123
 3608SOL    HW222461   2.350   2.301   2.776  0.5795  0.8121  0.6015
 3609SOL     OW22462   0.002   3.303   0.183 -0.0073  0.0583 -0.1825
 3609SOL    HW122463   0.001   3.220   0.136  1.3784 -0.6325  1.0139
 3609SOL    HW222464   0.096   3.314   0.198  0.0077  1.5751 -1.4013
 3610SOL     OW22465   0.892   0.986   8.589 -0.1691  0.0134 -0.2678
 3610SOL    HW122466   0.929   0.903   8.557 -4.3846 -1.5247 -1.1434
 3610SOL    HW222467   0.960   1.050   8.565  0.5464 -1.7241 -2.9405
 3611SOL     OW22468   0.207   3.429  16.527  0.2572  0.7060 -0.2376
 3611SOL    HW122469   0.130   3.373  16.537  1.7830 -0.8771  2.7513
 3611SOL    HW222470   0.264   3.403  16.599 -0.1183 -0.4387 -0.3612
 3612SOL     OW22471   1.620   0.484  12.909 -0.1775  0.0111 -0.1444
 3612SOL    HW122472   1.706   0.451  12.883  0.3203 -0.1512  1.6815
 3612SOL    HW222473   1.628   0.475  13.004 -1.7933 -1.7380 -0.1753
 3613SOL     OW22474   2.196   2.013   2.896  0.6003 -0.5625  0.6348
 3613SOL    HW122475   2.263   1.984   2.957  0.8558  0.7622  0.9924
 3613SOL    HW222476   2.129   2.036   2.961 -1.6587 -0.2844 -1.7480
 3614SOL     OW22477   2.389   4.389  13.260  0.5976  0.0519  0.6901
 3614SOL    HW122478   2.428   4.441  13.331 -1.0359 -0.1376  1.7269
 3614SOL    HW222479   2.455   4.397  13.192  0.6003  3.0886  1.0706
 3615SOL     OW22480   2.384   2.872  16.605 -0.3087  0.3661  0.5772
 3615SOL    HW122481   2.432   2.947  16.569  1.4722 -0.3806  1.3749
 3615SOL    HW222482   2.407   2.798  16.550 -0.6078  1.0042 -0.3993
 3616SOL     OW22483   3.827   0.686   5.922 -0.0595  0.4010  0.0916
 3616SOL    HW122484   3.876   0.760   5.957  1.2409  0.9249 -2.8425
 3616SOL    HW222485   3.787   0.653   6.003  1.9575  1.0082  1.3252
 3617SOL     OW22486   0.530   4.169   5.921 -0.2468  0.2063  0.0142
 3617SOL    HW122487   0.441   4.133   5.922 -0.3535  0.4487 -0.7280
 3617SOL    HW222488   0.581   4.102   5.967 -0.8370  1.1344  2.0069
 3618SOL     OW22489   3.843   3.373  11.721  0.3046  0.5274  0.1419
 3618SOL    HW122490   3.827   3.285  11.688  1.0500  0.2346  0.5513
 3618SOL    HW222491   3.885   3.424  11.652 -2.8810 -0.1985 -2.2823
 3619SOL     OW22492   0.059   4.225   6.101  0.6159 -0.4031 -0.2913
 3619SOL    HW122493   0.030   4.312   6.076 -1.9411 -2.0416 -3.1463
 3619SOL    HW222494   0.108   4.197   6.023  1.9529 -0.9540  0.7525
 3620SOL     OW22495   4.038   3.533   1.431  0.3743  0.0976  0.0099
 3620SOL    HW122496   4.098   3.464   1.458 -2.0732 -2.1410 -0.3851
 3620SOL    HW222497   4.038   3.592   1.507  0.7936  0.0480  0.0456
 3621SOL     OW22498   3.536   4.211   8.779  0.0153 -0.3140  0.1615
 3621SOL    HW122499   3.622   4.170   8.788  0.3691  0.2179 -0.8210
 3621SOL    HW222500   3.561   4.303   8.791 -1.7952  0.0902  0.8405
 3622SOL     OW22501   1.986   4.692  12.530 -0.2693 -0.2728  0.2222
 3622SOL    HW122502   1.951   4.681  12.442  0.4832  2.5219 -0.4309
 3622SOL    HW222503   1.995   4.600  12.553  0.6641  0.2853  2.0876
 3623SOL     OW22504   1.793   3.333  17.544 -0.0025  0.7295  0.4541
 3623SOL    HW122505   1.828   3.341  17.632 -1.9442 -0.0410  1.2798
 3623SOL    HW222506   1.793   3.239  17.523 -0.2216  0.6825  0.6706
 3624SOL     OW22507   0.677   3.598   4.656 -0.3600 -0.1468  0.2145
 3624SOL    HW122508   0.753   3.655   4.648 -1.3531  0.8867 -1.8539
 3624SOL    HW222509   0.606   3.660   4.642  0.8108  1.5318  1.6092
 3625SOL     OW22510   0.650   0.298   5.465 -0.1345 -0.3311 -0.4373
 3625SOL    HW122511   0.742   0.307   5.491  0.3280 -1.0676 -1.8014
 3625SOL    HW222512   0.624   0.390   5.471  1.3051  0.0540 -0.0521
 3626SOL     OW22513   2.153   3.209   9.607  0.4301  0.1204  0.2784
 3626SOL    HW122514   2.176   3.300   9.628 -0.6584  0.7131 -1.1615
 3626SOL    HW222515   2.224   3.186   9.547 -0.5717 -0.1364 -0.8106
 3627SOL     OW22516   1.259   3.540  13.160  0.0732  0.1560 -0.1638
 3627SOL    HW122517   1.223   3.505  13.242  1.1415 -0.3449  0.0946
 3627SOL    HW222518   1.315   3.613  13.188 -1.1939  1.4281 -0.9252
 3628SOL     OW22519   4.681   0.043   8.521 -0.1286 -0.0152  0.0545
 3628SOL    HW122520   4.635   0.127   8.515 -0.3196 -0.0341  1.2705
 3628SOL    HW222521   4.711   0.036   8.430 -4.5924  1.0134 -1.5063
 3629SOL     OW22522   1.727   1.950   2.897 -0.0930 -0.1549 -0.1792
 3629SOL    HW122523   1.714   2.033   2.850 -1.2616 -0.1228  0.2104
 3629SOL    HW222524   1.722   1.979   2.988  3.2060  0.8056 -0.2817
 3630SOL     OW22525   1.294   0.633   4.219 -0.3401 -0.2391  0.1793
 3630SOL    HW122526   1.276   0.702   4.284  1.5733 -0.5980  1.0828
 3630SOL    HW222527   1.387   0.646   4.205 -0.5159  1.0418  0.1346
 3631SOL     OW22528   0.670   0.877  10.645 -0.0745 -0.2690 -0.6601
 3631SOL    HW122529   0.700   0.875  10.736  2.2504 -0.2612 -1.4236
 3631SOL    HW222530   0.647   0.786  10.630 -0.2624 -0.4358  0.6539
 3632SOL     OW22531   0.859   3.153   4.401  0.4556  0.4834 -0.0873
 3632SOL    HW122532   0.898   3.151   4.488 -0.7443  0.4235  0.4431
 3632SOL    HW222533   0.864   3.245   4.373 -1.5442  0.7044  0.2905
 3633SOL     OW22534   4.306   1.018   6.442  0.5751 -0.3121  0.1815
 3633SOL    HW122535   4.370   1.073   6.487  2.2652 -0.5142 -1.9703
 3633SOL    HW222536   4.232   1.010   6.501 -0.1301 -0.7220 -0.7477
 3634SOL     OW22537   2.054   2.862   3.046 -0.4750 -0.0787  0.3411
 3634SOL    HW122538   1.995   2.938   3.048 -0.0128  0.2654  1.2401
 3634SOL    HW222539   1.997   2.803   2.997  1.2006 -0.9056 -0.5857
 3635SOL     OW22540   4.342   0.981   6.121  0.4317  0.1707 -0.2182
 3635SOL    HW122541   4.395   1.058   6.141  1.9600 -0.9680  0.1389
 3635SOL    HW222542   4.273   0.998   6.186  0.4650 -0.4799 -0.0126
 3636SOL     OW22543   0.092   2.075   7.345  0.3687  0.5836 -0.2671
 3636SOL    HW122544   0.164   2.090   7.406  3.4819  0.2934 -3.8176
 3636SOL    HW222545   0.136   2.086   7.260 -1.0928  1.8017 -0.8692
 3637SOL     OW22546   2.617   4.546   9.036 -0.2645 -0.0628 -0.5259
 3637SOL    HW122547   2.636   4.550   8.942  0.0581 -0.7180 -0.4834
 3637SOL    HW222548   2.702   4.543   9.080  0.8057  0.5418 -2.5150
 3638SOL     OW22549   3.868   2.811   4.625  0.2025  0.1642  0.0807
 3638SOL    HW122550   3.793   2.840   4.572 -0.2195  1.1860  1.2397
 3638SOL    HW222551   3.850   2.717   4.614  3.4939 -0.3725 -0.8522
 3639SOL     OW22552   3.099   1.089   5.134  0.2091 -0.0589  0.0477
 3639SOL    HW122553   3.129   1.098   5.224  1.8585  0.6518 -0.5867
 3639SOL    HW222554   3.098   1.176   5.094 -1.1488  1.0561  2.4592
 3640SOL     OW22555   4.147   1.706   2.524 -0.9966 -0.1130 -0.1340
 3640SOL    HW122556   4.153   1.778   2.587 -1.8662 -0.3435  0.2150
 3640SOL    HW222557   4.184   1.629   2.566  0.8951  0.5721 -0.5509
 3641SOL     OW22558   0.902   2.862   7.920  0.0306  0.6130 -0.1204
 3641SOL    HW122559   0.900   2.828   7.831  0.2638 -0.1953  0.1829
 3641SOL    HW222560   0.827   2.921   7.913 -0.8070 -0.4832 -0.4149
 3642SOL     OW22561   2.716   0.734  16.543 -0.9719  0.1567  0.2956
 3642SOL    HW122562   2.703   0.788  16.621 -1.7647 -1.0228  0.9763
 3642SOL    HW222563   2.746   0.650  16.579 -2.7121  0.3817  2.2532
 3643SOL     OW22564   2.567   2.774   6.818 -0.2116  0.6117  0.0534
 3643SOL    HW122565   2.609   2.697   6.782 -2.8535 -0.2217 -1.2445
 3643SOL    HW222566   2.549   2.743   6.907 -2.6554 -1.0926 -1.0386
 3644SOL     OW22567   0.562   2.516   5.362 -0.4962 -0.1949 -0.2079
 3644SOL    HW122568   0.519   2.527   5.447 -0.2576  1.6072 -0.3206
 3644SOL    HW222569   0.563   2.596   5.310 -1.6324 -1.2459 -1.8192
 3645SOL     OW22570   0.483   0.733   2.615 -0.4002  0.9382 -0.3483
 3645SOL    HW122571   0.484   0.677   2.538 -1.1354  0.9809 -0.3848
 3645SOL    HW222572   0.417   0.698   2.674  1.6256 -2.8409 -0.3235
 3646SOL     OW22573   1.567   0.579   3.131 -0.3052 -0.0843  0.2270
 3646SOL    HW122574   1.654   0.578   3.172  0.0417 -2.3974 -0.5311
 3646SOL    HW222575   1.591   0.538   3.047 -2.3697 -2.0226  0.5778
 3647SOL     OW22576   1.375   4.561   2.539  0.3790  0.0234  0.4601
 3647SOL    HW122577   1.347   4.638   2.588  1.8877 -0.3737  1.9377
 3647SOL    HW222578   1.468   4.580   2.534  0.3372  0.5794  1.6649
 3648SOL     OW22579   3.256   3.185   6.355 -0.5575 -0.2556 -0.0651
 3648SOL    HW122580   3.230   3.247   6.286 -1.1832 -0.7886 -0.3103
 3648SOL    HW222581   3.176   3.136   6.375 -0.8431  0.5272  0.7164
 3649SOL     OW22582   3.707   2.364   7.951 -0.8956  0.3034  0.4323
 3649SOL    HW122583   3.728   2.458   7.952  1.3893 -0.2158  0.2465
 3649SOL    HW222584   3.792   2.326   7.930 -2.3376 -2.4072 -0.5117
 3650SOL     OW22585   3.788   3.867   7.653  0.2840  0.4363  0.1703
 3650SOL    HW122586   3.705   3.914   7.653 -1.7892 -3.2268 -0.4858
 3650SOL    HW222587   3.758   3.800   7.591 -0.9965  0.7899  0.4050
 3651SOL     OW22588   4.571   3.985  10.471 -0.0822  0.4912  0.0875
 3651SOL    HW122589   4.594   3.994  10.563 -1.4499 -1.0696  0.5906
 3651SOL    HW222590   4.631   3.927  10.423 -1.5902  0.1263 -1.3650
 3652SOL     OW22591   3.072   3.963   8.735 -0.6643 -0.2289  0.2426
 3652SOL    HW122592   3.062   4.007   8.819 -0.2698  0.0872  0.1194
 3652SOL    HW222593   3.161   3.983   8.709 -0.8728 -0.0862 -0.3714
 3653SOL     OW22594   3.676   0.252   9.821  0.2024  0.2129 -0.5568
 3653SOL    HW122595   3.645   0.220   9.736  0.7291  0.6612 -0.9175
 3653SOL    HW222596   3.598   0.253   9.876 -1.2562 -0.6100 -2.5993
 3654SOL     OW22597   1.974   2.133   8.150  0.2259  1.1606  0.5053
 3654SOL    HW122598   1.994   2.069   8.081 -1.3051  1.0428  0.1592
 3654SOL    HW222599   2.035   2.105   8.219  1.3170  0.0502 -0.9149
 3655SOL     OW22600   4.495   2.634   3.969  0.2607  0.4527 -0.2513
 3655SOL    HW122601   4.560   2.696   4.001  0.8816  0.2407 -1.0777
 3655SOL    HW222602   4.537   2.606   3.887 -0.4368  0.7075 -0.6943
 3656SOL     OW22603   2.926   4.597  12.815 -0.4155 -0.1771  0.2954
 3656SOL    HW122604   2.900   4.665  12.877 -1.5211 -0.5407  0.2348
 3656SOL    HW222605   2.844   4.549  12.807  0.1800 -1.0626 -0.5025
 3657SOL     OW22606   0.429   4.639  16.441  1.0593  0.1732 -0.4262
 3657SOL    HW122607   0.353   4.684  16.403  0.2071  0.3169  1.4571
 3657SOL    HW222608   0.501   4.687  16.399 -0.1639  2.4121  0.0072
 3658SOL     OW22609   3.678   1.960  15.990 -0.1288  0.3713 -0.4526
 3658SOL    HW122610   3.698   1.950  15.897 -0.0842  0.4382 -0.4506
 3658SOL    HW222611   3.593   2.003  15.988 -0.5608 -0.4580  0.1637
 3659SOL     OW22612   4.559   0.004   5.150  0.2437  0.3082 -0.6033
 3659SOL    HW122613   4.517   4.702   5.227  3.4531  0.5102  1.2551
 3659SOL    HW222614   4.645   4.701   5.138  0.1420 -0.0781 -0.0547
 3660SOL     OW22615   1.888   0.505   0.649  0.1451 -0.4004 -0.0350
 3660SOL    HW122616   1.830   0.580   0.657 -0.4499 -0.5793 -2.7540
 3660SOL    HW222617   1.961   0.521   0.709 -2.0771  2.4028  1.8818
 3661SOL     OW22618   1.918   2.479   1.909  0.2415 -0.0739  0.1932
 3661SOL    HW122619   1.843   2.471   1.969  0.2295  4.2011  0.7228
 3661SOL    HW222620   1.870   2.541   1.854 -0.4487 -0.1746  0.6820
 3662SOL     OW22621   1.784   4.249   3.119 -0.1258 -0.1383  0.4378
 3662SOL    HW122622   1.814   4.311   3.185  0.0620 -1.6847  1.8085
 3662SOL    HW222623   1.718   4.305   3.077 -1.2978  1.0292  3.7715
 3663SOL     OW22624   1.072   3.608   2.180  0.4767 -0.3735 -0.0290
 3663SOL    HW122625   1.044   3.517   2.187  0.4350 -0.4324 -1.0852
 3663SOL    HW222626   1.053   3.644   2.267  1.6274 -0.2020  0.1503
 3664SOL     OW22627   0.924   4.642   3.887 -0.5814 -0.8258 -0.9901
 3664SOL    HW122628   0.987   4.653   3.958 -0.4782 -0.7509 -1.0928
 3664SOL    HW222629   0.916   4.547   3.884  1.6917 -1.0765  0.5408
 3665SOL     OW22630   3.175   4.539  12.664  0.3527  0.6285  0.7903
 3665SOL    HW122631   3.218   4.612  12.619  1.0023  0.9447  1.9081
 3665SOL    HW222632   3.085   4.569  12.667 -0.0466 -0.5155  0.3254
 3666SOL     OW22633   3.430   2.722  10.429 -0.2321  0.8019  0.4515
 3666SOL    HW122634   3.397   2.635  10.453  0.0440  0.4961 -0.2547
 3666SOL    HW222635   3.346   2.764  10.410 -1.0382 -0.7120  0.6329
 3667SOL     OW22636   4.187   0.417  10.436  0.1334  0.5792  0.0556
 3667SOL    HW122637   4.282   0.415  10.434  0.2084  1.3771  2.3836
 3667SOL    HW222638   4.160   0.350  10.373 -2.4001 -0.1016  1.8420
 3668SOL     OW22639   3.868   3.653   8.825 -0.4871  0.5291 -0.1861
 3668SOL    HW122640   3.922   3.712   8.773 -2.4206  3.7355  1.4085
 3668SOL    HW222641   3.920   3.653   8.905  1.1031  0.1535 -1.2258
 3669SOL     OW22642   3.172   2.889   4.362 -0.0502 -0.2826  0.0915
 3669SOL    HW122643   3.095   2.920   4.314  0.4834  0.5190 -0.2475
 3669SOL    HW222644   3.173   2.794   4.354  0.0703 -0.4336  1.8988
 3670SOL     OW22645   2.155   3.163  15.755 -0.8535 -0.4491 -0.0733
 3670SOL    HW122646   2.222   3.187  15.819 -1.1650 -1.9434  0.8040
 3670SOL    HW222647   2.137   3.076  15.789  1.5785 -0.6187  0.7927
 3671SOL     OW22648   1.289   1.182   5.143  0.0004 -0.1545 -0.4058
 3671SOL    HW122649   1.214   1.151   5.195  0.7761  2.3290  2.1955
 3671SOL    HW222650   1.241   1.254   5.104  0.5755  1.0281  1.0561
 3672SOL     OW22651   3.005   2.193   6.385  0.0967  0.1973  0.3347
 3672SOL    HW122652   2.999   2.252   6.461  0.0440  1.5030 -0.6785
 3672SOL    HW222653   2.919   2.182   6.344 -0.5078  0.6360  1.4794
 3673SOL     OW22654   3.239   2.407   4.403 -0.0292  0.0756  0.1301
 3673SOL    HW122655   3.200   2.409   4.490 -0.3805  0.6741 -0.0426
 3673SOL    HW222656   3.255   2.314   4.389  2.5753  0.4391  0.6843
 3674SOL     OW22657   1.698   2.122   9.525 -0.6274  0.2686 -0.1978
 3674SOL    HW122658   1.714   2.046   9.580  1.0666  2.0387  1.7622
 3674SOL    HW222659   1.677   2.186   9.594  1.9751 -0.3400  1.1453
 3675SOL     OW22660   3.091   3.800   5.872  0.7005 -0.3584  0.2745
 3675SOL    HW122661   3.041   3.720   5.854  1.4548 -0.7032 -0.2773
 3675SOL    HW222662   3.182   3.775   5.857  0.4038 -0.5467 -1.2093
 3676SOL     OW22663   0.256   0.619   9.227 -0.3806 -0.0800 -0.3434
 3676SOL    HW122664   0.299   0.592   9.145 -0.0564  0.4730 -0.3537
 3676SOL    HW222665   0.177   0.651   9.184  0.3018  0.2776 -1.3553
 3677SOL     OW22666   0.774   3.588  12.597 -0.3387  0.2568  0.2864
 3677SOL    HW122667   0.781   3.493  12.585 -0.7708  0.1222  1.0568
 3677SOL    HW222668   0.767   3.590  12.693 -0.7048 -0.3108  0.2682
 3678SOL     OW22669   1.138   3.034   3.436 -0.0047 -0.0993 -0.6278
 3678SOL    HW122670   1.066   3.097   3.432  0.3244  0.3456  0.4218
 3678SOL    HW222671   1.148   3.044   3.531  0.8658  0.2568 -0.7472
 3679SOL     OW22672   1.818   2.543   5.026  0.0383 -0.6583  0.0007
 3679SOL    HW122673   1.737   2.592   5.044  1.5309  1.0046  2.2881
 3679SOL    HW222674   1.846   2.572   4.940 -1.6833 -0.7546 -0.5913
 3680SOL     OW22675   3.875   4.711   4.946  0.5233 -0.6033 -0.4477
 3680SOL    HW122676   3.923   4.655   4.886  0.0371 -1.0057 -0.4617
 3680SOL    HW222677   3.901   0.063   4.919  0.7919 -0.7158 -0.5565
 3681SOL     OW22678   0.133   4.296   8.015 -0.2740  0.1921 -0.1647
 3681SOL    HW122679   0.068   4.257   8.073 -1.4303  1.4961 -0.6051
 3681SOL    HW222680   0.095   4.383   8.000 -1.5618 -0.2665  0.4186
 3682SOL     OW22681   4.133   1.441  11.379 -0.0615 -0.1846  0.0195
 3682SOL    HW122682   4.174   1.519  11.341  1.7833 -0.1051  2.2424
 3682SOL    HW222683   4.136   1.379  11.306 -0.6112  0.7389 -0.7975
 3683SOL     OW22684   1.543   1.427   4.514 -0.2541 -0.3086  0.3467
 3683SOL    HW122685   1.477   1.481   4.471  1.9926  3.7657  1.9605
 3683SOL    HW222686   1.522   1.443   4.606  0.9279  1.8679  0.2454
 3684SOL     OW22687   0.572   0.094   3.664  0.0115 -0.2861 -0.2623
 3684SOL    HW122688   0.588   0.177   3.709  1.1483  0.8195 -2.7533
 3684SOL    HW222689   0.526   0.126   3.587  2.1153  2.1939 -0.4741
 3685SOL     OW22690   3.595   1.521   3.336  0.1103  0.1440  0.0411
 3685SOL    HW122691   3.670   1.502   3.279  0.5704  2.0363  0.0066
 3685SOL    HW222692   3.589   1.614   3.312  0.6666  0.0588 -0.4414
 3686SOL     OW22693   0.847   2.626   2.146  0.3653  0.1958 -0.1458
 3686SOL    HW122694   0.845   2.645   2.239  3.2440  0.5242 -0.1437
 3686SOL    HW222695   0.817   2.710   2.110 -1.4597 -0.5723 -0.4050
 3687SOL     OW22696   1.906   0.211   4.085  0.2228 -0.6405  0.4123
 3687SOL    HW122697   1.911   0.129   4.036  0.0937  0.4650 -1.4642
 3687SOL    HW222698   1.939   0.189   4.173  1.4579  0.3499  0.2022
 3688SOL     OW22699   3.825   3.470   3.178  0.0247  0.2889  0.0392
 3688SOL    HW122700   3.866   3.423   3.250 -0.3167  0.4766  0.3557
 3688SOL    HW222701   3.903   3.515   3.145 -0.3007  0.1281 -0.9639
 3689SOL     OW22702   0.757   4.233   7.271 -0.1533 -0.0359 -0.1453
 3689SOL    HW122703   0.738   4.203   7.360  0.0896  1.1739  0.3001
 3689SOL    HW222704   0.784   4.153   7.225  0.1858 -1.5091  2.5714
 3690SOL     OW22705   1.407   4.321  12.510 -0.3723  0.1989 -0.0920
 3690SOL    HW122706   1.497   4.338  12.537  0.5637 -1.2214 -2.3248
 3690SOL    HW222707   1.421   4.258  12.439  0.7329 -1.3487  1.5301
 3691SOL     OW22708   2.842   4.501   3.912 -0.5944 -0.3393  0.7691
 3691SOL    HW122709   2.885   4.573   3.866 -0.2161 -0.3689  1.0855
 3691SOL    HW222710   2.757   4.545   3.907  0.2881  1.2543  0.0770
 3692SOL     OW22711   2.142   0.056   7.793  0.2893  0.6056  0.0745
 3692SOL    HW122712   2.151   4.704   7.758 -0.9211 -0.0203  1.3051
 3692SOL    HW222713   2.175   0.102   7.716  0.7373  0.0164 -0.0832
 3693SOL     OW22714   0.499   3.956   4.357 -0.0950  0.1831 -0.3686
 3693SOL    HW122715   0.412   3.983   4.329  0.6635 -0.3356 -3.1809
 3693SOL    HW222716   0.526   4.035   4.405 -0.1703  1.3148 -2.1897
 3694SOL     OW22717   2.647   0.741   6.988 -0.2810  0.6178 -0.0642
 3694SOL    HW122718   2.734   0.737   7.027 -0.2892  0.2438 -0.0879
 3694SOL    HW222719   2.646   0.656   6.945 -0.9094  0.0918  1.0004
 3695SOL     OW22720   3.330   1.033   5.479  0.1647  0.7682 -0.4981
 3695SOL    HW122721   3.357   1.031   5.571  1.1761  1.0021 -0.7863
 3695SOL    HW222722   3.236   1.040   5.494  0.3386  0.7497  0.6206
 3696SOL     OW22723   4.624   3.081  14.857  0.1969 -0.0113  0.0313
 3696SOL    HW122724   4.633   3.116  14.769  0.0660 -1.0785 -0.4151
 3696SOL    HW222725   4.705   3.031  14.867  0.2162  0.0547  0.2003
 3697SOL     OW22726   2.390   3.025   8.021 -0.1862 -0.2165  0.1376
 3697SOL    HW122727   2.374   2.943   8.067 -0.1430 -0.3967 -0.1644
 3697SOL    HW222728   2.300   3.054   8.008 -0.4638 -0.7386  0.9066
 3698SOL     OW22729   0.017   4.547   7.973  0.3682 -0.4288 -0.0128
 3698SOL    HW122730   0.085   4.597   7.929 -0.3592 -0.0647 -0.7353
 3698SOL    HW222731   4.678   4.560   7.916 -0.2793  2.1769  1.4364
 3699SOL     OW22732   3.764   0.421   2.857  0.0899 -0.0029 -0.2275
 3699SOL    HW122733   3.742   0.496   2.913  2.4742  1.3584 -1.1068
 3699SOL    HW222734   3.697   0.360   2.887 -0.2639  0.4634 -0.0626
 3700SOL     OW22735   3.765   4.310   5.915  0.0936 -0.1098 -0.1344
 3700SOL    HW122736   3.673   4.286   5.905  0.1128  0.1311 -0.8341
 3700SOL    HW222737   3.780   4.349   5.829 -0.0102  0.7322  0.2243
 3701SOL     OW22738   1.423   2.948   5.306  0.0828 -0.7914 -0.4283
 3701SOL    HW122739   1.435   3.023   5.248 -1.8266  1.0819  1.5971
 3701SOL    HW222740   1.497   2.971   5.363  0.4467 -1.0205 -0.8038
 3702SOL     OW22741   1.666   0.926  11.924 -0.1770  0.3608  0.5092
 3702SOL    HW122742   1.664   0.995  11.991  0.0722  1.7153 -0.8755
 3702SOL    HW222743   1.590   0.875  11.951  0.7769 -1.8580 -1.0647
 3703SOL     OW22744   1.058   3.652   0.707  0.3448  0.3472 -0.0548
 3703SOL    HW122745   1.010   3.706   0.770  0.5864 -0.2428  0.6340
 3703SOL    HW222746   1.125   3.716   0.684 -0.3717  2.3232  3.3901
 3704SOL     OW22747   4.703   2.395  17.510 -0.3664  0.3767 -0.9459
 3704SOL    HW122748   0.019   2.474  17.498 -2.4995  1.7449 -1.1549
 3704SOL    HW222749   4.618   2.432  17.535 -0.1466  0.3981 -0.2157
 3705SOL     OW22750   1.059   4.306   3.088 -0.2695 -0.1449  0.3858
 3705SOL    HW122751   0.986   4.333   3.033 -0.8480 -1.8241  0.3270
 3705SOL    HW222752   1.072   4.215   3.062 -0.4769 -0.1447  0.2809
 3706SOL     OW22753   0.179   0.333   0.396 -0.2176  0.0521 -0.6488
 3706SOL    HW122754   0.158   0.273   0.325 -1.1387  0.5835 -0.8312
 3706SOL    HW222755   0.120   0.406   0.377 -0.0454  0.4183  0.2205
 3707SOL     OW22756   3.878   2.524   6.824 -0.3635  0.4978 -0.3379
 3707SOL    HW122757   3.865   2.591   6.757 -0.5117  0.6691 -0.1369
 3707SOL    HW222758   3.863   2.579   6.901 -2.0958 -1.3363  0.6402
 3708SOL     OW22759   3.259   3.361   7.761  0.2457 -0.4765 -0.2767
 3708SOL    HW122760   3.183   3.359   7.703 -1.5451 -0.7916  2.0978
 3708SOL    HW222761   3.292   3.271   7.759  1.7665  0.0873  0.0372
 3709SOL     OW22762   1.142   1.019   6.372  0.3860 -0.5321 -0.3886
 3709SOL    HW122763   1.091   1.066   6.438  1.2300  0.6205 -0.5467
 3709SOL    HW222764   1.221   1.073   6.368  0.6934 -1.0689 -1.5988
 3710SOL     OW22765   2.206   4.601  11.071 -0.1424 -0.0483 -0.6170
 3710SOL    HW122766   2.180   4.516  11.107  0.6639  0.3253  0.8381
 3710SOL    HW222767   2.291   4.613  11.112  0.4768  0.8665 -2.1747
 3711SOL     OW22768   0.083   3.222   4.884  0.2440 -0.0747  0.1502
 3711SOL    HW122769   0.096   3.138   4.840 -1.5588 -1.5484  2.4613
 3711SOL    HW222770   0.151   3.282   4.852 -2.5699  1.6269 -2.5547
 3712SOL     OW22771   3.604   4.058  17.230 -1.1594  0.0209 -0.0367
 3712SOL    HW122772   3.518   4.092  17.204 -1.3524 -0.1586  0.3641
 3712SOL    HW222773   3.631   4.108  17.307 -0.9055  2.7723 -1.9186
 3713SOL     OW22774   1.364   0.957   0.922 -0.4651  0.7515  0.3063
 3713SOL    HW122775   1.426   1.027   0.939 -1.0937  1.2282  0.6595
 3713SOL    HW222776   1.283   1.006   0.908 -0.3196  0.1981 -2.5172
 3714SOL     OW22777   4.408   3.235   2.184  0.0585  0.1946  0.3281
 3714SOL    HW122778   4.475   3.271   2.126  0.2840 -2.4892 -1.0331
 3714SOL    HW222779   4.346   3.307   2.168 -0.9075 -1.1490 -1.9182
 3715SOL     OW22780   2.025   0.111   5.913 -0.4497 -0.0998 -0.5009
 3715SOL    HW122781   2.033   0.163   5.992  1.4669 -0.6254 -0.3686
 3715SOL    HW222782   2.117   0.085   5.906 -1.0795 -2.1056 -1.5351
 3716SOL     OW22783   0.085   0.079   3.555 -0.1895 -0.0630 -0.2158
 3716SOL    HW122784   0.113   0.160   3.598 -0.4546  1.1586 -2.3689
 3716SOL    HW222785   0.124   0.095   3.469 -1.9921  1.5127 -0.7352
 3717SOL     OW22786   3.272   2.092  13.121 -0.0707 -0.4178 -0.0613
 3717SOL    HW122787   3.241   2.106  13.032  1.1169  3.2862  0.1110
 3717SOL    HW222788   3.362   2.065  13.108  0.3461  0.9828 -0.1040
 3718SOL     OW22789   0.723   0.379   7.159  0.0191 -0.2565  0.4024
 3718SOL    HW122790   0.683   0.303   7.117 -0.0142  0.2329 -0.4474
 3718SOL    HW222791   0.774   0.330   7.223 -0.0591 -1.2300 -0.2969
 3719SOL     OW22792   4.121   0.688  10.403  0.2187  0.3028  0.4495
 3719SOL    HW122793   4.026   0.679  10.409 -0.0515  1.4415 -1.9725
 3719SOL    HW222794   4.144   0.595  10.410  2.6112  0.7841 -0.7250
 3720SOL     OW22795   2.122   2.665   8.113  0.3211  0.5025 -0.0539
 3720SOL    HW122796   2.099   2.678   8.021  1.7275  1.3041 -0.2878
 3720SOL    HW222797   2.039   2.636   8.151  1.3006 -0.7059  1.1362
 3721SOL     OW22798   4.276   4.346   8.694 -0.3754 -0.0527  0.1278
 3721SOL    HW122799   4.307   4.260   8.665  1.7123  0.4217  0.9719
 3721SOL    HW222800   4.189   4.326   8.726 -1.4887  5.1691  0.4119
 3722SOL     OW22801   2.616   2.064   9.682 -0.2328  1.0333 -0.1703
 3722SOL    HW122802   2.710   2.047   9.690 -0.1145 -0.3980 -4.4974
 3722SOL    HW222803   2.597   2.026   9.596 -1.6489 -0.3734  0.7477
 3723SOL     OW22804   2.449   2.142   6.097  0.4950 -0.3056  0.0132
 3723SOL    HW122805   2.446   2.046   6.102 -0.2880 -0.3700 -1.6734
 3723SOL    HW222806   2.443   2.158   6.003  0.7586 -2.3064 -0.3466
 3724SOL     OW22807   1.479   0.537   7.504  0.2882  0.4627 -0.2741
 3724SOL    HW122808   1.433   0.544   7.587  1.0983  1.2495  0.0999
 3724SOL    HW222809   1.524   0.620   7.488  0.2830  0.2693 -1.3303
 3725SOL     OW22810   2.864   0.608   5.644  0.7126  0.7552  0.6021
 3725SOL    HW122811   2.942   0.557   5.668 -0.7827 -0.5119  2.8352
 3725SOL    HW222812   2.792   0.548   5.665  0.3638  1.0598  0.2637
 3726SOL     OW22813   1.323   4.652  12.299 -0.1117  0.0785  0.5271
 3726SOL    HW122814   1.366   4.705  12.367  2.1772  0.5396 -1.2985
 3726SOL    HW222815   1.395   4.597  12.269 -0.0984  1.3142 -1.7354
 3727SOL     OW22816   4.296   0.227   6.735 -0.7658 -0.7853  0.1117
 3727SOL    HW122817   4.386   0.215   6.706 -0.6414  0.0716  0.1386
 3727SOL    HW222818   4.307   0.189   6.822 -0.5884  1.7011  1.1875
 3728SOL     OW22819   3.889   1.684  16.367  0.2202  0.2684  0.2551
 3728SOL    HW122820   3.913   1.766  16.325 -0.9615  0.7063  0.4538
 3728SOL    HW222821   3.842   1.708  16.446  0.1780  2.1040 -0.3328
 3729SOL     OW22822   3.772   0.286   1.784  0.2820 -0.2264 -0.0829
 3729SOL    HW122823   3.694   0.301   1.731  0.6410  3.2844  0.3596
 3729SOL    HW222824   3.787   0.363   1.840  1.8428  0.4911 -1.4800
 3730SOL     OW22825   3.626   2.171   8.223 -0.9722  0.3422 -0.1440
 3730SOL    HW122826   3.618   2.106   8.292 -0.8610  1.5586  1.0232
 3730SOL    HW222827   3.684   2.126   8.161 -0.3200 -0.1624  0.8200
 3731SOL     OW22828   0.528   3.483  16.054 -0.0153 -0.9027  0.3033
 3731SOL    HW122829   0.595   3.438  16.106 -0.3404  0.9674  2.3516
 3731SOL    HW222830   0.586   3.539  16.002 -1.4890  0.0414 -0.3389
 3732SOL     OW22831   3.827   3.652   7.486 -0.2756 -0.4128 -0.0973
 3732SOL    HW122832   3.804   3.574   7.536 -0.8533  0.5251  1.0926
 3732SOL    HW222833   3.919   3.673   7.502 -0.3244 -1.4457  1.5220
 3733SOL     OW22834   1.771   0.781  14.854 -0.7539  0.0733  0.1962
 3733SOL    HW122835   1.771   0.858  14.911  0.3886 -1.1999  1.8967
 3733SOL    HW222836   1.750   0.711  14.915  2.9017 -1.6222 -0.4539
 3734SOL     OW22837   0.025   3.509   5.778 -0.3002  0.4661  0.1388
 3734SOL    HW122838   0.051   3.528   5.868 -2.8411  0.2718  0.8967
 3734SOL    HW222839   0.099   3.550   5.732  1.6345 -3.4788 -0.3040
 3735SOL     OW22840   4.269   0.188   3.418  0.4623 -0.3336 -0.4504
 3735SOL    HW122841   4.287   0.210   3.327 -0.8387 -0.4799 -0.7508
 3735SOL    HW222842   4.356   0.182   3.457  0.4168  0.5333 -0.2144
 3736SOL     OW22843   4.684   1.706  12.779 -0.5630  0.1021  0.5491
 3736SOL    HW122844   4.597   1.675  12.806 -1.1678  0.1250 -1.4138
 3736SOL    HW222845   4.726   1.703  12.865 -0.5357 -1.5870  0.4744
 3737SOL     OW22846   2.484   1.733   9.628 -0.2040 -0.2718 -0.2360
 3737SOL    HW122847   2.403   1.705   9.585  1.2600 -3.0467 -1.1990
 3737SOL    HW222848   2.538   1.657   9.605  0.5295  0.2487 -0.2184
 3738SOL     OW22849   0.719   2.060   3.365 -0.0403  0.3584  0.2283
 3738SOL    HW122850   0.673   2.123   3.309  1.1081  2.3056  1.4778
 3738SOL    HW222851   0.649   2.059   3.429 -1.6154 -1.6305 -1.5337
 3739SOL     OW22852   3.081   3.498   1.850 -0.3877  0.0470  0.0986
 3739SOL    HW122853   3.110   3.516   1.760 -2.6090  0.4938 -0.5309
 3739SOL    HW222854   3.115   3.580   1.884  0.6422  0.0670 -0.9748
 3740SOL     OW22855   2.467   0.414   7.620  0.0284 -0.3235 -0.2450
 3740SOL    HW122856   2.459   0.450   7.708 -0.0982  0.6137 -0.6442
 3740SOL    HW222857   2.456   0.489   7.562  2.8739 -2.0072 -2.9297
 3741SOL     OW22858   3.462   1.612   6.312 -0.6707 -0.4262  0.0578
 3741SOL    HW122859   3.469   1.527   6.269  0.0382 -0.8037  0.9170
 3741SOL    HW222860   3.408   1.591   6.388  0.3521  0.2873  0.9905
 3742SOL     OW22861   3.766   0.295   6.175 -0.1965  0.0741 -0.5267
 3742SOL    HW122862   3.804   0.272   6.090  2.7358 -2.6760  1.5301
 3742SOL    HW222863   3.773   0.390   6.165  0.2001  0.0653 -0.3560
 3743SOL     OW22864   2.733   3.645   3.249  0.0316 -0.1945  0.0775
 3743SOL    HW122865   2.798   3.662   3.181 -1.6138  1.7458 -1.0048
 3743SOL    HW222866   2.735   3.549   3.252 -0.2744 -0.2048  0.0161
 3744SOL     OW22867   1.592   1.459  13.820  0.9709 -0.2101  0.1583
 3744SOL    HW122868   1.648   1.397  13.866 -0.6842 -2.3393 -0.7042
 3744SOL    HW222869   1.636   1.541  13.842  0.6981  0.0606 -0.3174
 3745SOL     OW22870   1.676   0.402   4.145 -0.0185 -0.5589 -0.4267
 3745SOL    HW122871   1.745   0.336   4.154  0.3433  0.1131  1.5926
 3745SOL    HW222872   1.676   0.412   4.050 -1.0899 -1.6224 -0.5344
 3746SOL     OW22873   3.676   3.805  17.364 -0.5297 -0.0049  0.3734
 3746SOL    HW122874   3.669   3.877  17.301 -1.4884 -1.3873 -1.1125
 3746SOL    HW222875   3.725   3.740  17.314 -0.3645  0.9933 -0.7731
 3747SOL     OW22876   0.796   1.301  15.826  0.0046  0.1395  0.2238
 3747SOL    HW122877   0.860   1.372  15.838 -0.4573  0.9026 -1.8090
 3747SOL    HW222878   0.736   1.319  15.899 -0.4345  0.2135 -0.1593
 3748SOL     OW22879   1.579   2.102   7.932  0.2380 -0.2073  0.3794
 3748SOL    HW122880   1.613   2.061   7.853  0.8278  1.8563 -0.4111
 3748SOL    HW222881   1.626   2.057   8.002  3.9743 -0.7480 -2.4936
 3749SOL     OW22882   1.519   1.019   6.453  0.2826 -0.3251 -0.0911
 3749SOL    HW122883   1.450   0.990   6.513  2.4370 -3.7522  0.7059
 3749SOL    HW222884   1.464   1.083   6.407 -1.4745 -1.0976  0.9138
 3750SOL     OW22885   1.508   0.558  10.136 -0.6770 -0.6284 -0.4530
 3750SOL    HW122886   1.564   0.601  10.071  0.2979 -2.0542 -0.5542
 3750SOL    HW222887   1.539   0.467  10.138  0.4940 -0.1557  3.1173
 3751SOL     OW22888   4.100   4.260   3.299  0.1162  0.1081 -0.0450
 3751SOL    HW122889   4.050   4.323   3.351 -0.6698 -2.8110  2.7216
 3751SOL    HW222890   4.181   4.282   3.344  0.1857  1.9658 -1.0649
 3752SOL     OW22891   0.978   0.848  13.507  0.1663  0.4947 -0.1801
 3752SOL    HW122892   1.006   0.937  13.488  0.2895  0.7932  1.3578
 3752SOL    HW222893   0.890   0.848  13.469  0.6954  3.9323 -1.3838
 3753SOL     OW22894   3.621   0.598   2.353 -0.4967  0.0373  0.1642
 3753SOL    HW122895   3.700   0.593   2.407 -0.6247 -1.2337  0.2408
 3753SOL    HW222896   3.590   0.687   2.370 -0.1947 -0.1432  1.6997
 3754SOL     OW22897   4.093   3.558   3.148 -0.6042  0.5422 -0.0084
 3754SOL    HW122898   4.169   3.562   3.091 -1.6709  2.0163 -1.3201
 3754SOL    HW222899   4.072   3.651   3.148 -0.2301  0.6215  1.5332
 3755SOL     OW22900   3.134   2.628   0.270  0.0272 -0.0642 -0.4044
 3755SOL    HW122901   3.214   2.620   0.219  0.9732  1.6115  0.8398
 3755SOL    HW222902   3.112   2.721   0.269 -1.5349 -0.4243  0.7283
 3756SOL     OW22903   4.603   1.207  14.574 -0.2108  0.4997 -0.3340
 3756SOL    HW122904   4.508   1.216  14.581 -0.3995  0.3848 -2.5222
 3756SOL    HW222905   4.636   1.263  14.644  0.3726  1.3276 -1.2577
 3757SOL     OW22906   2.348   0.220   4.784 -0.2366 -0.0844 -0.0890
 3757SOL    HW122907   2.373   0.250   4.696  0.0487 -0.5398 -0.1628
 3757SOL    HW222908   2.388   0.296   4.827  0.2202  0.5372 -1.6007
 3758SOL     OW22909   4.030   1.982   5.291  0.3673  0.1181  0.3018
 3758SOL    HW122910   4.028   2.053   5.228 -3.8910 -2.6193 -2.6563
 3758SOL    HW222911   4.108   1.937   5.259  0.7737  2.7000 -2.3444
 3759SOL     OW22912   3.381   3.606   2.421 -0.3207  0.2653 -0.0097
 3759SOL    HW122913   3.439   3.574   2.490  0.4801  0.2466 -0.6873
 3759SOL    HW222914   3.295   3.580   2.455  0.2800  0.8615  1.9759
 3760SOL     OW22915   3.923   1.479   2.902  0.0476  0.0143  0.3275
 3760SOL    HW122916   3.996   1.439   2.948  1.1213  2.5727  0.8450
 3760SOL    HW222917   3.861   1.408   2.884 -0.1690  0.0859  0.7784
 3761SOL     OW22918   1.750   0.754  11.722 -0.1133 -0.4073  0.0492
 3761SOL    HW122919   1.672   0.731  11.672 -1.0865  0.6325  1.1190
 3761SOL    HW222920   1.715   0.811  11.790 -0.6873  0.3399 -0.8567
 3762SOL     OW22921   3.327   1.635   9.043  0.6316  0.3735 -0.3449
 3762SOL    HW122922   3.349   1.644   9.136  3.1765 -0.0255 -0.8955
 3762SOL    HW222923   3.402   1.681   9.004  0.8775 -1.4221 -1.9894
 3763SOL     OW22924   1.327   1.881   1.734  0.3325 -0.1624 -0.3242
 3763SOL    HW122925   1.366   1.967   1.718  0.7919 -0.1205  1.0001
 3763SOL    HW222926   1.239   1.888   1.696 -0.2507  0.3111  1.1138
 3764SOL     OW22927   3.995   1.729  12.901 -0.4721 -0.1522  0.2587
 3764SOL    HW122928   4.078   1.771  12.922 -0.6136 -1.2262  3.0672
 3764SOL    HW222929   4.026   1.652  12.854  1.2762 -0.5576  2.0620
 3765SOL     OW22930   1.773   3.232   2.858  0.1381 -0.4126 -0.0765
 3765SOL    HW122931   1.840   3.300   2.866 -0.3303  0.1794 -1.0804
 3765SOL    HW222932   1.777   3.206   2.766 -0.4022 -0.5691 -0.0559
 3766SOL     OW22933   0.169   4.486   7.507  0.0295 -0.0323  0.2196
 3766SOL    HW122934   0.155   4.415   7.445  1.9512  0.2885 -0.5845
 3766SOL    HW222935   0.083   4.503   7.546 -0.0657 -0.2117  0.0845
 3767SOL     OW22936   3.719   0.955   5.536 -0.1010 -0.5288 -0.1448
 3767SOL    HW122937   3.674   1.028   5.494 -0.2884  0.9593  2.6419
 3767SOL    HW222938   3.744   0.995   5.619 -0.7875 -0.1467 -0.1194
 3768SOL     OW22939   0.608   4.107  11.325  0.4745 -0.4737 -0.2014
 3768SOL    HW122940   0.518   4.131  11.304  0.8278  1.3344  0.3477
 3768SOL    HW222941   0.651   4.188  11.351 -3.6520  1.0998  1.7052
 3769SOL     OW22942   0.327   1.702   7.412 -0.0995 -0.1703 -0.4959
 3769SOL    HW122943   0.368   1.789   7.409  0.1849 -0.2022  2.8801
 3769SOL    HW222944   0.349   1.660   7.329  0.5378 -1.5781  0.3896
 3770SOL     OW22945   3.643   1.166  13.093 -0.3699 -0.3867  0.1891
 3770SOL    HW122946   3.698   1.109  13.038 -0.9947  0.2461 -1.0889
 3770SOL    HW222947   3.577   1.182  13.026  1.0909 -1.0244 -1.4254
 3771SOL     OW22948   2.132   2.347   5.539 -0.0992  0.1679  0.2354
 3771SOL    HW122949   2.121   2.294   5.461 -2.9421 -0.9842  1.4277
 3771SOL    HW222950   2.126   2.438   5.508  1.2610  0.2855  0.3052
 3772SOL     OW22951   0.988   2.062   2.742 -0.5278 -0.3037  0.5579
 3772SOL    HW122952   1.079   2.049   2.768 -0.4262 -0.7207  0.0076
 3772SOL    HW222953   0.953   2.000   2.806  1.3599 -3.1637 -1.1744
 3773SOL     OW22954   0.263   4.477  16.239  0.1086 -0.5087  0.0652
 3773SOL    HW122955   0.353   4.471  16.208  1.0345  0.2985  2.5654
 3773SOL    HW222956   0.263   4.573  16.240 -3.6920 -0.5221  0.3059
 3774SOL     OW22957   1.250   2.553  17.029  0.3919 -0.1222 -0.2743
 3774SOL    HW122958   1.173   2.504  17.058 -0.2361  0.2678 -1.2866
 3774SOL    HW222959   1.283   2.585  17.113 -1.0288 -1.4511  0.7924
 3775SOL     OW22960   0.090   4.003   4.339  0.3141 -0.4192  0.1150
 3775SOL    HW122961   0.037   3.956   4.275  1.0164  2.0690 -2.2809
 3775SOL    HW222962   0.055   3.968   4.421  2.3401 -2.0321  0.2890
 3776SOL     OW22963   1.380   2.257   3.891 -0.2336  0.1987  0.1977
 3776SOL    HW122964   1.337   2.303   3.963  0.3839 -1.9045  1.9464
 3776SOL    HW222965   1.430   2.190   3.938  0.0532 -1.1128 -1.9960
 3777SOL     OW22966   4.097   0.492   7.472 -0.0724 -0.5090 -0.0022
 3777SOL    HW122967   4.162   0.470   7.405  1.0679  0.3383  0.8327
 3777SOL    HW222968   4.135   0.564   7.522 -0.3580 -1.1282  1.0981
 3778SOL     OW22969   1.183   3.249  13.444 -0.4616  0.3638  0.1272
 3778SOL    HW122970   1.204   3.217  13.356  2.5317 -1.6973  1.5707
 3778SOL    HW222971   1.181   3.341  13.420 -1.6008  0.4109  0.3982
 3779SOL     OW22972   0.159   4.452  16.539 -0.1283 -0.1356 -0.2776
 3779SOL    HW122973   0.215   4.494  16.604 -0.8516 -1.2981  1.1082
 3779SOL    HW222974   0.192   4.491  16.459  0.7006 -1.1071 -0.4225
 3780SOL     OW22975   3.888   0.298   5.561  0.3627  0.2628 -0.4088
 3780SOL    HW122976   3.798   0.307   5.529  0.4678 -1.0762 -1.0855
 3780SOL    HW222977   3.904   0.384   5.600  0.5926  0.4854 -0.9834
 3781SOL     OW22978   3.606   2.432  13.354  0.5156 -0.8659  0.2598
 3781SOL    HW122979   3.684   2.463  13.399  0.7108  1.0020 -1.3462
 3781SOL    HW222980   3.579   2.363  13.414  0.3179 -2.0232 -1.1539
 3782SOL     OW22981   0.591   3.595   4.077  0.3665  0.5747 -0.7250
 3782SOL    HW122982   0.668   3.632   4.121  0.2239  0.6102 -0.5032
 3782SOL    HW222983   0.527   3.667   4.081 -0.5431 -0.2116 -1.1883
 3783SOL     OW22984   4.416   1.226   6.197 -0.0730 -0.3576  0.1538
 3783SOL    HW122985   4.439   1.202   6.287  1.1998 -0.6493 -0.2469
 3783SOL    HW222986   4.446   1.317   6.192  0.4593 -0.6156 -1.4604
 3784SOL     OW22987   3.578   1.133   4.881 -0.2484 -0.1392  0.1259
 3784SOL    HW122988   3.514   1.184   4.931  0.0915 -0.6521  1.0756
 3784SOL    HW222989   3.648   1.191   4.852 -1.6624  0.3795 -2.2489
 3785SOL     OW22990   2.998   2.085  10.794 -0.6913 -0.2647  0.1206
 3785SOL    HW122991   3.010   2.018  10.862  0.4621  1.4255  1.5819
 3785SOL    HW222992   3.082   2.127  10.810 -1.2781  0.4561  1.3869
 3786SOL     OW22993   2.155   2.774   1.426  0.1303 -0.4591 -0.5618
 3786SOL    HW122994   2.087   2.820   1.378 -0.4236 -0.5477  0.1470
 3786SOL    HW222995   2.225   2.753   1.363 -1.6911 -1.6647 -2.1849
 3787SOL     OW22996   2.667   0.806   1.309 -0.0629 -0.2508 -0.3926
 3787SOL    HW122997   2.760   0.826   1.302 -0.1522  1.1495  2.5879
 3787SOL    HW222998   2.641   0.863   1.382 -0.1493 -0.6353 -0.1226
 3788SOL     OW22999   3.693   3.219   8.477 -0.2146  0.3174  0.4265
 3788SOL    HW123000   3.637   3.172   8.538  1.3087  0.4699  1.9562
 3788SOL    HW223001   3.707   3.306   8.516  3.7121  0.7558 -1.9040
 3789SOL     OW23002   3.195   4.634   3.896 -0.0137 -0.1792  0.0295
 3789SOL    HW123003   3.156   4.602   3.815 -0.1150  3.2697 -1.2982
 3789SOL    HW223004   3.287   4.621   3.872  0.1019 -0.4066  0.6128
 3790SOL     OW23005   4.486   1.759   7.987 -0.1301 -0.1870  0.4094
 3790SOL    HW123006   4.391   1.751   7.976  0.0651 -0.8784 -0.7664
 3790SOL    HW223007   4.507   1.670   7.959  1.4564 -0.0664  1.2393
 3791SOL     OW23008   3.388   4.731   5.212 -0.1243 -0.8649  0.0126
 3791SOL    HW123009   3.302   0.023   5.242  1.1498  3.4478 -0.4807
 3791SOL    HW223010   3.432   0.079   5.199 -0.5064 -0.6528  0.0933
 3792SOL     OW23011   2.973   3.438   6.382 -0.0482 -0.0123 -0.2673
 3792SOL    HW123012   2.945   3.528   6.403  0.3033  0.0940 -0.2612
 3792SOL    HW223013   2.937   3.418   6.296  0.1615  0.4600 -0.4627
 3793SOL     OW23014   4.070   1.419  16.047 -0.0848 -0.1568  0.4270
 3793SOL    HW123015   4.048   1.326  16.054 -0.7989  0.0222  0.5586
 3793SOL    HW223016   3.989   1.452  16.009  1.0931  2.7721  0.4599
 3794SOL     OW23017   0.331   3.037   4.250 -0.2058  0.0024 -0.9260
 3794SOL    HW123018   0.268   3.058   4.319 -1.5016  1.3735 -2.5259
 3794SOL    HW223019   0.413   3.058   4.294 -0.4381  2.7744 -1.8147
 3795SOL     OW23020   2.515   2.366   0.707  0.3024  0.6539 -0.1479
 3795SOL    HW123021   2.538   2.335   0.619 -2.7943 -1.2490 -0.2965
 3795SOL    HW223022   2.445   2.306   0.732  0.2655 -0.5418 -3.0634
 3796SOL     OW23023   0.939   2.223   5.507 -0.5295  0.5753 -1.2096
 3796SOL    HW123024   0.881   2.288   5.547 -0.4220  0.4367 -0.8313
 3796SOL    HW223025   0.953   2.255   5.418 -2.6315  1.4765 -1.2246
 3797SOL     OW23026   4.204   2.495   6.484  0.1030 -0.5461 -0.5390
 3797SOL    HW123027   4.244   2.557   6.423 -1.0850  1.2566  0.5510
 3797SOL    HW223028   4.117   2.477   6.449  0.4257 -1.8344 -0.6904
 3798SOL     OW23029   0.721   2.365   2.169 -0.2431  0.1352  0.0600
 3798SOL    HW123030   0.792   2.374   2.232  0.6368 -0.2696 -0.8775
 3798SOL    HW223031   0.737   2.447   2.123 -0.4035  0.4245  0.5136
 3799SOL     OW23032   3.516   4.026  10.479  0.5031  0.1281  1.0088
 3799SOL    HW123033   3.472   4.099  10.522  0.7006  0.1756  1.1307
 3799SOL    HW223034   3.474   4.035  10.393  0.3240 -1.9433  0.8881
 3800SOL     OW23035   1.913   0.081  12.077  0.5078  0.3460 -0.5931
 3800SOL    HW123036   1.914   0.020  12.151 -1.2379  2.5425  1.2172
 3800SOL    HW223037   1.821   0.078  12.050  0.9224 -1.7381 -1.8158
 3801SOL     OW23038   4.638   4.101   3.068 -0.2806  0.4184 -0.1382
 3801SOL    HW123039   4.712   4.069   3.016 -1.8409 -0.9947 -1.4614
 3801SOL    HW223040   4.597   4.172   3.018 -1.1888  0.0991  0.1522
 3802SOL     OW23041   4.336   4.648  13.294 -0.3496  0.6477 -0.0513
 3802SOL    HW123042   4.294   4.568  13.325 -0.3140  0.3494 -0.7884
 3802SOL    HW223043   4.351   4.690  13.379  2.9556 -0.5269 -0.0711
 3803SOL     OW23044   0.417   4.592   7.655  0.2225 -0.0877 -0.1786
 3803SOL    HW123045   0.497   4.623   7.614  0.1730 -3.3807 -2.7386
 3803SOL    HW223046   0.372   4.526   7.602 -1.3274  0.8129  0.0105
 3804SOL     OW23047   4.546   3.430   0.344  0.0040 -0.0985 -0.3702
 3804SOL    HW123048   4.549   3.361   0.278 -0.5265 -0.9385  0.4694
 3804SOL    HW223049   4.641   3.431   0.356 -0.1431  0.1461  0.8000
 3805SOL     OW23050   2.940   2.975   4.231  0.6460 -0.4165  0.3514
 3805SOL    HW123051   2.989   3.031   4.171 -0.5991  0.9667  0.6305
 3805SOL    HW223052   2.860   2.948   4.186  0.3365 -0.2746  0.8059
 3806SOL     OW23053   3.296   3.345   1.537  0.5676  0.5028 -0.5051
 3806SOL    HW123054   3.335   3.274   1.486  0.3302  0.1707 -0.2226
 3806SOL    HW223055   3.224   3.301   1.582 -0.5470  2.4840 -0.3393
 3807SOL     OW23056   2.570   2.689  15.994  0.3300 -0.0634  0.4818
 3807SOL    HW123057   2.512   2.627  16.039  0.9390  1.5337  3.4829
 3807SOL    HW223058   2.653   2.676  16.039  0.5978  0.2883  0.0914
 3808SOL     OW23059   2.297   1.905   6.373 -0.1329 -0.3287  0.1509
 3808SOL    HW123060   2.202   1.897   6.361  0.0258  0.1833 -1.4651
 3808SOL    HW223061   2.335   1.890   6.287 -2.1578 -0.0166 -0.8036
 3809SOL     OW23062   0.876   1.906   7.666  0.7219  0.5095  0.1086
 3809SOL    HW123063   0.798   1.929   7.715  1.0235  2.2711 -0.2496
 3809SOL    HW223064   0.933   1.983   7.659 -0.7976  1.7283  1.2322
 3810SOL     OW23065   2.808   3.047   3.893  0.2006 -0.0721  0.3418
 3810SOL    HW123066   2.849   2.970   3.932  1.7742 -0.3485 -1.8738
 3810SOL    HW223067   2.757   3.002   3.826  0.1069 -0.9426  1.0029
 3811SOL     OW23068   3.019   0.479   9.818 -0.7025  0.6086  0.5718
 3811SOL    HW123069   2.937   0.517   9.849 -1.1682 -0.4830  0.7050
 3811SOL    HW223070   2.990   0.447   9.733  3.7115 -3.1927  0.4755
 3812SOL     OW23071   4.321   0.899   5.536 -0.3764 -0.2434  0.1414
 3812SOL    HW123072   4.358   0.965   5.595 -0.0428 -1.3741  1.1815
 3812SOL    HW223073   4.229   0.908   5.560 -0.3155  0.0128  0.2767
 3813SOL     OW23074   0.548   2.202  11.777  0.8041 -0.3018  0.3030
 3813SOL    HW123075   0.540   2.135  11.709  0.3525 -0.6483  0.6934
 3813SOL    HW223076   0.618   2.257  11.744 -0.9034  0.5206 -1.9368
 3814SOL     OW23077   4.433   3.042   7.127 -0.2080 -0.2565 -0.1546
 3814SOL    HW123078   4.453   3.060   7.218  2.0682  2.4845 -1.2145
 3814SOL    HW223079   4.518   3.002   7.105 -0.9130 -1.5686 -0.5328
 3815SOL     OW23080   2.281   1.570   7.331 -0.0797  0.0358  0.3041
 3815SOL    HW123081   2.207   1.531   7.378 -0.6638  0.0854 -0.5606
 3815SOL    HW223082   2.335   1.597   7.405  0.3455  0.5005 -0.1872
 3816SOL     OW23083   2.035   3.698   5.761 -0.2142  0.0398 -0.5864
 3816SOL    HW123084   2.006   3.611   5.732 -0.8789 -0.3274  1.1484
 3816SOL    HW223085   2.058   3.686   5.853 -0.7610 -0.5912 -0.5339
 3817SOL     OW23086   4.241   4.060   7.359 -0.3088  0.5415  0.3338
 3817SOL    HW123087   4.235   4.140   7.306  0.2978  0.5026  0.2103
 3817SOL    HW223088   4.322   4.030   7.319 -0.0120  0.3309  1.0903
 3818SOL     OW23089   2.558   1.447   8.813  0.0744 -0.6316 -0.1721
 3818SOL    HW123090   2.641   1.491   8.833 -0.3301  0.8129 -1.6548
 3818SOL    HW223091   2.500   1.521   8.793 -1.0407 -1.8596 -1.4285
 3819SOL     OW23092   4.632   0.652  10.468  0.6257 -0.3405 -0.6270
 3819SOL    HW123093   4.563   0.713  10.493 -0.0898 -0.4268 -2.4146
 3819SOL    HW223094   4.704   0.713  10.483  2.8027 -2.9292 -0.3267
 3820SOL     OW23095   1.767   2.706   6.039  0.5944 -0.6018  0.5296
 3820SOL    HW123096   1.788   2.757   6.117 -0.1031  0.3452  0.0985
 3820SOL    HW223097   1.688   2.748   6.003  0.6219 -0.4170  0.6863
 3821SOL     OW23098   1.738   0.660   9.469  0.4098  0.1899 -0.3219
 3821SOL    HW123099   1.764   0.636   9.380 -0.5017 -0.5892 -0.3806
 3821SOL    HW223100   1.815   0.707   9.501  0.7800 -0.8936  0.3690
 3822SOL     OW23101   0.056   0.332  15.193 -0.3151  0.3296  0.0087
 3822SOL    HW123102   4.735   0.277  15.140  2.9657 -1.9190 -1.1834
 3822SOL    HW223103   4.735   0.382  15.251 -1.1434 -1.4572  0.7180
 3823SOL     OW23104   0.296   0.964   0.107 -0.1501  0.8229 -0.0181
 3823SOL    HW123105   0.312   1.057   0.088  2.1479  0.4967  0.2249
 3823SOL    HW223106   0.370   0.930   0.056 -0.5450  0.4131 -0.3097
 3824SOL     OW23107   0.604   4.424   6.864 -0.5021  0.6102 -0.0466
 3824SOL    HW123108   0.571   4.476   6.790 -1.8938  1.5526  1.2258
 3824SOL    HW223109   0.523   4.391   6.902 -1.3675  0.8119 -1.7165
 3825SOL     OW23110   3.452   2.980   3.777 -0.2672  0.4859  0.0788
 3825SOL    HW123111   3.457   3.075   3.772 -1.4843  0.4214 -2.4682
 3825SOL    HW223112   3.367   2.961   3.737 -1.2704  1.5559  1.6980
 3826SOL     OW23113   4.158   2.634   6.210 -0.4032  0.0353 -0.3108
 3826SOL    HW123114   4.222   2.654   6.142 -0.2875  0.5708 -0.0428
 3826SOL    HW223115   4.101   2.711   6.214  0.7595  0.9066 -0.5123
 3827SOL     OW23116   4.067   2.166   0.167 -0.0595  0.2763  0.0570
 3827SOL    HW123117   4.116   2.084   0.159 -0.1323  0.2634 -0.2498
 3827SOL    HW223118   4.051   2.174   0.073  1.5587  1.1438 -0.1331
 3828SOL     OW23119   0.563   4.604   2.763 -0.4413  0.2910  0.6259
 3828SOL    HW123120   0.522   4.623   2.847 -0.6991 -3.2401  1.3017
 3828SOL    HW223121   0.565   4.692   2.726 -1.5168 -0.1918 -0.6072
 3829SOL     OW23122   3.774   4.129   1.965  0.4038  0.3159  0.4187
 3829SOL    HW123123   3.738   4.163   1.882  0.2000  0.8489  0.7226
 3829SOL    HW223124   3.836   4.062   1.938  1.1665  0.8394  0.8836
 3830SOL     OW23125   0.305   3.848   8.124 -0.4576 -0.1542  0.2326
 3830SOL    HW123126   0.376   3.859   8.187 -0.2647 -2.1051  0.3400
 3830SOL    HW223127   0.329   3.913   8.057 -1.1977 -3.3058 -3.0968
 3831SOL     OW23128   4.530   0.944   4.597  0.3996  0.5706 -0.5314
 3831SOL    HW123129   4.455   0.898   4.635 -0.5667  2.0577 -0.6576
 3831SOL    HW223130   4.594   0.937   4.667 -0.5316  0.6245  0.3248
 3832SOL     OW23131   0.980   3.516   7.982  0.0161 -0.4777  0.4438
 3832SOL    HW123132   1.011   3.427   7.964 -0.8164 -0.3264 -1.7754
 3832SOL    HW223133   0.972   3.509   8.077  1.5810 -0.9968  0.5362
 3833SOL     OW23134   4.136   4.521  16.560  0.6209 -0.0287  0.4745
 3833SOL    HW123135   4.132   4.426  16.555  2.5081 -0.0018 -1.5119
 3833SOL    HW223136   4.054   4.552  16.522 -0.6869 -2.2439  1.5039
 3834SOL     OW23137   2.182   2.322  14.312 -0.5195 -0.1488  0.4528
 3834SOL    HW123138   2.129   2.311  14.391 -0.6625  1.3151  0.5469
 3834SOL    HW223139   2.267   2.328  14.355  0.6962  2.1507 -2.2789
 3835SOL     OW23140   2.054   1.530   1.830  0.1881  0.4339  0.2337
 3835SOL    HW123141   2.056   1.434   1.827 -0.4694  0.4177  0.4306
 3835SOL    HW223142   1.964   1.552   1.806  0.3488  1.3081  0.4272
 3836SOL     OW23143   2.203   3.653   3.465  0.1453  0.6828  0.5159
 3836SOL    HW123144   2.166   3.702   3.538 -1.2456  0.8287 -0.2878
 3836SOL    HW223145   2.183   3.565   3.494 -0.8599  0.4354 -0.9153
 3837SOL     OW23146   3.529   0.013   6.381  0.2272 -0.5121 -0.3079
 3837SOL    HW123147   3.434   0.028   6.378  0.4103  0.2661 -1.9187
 3837SOL    HW223148   3.532   4.667   6.333  0.2132  0.8955 -2.7068
 3838SOL     OW23149   2.960   3.449   1.428  0.1304 -0.0144  0.6026
 3838SOL    HW123150   2.890   3.384   1.434 -1.2152  1.4592  0.9932
 3838SOL    HW223151   2.954   3.467   1.334  0.0031 -0.4794  0.5226
 3839SOL     OW23152   0.668   3.060   2.575 -0.3854 -0.3900  0.1364
 3839SOL    HW123153   0.603   3.119   2.613 -0.2394  0.3971 -0.8588
 3839SOL    HW223154   0.678   3.098   2.488 -0.6179 -1.7175 -0.4677
 3840SOL     OW23155   1.085   2.640   2.420 -0.5186 -0.4862  0.4244
 3840SOL    HW123156   1.009   2.673   2.470 -0.3163  0.3421  0.1800
 3840SOL    HW223157   1.109   2.573   2.484 -0.9676 -0.4910  0.5927
 3841SOL     OW23158   1.224   1.295   5.803  0.4757 -1.1627  0.1441
 3841SOL    HW123159   1.206   1.381   5.840 -2.3105 -2.1710  1.1275
 3841SOL    HW223160   1.314   1.302   5.772 -0.2107  0.0894 -1.5946
 3842SOL     OW23161   1.314   1.734   9.855 -0.4342 -0.2373 -0.6699
 3842SOL    HW123162   1.303   1.782   9.938 -1.5245  0.7617 -1.3829
 3842SOL    HW223163   1.405   1.705   9.853 -0.5726 -0.4500 -3.2034
 3843SOL     OW23164   2.736   2.635   2.652 -0.3213 -0.1841 -0.2343
 3843SOL    HW123165   2.728   2.568   2.719  0.7925 -1.0781 -0.9915
 3843SOL    HW223166   2.766   2.581   2.579  2.4655  1.7432 -0.5381
 3844SOL     OW23167   3.523   3.118   3.169 -0.1713  0.0422  0.4818
 3844SOL    HW123168   3.434   3.118   3.204  0.0992  1.8600  1.1824
 3844SOL    HW223169   3.554   3.195   3.217 -0.7459  0.1583  0.6715
 3845SOL     OW23170   3.873   2.646   8.378  0.4446  0.6372  0.8712
 3845SOL    HW123171   3.876   2.579   8.309 -1.5765  1.8367 -0.4087
 3845SOL    HW223172   3.850   2.592   8.453 -0.9492  1.2904  0.9111
 3846SOL     OW23173   2.356   2.630  10.158 -0.5562 -0.3055 -0.3484
 3846SOL    HW123174   2.315   2.558  10.109  0.2547 -0.6014 -0.5944
 3846SOL    HW223175   2.447   2.619  10.130 -0.1979 -0.8749  1.0477
 3847SOL     OW23176   1.978   4.513   7.327  0.2859 -0.4142 -0.3814
 3847SOL    HW123177   1.947   4.550   7.410  1.5952  0.3248 -0.2235
 3847SOL    HW223178   1.920   4.568   7.273  0.1108 -1.0090 -0.7934
 3848SOL     OW23179   3.744   2.203  13.019 -0.2929 -0.3417 -0.2034
 3848SOL    HW123180   3.692   2.191  12.939  1.2840 -1.1464 -1.1150
 3848SOL    HW223181   3.832   2.185  12.985  0.1239  0.6397  0.3674
 3849SOL     OW23182   2.543   2.610   7.758  0.2194 -0.8737 -0.3372
 3849SOL    HW123183   2.571   2.597   7.848 -0.7646 -2.3510 -0.2405
 3849SOL    HW223184   2.629   2.615   7.716  0.5614  3.4179  0.8885
 3850SOL     OW23185   1.653   2.127   6.970  0.1687  0.0407  0.4061
 3850SOL    HW123186   1.719   2.069   6.933 -0.3189  0.3547 -0.9869
 3850SOL    HW223187   1.703   2.194   7.017 -0.0111 -0.3348  1.1260
 3851SOL     OW23188   3.105   0.035   7.196  0.3443  0.5997 -0.4173
 3851SOL    HW123189   3.129   4.699   7.253  0.6570  0.1981 -1.0598
 3851SOL    HW223190   3.009   0.036   7.201  0.2813 -0.0010 -1.5306
 3852SOL     OW23191   3.502   4.050   3.724  0.1727 -0.6171 -0.0331
 3852SOL    HW123192   3.566   4.011   3.783 -0.0851  0.3504  0.8882
 3852SOL    HW223193   3.433   4.066   3.788  0.3437 -0.5364  0.1297
 3853SOL     OW23194   0.186   1.489   1.192  0.0978  0.3817 -0.2148
 3853SOL    HW123195   0.266   1.521   1.149  0.1161 -0.2750 -0.6702
 3853SOL    HW223196   0.181   1.556   1.259  0.7412 -0.2002  0.4131
 3854SOL     OW23197   1.729   0.642   7.167 -0.1141  0.0634 -0.5054
 3854SOL    HW123198   1.765   0.592   7.094  0.5009  0.5472 -0.5365
 3854SOL    HW223199   1.651   0.590   7.189 -1.0927  1.1397 -1.3877
 3855SOL     OW23200   3.505   0.393   7.963  0.4445  0.0009 -0.2056
 3855SOL    HW123201   3.424   0.346   7.983 -0.9796  2.4217 -0.2337
 3855SOL    HW223202   3.553   0.382   8.045 -0.9508 -2.4221  0.2646
 3856SOL     OW23203   0.951   3.903   8.793 -0.1358  0.0775 -0.0105
 3856SOL    HW123204   0.955   3.995   8.768 -0.2987  1.0239  3.4399
 3856SOL    HW223205   0.924   3.853   8.716 -0.6014  1.4523 -0.7321
 3857SOL     OW23206   1.466   0.876   8.775  0.0372  0.5393 -0.4822
 3857SOL    HW123207   1.458   0.813   8.846 -0.8114  0.6922 -0.4410
 3857SOL    HW223208   1.555   0.911   8.772  0.0496  0.5560  0.0046
 3858SOL     OW23209   0.647   0.139   7.697 -0.6255  0.2415  0.1580
 3858SOL    HW123210   0.706   0.171   7.765  2.1558 -3.6191 -0.4433
 3858SOL    HW223211   0.626   0.218   7.648 -0.3198  0.7651  0.8780
 3859SOL     OW23212   0.854   1.512   8.413 -0.2694 -0.1344 -0.4971
 3859SOL    HW123213   0.937   1.533   8.456  0.0597 -0.9498 -0.7253
 3859SOL    HW223214   0.801   1.581   8.452  1.2191  0.7901 -0.1256
 3860SOL     OW23215   0.066   3.913  14.858  0.2070 -0.2267 -0.1397
 3860SOL    HW123216   0.051   3.819  14.867  0.1094 -0.3825 -1.7713
 3860SOL    HW223217   0.159   3.914  14.834 -0.0783  1.7592 -1.1393
 3861SOL     OW23218   3.074   3.135  10.951 -0.0269 -0.1213 -0.8265
 3861SOL    HW123219   3.056   3.223  10.918  1.7290  1.4867  2.4655
 3861SOL    HW223220   2.987   3.097  10.962  0.8468 -1.6644  0.7389
 3862SOL     OW23221   1.054   2.118   3.737  0.1927 -0.1224 -0.4101
 3862SOL    HW123222   1.114   2.167   3.681  0.1692  0.5811  0.1908
 3862SOL    HW223223   0.979   2.126   3.678 -0.0076  0.3222 -0.0922
 3863SOL     OW23224   1.667   4.263   3.773  0.2050  0.4786  0.5888
 3863SOL    HW123225   1.694   4.173   3.793  1.0094  0.8270  1.0856
 3863SOL    HW223226   1.577   4.253   3.742 -0.2721  0.3468  2.0136
 3864SOL     OW23227   3.770   3.540  17.695  0.6863  0.4047 -0.2111
 3864SOL    HW123228   3.801   3.587   0.029 -0.6738 -0.9848  1.1536
 3864SOL    HW223229   3.775   3.451  17.728 -2.2368  0.2539 -0.2062
 3865SOL     OW23230   4.305   1.349   7.454 -0.1174  0.5416  0.3418
 3865SOL    HW123231   4.291   1.385   7.366  1.2558  1.1688  0.3678
 3865SOL    HW223232   4.216   1.321   7.473 -0.4615  1.6893  0.3906
 3866SOL     OW23233   0.391   0.665   4.296 -0.1294  0.0590 -0.0488
 3866SOL    HW123234   0.326   0.622   4.352 -0.7978 -1.0576 -1.7058
 3866SOL    HW223235   0.348   0.670   4.211  2.0034  3.1464 -0.9634
 3867SOL     OW23236   0.431   0.290  16.909 -0.2645 -0.2072 -0.0280
 3867SOL    HW123237   0.368   0.224  16.939 -0.4482 -0.6904 -1.4793
 3867SOL    HW223238   0.441   0.339  16.991 -1.2390 -0.1930  0.0825
 3868SOL     OW23239   4.384   3.500   2.052  0.8880  0.4312 -0.1476
 3868SOL    HW123240   4.324   3.570   2.074  3.0789  2.2880 -0.1016
 3868SOL    HW223241   4.410   3.527   1.964 -0.3970 -1.7472 -1.1893
 3869SOL     OW23242   2.823   1.407   8.201  0.3297 -0.2516 -0.2224
 3869SOL    HW123243   2.769   1.328   8.207  1.0417 -0.7703 -0.7656
 3869SOL    HW223244   2.843   1.404   8.108 -0.9309  0.3837 -0.5071
 3870SOL     OW23245   1.762   4.330   4.427 -0.5703  0.4169 -0.8730
 3870SOL    HW123246   1.714   4.247   4.433  2.5061 -1.1655  2.2693
 3870SOL    HW223247   1.746   4.354   4.336  0.2831  1.3910 -0.7668
 3871SOL     OW23248   3.547   1.234   0.820 -0.0460  0.0419 -0.0752
 3871SOL    HW123249   3.593   1.296   0.876 -0.6627  1.1575 -0.7911
 3871SOL    HW223250   3.557   1.277   0.735 -0.1387  1.8062  0.8025
 3872SOL     OW23251   0.174   2.267   6.048 -0.0991 -0.0878  0.2436
 3872SOL    HW123252   0.246   2.278   5.987  0.7711  3.9425  2.0007
 3872SOL    HW223253   0.214   2.284   6.134  1.1694  2.6691 -0.9140
 3873SOL     OW23254   0.849   1.111  13.587 -0.5266  0.3853  0.5482
 3873SOL    HW123255   0.771   1.063  13.618  0.1041 -0.2877  1.1013
 3873SOL    HW223256   0.812   1.198  13.571  0.4126  0.4905 -1.0173
 3874SOL     OW23257   1.437   1.759   3.423 -0.1228 -0.2269  0.2408
 3874SOL    HW123258   1.390   1.786   3.502  1.0215  1.3865  0.3636
 3874SOL    HW223259   1.368   1.698   3.397 -3.4217  1.7002  4.3765
 3875SOL     OW23260   0.990   3.674  12.453 -0.6558  0.1287 -0.0302
 3875SOL    HW123261   1.059   3.676  12.518  1.9792  1.2335 -2.8471
 3875SOL    HW223262   0.915   3.649  12.507 -0.8639  0.8662  0.0211
 3876SOL     OW23263   1.801   0.686   5.044 -0.0829 -0.0983  0.4830
 3876SOL    HW123264   1.715   0.683   5.002 -0.0485 -0.6091  0.4465
 3876SOL    HW223265   1.834   0.599   5.024 -2.3652 -1.2629  1.8033
 3877SOL     OW23266   3.545   1.734   7.430 -0.0621 -0.3128 -0.0850
 3877SOL    HW123267   3.460   1.692   7.428  0.3737 -1.1297 -1.4473
 3877SOL    HW223268   3.508   1.810   7.384 -0.9304  1.2764  3.2079
 3878SOL     OW23269   2.874   1.124   6.498 -0.1283 -0.1605  1.1189
 3878SOL    HW123270   2.810   1.102   6.430 -0.9452 -2.3980  2.6112
 3878SOL    HW223271   2.820   1.123   6.577  1.2224 -2.1288  2.0028
 3879SOL     OW23272   2.287   3.172  16.340  0.1615  0.2702  0.1335
 3879SOL    HW123273   2.368   3.166  16.392  0.7473 -1.1488 -0.9278
 3879SOL    HW223274   2.267   3.265  16.327  0.3769  0.3085  0.0770
 3880SOL     OW23275   0.131   3.239   2.414 -1.2106 -0.2798  0.6290
 3880SOL    HW123276   0.060   3.245   2.478  0.0661 -3.1663  2.3247
 3880SOL    HW223277   0.202   3.211   2.472 -0.8084  0.8998  0.7203
 3881SOL     OW23278   3.480   0.016   1.390  0.5256  1.3315 -0.1725
 3881SOL    HW123279   3.549   0.081   1.397  0.7495  1.0262  0.4848
 3881SOL    HW223280   3.478   4.718   1.479 -0.9301  0.1568 -0.6504
 3882SOL     OW23281   0.081   2.373   7.958  0.5024  0.1677  0.3428
 3882SOL    HW123282   0.050   2.451   8.004 -0.1225 -0.9045  1.7284
 3882SOL    HW223283   0.174   2.377   7.982  0.4941 -1.0430  0.5725
 3883SOL     OW23284   0.796   0.399   6.137  0.5113 -0.3599 -0.3666
 3883SOL    HW123285   0.744   0.438   6.067 -1.2502  0.5344  1.4578
 3883SOL    HW223286   0.872   0.368   6.087 -0.5573 -2.5479 -0.6481
 3884SOL     OW23287   2.234   2.281  15.245  0.0451  0.2530 -0.3249
 3884SOL    HW123288   2.267   2.267  15.156 -2.0314 -2.7515 -0.6310
 3884SOL    HW223289   2.293   2.351  15.274  1.1562 -0.3302 -1.1877
 3885SOL     OW23290   3.425   0.664   7.829  0.8727  0.2269 -0.1517
 3885SOL    HW123291   3.496   0.605   7.855  0.4511  1.1261  2.9906
 3885SOL    HW223292   3.380   0.605   7.769 -0.0654 -0.9109  1.6811
 3886SOL     OW23293   1.422   3.898   6.089  0.2618 -0.1479 -0.2067
 3886SOL    HW123294   1.510   3.898   6.128 -1.0893 -2.8533  2.8670
 3886SOL    HW223295   1.390   3.977   6.132 -0.5121 -0.1649 -0.7688
 3887SOL     OW23296   0.398   1.217   3.401 -0.1180  0.1028  0.0758
 3887SOL    HW123297   0.436   1.210   3.314 -0.4750 -2.7549  0.1459
 3887SOL    HW223298   0.306   1.205   3.377 -0.0304  1.7423 -1.0671
 3888SOL     OW23299   3.661   1.423   0.557  0.0450 -0.6202  0.2692
 3888SOL    HW123300   3.720   1.379   0.619 -0.5135 -0.2015  1.1041
 3888SOL    HW223301   3.714   1.502   0.545  0.6791 -1.1544 -0.4276
 3889SOL     OW23302   1.147   1.462   5.490 -0.1565  0.2248 -0.6202
 3889SOL    HW123303   1.060   1.495   5.512 -1.5340 -3.9896  0.1608
 3889SOL    HW223304   1.204   1.538   5.505 -0.8284  0.2651  1.6941
 3890SOL     OW23305   3.566   2.618   8.862  0.0503 -0.3736  0.5690
 3890SOL    HW123306   3.513   2.642   8.937 -0.5445 -1.5238  0.5216
 3890SOL    HW223307   3.548   2.524   8.854  0.0371 -0.2747 -0.5766
 3891SOL     OW23308   0.533   1.220  13.089  0.4180 -0.3481 -0.0623
 3891SOL    HW123309   0.621   1.184  13.081  0.3155 -0.5187 -0.4033
 3891SOL    HW223310   0.523   1.219  13.185 -0.0631  3.7429 -0.0694
 3892SOL     OW23311   3.850   2.551   9.901  0.0491 -0.0245 -0.4063
 3892SOL    HW123312   3.770   2.579   9.856 -0.8606  0.0578  1.2777
 3892SOL    HW223313   3.889   2.498   9.831  3.2679  0.3952  1.0693
 3893SOL     OW23314   1.872   1.956   4.454  0.4769  0.0020 -0.1896
 3893SOL    HW123315   1.909   2.016   4.518 -0.9388  0.1175  0.5255
 3893SOL    HW223316   1.857   1.877   4.506 -5.3412  1.0558 -0.2202
 3894SOL     OW23317   0.856   1.264  12.085  0.4185 -0.1694 -0.6457
 3894SOL    HW123318   0.795   1.230  12.020  1.4244 -1.7179 -0.7974
 3894SOL    HW223319   0.800   1.266  12.163  0.4831 -0.1195 -0.6012
 3895SOL     OW23320   2.605   0.180   3.957  0.7687 -0.0218 -0.5749
 3895SOL    HW123321   2.673   0.112   3.958 -1.9155 -2.7293 -0.8023
 3895SOL    HW223322   2.635   0.220   4.038 -2.2725 -1.4173  1.2629
 3896SOL     OW23323   3.713   3.487   6.590  0.6764  0.5169  1.2289
 3896SOL    HW123324   3.690   3.514   6.678 -2.0312 -0.2620  0.7524
 3896SOL    HW223325   3.625   3.498   6.555  0.7355 -0.1296  0.8631
 3897SOL     OW23326   0.351   1.661  15.173 -0.0485 -0.2775 -0.2274
 3897SOL    HW123327   0.271   1.713  15.168 -1.4966 -2.2455  2.2503
 3897SOL    HW223328   0.320   1.573  15.153 -1.1217  0.2144 -0.6776
 3898SOL     OW23329   4.365   3.713   2.555 -0.4925  0.1217 -0.1395
 3898SOL    HW123330   4.308   3.784   2.584  0.2682 -0.4351  2.7028
 3898SOL    HW223331   4.445   3.765   2.562 -0.9797  0.7568  0.7602
 3899SOL     OW23332   2.632   2.895   5.560 -0.7218 -0.5083  0.0527
 3899SOL    HW123333   2.610   2.805   5.536 -1.1404  0.0782 -1.7652
 3899SOL    HW223334   2.572   2.953   5.513  1.3192  0.5725 -1.1925
 3900SOL     OW23335   3.093   1.555  12.903  0.3280  0.0732  0.2529
 3900SOL    HW123336   3.072   1.546  12.996 -1.7988  2.1760 -0.0166
 3900SOL    HW223337   3.101   1.650  12.900 -1.1618  0.2077  0.5796
 3901SOL     OW23338   3.917   3.188   7.432 -0.6118  0.3058 -0.3896
 3901SOL    HW123339   3.924   3.158   7.342 -1.9000 -1.3689  0.0774
 3901SOL    HW223340   3.823   3.200   7.443 -0.8789 -1.7224 -0.4676
 3902SOL     OW23341   2.051   4.103   9.154  0.1834  0.6846 -0.0906
 3902SOL    HW123342   2.095   4.177   9.112  0.3116  1.4218  1.3213
 3902SOL    HW223343   2.089   4.026   9.112 -1.3243 -0.3650  0.4445
 3903SOL     OW23344   2.440   2.888  15.342  0.7381  0.0645  0.0305
 3903SOL    HW123345   2.482   2.970  15.366  2.0083  0.0878 -2.2591
 3903SOL    HW223346   2.347   2.910  15.354  1.4898  0.8381  4.1800
 3904SOL     OW23347   4.067   1.705  10.504  0.5285  0.5402 -0.3058
 3904SOL    HW123348   3.985   1.668  10.537  0.5172 -0.4467 -1.4393
 3904SOL    HW223349   4.119   1.649  10.561  1.4564  0.2319 -1.4499
 3905SOL     OW23350   0.163   1.950   2.629  0.5295 -0.5823  0.4580
 3905SOL    HW123351   0.149   1.878   2.691 -1.3448 -0.8552 -0.2925
 3905SOL    HW223352   0.256   1.963   2.645  0.8470 -2.1702 -0.0852
 3906SOL     OW23353   3.297   2.068   6.678  0.0440  0.6182  0.2786
 3906SOL    HW123354   3.254   2.039   6.598  0.1690  1.3702 -0.0572
 3906SOL    HW223355   3.353   1.991   6.676 -0.0688  0.5646 -0.7760
 3907SOL     OW23356   0.196   0.134   3.804  0.5123  0.2984 -0.1369
 3907SOL    HW123357   0.279   0.093   3.781 -0.4358  0.6476 -4.3103
 3907SOL    HW223358   0.197   0.112   3.897  0.3894 -1.0584 -0.4619
 3908SOL     OW23359   4.277   4.366  16.849  0.4292  0.1020  0.2540
 3908SOL    HW123360   4.222   4.339  16.776  1.3308 -0.6231 -0.1442
 3908SOL    HW223361   4.277   4.285  16.900  3.0901 -0.0856 -0.0351
 3909SOL     OW23362   2.262   1.118   3.007  0.7101 -0.0192 -0.3245
 3909SOL    HW123363   2.340   1.173   3.019  0.6565 -0.1875  0.7470
 3909SOL    HW223364   2.245   1.099   3.099 -0.8813  0.4163 -0.5268
 3910SOL     OW23365   1.860   3.410  16.299  0.2585  0.1447 -0.0811
 3910SOL    HW123366   1.866   3.320  16.331  0.6876  0.5727  1.0597
 3910SOL    HW223367   1.775   3.407  16.257  1.0040 -0.4791 -1.5431
 3911SOL     OW23368   2.975   3.702   4.547 -0.2797  0.4569 -0.1794
 3911SOL    HW123369   2.884   3.685   4.573 -0.6720  2.1699 -0.4216
 3911SOL    HW223370   2.963   3.672   4.456 -2.1482 -0.7221  0.4378
 3912SOL     OW23371   0.312   1.501   4.008 -0.3830  0.4694 -0.1525
 3912SOL    HW123372   0.289   1.504   4.101  1.1664  0.7194  0.2250
 3912SOL    HW223373   0.334   1.408   4.000  1.5345  0.7171  2.2017
 3913SOL     OW23374   0.151   3.267   8.743  0.2817 -1.2888 -0.4652
 3913SOL    HW123375   0.164   3.179   8.777  0.6369 -0.7222  0.8731
 3913SOL    HW223376   0.118   3.308   8.823 -0.6875  0.5988 -1.8305
 3914SOL     OW23377   0.143   3.676   8.386  0.0520  0.3192  0.5657
 3914SOL    HW123378   0.189   3.599   8.354  0.4603  0.9859 -0.4680
 3914SOL    HW223379   0.181   3.696   8.472  1.6384  0.4233 -0.1597
 3915SOL     OW23380   1.928   1.005   7.015 -0.5209 -0.4852  0.0923
 3915SOL    HW123381   1.916   0.971   7.103 -0.3004  1.4711  0.8535
 3915SOL    HW223382   1.886   1.090   7.028  0.6314 -0.2856  2.3951
 3916SOL     OW23383   1.101   3.511   3.098 -0.5906 -0.2661 -0.0135
 3916SOL    HW123384   1.186   3.550   3.077  0.0336 -0.9370  1.2312
 3916SOL    HW223385   1.081   3.556   3.180  0.3863  0.9800 -0.4573
 3917SOL     OW23386   0.301   0.585   1.646  0.4531 -0.2061 -0.0743
 3917SOL    HW123387   0.324   0.642   1.573  0.5877 -1.2672 -0.8690
 3917SOL    HW223388   0.227   0.535   1.612 -0.3748 -0.4415  2.0327
 3918SOL     OW23389   0.062   3.658   2.110 -0.2026  0.0558 -0.4111
 3918SOL    HW123390   0.153   3.640   2.086  0.0556 -0.4420  0.9434
 3918SOL    HW223391   0.029   3.583   2.159  1.2806 -0.7959 -0.7302
 3919SOL     OW23392   1.600   1.914   7.456  0.2294 -0.0519 -0.3095
 3919SOL    HW123393   1.688   1.940   7.481  0.6257 -3.3779  1.7612
 3919SOL    HW223394   1.629   1.843   7.399  0.8991 -0.8656  1.0594
 3920SOL     OW23395   0.089   1.483   3.350 -0.1804  0.4490 -0.1433
 3920SOL    HW123396   0.038   1.427   3.293 -1.2972 -0.1840  1.4726
 3920SOL    HW223397   0.130   1.541   3.285 -1.0449  0.9264 -0.2604
 3921SOL     OW23398   3.272   1.648   3.627  0.4109  0.0168 -0.1657
 3921SOL    HW123399   3.303   1.596   3.700 -0.1617 -0.4206 -0.2316
 3921SOL    HW223400   3.305   1.602   3.550 -0.4000  1.8402 -1.6107
 3922SOL     OW23401   4.117   0.722  15.823 -0.4044  0.1339  0.3834
 3922SOL    HW123402   4.081   0.682  15.744 -1.4771 -1.0199  1.4639
 3922SOL    HW223403   4.203   0.756  15.799 -1.6972  2.1408 -1.4225
 3923SOL     OW23404   1.528   0.663  11.545 -0.2370 -0.2988  0.4762
 3923SOL    HW123405   1.528   0.626  11.634  0.1407 -2.2190 -0.3341
 3923SOL    HW223406   1.476   0.595  11.502 -0.7504  1.4556 -1.6603
 3924SOL     OW23407   3.229   0.729   8.683  0.7602 -0.4112  0.1931
 3924SOL    HW123408   3.174   0.764   8.753  0.1364 -0.4765 -0.2604
 3924SOL    HW223409   3.167   0.680   8.629  1.7641 -0.3739 -0.9817
 3925SOL     OW23410   3.747   2.459   4.218 -0.2017 -0.4984  0.2750
 3925SOL    HW123411   3.711   2.392   4.160 -2.5003 -0.0828  1.2231
 3925SOL    HW223412   3.748   2.529   4.152 -1.0111 -2.1323 -1.4686
 3926SOL     OW23413   3.878   3.926   5.927 -0.1693  0.1900 -0.3273
 3926SOL    HW123414   3.925   3.865   5.984 -0.3228  0.1154 -0.2789
 3926SOL    HW223415   3.851   3.866   5.857 -1.2469  0.0113  0.2421
 3927SOL     OW23416   2.666   1.451   2.486 -0.0011  0.2703  0.4154
 3927SOL    HW123417   2.635   1.395   2.415 -1.4456  2.3511 -0.6044
 3927SOL    HW223418   2.739   1.491   2.440  0.4328 -1.0383 -0.0051
 3928SOL     OW23419   1.469   2.011  15.985 -0.4154 -0.8640  0.6267
 3928SOL    HW123420   1.487   2.105  15.977 -0.1930 -1.1967 -3.1475
 3928SOL    HW223421   1.539   1.982  16.044  0.3559 -0.5741 -0.1341
 3929SOL     OW23422   0.388   0.442   4.046 -0.1758  0.4922  0.5665
 3929SOL    HW123423   0.445   0.374   4.012  0.5195  0.9335  0.8489
 3929SOL    HW223424   0.421   0.516   3.995 -4.2538  1.1386 -1.1183
 3930SOL     OW23425   3.364   2.766   0.676  0.3491 -0.2760 -0.4102
 3930SOL    HW123426   3.338   2.679   0.647 -1.7632 -0.4769  2.0822
 3930SOL    HW223427   3.455   2.771   0.646 -0.5434 -0.5701 -3.1857
 3931SOL     OW23428   1.957   1.760  10.623 -0.2503  0.5146  0.7980
 3931SOL    HW123429   2.018   1.802  10.563 -0.5786 -0.3211 -0.1114
 3931SOL    HW223430   2.001   1.675  10.629 -0.9868  0.1540  1.1513
 3932SOL     OW23431   2.066   0.492  10.580 -0.1708  0.0345  0.3112
 3932SOL    HW123432   2.097   0.513  10.491 -0.0534 -1.7841 -0.0700
 3932SOL    HW223433   2.138   0.438  10.611  0.6726  0.1478 -1.4074
 3933SOL     OW23434   1.305   4.364   1.983  0.3011  0.2594 -0.6558
 3933SOL    HW123435   1.260   4.399   1.905 -1.2353  0.5801  0.3720
 3933SOL    HW223436   1.240   4.378   2.052  0.4632 -1.0800 -0.2320
 3934SOL     OW23437   1.656   2.941   7.979  0.2850 -0.0828 -0.4196
 3934SOL    HW123438   1.596   2.907   7.913 -2.0141  0.7639  1.2440
 3934SOL    HW223439   1.616   3.025   7.999 -0.1537 -0.8332  1.9062
 3935SOL     OW23440   2.866   1.454   4.990 -0.2174  0.0228 -0.1835
 3935SOL    HW123441   2.908   1.525   4.942  0.6307 -0.2705  0.1412
 3935SOL    HW223442   2.779   1.491   5.009 -0.4978 -0.2347 -0.9689
 3936SOL     OW23443   0.775   3.963  10.979  0.1005 -0.9559  0.6586
 3936SOL    HW123444   0.746   3.893  10.921 -1.8147 -1.7449  2.5601
 3936SOL    HW223445   0.740   3.940  11.065 -0.4647 -1.2954  0.3413
 3937SOL     OW23446   2.822   4.264   8.002  0.2478  0.4254  0.4396
 3937SOL    HW123447   2.900   4.289   7.953 -0.5774 -0.3489 -1.2507
 3937SOL    HW223448   2.842   4.171   8.007  0.3748  0.3601 -1.3092
 3938SOL     OW23449   0.664   2.133   2.359  0.1652  0.2648 -0.2923
 3938SOL    HW123450   0.669   2.165   2.269  2.5552  2.4471  0.6136
 3938SOL    HW223451   0.569   2.131   2.374  0.4940 -1.0762  1.6093
 3939SOL     OW23452   3.822   0.149   2.425 -0.2221  0.1626 -0.4591
 3939SOL    HW123453   3.833   0.137   2.520  0.6863 -0.9240 -0.6985
 3939SOL    HW223454   3.743   0.202   2.415 -2.1866 -2.7068 -0.1550
 3940SOL     OW23455   3.566   1.075   6.091 -0.5501  0.1783  0.2934
 3940SOL    HW123456   3.643   1.123   6.120  1.4479 -1.2839 -2.6663
 3940SOL    HW223457   3.510   1.142   6.051 -3.3548 -2.1667  0.2319
 3941SOL     OW23458   3.340   1.714  13.357  0.0903 -0.5626  0.3472
 3941SOL    HW123459   3.337   1.758  13.442  0.7894  1.1469 -0.5154
 3941SOL    HW223460   3.415   1.660  13.383  0.7360  0.6303  0.9891
 3942SOL     OW23461   1.158   2.565   9.897  0.0716  0.6411  0.1760
 3942SOL    HW123462   1.240   2.613   9.911 -0.4436  1.6155 -0.0904
 3942SOL    HW223463   1.133   2.558   9.989  3.0728  0.1792  0.9765
 3943SOL     OW23464   1.434   0.225  17.537  0.1695 -0.0986 -0.2764
 3943SOL    HW123465   1.484   0.146  17.557  0.4589  0.3128  0.6006
 3943SOL    HW223466   1.345   0.195  17.555 -0.2646  1.6078  0.4579
 3944SOL     OW23467   1.185   0.254  17.345 -0.2757  0.2129 -0.2087
 3944SOL    HW123468   1.201   0.339  17.385  1.9108 -0.6751  0.8009
 3944SOL    HW223469   1.196   0.200  17.423 -2.1138 -0.0946 -0.1632
 3945SOL     OW23470   3.736   4.301  11.854  0.3860  0.0899  0.9223
 3945SOL    HW123471   3.826   4.285  11.827  0.4320  1.2316  0.3879
 3945SOL    HW223472   3.696   4.216  11.834  1.0411  0.2816 -1.1755
 3946SOL     OW23473   2.411   3.921   8.854 -0.0692 -0.1359 -0.4908
 3946SOL    HW123474   2.362   3.975   8.792 -1.2635 -1.3361 -0.5657
 3946SOL    HW223475   2.368   3.946   8.936 -0.0174 -1.4068 -0.0854
 3947SOL     OW23476   0.191   2.490   1.718  0.1149  0.0521  0.4449
 3947SOL    HW123477   0.183   2.472   1.624 -1.4886 -1.4216  0.8639
 3947SOL    HW223478   0.247   2.419   1.747  1.0306 -0.5699 -2.8225
 3948SOL     OW23479   1.222   0.176   3.384  0.0722 -0.1587 -0.2595
 3948SOL    HW123480   1.213   0.233   3.460  0.5967  0.3559 -0.5824
 3948SOL    HW223481   1.129   0.160   3.364  0.6634 -1.8456 -1.7593
 3949SOL     OW23482   0.102   3.896  10.915 -0.3004  0.5334  0.3531
 3949SOL    HW123483   0.072   3.807  10.893 -2.0891  1.4299 -0.8709
 3949SOL    HW223484   0.181   3.877  10.965  0.2086 -0.0845 -0.6876
 3950SOL     OW23485   1.252   1.247   0.256 -0.3380  0.3320  0.3133
 3950SOL    HW123486   1.287   1.158   0.257 -0.9978  0.0496 -0.9752
 3950SOL    HW223487   1.161   1.226   0.279  0.4561 -1.2852  2.0280
 3951SOL     OW23488   0.318   3.364   0.209  0.0100 -0.2015 -0.0047
 3951SOL    HW123489   0.355   3.332   0.292  1.3256 -3.2295 -1.7815
 3951SOL    HW223490   0.370   3.337   0.134 -1.3037 -0.5707 -0.7758
 3952SOL     OW23491   2.165   0.385   4.950  0.1274 -0.4662  0.4764
 3952SOL    HW123492   2.227   0.450   4.915  0.4860 -2.1119 -1.9226
 3952SOL    HW223493   2.222   0.312   4.975  0.0409 -1.1386 -1.3221
 3953SOL     OW23494   1.417   0.664   3.745 -0.0681  0.1513  0.2736
 3953SOL    HW123495   1.367   0.735   3.704 -2.6353 -1.6253  0.3311
 3953SOL    HW223496   1.350   0.607   3.783 -1.0803  1.4299  0.4197
 3954SOL     OW23497   2.262   0.975   3.763  0.4131 -0.1158  0.0137
 3954SOL    HW123498   2.299   0.890   3.788 -0.4644 -0.0128  1.7000
 3954SOL    HW223499   2.240   1.009   3.850 -0.0094  2.9273 -1.2879
 3955SOL     OW23500   3.604   1.028  11.084 -0.4747  0.0915 -0.1030
 3955SOL    HW123501   3.628   0.935  11.079  2.6239  0.7802  2.2998
 3955SOL    HW223502   3.657   1.060  11.012  0.5353  0.6840  0.9144
 3956SOL     OW23503   2.748   2.449   9.100 -0.1230  0.6483  0.4965
 3956SOL    HW123504   2.776   2.487   9.017  1.0778  1.0080  1.0668
 3956SOL    HW223505   2.828   2.460   9.152  0.1906 -0.4120  0.2282
 3957SOL     OW23506   2.109   2.021   8.730  0.0915 -0.2645  0.2448
 3957SOL    HW123507   2.034   2.074   8.757  1.4818  0.3065  2.9372
 3957SOL    HW223508   2.176   2.089   8.721  0.3490 -0.4698  0.6134
 3958SOL     OW23509   3.148   0.671  12.749 -0.4545 -0.0300 -0.0446
 3958SOL    HW123510   3.062   0.705  12.774 -0.1615 -1.1647  2.5197
 3958SOL    HW223511   3.180   0.753  12.711  1.0658 -0.3667  0.4928
 3959SOL     OW23512   0.629   0.482   4.247  0.2303 -0.6924  0.4915
 3959SOL    HW123513   0.536   0.498   4.260  0.2499  0.7100 -1.0328
 3959SOL    HW223514   0.632   0.426   4.169 -0.3060 -0.9565  0.6625
 3960SOL     OW23515   3.929   3.019   6.678  0.3277 -0.2236 -0.2262
 3960SOL    HW123516   3.842   3.048   6.652 -0.0886  0.2288  1.6366
 3960SOL    HW223517   3.951   3.082   6.747  0.4087 -0.9356  0.4066
 3961SOL     OW23518   3.034   4.327  10.098  0.5837 -0.1392 -0.2504
 3961SOL    HW123519   2.999   4.239  10.087  0.1598  0.1549 -1.2262
 3961SOL    HW223520   3.102   4.304  10.161 -0.0036  0.0992  0.4562
 3962SOL     OW23521   2.857   4.711  13.275  0.0835 -0.4721  0.2694
 3962SOL    HW123522   2.903   4.714  13.359  1.0299  3.2071 -0.3743
 3962SOL    HW223523   2.839   4.617  13.278  0.4624 -0.5589 -0.2228
 3963SOL     OW23524   3.376   0.221   3.395 -0.4395  0.2586  0.6199
 3963SOL    HW123525   3.351   0.183   3.479 -1.8958  1.8322  0.8916
 3963SOL    HW223526   3.348   0.312   3.399  1.3308  0.8605 -0.7546
 3964SOL     OW23527   2.959   2.566   8.786 -0.2025  0.8056  0.7795
 3964SOL    HW123528   2.972   2.479   8.825 -0.4782 -1.1035 -3.4404
 3964SOL    HW223529   3.050   2.586   8.765  0.0538 -1.9408 -0.6790
 3965SOL     OW23530   1.514   3.720   3.263 -0.0692  0.3265  0.0214
 3965SOL    HW123531   1.599   3.731   3.220 -0.1364 -1.5270 -0.5958
 3965SOL    HW223532   1.538   3.725   3.355 -0.9656  1.0007  0.2076
 3966SOL     OW23533   0.659   1.580   2.919  0.7899 -0.3374 -0.2830
 3966SOL    HW123534   0.601   1.542   2.986  2.0012  0.1515  1.0474
 3966SOL    HW223535   0.742   1.594   2.965 -0.1724  1.2290  1.0129
 3967SOL     OW23536   0.831   1.185   5.533 -0.0312  0.1587  0.2789
 3967SOL    HW123537   0.871   1.106   5.497 -0.3147 -0.5970  1.6229
 3967SOL    HW223538   0.739   1.160   5.536  0.1965 -0.4590  2.0039
 3968SOL     OW23539   2.931   0.380   1.573 -0.1330  0.2093  0.5094
 3968SOL    HW123540   2.875   0.402   1.647 -1.8389 -0.1544 -0.6595
 3968SOL    HW223541   2.974   0.299   1.600  0.7149  0.5185  0.0658
 3969SOL     OW23542   3.635   0.828  16.281  0.5022 -0.3120 -0.1135
 3969SOL    HW123543   3.584   0.904  16.253  0.2076 -0.5936 -0.3355
 3969SOL    HW223544   3.722   0.852  16.249  1.8896 -2.2383  2.2296
 3970SOL     OW23545   4.024   0.467   8.870  0.2895 -0.3172  0.0860
 3970SOL    HW123546   4.018   0.387   8.922  1.0372 -0.3277  0.1638
 3970SOL    HW223547   4.118   0.486   8.864  0.0948  0.7652  0.5579
 3971SOL     OW23548   3.598   2.466   2.423 -0.2000 -0.7290 -0.0202
 3971SOL    HW123549   3.617   2.464   2.329 -4.1721 -2.8254 -0.8159
 3971SOL    HW223550   3.678   2.428   2.459 -0.9471 -1.1208  1.2180
 3972SOL     OW23551   1.237   0.329   0.776 -0.5144  0.5684 -0.1788
 3972SOL    HW123552   1.222   0.324   0.871 -0.5088  2.1066 -0.1044
 3972SOL    HW223553   1.171   0.391   0.745 -0.4499 -0.3141 -2.0686
 3973SOL     OW23554   0.519   2.191   7.136  0.0896  0.2473  0.0243
 3973SOL    HW123555   0.523   2.177   7.041  2.1869  0.8714  0.0273
 3973SOL    HW223556   0.525   2.101   7.167  2.2700  0.1149 -0.7680
 3974SOL     OW23557   0.447   2.243   4.678  0.1365 -0.3318 -0.1537
 3974SOL    HW123558   0.490   2.327   4.664  0.7327 -0.6826 -0.3993
 3974SOL    HW223559   0.522   2.188   4.659 -1.0505 -2.1008  0.2982
 3975SOL     OW23560   0.354   0.389  11.186  0.4042 -0.1853 -0.0108
 3975SOL    HW123561   0.278   0.357  11.138  0.9077 -1.0269 -0.2342
 3975SOL    HW223562   0.417   0.378  11.116  1.0972 -0.4975  0.6633
 3976SOL     OW23563   2.117   2.890  15.884  0.0710 -0.0057 -0.3670
 3976SOL    HW123564   2.190   2.831  15.868 -1.1759 -1.8380  0.7218
 3976SOL    HW223565   2.042   2.833  15.868 -1.0574  1.6234 -0.9186
 3977SOL     OW23566   2.044   1.279   9.681 -0.6569 -0.1433  0.2881
 3977SOL    HW123567   1.999   1.211   9.731 -0.2728 -1.9711 -1.8481
 3977SOL    HW223568   2.115   1.224   9.648  0.2952  0.4488  1.3520
 3978SOL     OW23569   4.258   0.368   4.030 -0.1880  0.1965 -0.6289
 3978SOL    HW123570   4.250   0.463   4.033  0.1699  0.2274 -0.6234
 3978SOL    HW223571   4.345   0.356   3.993 -0.6012  1.0955 -1.8794
 3979SOL     OW23572   0.325   0.133   8.585 -0.0160  0.1709 -0.2591
 3979SOL    HW123573   0.381   0.056   8.594 -0.0904  0.0596 -0.7526
 3979SOL    HW223574   0.275   0.117   8.505  0.0609 -2.7362  0.2732
 3980SOL     OW23575   2.426   3.974   4.302  0.2961  0.2319 -0.8327
 3980SOL    HW123576   2.510   3.928   4.297  0.9842  1.2708  1.1915
 3980SOL    HW223577   2.369   3.918   4.355  1.1446 -1.0306 -1.2667
 3981SOL     OW23578   1.246   2.238   9.461 -0.4002 -0.2797  0.3018
 3981SOL    HW123579   1.158   2.202   9.446 -0.3738 -0.3359  0.2829
 3981SOL    HW223580   1.247   2.278   9.548 -0.3207  0.4631 -0.0458
 3982SOL     OW23581   0.598   2.078  11.233  0.3496  0.2758 -0.3098
 3982SOL    HW123582   0.632   2.160  11.195 -0.7538  1.3376  0.9953
 3982SOL    HW223583   0.682   2.040  11.258  0.6603  2.2812  1.6406
 3983SOL     OW23584   3.293   3.844   3.964  0.4547 -0.0716  0.0433
 3983SOL    HW123585   3.301   3.861   4.058 -0.1597 -0.5095  0.1776
 3983SOL    HW223586   3.288   3.933   3.929 -0.7955  0.6983  2.1905
 3984SOL     OW23587   4.165   1.605  13.810  0.1396 -0.4481  0.1914
 3984SOL    HW123588   4.103   1.534  13.795  0.1009 -0.4895  0.5505
 3984SOL    HW223589   4.229   1.589  13.740  0.3032  1.4520 -0.1054
 3985SOL     OW23590   3.612   4.248  17.437  0.2004 -0.6811  0.1269
 3985SOL    HW123591   3.518   4.261  17.445  0.3583  0.8927 -0.4376
 3985SOL    HW223592   3.643   4.289  17.518  1.1783 -1.3019  0.0681
 3986SOL     OW23593   2.828   4.421   1.433 -0.6083 -0.0091  0.1828
 3986SOL    HW123594   2.922   4.411   1.449 -1.1521  0.6816  3.8312
 3986SOL    HW223595   2.841   4.480   1.359 -1.0101 -0.3175 -0.1352
 3987SOL     OW23596   3.876   3.702   4.287  0.6107  0.5976  0.6832
 3987SOL    HW123597   3.927   3.782   4.273  1.8861 -0.6495 -1.6900
 3987SOL    HW223598   3.788   3.726   4.256  0.7447  2.1055  1.4554
 3988SOL     OW23599   3.808   2.613   7.961 -0.0103  0.2924  0.1873
 3988SOL    HW123600   3.782   2.669   8.034  1.4569 -0.2892  1.1596
 3988SOL    HW223601   3.865   2.672   7.911 -1.8365  1.5007 -0.4783
 3989SOL     OW23602   1.826   0.739  15.936 -0.4906  0.2419 -0.3666
 3989SOL    HW123603   1.788   0.774  15.855  0.2591 -0.2128 -0.9220
 3989SOL    HW223604   1.913   0.777  15.944 -0.2877  0.2240 -2.5351
 3990SOL     OW23605   4.655   2.476  15.403  0.3361  0.3176 -0.6272
 3990SOL    HW123606   4.576   2.432  15.372  2.6031 -2.6293 -2.2424
 3990SOL    HW223607   4.628   2.480  15.495  1.1230  0.0897 -0.3823
 3991SOL     OW23608   1.874   2.207   4.091 -0.0380 -0.2100 -0.0131
 3991SOL    HW123609   1.935   2.274   4.061 -0.7805 -0.3989 -1.9149
 3991SOL    HW223610   1.841   2.251   4.170 -0.4148  3.0051 -1.9681
 3992SOL     OW23611   2.114   2.398  16.511 -0.0771 -0.0703 -0.0161
 3992SOL    HW123612   2.055   2.460  16.554 -1.9175  0.8009 -3.8043
 3992SOL    HW223613   2.060   2.321  16.526  1.2904 -1.0614 -0.1811
 3993SOL     OW23614   1.459   4.112  10.420 -0.0914 -0.0605 -0.4313
 3993SOL    HW123615   1.447   4.193  10.471 -2.1068  0.7042 -2.1261
 3993SOL    HW223616   1.368   4.091  10.400  0.0966  0.6538 -2.0313
 3994SOL     OW23617   1.166   2.070   2.159 -0.2412  0.2382  0.7582
 3994SOL    HW123618   1.137   1.979   2.155  0.0699  0.2189 -1.1114
 3994SOL    HW223619   1.253   2.056   2.122 -0.9973 -1.5186 -0.3552
 3995SOL     OW23620   2.747   1.063   9.372 -0.3498 -0.1762 -0.6569
 3995SOL    HW123621   2.780   1.150   9.351  0.8789 -0.8287 -1.4281
 3995SOL    HW223622   2.788   1.061   9.459 -1.9282 -1.1200  0.0742
 3996SOL     OW23623   0.176   2.363   9.812 -0.2955  0.4535 -0.0117
 3996SOL    HW123624   0.215   2.451   9.806  2.2014 -0.6065  0.7524
 3996SOL    HW223625   0.175   2.347   9.907 -1.9425 -0.9042 -0.2765
 3997SOL     OW23626   4.118   3.633   4.572 -0.2279  0.1087  0.3209
 3997SOL    HW123627   4.070   3.559   4.535 -0.2297  1.3721 -2.1434
 3997SOL    HW223628   4.141   3.605   4.661 -0.8782  1.0730  0.7968
 3998SOL     OW23629   4.195   3.215   8.114  0.5811  0.2066  0.0199
 3998SOL    HW123630   4.211   3.285   8.177 -2.5587 -0.2399  1.2828
 3998SOL    HW223631   4.227   3.261   8.037  0.7027  3.8848  2.2566
 3999SOL     OW23632   2.359   3.973   3.084  0.1410  1.0429  0.3731
 3999SOL    HW123633   2.265   3.992   3.088  0.0077  0.5052 -0.4481
 3999SOL    HW223634   2.377   3.911   3.156  0.5752  0.9689  0.2004
 4000SOL     OW23635   3.415   1.663   6.928  0.1944 -0.3671  0.0512
 4000SOL    HW123636   3.448   1.632   6.843  1.6844 -0.6466  0.7474
 4000SOL    HW223637   3.323   1.638   6.915 -0.1101  0.0024  1.6041
 4001SOL     OW23638   4.111   4.462   8.952  0.6166 -0.1196  0.5728
 4001SOL    HW123639   4.081   4.476   9.041  0.3380 -3.0965  0.9421
 4001SOL    HW223640   4.201   4.437   8.972  0.5130 -2.1402 -1.4033
 4002SOL     OW23641   0.169   1.628  14.135  0.6708  0.1070 -0.5871
 4002SOL    HW123642   0.108   1.583  14.193 -0.2686  0.7399 -1.0902
 4002SOL    HW223643   0.116   1.705  14.114 -1.1250 -0.5254  1.5542
 4003SOL     OW23644   3.184   2.951  10.556 -0.4582 -0.2190 -0.0127
 4003SOL    HW123645   3.190   2.926  10.464  1.9136  1.0562 -0.2111
 4003SOL    HW223646   3.095   2.985  10.556  0.8585  3.3012  1.3348
 4004SOL     OW23647   4.507   2.116   6.746  0.7614  0.1994 -0.0935
 4004SOL    HW123648   4.417   2.112   6.778  2.1417 -1.1956  3.5897
 4004SOL    HW223649   4.545   2.055   6.809  1.5120  0.2282 -0.5130
 4005SOL     OW23650   2.674   0.083  11.198  0.0575  0.2021  0.4444
 4005SOL    HW123651   2.710   0.165  11.231  0.9961  0.1348 -0.4063
 4005SOL    HW223652   2.739   0.056  11.133 -0.7617 -1.4202  0.2910
 4006SOL     OW23653   2.091   3.060   3.705  0.1015  0.4354 -0.6706
 4006SOL    HW123654   2.127   2.978   3.672  0.2249 -0.5822  2.0324
 4006SOL    HW223655   2.105   3.116   3.629  1.8767  2.3098  1.0274
 4007SOL     OW23656   0.038   2.472   7.361 -0.4469  0.2555  0.2873
 4007SOL    HW123657   0.106   2.465   7.428 -0.9306  0.1090  0.7532
 4007SOL    HW223658   0.088   2.447   7.282 -0.9457  2.0687 -0.6113
 4008SOL     OW23659   4.401   2.067   2.691  0.1973  0.0470 -0.4364
 4008SOL    HW123660   4.456   2.042   2.617  0.9734 -1.6129  0.6947
 4008SOL    HW223661   4.473   2.063   2.754  1.2291 -0.2241 -1.6330
 4009SOL     OW23662   2.456   4.605   9.511 -0.3899  0.0425  0.1750
 4009SOL    HW123663   2.435   4.677   9.571  0.5149 -0.4356  1.0715
 4009SOL    HW223664   2.549   4.602   9.534 -0.5029  2.9701  1.0442
 4010SOL     OW23665   1.535   3.305   0.151 -0.2873 -0.0140 -0.2614
 4010SOL    HW123666   1.492   3.227   0.116 -0.2815 -1.1570  2.2532
 4010SOL    HW223667   1.500   3.368   0.089 -3.8323 -1.5209  0.2040
 4011SOL     OW23668   1.218   3.646   7.285 -0.3790 -0.1754  0.1442
 4011SOL    HW123669   1.182   3.681   7.204  0.5930  0.1245 -0.1540
 4011SOL    HW223670   1.275   3.574   7.257  1.4956  0.4795  2.2586
 4012SOL     OW23671   0.658   4.469  15.887  0.5012 -0.0319 -0.3846
 4012SOL    HW123672   0.623   4.471  15.976 -1.2834  0.3288 -1.1001
 4012SOL    HW223673   0.616   4.549  15.857 -0.0537  0.0028  0.5098
 4013SOL     OW23674   0.021   3.999  10.235  0.0542  0.1339  0.1403
 4013SOL    HW123675   0.048   4.032  10.149 -3.2025  1.1018 -0.5347
 4013SOL    HW223676   0.016   4.082  10.282 -0.6603  0.4561 -0.4882
 4014SOL     OW23677   2.338   1.028  15.548  0.5170 -0.2478 -0.1258
 4014SOL    HW123678   2.278   0.970  15.595 -1.7081  0.0724 -2.6149
 4014SOL    HW223679   2.299   1.115  15.559 -2.0068 -1.3691 -0.2073
 4015SOL     OW23680   2.244   0.275   2.030  0.2645  0.2709  0.0734
 4015SOL    HW123681   2.340   0.270   2.024  0.0791 -1.0345 -1.8848
 4015SOL    HW223682   2.221   0.245   1.942 -0.3542 -1.2599  0.7609
 4016SOL     OW23683   2.250   2.881  15.545 -0.0747  0.3963 -0.6304
 4016SOL    HW123684   2.154   2.883  15.552 -0.0731  0.2760 -0.5790
 4016SOL    HW223685   2.273   2.798  15.586 -1.0253  0.6740  0.4651
 4017SOL     OW23686   2.030   0.307  10.169 -0.0894 -0.4028 -0.5485
 4017SOL    HW123687   2.080   0.355  10.235  0.4171  1.0668 -2.0097
 4017SOL    HW223688   2.100   0.248  10.139  1.6729  1.6207 -0.3834
 4018SOL     OW23689   1.089   1.981  13.208 -0.4056  0.7803 -0.2300
 4018SOL    HW123690   1.051   1.895  13.195  1.9152 -0.2604 -0.1592
 4018SOL    HW223691   1.065   2.001  13.299 -0.6288  1.2702 -0.3937
 4019SOL     OW23692   0.936   3.286   8.987  0.2422 -0.6726  0.4395
 4019SOL    HW123693   0.891   3.357   8.941 -0.0111 -0.6379  0.7383
 4019SOL    HW223694   0.903   3.208   8.942 -1.1815  0.6731 -0.8768
 4020SOL     OW23695   0.978   2.258   2.061  0.3243  0.3540  0.1814
 4020SOL    HW123696   1.042   2.210   2.114  0.1469  1.5045  1.4286
 4020SOL    HW223697   0.939   2.312   2.130 -0.7583 -1.6707  1.1766
 4021SOL     OW23698   1.415   1.915   4.598 -0.0002 -0.3795 -0.6960
 4021SOL    HW123699   1.360   1.958   4.532  0.3130 -2.4756 -2.3371
 4021SOL    HW223700   1.352   1.927   4.670  0.6921  2.9865 -0.6796
 4022SOL     OW23701   2.378   1.083   3.526  0.9753 -0.4356  0.6461
 4022SOL    HW123702   2.359   1.067   3.618  0.3823 -1.2225  0.3838
 4022SOL    HW223703   2.461   1.130   3.539  1.3726 -1.1909  0.8374
 4023SOL     OW23704   1.165   0.879   5.075 -0.1666 -0.4731 -0.3303
 4023SOL    HW123705   1.243   0.930   5.052  1.0650 -2.4615 -0.5453
 4023SOL    HW223706   1.126   0.936   5.141 -1.7038  1.4333 -2.9029
 4024SOL     OW23707   0.939   4.499  12.616 -0.8066  0.4651  0.5767
 4024SOL    HW123708   1.003   4.433  12.591 -1.9086 -1.4448  2.7934
 4024SOL    HW223709   0.889   4.519  12.537  0.4333  2.4186  0.2664
 4025SOL     OW23710   0.870   4.193   0.778 -0.1368  0.5851  0.1313
 4025SOL    HW123711   0.896   4.285   0.778 -0.1647  0.5908 -0.3513
 4025SOL    HW223712   0.882   4.181   0.873 -1.9696 -0.7699  0.1944
 4026SOL     OW23713   2.060   4.408   8.543 -0.2136 -0.4844 -0.3627
 4026SOL    HW123714   2.140   4.356   8.548 -0.5712 -0.9531  0.6004
 4026SOL    HW223715   2.000   4.380   8.613 -1.1496  0.0419 -0.9643
 4027SOL     OW23716   1.483   0.066   1.138 -0.1603  0.2037 -0.5995
 4027SOL    HW123717   1.475   0.020   1.222  0.2890  0.9432 -0.1453
 4027SOL    HW223718   1.559   0.121   1.156 -1.5684  1.1654  2.4778
 4028SOL     OW23719   2.715   2.568   6.722  0.1981 -0.2731 -0.1591
 4028SOL    HW123720   2.722   2.474   6.737 -0.3861 -0.6394 -2.1937
 4028SOL    HW223721   2.690   2.574   6.630  1.8271 -2.1450 -0.7310
 4029SOL     OW23722   0.449   0.661  15.431  0.0363  0.1862 -0.0954
 4029SOL    HW123723   0.492   0.662  15.345 -1.4112 -1.2377 -0.8153
 4029SOL    HW223724   0.359   0.632  15.422  0.0556  0.1601 -0.2029
 4030SOL     OW23725   2.602   3.887   6.585 -0.1140 -0.5369  0.4006
 4030SOL    HW123726   2.506   3.890   6.585 -0.1556 -1.4710 -1.2112
 4030SOL    HW223727   2.618   3.859   6.495 -2.0958 -1.0786  0.1935
 4031SOL     OW23728   0.284   2.627   6.021 -0.2824  0.8169  0.2323
 4031SOL    HW123729   0.249   2.546   5.987 -0.5443  1.0870 -0.1391
 4031SOL    HW223730   0.315   2.670   5.941 -2.0407  0.6734 -0.5122
 4032SOL     OW23731   0.804   2.373   1.790 -0.1100 -1.1015  0.1636
 4032SOL    HW123732   0.867   2.409   1.852  0.1898 -0.4109 -0.5447
 4032SOL    HW223733   0.743   2.448   1.786  0.8152 -0.5047 -2.4908
 4033SOL     OW23734   1.722   1.632   6.454  0.2619 -0.0567 -0.2828
 4033SOL    HW123735   1.700   1.571   6.384 -0.5958  1.2433 -1.1513
 4033SOL    HW223736   1.762   1.579   6.523 -2.3400  1.0375  2.0392
 4034SOL     OW23737   3.533   0.540   2.063  0.0251  0.8529 -0.2331
 4034SOL    HW123738   3.537   0.557   2.157  1.6362  0.2589 -0.2063
 4034SOL    HW223739   3.533   0.631   2.034  2.2976  0.3453 -1.7512
 4035SOL     OW23740   1.935   2.252  17.289 -0.8446  0.0946 -0.2220
 4035SOL    HW123741   1.976   2.314  17.350 -2.6567  1.8570 -0.8435
 4035SOL    HW223742   1.845   2.267  17.317 -0.4587  4.1705 -1.3190
 4036SOL     OW23743   0.106   1.573   6.549 -0.2129  0.1059 -0.5617
 4036SOL    HW123744   0.172   1.641   6.564  1.6987 -1.5630 -1.4627
 4036SOL    HW223745   0.024   1.619   6.570  0.2740  0.2633  0.9567
 4037SOL     OW23746   3.643   2.024   7.867  0.5755  0.5733  0.6443
 4037SOL    HW123747   3.638   1.932   7.842 -1.8520  0.9480 -0.2822
 4037SOL    HW223748   3.556   2.060   7.848 -0.4862 -1.9262  0.7162
 4038SOL     OW23749   2.711   1.835   7.407  0.4099 -0.3592  0.2284
 4038SOL    HW123750   2.735   1.908   7.351 -1.6193 -0.9573 -1.4448
 4038SOL    HW223751   2.615   1.830   7.400  0.3074 -0.9974  2.0323
 4039SOL     OW23752   1.386   2.683   9.478 -0.3713  0.1398 -0.2842
 4039SOL    HW123753   1.291   2.670   9.475 -0.2507 -0.6725 -0.4244
 4039SOL    HW223754   1.413   2.598   9.513 -0.9577  0.1783  0.2624
 4040SOL     OW23755   0.345   2.866   5.201 -0.2650  0.7608  0.5203
 4040SOL    HW123756   0.249   2.875   5.204 -0.4970 -1.8104  0.6226
 4040SOL    HW223757   0.364   2.892   5.111 -3.7016 -1.7847 -0.9402
 4041SOL     OW23758   1.534   3.832   4.030 -0.1046  0.4299  0.1600
 4041SOL    HW123759   1.597   3.896   4.063 -0.5043  1.4389 -1.0219
 4041SOL    HW223760   1.506   3.794   4.114  0.3047 -3.6934 -1.5426
 4042SOL     OW23761   3.104   1.252  16.786 -0.6897  0.1919  0.2935
 4042SOL    HW123762   3.115   1.348  16.785 -1.1627  0.2273 -1.2780
 4042SOL    HW223763   3.113   1.226  16.695 -1.2940  1.0505 -0.0082
 4043SOL     OW23764   3.749   0.894  15.773 -0.6164 -0.0611 -0.2644
 4043SOL    HW123765   3.685   0.865  15.707 -0.9167  0.0252 -0.0145
 4043SOL    HW223766   3.703   0.970  15.810  1.7707  1.4310 -0.3869
 4044SOL     OW23767   2.989   1.147   8.653 -0.0052 -0.1286 -1.1463
 4044SOL    HW123768   2.953   1.210   8.590  0.2800  1.0923 -0.0878
 4044SOL    HW223769   3.021   1.200   8.726 -1.9999 -2.8043  1.6362
 4045SOL     OW23770   3.729   2.813   8.159 -0.4432  0.1265 -0.0888
 4045SOL    HW123771   3.791   2.867   8.208  0.6395 -0.3358 -0.9590
 4045SOL    HW223772   3.712   2.748   8.228  0.3820  1.2056  1.1354
 4046SOL     OW23773   1.657   3.776   8.389 -0.1784 -0.1190 -0.3365
 4046SOL    HW123774   1.595   3.845   8.412  1.1754  0.0859  2.7395
 4046SOL    HW223775   1.730   3.835   8.370  0.6577 -0.5334  1.6096
 4047SOL     OW23776   2.711   4.441   4.495 -0.2936 -0.5198  0.0574
 4047SOL    HW123777   2.722   4.474   4.584 -0.1613 -1.5149  0.4092
 4047SOL    HW223778   2.706   4.347   4.514  2.3953 -0.3223  1.7042
 4048SOL     OW23779   1.456   2.108   7.292  0.1738 -0.7382  0.4059
 4048SOL    HW123780   1.486   2.018   7.306  2.4603 -0.3624 -2.1735
 4048SOL    HW223781   1.502   2.136   7.213 -1.0162 -0.9727 -0.3685
 4049SOL     OW23782   4.607   1.592   1.391 -0.4252  0.0766  0.6576
 4049SOL    HW123783   4.613   1.527   1.461  1.9264 -0.5638 -0.1549
 4049SOL    HW223784   4.583   1.543   1.312  0.4537 -1.0343  1.0859
 4050SOL     OW23785   2.504   3.077   5.201 -0.5234  0.3289  0.0138
 4050SOL    HW123786   2.582   3.024   5.219 -3.3220 -3.6311  0.4004
 4050SOL    HW223787   2.448   3.044   5.271  0.1658 -0.0541  0.3800
 4051SOL     OW23788   1.062   2.247   7.351  0.2259 -0.2883  0.9256
 4051SOL    HW123789   1.143   2.228   7.397  0.6541 -2.0173 -0.5182
 4051SOL    HW223790   1.089   2.249   7.259 -0.2544  0.4504  0.7927
 4052SOL     OW23791   0.159   1.170   9.272  0.0892  0.0735  0.0664
 4052SOL    HW123792   0.118   1.182   9.187  0.5389 -0.0758 -0.1679
 4052SOL    HW223793   0.216   1.099   9.244  1.0677 -0.0017  2.2360
 4053SOL     OW23794   3.814   0.555   5.672  0.1005  0.1482  0.6103
 4053SOL    HW123795   3.796   0.620   5.741  0.3097 -1.6121  2.3085
 4053SOL    HW223796   3.765   0.593   5.599  0.3791  0.9742  0.8482
 4054SOL     OW23797   1.091   2.195   6.759 -0.3046  0.0871  0.0669
 4054SOL    HW123798   1.106   2.244   6.678 -1.3415  0.3961  0.0660
 4054SOL    HW223799   1.015   2.240   6.795 -1.9678 -1.4083 -1.6057
 4055SOL     OW23800   4.502   2.669   8.835  0.1323 -0.3733  0.5915
 4055SOL    HW123801   4.455   2.685   8.753  2.0867 -1.0755 -0.6516
 4055SOL    HW223802   4.506   2.574   8.825  0.6669 -0.4515  1.5918
 4056SOL     OW23803   2.913   2.502  13.152  0.2636 -0.0440 -0.7923
 4056SOL    HW123804   3.008   2.505  13.159  0.2346 -0.7903 -0.1883
 4056SOL    HW223805   2.882   2.589  13.177  0.1765  0.0706 -1.2901
 4057SOL     OW23806   2.434   0.237   4.390  0.5636  0.0464  0.7445
 4057SOL    HW123807   2.405   0.327   4.404  0.6551  0.0750  0.7495
 4057SOL    HW223808   2.489   0.222   4.467  2.2659  2.7212  0.0284
 4058SOL     OW23809   1.388   0.490   3.408  0.2498 -0.1810 -0.1918
 4058SOL    HW123810   1.393   0.408   3.457  0.6810 -1.6529 -2.7397
 4058SOL    HW223811   1.460   0.530   3.458  0.7432 -1.9130  0.4727
 4059SOL     OW23812   4.006   1.788   3.931  0.6898  0.6972 -0.3680
 4059SOL    HW123813   4.101   1.789   3.916  0.8733  2.2271  0.9903
 4059SOL    HW223814   3.986   1.879   3.950  0.8694  0.5231  0.6667
 4060SOL     OW23815   2.255   4.493   3.640  0.0406 -0.3301  0.1447
 4060SOL    HW123816   2.303   4.480   3.558  1.6022  0.1934  0.9643
 4060SOL    HW223817   2.293   4.574   3.675  1.2165  0.1958 -2.3819
 4061SOL     OW23818   3.276   2.893   7.404  0.3547  0.5394  0.4624
 4061SOL    HW123819   3.208   2.848   7.354 -2.2898  1.4139  3.3240
 4061SOL    HW223820   3.289   2.973   7.353 -1.5524  1.3572  1.2744
 4062SOL     OW23821   3.424   2.733   9.063 -0.2431 -0.4198  0.6369
 4062SOL    HW123822   3.449   2.759   9.152 -1.0426  2.9840 -0.1301
 4062SOL    HW223823   3.339   2.774   9.054 -0.2169 -0.0063  2.2246
 4063SOL     OW23824   0.301   2.017  15.330  0.0663  0.8527 -0.4950
 4063SOL    HW123825   0.310   1.980  15.418  2.5176  1.0647 -0.6505
 4063SOL    HW223826   0.375   1.976  15.285 -0.5843 -0.9726  0.0951
 4064SOL     OW23827   3.463   4.421   1.720 -0.4658  0.1891 -0.3216
 4064SOL    HW123828   3.465   4.515   1.698 -3.8974  0.6948  1.5497
 4064SOL    HW223829   3.466   4.375   1.636 -0.6852  0.3229 -0.4048
 4065SOL     OW23830   0.730   4.008  12.866 -0.2537 -0.4302 -0.4502
 4065SOL    HW123831   0.775   3.992  12.783 -2.0660  0.8588 -1.6846
 4065SOL    HW223832   0.639   4.023  12.840 -0.8185 -0.1019  1.6853
 4066SOL     OW23833   2.730   4.567  13.532  0.4511  0.1746  0.4965
 4066SOL    HW123834   2.795   4.633  13.556 -0.1522  0.7819  0.4813
 4066SOL    HW223835   2.651   4.621  13.538 -0.0898 -0.3191 -1.9972
 4067SOL     OW23836   3.559   0.847   4.549  0.3184 -0.0314  0.3160
 4067SOL    HW123837   3.574   0.941   4.545  0.3973 -0.0444  0.3126
 4067SOL    HW223838   3.503   0.847   4.627  1.1038  1.3961  0.8769
 4068SOL     OW23839   1.984   1.832   4.235 -0.2506  0.0899 -0.3032
 4068SOL    HW123840   1.925   1.856   4.164 -0.8167  0.5719  0.3210
 4068SOL    HW223841   1.945   1.871   4.313  0.7015 -2.2710  1.3528
 4069SOL     OW23842   0.718   2.769  17.173  0.3348  0.8521 -0.0255
 4069SOL    HW123843   0.717   2.746  17.080  1.4819  0.4660  0.0570
 4069SOL    HW223844   0.651   2.838  17.169  0.3351  0.8576  0.0580
 4070SOL     OW23845   4.314   0.988   1.390  0.2121 -0.7187  0.0361
 4070SOL    HW123846   4.278   1.034   1.314 -0.5100 -1.6023 -0.1595
 4070SOL    HW223847   4.403   1.023   1.383 -0.3401  0.8796  0.9505
 4071SOL     OW23848   3.180   3.097   6.828 -0.3672 -0.2619 -0.1358
 4071SOL    HW123849   3.147   3.057   6.909  2.3426  0.8387  1.5322
 4071SOL    HW223850   3.105   3.133   6.782 -0.3795 -0.1789 -0.0520
 4072SOL     OW23851   1.194   0.091  16.779  0.1104 -0.0145  0.1644
 4072SOL    HW123852   1.257   0.054  16.841  1.8532  1.6366 -0.6396
 4072SOL    HW223853   1.187   0.016  16.719  0.9469 -0.1590  0.2567
 4073SOL     OW23854   4.438   1.527   4.177  0.1093  0.5698 -0.1302
 4073SOL    HW123855   4.381   1.455   4.202  0.0125  1.3524  1.9505
 4073SOL    HW223856   4.441   1.575   4.260 -0.0088  0.4168 -0.0391
 4074SOL     OW23857   4.696   2.089   7.005  0.4016  0.3019 -0.4460
 4074SOL    HW123858   4.688   2.184   6.992 -2.9718  0.0826  0.0016
 4074SOL    HW223859   4.612   2.065   7.045  1.1466 -2.2807 -0.4429
 4075SOL     OW23860   2.361   1.633   2.894  0.0337  0.1453 -0.2577
 4075SOL    HW123861   2.283   1.634   2.838 -0.3150 -2.1757  0.2068
 4075SOL    HW223862   2.392   1.543   2.883  0.8751  0.3320  0.5864
 4076SOL     OW23863   0.891   3.977  14.622 -0.4985  0.1529  0.1171
 4076SOL    HW123864   0.827   4.042  14.650 -2.3333 -1.7354  0.2182
 4076SOL    HW223865   0.857   3.959  14.535 -1.5102  2.5656  0.0189
 4077SOL     OW23866   3.993   0.524   2.681 -0.0650 -0.5881 -0.2811
 4077SOL    HW123867   3.990   0.557   2.770  0.5742  0.6589 -0.7246
 4077SOL    HW223868   3.994   0.430   2.699 -2.2258 -0.4273  0.5724
 4078SOL     OW23869   3.155   1.803   0.905 -0.4788  0.5988 -0.2320
 4078SOL    HW123870   3.146   1.819   0.811 -0.7902  1.7555  0.0040
 4078SOL    HW223871   3.064   1.784   0.932 -0.6125  0.0374 -1.0718
 4079SOL     OW23872   2.861   2.608  11.295  0.5130  0.0517 -1.1690
 4079SOL    HW123873   2.933   2.669  11.277  0.4929 -0.0717 -1.6815
 4079SOL    HW223874   2.831   2.626  11.384  1.1143  1.2189 -1.2065
 4080SOL     OW23875   2.599   2.982  14.438 -0.1096 -0.3569  0.4974
 4080SOL    HW123876   2.627   2.984  14.530 -0.4527  0.8221  0.5796
 4080SOL    HW223877   2.611   2.890  14.417 -1.5933 -0.7769  1.4539
 4081SOL     OW23878   2.602   0.834   9.626  0.1441  0.1944 -0.4454
 4081SOL    HW123879   2.564   0.825   9.539 -0.7174  1.0164 -0.1518
 4081SOL    HW223880   2.663   0.905   9.606  0.6269  0.6516  2.6272
 4082SOL     OW23881   4.091   0.481   5.818  0.7086 -0.4236  0.4133
 4082SOL    HW123882   4.002   0.511   5.836  0.2771 -1.8714  0.6541
 4082SOL    HW223883   4.104   0.521   5.731  1.5031 -1.2280  0.1623
 4083SOL     OW23884   2.691   4.293   2.706  0.5131  0.0609  0.1798
 4083SOL    HW123885   2.733   4.248   2.779 -2.0561 -0.5884  1.2621
 4083SOL    HW223886   2.619   4.232   2.691  0.1551  0.3713  0.6276
 4084SOL     OW23887   0.726   0.381   2.383 -0.5254  0.0654  0.0921
 4084SOL    HW123888   0.640   0.369   2.343 -0.3726 -0.4091 -0.1035
 4084SOL    HW223889   0.766   0.294   2.388 -0.1623  0.2453  0.3383
 4085SOL     OW23890   3.397   1.081   5.756  0.2341 -0.7261  0.3055
 4085SOL    HW123891   3.459   1.009   5.771 -1.3807 -1.9604  1.0781
 4085SOL    HW223892   3.447   1.144   5.808  2.3051 -0.5979 -1.8307
 4086SOL     OW23893   0.268   1.537  16.047  0.1109  0.3905  0.4737
 4086SOL    HW123894   0.359   1.530  16.020  0.4897  1.0210  1.5730
 4086SOL    HW223895   0.265   1.462  16.106  1.5711 -0.7658 -0.9401
 4087SOL     OW23896   2.069   3.390   4.781 -0.0399  0.9518 -0.4837
 4087SOL    HW123897   2.021   3.446   4.842  0.2097  0.6305 -0.0007
 4087SOL    HW223898   2.104   3.317   4.831  2.5496  0.5864 -2.8328
 4088SOL     OW23899   4.236   0.308   0.113  0.2935 -0.5002 -0.2227
 4088SOL    HW123900   4.272   0.251   0.045  2.3556 -0.2800  0.6654
 4088SOL    HW223901   4.217   0.234   0.171 -2.9351 -0.1249 -0.8040
 4089SOL     OW23902   3.493   2.602  11.218 -0.0982  0.8148 -0.2404
 4089SOL    HW123903   3.568   2.543  11.225 -0.2742  0.6322  0.1428
 4089SOL    HW223904   3.490   2.644  11.303 -0.6078  0.9105 -0.3050
 4090SOL     OW23905   3.044   4.686   8.421  0.3056  0.3779 -0.2582
 4090SOL    HW123906   2.992   0.025   8.391 -1.5574 -1.1157 -0.7832
 4090SOL    HW223907   3.136   4.709   8.409  0.1347  1.4344  0.4682
 4091SOL     OW23908   3.574   3.681   6.040 -0.4950 -0.4188  0.3236
 4091SOL    HW123909   3.602   3.640   5.959  2.2700  1.2630  0.4269
 4091SOL    HW223910   3.504   3.622   6.068 -2.0791  1.0213 -0.5496
 4092SOL     OW23911   3.467   1.320   5.967  0.4029  0.4229 -0.8382
 4092SOL    HW123912   3.470   1.392   5.904 -3.0839  0.4797 -0.8984
 4092SOL    HW223913   3.447   1.367   6.048 -1.1695 -0.0623 -0.9448
 4093SOL     OW23914   3.421   4.303   9.171  0.4242 -0.0696 -0.4327
 4093SOL    HW123915   3.405   4.266   9.258  0.7109  1.9978  0.4923
 4093SOL    HW223916   3.411   4.223   9.119  0.0977 -1.6811  2.1189
 4094SOL     OW23917   1.166   1.644   3.741 -0.5050  0.4589  0.4393
 4094SOL    HW123918   1.199   1.626   3.828 -2.0296 -0.9505  0.7281
 4094SOL    HW223919   1.104   1.573   3.722  0.7224 -0.1305 -1.4365
 4095SOL     OW23920   2.513   2.050   5.187 -0.1211 -0.2320  0.6484
 4095SOL    HW123921   2.498   2.064   5.093  0.5874 -1.9858  0.2677
 4095SOL    HW223922   2.568   1.971   5.183  2.0941  1.3558 -0.0524
 4096SOL     OW23923   3.886   2.942   8.353  0.2418 -0.0831  0.3425
 4096SOL    HW123924   3.874   2.850   8.375  1.1474 -0.3951 -0.4554
 4096SOL    HW223925   3.881   2.973   8.443 -2.2869  1.5554 -0.3774
 4097SOL     OW23926   1.187   1.237   3.349  0.1378  0.1381 -0.7244
 4097SOL    HW123927   1.178   1.143   3.366 -0.6987 -0.0399 -2.1440
 4097SOL    HW223928   1.218   1.218   3.260  0.0414  0.2914 -0.7909
 4098SOL     OW23929   2.469   4.556   7.067 -0.2063  0.2674  0.3266
 4098SOL    HW123930   2.382   4.589   7.088 -0.2982 -1.1410  2.1413
 4098SOL    HW223931   2.518   4.638   7.057 -1.1694  0.8326  0.2400
 4099SOL     OW23932   0.609   0.191  15.720 -0.5363  0.3545 -0.2496
 4099SOL    HW123933   0.660   0.258  15.676 -0.6905 -0.7397 -2.1078
 4099SOL    HW223934   0.522   0.232  15.721 -0.4421  0.4949  2.2912
 4100SOL     OW23935   1.007   3.394  11.069  0.5262  0.5209 -0.0770
 4100SOL    HW123936   1.002   3.462  11.002 -0.4445  1.6515  1.1394
 4100SOL    HW223937   0.916   3.386  11.098  0.5988  0.5092  0.1525
 4101SOL     OW23938   0.614   0.375   8.116  0.1618  0.4360 -0.0559
 4101SOL    HW123939   0.523   0.394   8.141  0.0456  1.6041 -1.3602
 4101SOL    HW223940   0.666   0.386   8.196  0.6342 -0.6272 -0.2163
 4102SOL     OW23941   2.004   3.102  12.877 -0.6469 -0.4746 -0.1207
 4102SOL    HW123942   2.063   3.028  12.892 -0.1874 -0.3334 -1.2356
 4102SOL    HW223943   1.933   3.076  12.935 -1.8854  0.2153 -1.3416
 4103SOL     OW23944   1.907   0.831   6.457  0.7794  0.1002  0.1083
 4103SOL    HW123945   1.899   0.915   6.501 -1.3871 -1.8562  3.4162
 4103SOL    HW223946   1.845   0.836   6.384  0.4709 -0.3547  0.3412
 4104SOL     OW23947   3.786   4.348  12.114 -0.0044  0.1189 -0.0890
 4104SOL    HW123948   3.865   4.386  12.074 -0.0430 -0.8692 -1.1220
 4104SOL    HW223949   3.729   4.347  12.037  0.8762 -1.8515 -0.7177
 4105SOL     OW23950   4.472   3.342   4.632 -0.2885  0.0933  0.2781
 4105SOL    HW123951   4.394   3.286   4.638 -0.0552 -0.2658 -0.0511
 4105SOL    HW223952   4.519   3.328   4.714 -1.2973  1.0190  1.0166
 4106SOL     OW23953   2.203   1.622   9.832 -0.0275 -0.0727 -0.2757
 4106SOL    HW123954   2.174   1.534   9.805 -1.1079 -0.2962  1.5720
 4106SOL    HW223955   2.122   1.651   9.874 -0.4620 -3.1046  1.0335
 4107SOL     OW23956   2.009   0.758   4.683  0.3662 -0.3583  0.0517
 4107SOL    HW123957   1.942   0.731   4.746 -0.5620 -0.4959 -1.0002
 4107SOL    HW223958   2.019   0.678   4.631 -0.8216 -0.3559 -0.1867
 4108SOL     OW23959   4.635   2.329   1.539 -0.0664  0.2534  0.4265
 4108SOL    HW123960   4.576   2.288   1.475 -0.4633  1.9493 -0.3029
 4108SOL    HW223961   4.689   2.259   1.573 -2.2843 -2.2665 -1.2509
 4109SOL     OW23962   2.434   3.300  14.078  0.0042  0.0400 -0.2972
 4109SOL    HW123963   2.345   3.271  14.101  0.3374 -0.7638 -0.0451
 4109SOL    HW223964   2.423   3.322  13.985 -0.8897  0.8894  0.0052
 4110SOL     OW23965   2.208   0.570   6.927 -0.3769 -0.4328  0.1841
 4110SOL    HW123966   2.199   0.632   6.855 -0.2869  1.7425  2.0622
 4110SOL    HW223967   2.295   0.530   6.919 -0.4619 -0.6214  0.1954
 4111SOL     OW23968   2.073   1.497   7.517 -0.6241  0.1361  0.0072
 4111SOL    HW123969   2.040   1.507   7.607  1.3917  0.0313  0.7680
 4111SOL    HW223970   1.997   1.486   7.461  0.3310 -1.2706 -0.9846
 4112SOL     OW23971   0.431   1.948   2.045 -0.0416  0.3370  0.2541
 4112SOL    HW123972   0.426   2.041   2.065  1.3319  0.4396  0.1347
 4112SOL    HW223973   0.460   1.920   2.132  0.0289 -1.0162 -0.2013
 4113SOL     OW23974   4.552   3.607   4.047  0.1718 -0.0060 -0.2616
 4113SOL    HW123975   4.479   3.566   4.093  0.8011 -0.6592  0.1530
 4113SOL    HW223976   4.539   3.694   4.084 -1.8239  0.7151 -2.7035
 4114SOL     OW23977   4.619   3.978   4.968 -0.6237  0.1546  0.0247
 4114SOL    HW123978   4.619   4.064   5.009 -0.7001 -0.2373  0.8450
 4114SOL    HW223979   4.570   3.994   4.887  2.1654  1.8191 -1.3282
 4115SOL     OW23980   1.633   1.263   7.741 -0.1440  0.7827 -0.3957
 4115SOL    HW123981   1.671   1.347   7.712 -1.1168  1.6311  0.8385
 4115SOL    HW223982   1.543   1.293   7.748  0.0931  1.2348  0.7067
 4116SOL     OW23983   3.118   2.716   7.288  0.2924 -0.4731  0.9661
 4116SOL    HW123984   3.083   2.663   7.359 -0.8504  0.3224  1.0045
 4116SOL    HW223985   3.168   2.648   7.244 -0.4242 -0.4280  0.1081
 4117SOL     OW23986   1.122   3.925  10.092  0.4024 -0.2408 -0.4683
 4117SOL    HW123987   1.069   3.860  10.139  1.3306 -0.7349 -0.0981
 4117SOL    HW223988   1.055   3.978  10.049  0.7094  1.1431  0.7417
 4118SOL     OW23989   1.527   4.592  11.825  0.1525 -0.0159  0.3133
 4118SOL    HW123990   1.561   4.502  11.829  0.1171  0.0256  1.4102
 4118SOL    HW223991   1.584   4.642  11.884 -0.1682  0.9616 -0.2206
 4119SOL     OW23992   0.281   2.480   6.835 -0.4759 -0.3581  0.1501
 4119SOL    HW123993   0.247   2.539   6.902 -1.3040 -0.6852  0.0243
 4119SOL    HW223994   0.327   2.544   6.780  1.5524 -2.0307 -0.1055
 4120SOL     OW23995   4.389   3.850  10.259  0.1095  0.2939 -0.4332
 4120SOL    HW123996   4.449   3.902  10.312  2.7378 -0.7203 -2.4411
 4120SOL    HW223997   4.414   3.879  10.171 -1.4939 -0.3584 -1.1004
 4121SOL     OW23998   1.210   4.006   9.801  0.3841 -0.2126  0.1561
 4121SOL    HW123999   1.288   4.015   9.746 -2.0081  1.8362 -2.8619
 4121SOL    HW224000   1.248   3.963   9.878 -0.1524  0.7441  0.9642
 4122SOL     OW24001   3.309   3.453  14.560 -0.2618  0.0106 -0.4068
 4122SOL    HW124002   3.288   3.411  14.476 -0.4158  2.1351 -1.4254
 4122SOL    HW224003   3.236   3.416  14.609 -2.3396  4.1299 -0.4223
 4123SOL     OW24004   0.216   0.112   2.297 -0.6508  0.3187 -0.1374
 4123SOL    HW124005   0.291   0.052   2.301 -0.0780  1.0109 -0.6500
 4123SOL    HW224006   0.211   0.147   2.386  1.1114  0.4621 -0.0939
 4124SOL     OW24007   0.568   0.857   6.313 -0.1542  0.0486  0.2969
 4124SOL    HW124008   0.578   0.876   6.406 -0.0050 -0.8645  0.4736
 4124SOL    HW224009   0.500   0.917   6.282 -1.6554 -2.1048 -0.6090
 4125SOL     OW24010   2.813   4.382   7.071 -0.0466 -0.1055  0.0087
 4125SOL    HW124011   2.830   4.313   7.008  1.6141 -0.4531  0.8257
 4125SOL    HW224012   2.857   4.353   7.151 -1.2360 -2.9156 -0.3695
 4126SOL     OW24013   3.572   0.912   7.875  0.5175  0.2841  0.6264
 4126SOL    HW124014   3.667   0.900   7.869  0.4815 -0.8364  2.3771
 4126SOL    HW224015   3.546   0.821   7.891  4.8328 -0.8319  1.2289
 4127SOL     OW24016   2.833   0.291  11.000 -0.1999  0.0550 -0.6626
 4127SOL    HW124017   2.744   0.317  10.978 -0.2542  1.4619  1.2573
 4127SOL    HW224018   2.812   0.198  10.989 -0.6199 -0.0107  0.7451
 4128SOL     OW24019   4.229   1.427   3.591 -0.0749 -0.6647  0.1323
 4128SOL    HW124020   4.268   1.387   3.514  0.6046  0.6428 -0.1960
 4128SOL    HW224021   4.140   1.448   3.560  0.2307 -0.0378 -0.3179
 4129SOL     OW24022   0.909   3.552   2.893  0.2054  0.0020  0.3378
 4129SOL    HW124023   0.962   3.546   2.972 -0.5814 -2.3322  0.6772
 4129SOL    HW224024   0.954   3.483   2.844  1.5887  2.2478 -1.5696
 4130SOL     OW24025   4.086   3.017   1.318 -0.5491 -0.0480  0.0085
 4130SOL    HW124026   4.013   3.015   1.381 -2.5046 -0.0593 -2.2525
 4130SOL    HW224027   4.135   2.946   1.360 -0.1615  0.1847 -0.0580
 4131SOL     OW24028   3.109   1.699   2.114  0.1404 -0.4760 -0.2892
 4131SOL    HW124029   3.106   1.760   2.041 -1.3476  1.0285  1.0336
 4131SOL    HW224030   3.061   1.620   2.088  0.6220 -1.1874  0.9691
 4132SOL     OW24031   2.497   3.348   5.209 -0.4197  0.4618  0.5759
 4132SOL    HW124032   2.484   3.260   5.244 -0.7300  1.3664  2.7221
 4132SOL    HW224033   2.585   3.326   5.178 -0.7074  0.7207 -0.4232
 4133SOL     OW24034   1.774   3.544   0.177  0.1505 -0.1598 -0.0622
 4133SOL    HW124035   1.742   3.618   0.230 -0.8100  0.6492 -1.7692
 4133SOL    HW224036   1.764   3.472   0.239 -1.9029 -0.1412 -0.3654
 4134SOL     OW24037   0.687   0.306   8.559 -0.3260  0.0181 -0.1904
 4134SOL    HW124038   0.737   0.382   8.589  1.2358 -0.5052 -1.4941
 4134SOL    HW224039   0.662   0.340   8.473 -1.5110 -1.4763 -0.4412
 4135SOL     OW24040   3.204   3.380   4.030  0.0479 -0.3952 -0.4728
 4135SOL    HW124041   3.210   3.459   3.976 -0.2780 -0.7791 -1.0573
 4135SOL    HW224042   3.277   3.397   4.091 -0.4347 -1.5783  0.4352
 4136SOL     OW24043   0.479   0.299   2.315 -0.0242  0.1947  0.3165
 4136SOL    HW124044   0.437   0.270   2.396 -0.2554 -0.3027  0.0205
 4136SOL    HW224045   0.402   0.320   2.263  0.8058  1.2839 -0.4859
 4137SOL     OW24046   0.472   3.209   3.426 -0.2660  0.0988  0.1002
 4137SOL    HW124047   0.474   3.292   3.473 -3.3382  0.5162 -0.5083
 4137SOL    HW224048   0.456   3.152   3.501  1.5571  1.8522  1.8342
 4138SOL     OW24049   0.437   1.402   3.594 -0.0008  0.0709 -0.1166
 4138SOL    HW124050   0.357   1.398   3.646 -0.4040 -1.6334 -0.8476
 4138SOL    HW224051   0.428   1.325   3.538 -1.2642  0.9615 -1.1427
 4139SOL     OW24052   0.055   3.361   5.525 -0.1522  0.4137  0.5232
 4139SOL    HW124053   4.732   3.287   5.511 -2.7759  2.0924  2.6360
 4139SOL    HW224054   0.034   3.386   5.615 -0.6521 -0.0021  0.5252
 4140SOL     OW24055   1.715   4.178  12.260 -0.3391  0.0676 -0.1523
 4140SOL    HW124056   1.638   4.146  12.307  1.0816 -0.8703  1.5377
 4140SOL    HW224057   1.775   4.105  12.271 -0.2165 -0.1073 -1.9220
 4141SOL     OW24058   0.007   1.747   6.117 -0.4495  0.1553  0.0871
 4141SOL    HW124059   4.681   1.817   6.099 -1.2753 -0.2453  1.3180
 4141SOL    HW224060   4.699   1.699   6.188  3.0088 -1.9759  0.8195
 4142SOL     OW24061   0.397   2.564  17.670  0.0820  0.4078  0.2846
 4142SOL    HW124062   0.406   2.651  17.632 -0.2638 -1.0672 -3.1914
 4142SOL    HW224063   0.421   2.501  17.602  2.0689  0.0202  1.3282
 4143SOL     OW24064   2.953   2.293   9.733 -0.7318  0.2058  0.0517
 4143SOL    HW124065   2.926   2.203   9.713 -2.0466  0.0298  2.6246
 4143SOL    HW224066   2.890   2.308   9.803 -2.3881 -0.3710 -1.3292
 4144SOL     OW24067   2.600   1.582   4.929  1.3203 -0.2245 -0.0708
 4144SOL    HW124068   2.549   1.576   5.010  0.1399  2.0060 -0.6444
 4144SOL    HW224069   2.535   1.632   4.879  0.3130 -1.2579  0.1985
 4145SOL     OW24070   4.639   4.436   9.847  0.2416 -0.6952  0.2056
 4145SOL    HW124071   4.702   4.501   9.878 -1.0512  1.6703 -2.0724
 4145SOL    HW224072   4.608   4.400   9.929  0.5309  1.1393  1.1323
 4146SOL     OW24073   3.376   3.590   3.917 -0.2697 -0.3782  0.7438
 4146SOL    HW124074   3.393   3.532   3.990 -0.1302 -0.1253  0.9134
 4146SOL    HW224075   3.357   3.674   3.958 -1.6304 -0.9961  1.3792
 4147SOL     OW24076   0.485   2.253   8.614  0.1523  0.7846  0.1704
 4147SOL    HW124077   0.483   2.294   8.528 -0.6538 -1.3231 -0.8259
 4147SOL    HW224078   0.469   2.336   8.658  0.6065  0.6777  0.5376
 4148SOL     OW24079   2.842   2.782  11.072 -0.0141  0.1270 -0.0198
 4148SOL    HW124080   2.851   2.841  11.147 -0.2318 -0.0456  0.1427
 4148SOL    HW224081   2.775   2.721  11.102  0.6342  0.4572  2.1153
 4149SOL     OW24082   3.943   2.133   4.995  0.1814  0.0752  1.2978
 4149SOL    HW124083   3.975   2.053   4.954 -0.4414  0.2884  0.3987
 4149SOL    HW224084   3.878   2.162   4.932 -0.5748  0.1401  2.1040
 4150SOL     OW24085   2.572   1.327  15.430 -0.2079 -0.1663  0.3017
 4150SOL    HW124086   2.524   1.271  15.368  0.8277 -1.3098  0.5446
 4150SOL    HW224087   2.571   1.403  15.372  0.8310  0.7986  1.5606
 4151SOL     OW24088   3.755   1.271  16.146 -0.4195 -0.1780  0.2916
 4151SOL    HW124089   3.810   1.205  16.104 -0.5633  0.4736 -0.9070
 4151SOL    HW224090   3.704   1.215  16.203 -2.9081  2.1449  0.3578
 4152SOL     OW24091   2.820   4.042   0.370 -0.2444 -0.3632  0.2136
 4152SOL    HW124092   2.786   4.108   0.310  3.7498 -0.3493 -2.0821
 4152SOL    HW224093   2.751   4.045   0.436 -0.3926  1.7568 -0.0426
 4153SOL     OW24094   0.333   0.248   7.289 -0.0996  0.2529 -0.5223
 4153SOL    HW124095   0.255   0.294   7.319 -1.2488 -1.9943 -0.1184
 4153SOL    HW224096   0.304   0.157   7.284 -0.6702  0.4012  0.3245
 4154SOL     OW24097   2.939   2.535   4.814 -0.1630 -0.4962 -0.4462
 4154SOL    HW124098   2.926   2.541   4.909  0.3866 -0.3031 -0.3788
 4154SOL    HW224099   2.951   2.629   4.800  0.7580 -0.4920  0.2999
 4155SOL     OW24100   0.727   0.607  14.954 -0.1124 -0.4689  0.4361
 4155SOL    HW124101   0.714   0.635  14.864 -2.7998 -1.3177  0.5454
 4155SOL    HW224102   0.802   0.658  14.985 -1.2193  0.7616  1.0994
 4156SOL     OW24103   0.493   0.880   7.342 -0.3444 -0.4347 -0.7236
 4156SOL    HW124104   0.403   0.889   7.310 -0.7061  0.8327  0.6607
 4156SOL    HW224105   0.542   0.913   7.267 -0.2730  0.8005 -0.1383
 4157SOL     OW24106   2.607   1.572   8.221  0.0252 -0.4198 -0.1020
 4157SOL    HW124107   2.695   1.544   8.199 -0.4698 -0.2252 -2.3110
 4157SOL    HW224108   2.564   1.571   8.135 -0.1995  3.8455 -0.0425
 4158SOL     OW24109   1.682   2.204   2.759  0.3657  0.2356  0.2678
 4158SOL    HW124110   1.767   2.245   2.779  1.3127 -1.2236 -0.7589
 4158SOL    HW224111   1.621   2.278   2.757 -1.5916 -1.3402  1.9185
 4159SOL     OW24112   3.857   1.171   3.990  0.1415 -0.1759 -0.2887
 4159SOL    HW124113   3.769   1.153   3.957 -0.8872  2.0291  1.2053
 4159SOL    HW224114   3.863   1.266   3.979 -1.3386 -0.1542 -1.0038
 4160SOL     OW24115   1.036   1.526   8.646 -0.4443  0.5310 -0.9418
 4160SOL    HW124116   1.084   1.566   8.719 -2.0208 -1.5038  1.2091
 4160SOL    HW224117   1.078   1.441   8.633 -1.0367  0.1438 -0.3766
 4161SOL     OW24118   2.093   4.565  10.831  0.8690  0.2305  0.0676
 4161SOL    HW124119   2.118   4.656  10.816  2.0053  0.1300  1.3863
 4161SOL    HW224120   2.126   4.557  10.920 -0.2218 -0.1547  0.4401
 4162SOL     OW24121   2.285   1.039   9.724  0.1273  0.0838  0.1137
 4162SOL    HW124122   2.332   1.097   9.664 -0.0108  0.2028  0.1199
 4162SOL    HW224123   2.360   1.002   9.770 -0.7049 -0.4701  1.0269
 4163SOL     OW24124   0.072   0.688   4.037  0.1467 -0.2155 -0.3800
 4163SOL    HW124125   0.136   0.754   4.010 -0.3404 -0.2912 -1.7393
 4163SOL    HW224126   0.006   0.696   3.968 -1.3829  2.2106  1.3676
 4164SOL     OW24127   4.522   0.025   1.159 -0.2604  0.1672  0.4098
 4164SOL    HW124128   4.587   0.003   1.092 -1.4155 -0.8430 -0.3775
 4164SOL    HW224129   4.445   4.722   1.117  0.1664 -1.1410  0.8534
 4165SOL     OW24130   2.995   1.049   1.451  0.5901  0.2473  0.1773
 4165SOL    HW124131   3.057   0.997   1.400  2.1121  1.0347  1.2383
 4165SOL    HW224132   3.036   1.135   1.442 -3.0053  2.2531  2.9164
 4166SOL     OW24133   1.475   2.441   1.391  0.1334  0.1849 -0.3458
 4166SOL    HW124134   1.412   2.423   1.321 -2.5033  2.7976  1.3368
 4166SOL    HW224135   1.558   2.406   1.359 -0.0137  0.6676 -1.2727
 4167SOL     OW24136   2.129   2.562   8.489  0.3934  0.2716  0.2396
 4167SOL    HW124137   2.054   2.599   8.534 -0.5140  0.7431 -1.6754
 4167SOL    HW224138   2.153   2.635   8.432 -0.3043  0.8397  0.6715
 4168SOL     OW24139   3.470   0.910   2.930 -0.9585 -0.3146  0.0832
 4168SOL    HW124140   3.477   0.944   3.019 -0.7163  0.4212 -0.2220
 4168SOL    HW224141   3.442   0.820   2.949 -1.8645 -0.2078 -0.7643
 4169SOL     OW24142   0.929   3.311   3.153 -0.0550 -0.2614 -0.2599
 4169SOL    HW124143   1.002   3.371   3.135 -0.2566 -0.4347 -1.6891
 4169SOL    HW224144   0.960   3.238   3.099  0.4671  0.2278 -0.6325
 4170SOL     OW24145   4.066   3.131   6.461 -0.6465  0.0029 -0.2913
 4170SOL    HW124146   4.022   3.063   6.511  0.9371  0.1445  1.2847
 4170SOL    HW224147   4.105   3.076   6.393  0.8698 -0.2081  0.7413
 4171SOL     OW24148   0.693   3.210   0.063  0.5972 -0.2403  0.2844
 4171SOL    HW124149   0.612   3.165   0.039  0.0244  0.4373  0.9466
 4171SOL    HW224150   0.699   3.291   0.013 -1.8148  1.0305  2.0162
 4172SOL     OW24151   2.399   0.124  16.840 -0.2317 -0.0108  0.0822
 4172SOL    HW124152   2.410   0.058  16.908  0.1646  1.0820  1.0834
 4172SOL    HW224153   2.307   0.116  16.813  0.3660 -1.4195 -1.5679
 4173SOL     OW24154   1.699   2.355   9.653 -0.0213 -0.3870 -0.0984
 4173SOL    HW124155   1.716   2.346   9.747 -0.1308  1.7861  0.1345
 4173SOL    HW224156   1.766   2.422   9.637  0.4985 -1.2733 -1.5811
 4174SOL     OW24157   4.326   1.574   8.734 -0.0896  0.4953 -0.5303
 4174SOL    HW124158   4.365   1.657   8.760  0.9083  0.1318 -0.8785
 4174SOL    HW224159   4.317   1.591   8.640 -1.5393  0.8117 -0.3386
 4175SOL     OW24160   1.838   3.592   3.455 -0.1038  0.0139 -0.3936
 4175SOL    HW124161   1.867   3.503   3.474  0.0261  0.0274 -0.5238
 4175SOL    HW224162   1.777   3.563   3.388  0.6506 -0.1443 -1.0154
 4176SOL     OW24163   0.899   2.816   0.681 -0.0657 -0.5362 -0.2632
 4176SOL    HW124164   0.903   2.750   0.611 -1.7538 -2.2446  1.2546
 4176SOL    HW224165   0.915   2.761   0.758 -0.8479  2.6206  2.1358
 4177SOL     OW24166   3.930   3.781   3.460  0.1382 -1.2418 -0.2847
 4177SOL    HW124167   3.883   3.781   3.377  0.3308 -0.4037 -0.3896
 4177SOL    HW224168   3.923   3.874   3.480 -0.7570 -1.0072 -1.6864
 4178SOL     OW24169   1.276   2.541   3.273  0.3488  0.1240 -0.0425
 4178SOL    HW124170   1.361   2.555   3.232  0.0097  4.5581  0.8492
 4178SOL    HW224171   1.285   2.574   3.362  3.2471  0.9079 -0.6509
 4179SOL     OW24172   3.535   4.443   4.684 -0.4363 -0.0339  0.1375
 4179SOL    HW124173   3.558   4.458   4.776  0.3009  2.8219 -0.5310
 4179SOL    HW224174   3.619   4.447   4.638 -1.2020  0.3810 -1.2122
 4180SOL     OW24175   3.359   1.271   1.724  0.6736  0.1366  0.6871
 4180SOL    HW124176   3.338   1.249   1.633 -3.1990 -1.2900  1.9360
 4180SOL    HW224177   3.426   1.338   1.705 -0.9772  1.6170  0.0620
 4181SOL     OW24178   4.105   0.529   7.997 -0.0956  1.0044 -0.0534
 4181SOL    HW124179   4.055   0.478   8.062 -0.2863  0.6780 -0.4559
 4181SOL    HW224180   4.196   0.509   8.016 -0.9500 -4.0688 -1.2350
 4182SOL     OW24181   3.064   1.303   8.856  0.0448 -0.2165  0.0801
 4182SOL    HW124182   3.062   1.375   8.794 -0.4522  1.0002  1.4963
 4182SOL    HW224183   3.001   1.328   8.924 -0.1141 -2.7106  0.8579
 4183SOL     OW24184   1.994   1.988   9.296  0.1054 -0.6077  0.0578
 4183SOL    HW124185   1.938   1.911   9.303 -1.1106 -0.0017 -3.2818
 4183SOL    HW224186   1.937   2.047   9.345  2.0992 -0.5239  2.3400
 4184SOL     OW24187   1.294   3.974   3.276  0.3405 -0.1245 -0.3887
 4184SOL    HW124188   1.348   3.896   3.288 -2.3777 -2.2723 -2.2673
 4184SOL    HW224189   1.208   3.937   3.260  1.0568 -1.2956 -1.5551
 4185SOL     OW24190   1.092   1.400   2.899 -0.5309  0.5442 -0.1325
 4185SOL    HW124191   1.117   1.337   2.965 -1.1171 -0.3766 -0.7878
 4185SOL    HW224192   1.169   1.456   2.907 -1.6205  1.6442  2.6832
 4186SOL     OW24193   3.833   3.331   3.787 -0.7747 -0.6323  0.5230
 4186SOL    HW124194   3.803   3.419   3.763  0.0259 -0.5540 -0.1794
 4186SOL    HW224195   3.806   3.287   3.707 -2.3950 -0.1944  0.8172
 4187SOL     OW24196   4.249   4.372   2.040 -0.1966 -0.4215 -0.4321
 4187SOL    HW124197   4.209   4.287   2.054 -0.8591 -0.3035 -1.5822
 4187SOL    HW224198   4.237   4.402   2.130  0.5745  1.3243 -0.9055
 4188SOL     OW24199   0.772   3.072  10.157 -0.2919  0.4192  0.2297
 4188SOL    HW124200   0.830   3.128  10.106 -0.3711  0.2679 -0.0242
 4188SOL    HW224201   0.689   3.103  10.122 -0.1488  2.0570  1.3352
 4189SOL     OW24202   0.904   4.521   4.457  0.0507  0.0096 -0.1369
 4189SOL    HW124203   0.873   4.585   4.522 -0.3569  0.1661 -0.4831
 4189SOL    HW224204   0.996   4.517   4.483 -0.0172 -0.6959 -0.0104
 4190SOL     OW24205   2.788   0.160   2.438 -0.0484 -1.1030 -0.0808
 4190SOL    HW124206   2.782   0.071   2.403 -2.4539  0.3020 -3.2259
 4190SOL    HW224207   2.777   0.134   2.530  0.0481 -1.0523 -0.0543
 4191SOL     OW24208   0.086   3.370  17.580 -0.1766 -0.0344 -0.2707
 4191SOL    HW124209   0.129   3.454  17.590 -3.6996  1.6557  0.5875
 4191SOL    HW224210   4.734   3.383  17.615 -0.1575  0.7660 -0.5190
 4192SOL     OW24211   3.376   4.681  12.527 -0.0697 -0.4838 -1.0543
 4192SOL    HW124212   3.444   0.007  12.551  0.2125 -0.1964 -2.5754
 4192SOL    HW224213   3.312   0.003  12.485 -1.5229 -1.1559  0.2076
 4193SOL     OW24214   4.599   1.408   1.148 -0.1488  0.2742 -0.4391
 4193SOL    HW124215   4.685   1.368   1.163 -1.9643 -3.8288 -1.0193
 4193SOL    HW224216   4.611   1.431   1.056  0.6140 -0.8137 -0.6197
 4194SOL     OW24217   0.477   3.141   8.761  0.1095 -0.3279 -0.4685
 4194SOL    HW124218   0.400   3.094   8.728 -0.3471 -1.0198  1.5550
 4194SOL    HW224219   0.535   3.067   8.780  0.4951 -0.2847 -1.4817
 4195SOL     OW24220   3.236   0.923  12.673 -0.1471 -0.0679  0.3847
 4195SOL    HW124221   3.312   0.890  12.625 -0.0910 -2.2541  2.0156
 4195SOL    HW224222   3.279   0.981  12.736 -1.1128 -0.7544  1.6829
 4196SOL     OW24223   1.221   3.436  14.012  0.0071 -0.1256  0.5994
 4196SOL    HW124224   1.171   3.378  13.955 -1.7768 -0.5387  2.5873
 4196SOL    HW224225   1.275   3.481  13.947  1.1354  0.1783  1.7453
 4197SOL     OW24226   0.794   0.763   6.961  0.1579  0.0761  0.0721
 4197SOL    HW124227   0.850   0.790   7.033 -1.6617  2.2035  0.6961
 4197SOL    HW224228   0.857   0.745   6.891  1.4577  1.0900  0.9890
 4198SOL     OW24229   0.226   2.301  17.537 -0.1220 -0.1393 -0.2565
 4198SOL    HW124230   0.267   2.350  17.466 -3.3669  0.5803 -1.6468
 4198SOL    HW224231   0.133   2.312  17.514 -0.4044 -0.6082  0.6410
 4199SOL     OW24232   3.821   0.691   4.809 -0.2477  0.0237  0.0539
 4199SOL    HW124233   3.737   0.661   4.843  1.1747 -0.6538  2.9483
 4199SOL    HW224234   3.813   0.784   4.829  0.6003  0.9784 -3.9708
 4200SOL     OW24235   2.283   1.080   7.540  0.2460  0.6349  0.1528
 4200SOL    HW124236   2.375   1.087   7.512 -0.5889  2.3661 -2.1486
 4200SOL    HW224237   2.248   1.054   7.455  1.2421 -0.2239 -0.0009
 4201SOL     OW24238   0.296   0.057  13.169 -0.1769 -0.5366  0.2655
 4201SOL    HW124239   0.333   0.146  13.165  0.4408 -0.8722 -1.5628
 4201SOL    HW224240   0.301   0.025  13.259  2.7227 -0.6227  0.0883
 4202SOL     OW24241   4.579   3.099   0.006 -0.3949  0.3136 -0.2266
 4202SOL    HW124242   4.518   3.027   0.022  1.3258 -0.4545  2.8355
 4202SOL    HW224243   4.660   3.049   0.008 -0.2803  0.4590 -1.7944
 4203SOL     OW24244   4.024   3.934  11.231  0.7617  0.0212  0.1938
 4203SOL    HW124245   4.089   3.953  11.163 -0.1508  1.2763 -0.3303
 4203SOL    HW224246   4.078   3.901  11.303 -1.0100 -2.0747  0.5690
 4204SOL     OW24247   3.098   2.020   1.206  0.4634 -0.1849  0.0719
 4204SOL    HW124248   3.172   2.046   1.150  1.2643 -2.1265  0.2289
 4204SOL    HW224249   3.083   1.934   1.169  1.0263 -0.9654  1.6445
 4205SOL     OW24250   1.713   4.651   8.700 -0.2416  0.6483 -0.3601
 4205SOL    HW124251   1.687   4.574   8.650 -2.1337  0.6496  0.6138
 4205SOL    HW224252   1.731   4.708   8.626 -1.0805  0.6087 -0.6007
 4206SOL     OW24253   2.461   2.168   8.960  0.5290 -0.1317  0.2487
 4206SOL    HW124254   2.479   2.076   8.941  1.8623  0.1375  0.1831
 4206SOL    HW224255   2.536   2.184   9.018  0.1654  1.7094  0.2323
 4207SOL     OW24256   2.850   1.431   1.301 -0.0081  1.1046 -0.2399
 4207SOL    HW124257   2.811   1.347   1.326  0.1385  1.5539  1.5316
 4207SOL    HW224258   2.791   1.486   1.353  0.2207  0.1296  1.0589
 4208SOL     OW24259   4.588   3.001   8.799 -0.0454  0.5335 -0.0768
 4208SOL    HW124260   4.576   3.096   8.787  0.3135  0.7144  1.0307
 4208SOL    HW224261   4.618   2.986   8.888  0.0941  1.8887  0.1044
 4209SOL     OW24262   3.360   2.680   1.703  0.1292  0.1818  0.4860
 4209SOL    HW124263   3.314   2.729   1.635 -1.6680 -1.3259  0.5879
 4209SOL    HW224264   3.448   2.708   1.680  0.3266 -1.1553 -0.3675
 4210SOL     OW24265   2.628   3.274   5.789  0.5929  0.2500 -0.2468
 4210SOL    HW124266   2.708   3.264   5.736  1.8991  0.8183  1.6000
 4210SOL    HW224267   2.593   3.354   5.751  1.9565 -0.1631 -2.3960
 4211SOL     OW24268   0.724   0.881  10.912  0.3449  0.2063  0.0744
 4211SOL    HW124269   0.708   0.976  10.916  1.5835  0.3450  1.7922
 4211SOL    HW224270   0.683   0.842  10.989 -1.2389 -0.3340 -1.0483
 4212SOL     OW24271   0.028   0.838   1.321  0.2551 -0.4568 -0.2444
 4212SOL    HW124272   0.061   0.748   1.316  3.1714  0.4818  2.1042
 4212SOL    HW224273   4.678   0.815   1.288 -0.3065  1.1870  0.1027
 4213SOL     OW24274   2.438   4.128   2.458 -0.2687 -0.4059  0.0460
 4213SOL    HW124275   2.372   4.098   2.396 -2.3219  0.3440  1.8651
 4213SOL    HW224276   2.400   4.108   2.543 -1.7632 -0.9851 -0.7583
 4214SOL     OW24277   2.159   3.337  14.188  0.1414  0.0819 -0.2151
 4214SOL    HW124278   2.065   3.344  14.205  0.2625  2.1708 -0.4582
 4214SOL    HW224279   2.154   3.346  14.093 -1.7698  3.3870  0.2113
 4215SOL     OW24280   2.209   2.814   3.297 -0.2658 -0.1094 -0.3326
 4215SOL    HW124281   2.164   2.833   3.214  2.2255  0.3832 -1.5623
 4215SOL    HW224282   2.266   2.889   3.314 -4.2114  2.8957 -0.1999
 4216SOL     OW24283   2.153   0.992   7.300 -0.2486  0.4075 -0.1457
 4216SOL    HW124284   2.060   0.980   7.320 -0.0749 -2.8629 -1.3106
 4216SOL    HW224285   2.180   0.940   7.225 -1.4661  0.2551 -0.4823
 4217SOL     OW24286   3.712   4.630  15.898  0.4219  0.1010  0.7829
 4217SOL    HW124287   3.754   4.710  15.867 -2.6952  1.6144  0.5387
 4217SOL    HW224288   3.778   4.582  15.949  2.6102  1.6889 -0.5608
 4218SOL     OW24289   1.800   0.893   2.102  0.1275 -0.3149  0.2341
 4218SOL    HW124290   1.845   0.891   2.187  1.9534  2.0233 -0.6413
 4218SOL    HW224291   1.710   0.920   2.119  0.3120 -0.3258  1.2074
 4219SOL     OW24292   2.653   2.837   2.804  0.1429 -0.0505  0.2412
 4219SOL    HW124293   2.688   2.764   2.752 -1.5367 -0.7214  0.0479
 4219SOL    HW224294   2.571   2.858   2.758 -0.4629 -1.8415  0.5102
 4220SOL     OW24295   2.085   3.263   9.229 -0.5039  0.6407 -0.1856
 4220SOL    HW124296   2.022   3.191   9.233  1.2926 -0.9325 -0.3530
 4220SOL    HW224297   2.167   3.214   9.235 -1.7547 -1.2179  1.8164
 4221SOL     OW24298   0.516   1.036   2.661  0.5977 -0.5280 -0.5731
 4221SOL    HW124299   0.517   0.945   2.631 -0.9777 -0.5748 -0.5030
 4221SOL    HW224300   0.500   1.089   2.583 -0.0711  0.6311  0.3486
 4222SOL     OW24301   3.249   3.676   7.508  0.2892  0.4466  0.1992
 4222SOL    HW124302   3.205   3.708   7.587 -0.6841  2.2050 -1.0702
 4222SOL    HW224303   3.201   3.595   7.488  2.0688 -0.8443  1.1765
 4223SOL     OW24304   4.688   2.809   8.606 -0.0432 -0.4546  0.4984
 4223SOL    HW124305   4.648   2.869   8.668  0.2238  1.6564 -1.3905
 4223SOL    HW224306   0.047   2.814   8.615  0.2994 -0.0456 -3.1390
 4224SOL     OW24307   0.502   4.506   1.530 -0.0344 -0.6935 -0.0515
 4224SOL    HW124308   0.510   4.437   1.596 -2.0732 -1.7598 -0.9106
 4224SOL    HW224309   0.596   4.520   1.519  0.3632 -1.5882  2.0248
 4225SOL     OW24310   3.232   0.293   9.777  0.1516  0.2872  0.3678
 4225SOL    HW124311   3.172   0.340   9.835 -0.2055  1.0672 -0.6390
 4225SOL    HW224312   3.235   0.202   9.808  0.9958 -0.3135 -1.4350
 4226SOL     OW24313   3.571   3.572   4.456  0.2965  0.0166  0.2745
 4226SOL    HW124314   3.575   3.565   4.551 -0.4402 -2.9098  0.0830
 4226SOL    HW224315   3.582   3.479   4.438 -2.4425 -0.5274  1.4744
 4227SOL     OW24316   1.293   1.258   4.246 -0.2388  0.2576  0.3449
 4227SOL    HW124317   1.304   1.164   4.258  0.1624 -0.0492 -2.4519
 4227SOL    HW224318   1.295   1.272   4.151  0.6543  0.0122  0.3268
 4228SOL     OW24319   0.557   2.036   0.437 -0.1502  0.2986  0.3609
 4228SOL    HW124320   0.563   2.106   0.371  2.8284  0.9612  1.3487
 4228SOL    HW224321   0.533   1.957   0.388 -0.6155  1.0742 -0.6638
 4229SOL     OW24322   1.934   1.665   4.623 -0.3265  0.6891  0.4893
 4229SOL    HW124323   1.888   1.669   4.539  2.7174  4.6653 -0.9975
 4229SOL    HW224324   2.014   1.617   4.599 -1.8561 -0.7030 -1.7651
 4230SOL     OW24325   1.975   2.635   0.398  0.6353 -0.0171  0.0005
 4230SOL    HW124326   1.978   2.730   0.402  0.6021  0.1006 -2.4831
 4230SOL    HW224327   1.888   2.609   0.367  0.7712  1.4596 -1.6061
 4231SOL     OW24328   0.183   3.824  13.232  0.1091  0.4585 -0.0409
 4231SOL    HW124329   0.148   3.836  13.320  2.3373 -2.0103  1.1697
 4231SOL    HW224330   0.214   3.914  13.216 -2.8334  1.4249 -0.1873
 4232SOL     OW24331   4.408   0.904   7.927  0.8196  0.2419  0.2972
 4232SOL    HW124332   4.483   0.963   7.927  1.1086 -0.1262 -3.2979
 4232SOL    HW224333   4.405   0.880   7.835 -1.4228 -0.0758  0.4489
 4233SOL     OW24334   2.914   2.318   3.475 -0.5571 -0.0294  0.0615
 4233SOL    HW124335   2.831   2.348   3.512 -0.5166  0.4764 -0.2693
 4233SOL    HW224336   2.883   2.263   3.403 -1.2539  0.5831 -0.1080
 4234SOL     OW24337   3.434   0.989  16.039  0.5499 -0.2789  0.3925
 4234SOL    HW124338   3.348   1.008  16.001  2.0112  0.2646 -2.6238
 4234SOL    HW224339   3.487   0.970  15.961 -0.0512 -0.0156 -0.0822
 4235SOL     OW24340   1.884   1.962   6.605 -0.6099 -0.5070 -0.1464
 4235SOL    HW124341   1.957   1.955   6.666  2.4619 -0.5884 -3.7955
 4235SOL    HW224342   1.862   2.054   6.591 -2.2133 -0.6555  1.5038
 4236SOL     OW24343   2.147   2.691   9.927  0.3935  0.1605 -0.1553
 4236SOL    HW124344   2.072   2.709   9.871 -1.5290 -1.4375  1.9094
 4236SOL    HW224345   2.185   2.611   9.891 -0.5966 -0.4291  0.1094
 4237SOL     OW24346   4.401   1.691   2.814 -0.0444  0.3613  0.2582
 4237SOL    HW124347   4.471   1.710   2.753  0.9012 -0.5668  1.0491
 4237SOL    HW224348   4.369   1.615   2.766  0.5123  1.1625 -1.3740
 4238SOL     OW24349   3.589   1.879   2.930 -0.1609  0.5215 -0.0010
 4238SOL    HW124350   3.522   1.947   2.930  0.3475  1.0217  0.8222
 4238SOL    HW224351   3.629   1.889   3.017 -1.6927  0.7536  0.6607
 4239SOL     OW24352   0.294   3.112  13.894 -0.3395  0.2778  0.9457
 4239SOL    HW124353   0.344   3.193  13.895 -0.0405  0.1284 -1.3067
 4239SOL    HW224354   0.209   3.154  13.881 -1.7306 -2.3433  1.5222
 4240SOL     OW24355   0.962   0.590   1.927  0.0112 -0.1158 -0.2523
 4240SOL    HW124356   0.982   0.682   1.943  0.1117 -0.4545  1.5149
 4240SOL    HW224357   0.966   0.538   2.007  0.8528 -2.2118 -1.6311
 4241SOL     OW24358   2.073   1.559   8.899 -0.0948 -0.1198  0.4640
 4241SOL    HW124359   2.126   1.639   8.894  1.3306 -1.0818  0.2357
 4241SOL    HW224360   2.003   1.602   8.851  1.6203  2.2056  0.0242
 4242SOL     OW24361   1.737   2.402   1.303  0.6165  0.3104 -0.3246
 4242SOL    HW124362   1.825   2.378   1.331 -0.0061 -1.2399  0.2794
 4242SOL    HW224363   1.719   2.337   1.236  2.1498 -2.0358  1.5511
 4243SOL     OW24364   3.122   4.265   6.625  0.2034 -0.0532  0.2935
 4243SOL    HW124365   3.111   4.357   6.651  2.2404  1.1573 -3.1137
 4243SOL    HW224366   3.139   4.270   6.531  1.4707 -0.8287  0.4808
 4244SOL     OW24367   1.880   4.471  15.615  0.7043  0.0218  0.2096
 4244SOL    HW124368   1.828   4.404  15.569  0.7792 -0.9072  1.4873
 4244SOL    HW224369   1.842   4.464  15.703 -1.2450  0.8847 -0.5555
 4245SOL     OW24370   0.083   0.732  16.092 -0.0859  0.2312 -0.0788
 4245SOL    HW124371   0.038   0.667  16.145 -0.9557  1.4515  0.6961
 4245SOL    HW224372   0.172   0.729  16.127 -0.0651 -0.7290 -0.2147
 4246SOL     OW24373   3.365   1.445   4.087  0.0149  0.3951 -0.2200
 4246SOL    HW124374   3.443   1.424   4.138 -0.8730 -0.3595  0.8456
 4246SOL    HW224375   3.325   1.360   4.068  2.2947 -0.4806 -1.0212
 4247SOL     OW24376   2.462   3.530   8.267 -0.2068 -0.0564  0.1736
 4247SOL    HW124377   2.435   3.534   8.358 -0.4559 -1.3699  0.1681
 4247SOL    HW224378   2.478   3.623   8.256 -0.9387  0.1095  0.5592
 4248SOL     OW24379   3.282   4.126   3.896  0.2612 -0.4675 -0.4079
 4248SOL    HW124380   3.312   4.197   3.953  0.1835 -1.4877  0.9011
 4248SOL    HW224381   3.189   4.146   3.887  0.0285 -0.8820  1.0943
 4249SOL     OW24382   3.947   0.517   6.168 -0.1215 -0.5441  0.6759
 4249SOL    HW124383   3.990   0.433   6.147 -0.8698 -0.9662  0.8420
 4249SOL    HW224384   4.027   0.560   6.137  0.0574 -1.5047 -0.2389
 4250SOL     OW24385   2.984   2.329   8.545  0.3248  0.0744 -0.8176
 4250SOL    HW124386   2.993   2.424   8.540  0.9940 -0.0701 -2.2623
 4250SOL    HW224387   2.908   2.330   8.604  0.3940  0.9049 -0.7527
 4251SOL     OW24388   3.108   4.001   4.876  0.0945  0.1402  0.3866
 4251SOL    HW124389   3.098   3.912   4.843  3.1710 -0.0833  0.0107
 4251SOL    HW224390   3.019   4.030   4.858 -0.4130 -2.1442 -0.7417
 4252SOL     OW24391   1.589   3.600   6.160  0.0758 -0.1456  0.3073
 4252SOL    HW124392   1.602   3.695   6.158  0.1975 -0.0758  3.2772
 4252SOL    HW224393   1.538   3.586   6.240  2.3718 -0.9711  1.6343
 4253SOL     OW24394   3.168   2.279  13.305 -0.8701 -0.1651 -0.2363
 4253SOL    HW124395   3.185   2.355  13.249  2.1801  0.8808  2.1202
 4253SOL    HW224396   3.231   2.211  13.281 -0.2625  0.6539 -0.9526
 4254SOL     OW24397   3.818   0.726   9.581 -0.4619  0.1845  0.4932
 4254SOL    HW124398   3.823   0.635   9.610  2.4286  0.9092  2.2176
 4254SOL    HW224399   3.792   0.777   9.659 -0.5290  1.9681 -0.6874
 4255SOL     OW24400   2.588   2.046   8.338  0.1104 -0.5817  0.3104
 4255SOL    HW124401   2.598   2.026   8.431  1.4079 -2.0360 -0.1595
 4255SOL    HW224402   2.614   1.963   8.300  1.8042 -0.1794  0.6074
 4256SOL     OW24403   3.910   1.481  12.071 -0.1491 -0.0359 -0.0550
 4256SOL    HW124404   3.933   1.574  12.080 -1.4973  0.0616  2.4259
 4256SOL    HW224405   3.998   1.444  12.068  0.3196  1.0552  0.0496
 4257SOL     OW24406   4.483   1.419   3.173 -0.3132 -0.0384 -0.7792
 4257SOL    HW124407   4.445   1.346   3.123 -0.5398 -0.1584 -0.4308
 4257SOL    HW224408   4.462   1.393   3.263  1.2758  0.2822 -0.3036
 4258SOL     OW24409   2.037   3.773   2.886  0.2164 -0.1106 -0.4864
 4258SOL    HW124410   2.132   3.776   2.886  0.1865  1.1295  0.9671
 4258SOL    HW224411   2.019   3.814   2.801  0.2044  0.9674  0.0240
 4259SOL     OW24412   4.609   4.349   2.917  0.1090  0.8367  0.1056
 4259SOL    HW124413   4.690   4.375   2.872  0.2358  0.6505  0.2266
 4259SOL    HW224414   4.612   4.413   2.988  5.0418  0.2934  0.4417
 4260SOL     OW24415   2.083   0.177   2.218 -0.2560  0.6644 -0.2281
 4260SOL    HW124416   2.138   0.220   2.152  1.0066 -0.2545  0.2465
 4260SOL    HW224417   2.049   0.114   2.155  0.6180  0.9214 -0.9529
 4261SOL     OW24418   4.613   0.998   5.365 -0.5620 -0.2646 -0.8999
 4261SOL    HW124419   4.559   0.925   5.394  1.0084 -0.2923  1.8871
 4261SOL    HW224420   4.647   1.038   5.445 -0.3631  0.6717 -1.4547
 4262SOL     OW24421   4.014   3.246   1.969 -0.5462 -0.0234 -0.3758
 4262SOL    HW124422   4.059   3.323   1.936 -2.6547  2.3571  2.2488
 4262SOL    HW224423   3.990   3.211   1.884 -4.0496  1.0096  0.1963
 4263SOL     OW24424   0.219   4.224   2.522 -0.5526  0.5232 -0.6258
 4263SOL    HW124425   0.170   4.180   2.452  2.6235  0.9629 -3.1793
 4263SOL    HW224426   0.273   4.150   2.551 -2.7788 -2.1736 -3.4088
 4264SOL     OW24427   1.799   0.004   4.646  0.1664 -0.0149 -0.1178
 4264SOL    HW124428   1.863   0.071   4.670 -1.4847  1.2552  0.7180
 4264SOL    HW224429   1.725   0.063   4.632  1.1745  1.4932  0.9929
 4265SOL     OW24430   3.721   2.474   1.432  0.5662  0.8093 -0.3007
 4265SOL    HW124431   3.651   2.438   1.486  0.6779  0.9741 -0.0477
 4265SOL    HW224432   3.720   2.564   1.463  0.3454  0.4867  0.6380
 4266SOL     OW24433   4.529   1.770  13.034  0.4119  0.0715  0.1495
 4266SOL    HW124434   4.610   1.816  13.052  0.4089  0.5448 -1.0242
 4266SOL    HW224435   4.488   1.824  12.966  1.3316  2.0055  1.1332
 4267SOL     OW24436   2.026   2.780   1.730  0.2615  0.6366 -0.4356
 4267SOL    HW124437   1.937   2.744   1.730  0.4405  0.1888 -0.0338
 4267SOL    HW224438   2.055   2.731   1.654  0.4132  2.3720 -1.4957
 4268SOL     OW24439   3.876   4.566  12.514 -0.2772  0.4522  0.0818
 4268SOL    HW124440   3.937   4.614  12.458 -0.6377 -2.3335 -2.6849
 4268SOL    HW224441   3.820   4.521  12.452  1.9525  0.0062 -1.6196
 4269SOL     OW24442   3.220   0.051   8.130  0.2046 -0.9342 -0.6105
 4269SOL    HW124443   3.257   0.032   8.216  1.8922  0.4163 -1.0511
 4269SOL    HW224444   3.272   0.127   8.105 -0.3456 -0.2640  0.2810
 4270SOL     OW24445   1.869   4.500   3.305 -0.7223 -0.0192 -0.5476
 4270SOL    HW124446   1.825   4.563   3.248  0.6620  0.9074 -0.6022
 4270SOL    HW224447   1.839   4.538   3.387 -0.7234 -0.1589 -0.4833
 4271SOL     OW24448   2.771   3.386   3.194 -0.2123  0.1082 -0.0667
 4271SOL    HW124449   2.754   3.370   3.102 -0.1599  0.4562 -0.1373
 4271SOL    HW224450   2.775   3.294   3.219  0.1880 -0.0701 -0.8079
 4272SOL     OW24451   3.739   2.898  17.110 -0.0275  0.3899  0.2071
 4272SOL    HW124452   3.769   2.939  17.030 -0.7186  0.3834 -0.0571
 4272SOL    HW224453   3.676   2.839  17.068 -2.1348  1.6959  1.5343
 4273SOL     OW24454   3.620   0.690  15.594 -0.0601 -0.2907 -0.1655
 4273SOL    HW124455   3.582   0.641  15.666 -0.8995 -0.3318 -0.6318
 4273SOL    HW224456   3.545   0.719  15.542  0.9909 -0.2800 -1.7073
 4274SOL     OW24457   1.637   2.096   7.663  0.0251 -0.0611 -0.0237
 4274SOL    HW124458   1.704   2.164   7.658 -2.3962  2.2780 -0.2912
 4274SOL    HW224459   1.617   2.080   7.571 -1.1887  0.2618  0.1837
 4275SOL     OW24460   4.602   4.136   0.825  0.5932 -0.0801  0.0084
 4275SOL    HW124461   4.623   4.199   0.894 -0.0681 -1.6428  1.6325
 4275SOL    HW224462   4.621   4.054   0.870  0.1409  0.7301  1.6777
 4276SOL     OW24463   0.922   1.480  12.813  0.6172  0.0011 -0.2241
 4276SOL    HW124464   0.830   1.497  12.830  0.4129 -0.0778 -1.2679
 4276SOL    HW224465   0.938   1.548  12.748  0.1858 -0.8699 -1.2379
 4277SOL     OW24466   2.497   3.736   6.045  0.0416  0.6336  0.1344
 4277SOL    HW124467   2.561   3.756   5.976  1.1648 -1.4128  0.5650
 4277SOL    HW224468   2.530   3.656   6.086  0.2567  1.0367  0.7488
 4278SOL     OW24469   0.418   1.805   8.769  0.1146  0.1631  0.4627
 4278SOL    HW124470   0.456   1.866   8.706 -1.0847  0.3438 -0.0885
 4278SOL    HW224471   0.411   1.866   8.843  0.1109 -0.2245  0.7787
 4279SOL     OW24472   1.306   3.144   2.360 -0.2874  0.1745 -0.2684
 4279SOL    HW124473   1.354   3.118   2.438  0.8046 -1.2058 -1.4058
 4279SOL    HW224474   1.341   3.083   2.295 -1.3255  1.6846 -2.2562
 4280SOL     OW24475   4.496   3.259   6.289 -0.0225  0.4050  0.2544
 4280SOL    HW124476   4.472   3.186   6.232 -0.1943 -0.1961  1.0825
 4280SOL    HW224477   4.555   3.220   6.354  1.5025  0.7601 -0.9116
 4281SOL     OW24478   0.595   3.116   4.319  0.6509 -1.0184  0.1114
 4281SOL    HW124479   0.613   3.172   4.243 -0.2012  0.1754  0.7859
 4281SOL    HW224480   0.687   3.098   4.341  1.0859  1.1599  0.1611
 4282SOL     OW24481   1.792   0.574   7.483  0.8349  0.5257 -0.2927
 4282SOL    HW124482   1.728   0.636   7.449  0.1904 -0.5063 -0.9734
 4282SOL    HW224483   1.796   0.600   7.575 -0.9779  1.7807 -0.5858
 4283SOL     OW24484   0.372   1.328   8.991 -1.0387 -0.7556 -0.4081
 4283SOL    HW124485   0.300   1.386   9.019 -1.3618 -1.1840 -0.3428
 4283SOL    HW224486   0.432   1.388   8.947 -0.7955 -0.4629  0.3156
 4284SOL     OW24487   4.505   4.323   1.994  0.3604 -0.6076  0.1742
 4284SOL    HW124488   4.505   4.261   2.067  1.6560 -0.3004  0.4245
 4284SOL    HW224489   4.413   4.346   1.985  0.0238 -1.5081  1.2490
 4285SOL     OW24490   1.917   3.282   9.491  0.1622 -0.1358  0.4455
 4285SOL    HW124491   1.969   3.327   9.425  0.9617 -0.0953  1.0975
 4285SOL    HW224492   1.996   3.240   9.527  0.3261 -0.9770 -0.9042
 4286SOL     OW24493   4.380   0.128  17.612  0.3418  0.0628  0.2932
 4286SOL    HW124494   4.468   0.164  17.614 -0.0626  0.8897  3.2722
 4286SOL    HW224495   4.389   0.058  17.677 -0.3041  1.2456  1.6649
 4287SOL     OW24496   3.967   3.400   6.139 -0.0270 -0.1366 -0.4863
 4287SOL    HW124497   3.915   3.376   6.215 -0.2190 -0.3023 -0.6697
 4287SOL    HW224498   3.934   3.487   6.118  0.0859  0.5880  2.2860
 4288SOL     OW24499   3.164   3.821  16.871  0.0002  0.4127 -0.8626
 4288SOL    HW124500   3.240   3.768  16.845 -0.8838 -0.6205 -1.3082
 4288SOL    HW224501   3.088   3.779  16.832 -0.8298 -0.6274  1.9010
 4289SOL     OW24502   2.463   1.087   8.049 -0.0362 -0.1058 -0.4506
 4289SOL    HW124503   2.412   1.158   8.009 -0.6219 -0.0135  0.4639
 4289SOL    HW224504   2.523   1.061   7.979  0.1404  0.2364 -0.4267
 4290SOL     OW24505   4.481   1.745   8.997 -0.3141  0.1380  0.0060
 4290SOL    HW124506   4.411   1.761   9.060 -1.5778 -0.7259 -1.1564
 4290SOL    HW224507   4.439   1.795   8.927 -0.1948 -0.9748 -0.8683
 4291SOL     OW24508   1.175   3.293  14.685  0.1500 -0.0023 -0.0971
 4291SOL    HW124509   1.198   3.260  14.598  1.5609  0.6172  0.0416
 4291SOL    HW224510   1.119   3.364  14.656 -0.4104 -0.0433  0.9064
 4292SOL     OW24511   2.993   2.067   8.977 -0.8802 -0.1852 -0.0623
 4292SOL    HW124512   3.082   2.068   9.010 -0.3941  0.9104 -1.4162
 4292SOL    HW224513   3.008   2.033   8.889  0.3780 -1.1465  0.5216
 4293SOL     OW24514   0.273   0.659   5.432 -0.7306  0.4243 -0.2598
 4293SOL    HW124515   0.254   0.618   5.516 -2.3048 -0.7191 -1.1596
 4293SOL    HW224516   0.188   0.644   5.390 -0.1633 -1.0781 -0.8789
 4294SOL     OW24517   2.677   0.283   9.033  0.0321  0.2696 -0.1807
 4294SOL    HW124518   2.631   0.212   9.079 -0.1659 -0.3331 -1.3212
 4294SOL    HW224519   2.735   0.323   9.099  0.0144  0.3983 -0.2445
 4295SOL     OW24520   0.022   0.325   3.760 -0.4491 -0.4584 -0.3043
 4295SOL    HW124521   0.087   0.254   3.758 -0.6043 -0.5339 -2.1744
 4295SOL    HW224522   0.043   0.352   3.850 -3.3559 -0.9510  0.5150
 4296SOL     OW24523   3.236   3.647   3.417  0.3915  0.3565 -0.3141
 4296SOL    HW124524   3.165   3.584   3.430  0.3575  0.2733 -0.9168
 4296SOL    HW224525   3.246   3.677   3.507  1.0979  0.5534 -0.4550
 4297SOL     OW24526   2.698   1.336   4.506 -0.2289  0.8890  0.5142
 4297SOL    HW124527   2.764   1.384   4.556 -0.4591  0.7107  0.9894
 4297SOL    HW224528   2.644   1.412   4.483  0.5770  1.1246 -0.6236
 4298SOL     OW24529   1.217   2.021   4.765  0.1677  0.1279  0.6108
 4298SOL    HW124530   1.240   2.110   4.739  0.4504  0.2976  1.4527
 4298SOL    HW224531   1.191   2.039   4.855 -1.1819 -0.4980  0.3453
 4299SOL     OW24532   2.077   1.097   5.591 -0.0218  0.5163  0.0859
 4299SOL    HW124533   2.030   1.166   5.544 -5.1922 -3.1230 -0.0897
 4299SOL    HW224534   2.072   1.036   5.517 -0.3147 -1.4113  1.7145
 4300SOL     OW24535   3.621   4.627   4.875 -0.6636 -0.0764 -0.1578
 4300SOL    HW124536   3.700   4.681   4.872 -1.4802  1.0765 -0.7388
 4300SOL    HW224537   3.608   4.602   4.967  1.3835 -0.0866  0.1260
 4301SOL     OW24538   4.177   2.315   2.299 -0.1230 -0.4694 -0.1380
 4301SOL    HW124539   4.204   2.282   2.384  1.5383  0.9295 -0.1313
 4301SOL    HW224540   4.147   2.400   2.332  1.2422  0.1881 -0.5700
 4302SOL     OW24541   0.721   1.754   8.525  0.0513  0.1847  0.0926
 4302SOL    HW124542   0.701   1.768   8.618  0.9776 -0.3682  0.3783
 4302SOL    HW224543   0.778   1.828   8.507 -0.0787  0.3578  0.4022
 4303SOL     OW24544   1.582   1.804   4.952  0.8180  0.0603  0.6702
 4303SOL    HW124545   1.623   1.739   4.895 -1.9636 -1.7842  0.7355
 4303SOL    HW224546   1.489   1.782   4.953  0.6855  0.6040 -0.1842
 4304SOL     OW24547   2.779   0.724   5.313  0.2383 -0.3368 -0.0080
 4304SOL    HW124548   2.833   0.712   5.234  0.6947 -3.1609  0.7096
 4304SOL    HW224549   2.823   0.799   5.353 -1.4672  0.3041  0.6279
 4305SOL     OW24550   3.601   1.538   4.206  0.4332  0.2370 -0.1368
 4305SOL    HW124551   3.667   1.569   4.268 -0.4551 -2.4259  2.1658
 4305SOL    HW224552   3.517   1.569   4.240  0.2172 -0.0688 -0.3848
 4306SOL     OW24553   2.377   2.496   6.897 -0.4617  0.4392 -0.6177
 4306SOL    HW124554   2.355   2.422   6.953 -1.1760  0.0200 -1.4480
 4306SOL    HW224555   2.332   2.466   6.818 -0.1183  1.7253 -1.3052
 4307SOL     OW24556   3.158   0.439   4.286  0.3466 -0.6897 -0.1230
 4307SOL    HW124557   3.190   0.524   4.314  0.7844  0.0212 -2.7440
 4307SOL    HW224558   3.119   0.403   4.366  0.0149 -2.6345 -1.1421
 4308SOL     OW24559   3.775   3.866   5.162  0.0723 -0.2219 -0.4227
 4308SOL    HW124560   3.712   3.855   5.233 -0.6081  0.9976 -0.8351
 4308SOL    HW224561   3.719   3.918   5.104 -1.1953 -0.3784  0.6789
 4309SOL     OW24562   0.404   0.613   8.645 -0.1190  0.4467  0.4105
 4309SOL    HW124563   0.378   0.531   8.685  0.7014  0.6358  1.3201
 4309SOL    HW224564   0.332   0.620   8.582 -0.8363  0.8700  1.2815
 4310SOL     OW24565   3.711   1.056  13.597 -0.1025 -0.4548  0.6277
 4310SOL    HW124566   3.753   1.081  13.514  1.0716 -1.0781  1.0428
 4310SOL    HW224567   3.720   0.961  13.585  3.9916 -0.1725  1.6075
 4311SOL     OW24568   1.049   4.595   9.332  0.2579  0.2124  0.1794
 4311SOL    HW124569   0.968   4.645   9.343  0.3133  0.4089 -0.2834
 4311SOL    HW224570   1.119   4.658   9.344  1.0338 -0.5971 -0.0913
 4312SOL     OW24571   0.156   1.674   9.379  0.1918 -0.1669  0.2110
 4312SOL    HW124572   0.095   1.632   9.439  0.6588 -3.4261 -1.6205
 4312SOL    HW224573   0.216   1.600   9.374  1.1512  0.5982  0.3853
 4313SOL     OW24574   3.424   3.574   5.662  0.1044 -0.0392  0.0608
 4313SOL    HW124575   3.466   3.641   5.609  0.2635  0.3566  0.6822
 4313SOL    HW224576   3.401   3.623   5.741 -1.5380 -0.9110  0.1356
 4314SOL     OW24577   2.460   1.126  15.302  0.5294  0.3736  0.3400
 4314SOL    HW124578   2.550   1.097  15.316  0.5406 -0.0720 -0.6668
 4314SOL    HW224579   2.409   1.080  15.370  0.6777  1.5322  1.2226
 4315SOL     OW24580   1.802   3.233   7.417  0.6119 -0.1960 -0.1226
 4315SOL    HW124581   1.875   3.193   7.465  1.5009  0.4818 -0.8890
 4315SOL    HW224582   1.744   3.253   7.490 -2.2821  2.0799 -3.0225
 4316SOL     OW24583   0.459   0.805  17.693 -0.4924 -0.5732 -0.1600
 4316SOL    HW124584   0.427   0.837  17.609 -0.5610  0.2920  0.2059
 4316SOL    HW224585   0.555   0.813  17.693 -0.6343  1.0031 -0.8884
 4317SOL     OW24586   3.879   1.529  10.569 -0.3924 -0.0304 -0.1594
 4317SOL    HW124587   3.880   1.467  10.642  1.5249 -1.6059 -1.5179
 4317SOL    HW224588   3.799   1.575  10.593 -0.7102  0.6554 -2.5420
 4318SOL     OW24589   1.224   3.485  15.140 -0.5036 -0.2073  0.3617
 4318SOL    HW124590   1.140   3.440  15.129 -0.1449 -1.0375  1.0360
 4318SOL    HW224591   1.284   3.415  15.167  0.6866  0.8411  0.4136
 4319SOL     OW24592   3.442   3.095   4.557 -0.4558  0.5426 -0.1630
 4319SOL    HW124593   3.513   3.032   4.542 -1.9205 -0.8657 -1.1698
 4319SOL    HW224594   3.398   3.036   4.618  0.8361  0.7009  0.9342
 4320SOL     OW24595   0.341   1.703   1.961  0.3924 -0.0007 -0.1465
 4320SOL    HW124596   0.426   1.662   1.972  0.0023 -0.3651  1.6539
 4320SOL    HW224597   0.368   1.788   1.996 -0.1815 -0.6764  1.9659
 4321SOL     OW24598   4.381   4.670  16.594 -0.3028  0.4563 -0.0860
 4321SOL    HW124599   4.458   4.624  16.628 -0.0206 -0.3245 -1.7902
 4321SOL    HW224600   4.314   4.604  16.577  1.0170 -0.7402 -0.6854
 4322SOL     OW24601   1.569   2.264  16.012  0.0264 -0.4165 -0.1109
 4322SOL    HW124602   1.655   2.294  16.043 -0.5262  1.1386 -0.1388
 4322SOL    HW224603   1.508   2.324  16.054  0.8406  1.1864 -1.2553
 4323SOL     OW24604   0.227   3.984   9.081 -1.0147  0.1667  0.4647
 4323SOL    HW124605   0.287   4.016   9.013  0.1515 -1.3472  0.7910
 4323SOL    HW224606   0.143   4.022   9.056 -1.3332 -0.8421  0.0059
 4324SOL     OW24607   3.082   3.284   9.784  0.3286  0.1720 -0.1906
 4324SOL    HW124608   3.102   3.277   9.878  2.3409  2.4998 -0.4497
 4324SOL    HW224609   3.161   3.327   9.753  0.9774  1.0505  2.6224
 4325SOL     OW24610   1.808   0.332  11.185 -0.1308  0.3823 -0.0045
 4325SOL    HW124611   1.799   0.328  11.280 -1.5913  2.7312 -0.0553
 4325SOL    HW224612   1.828   0.241  11.162  0.1217 -0.2757  2.8755
 4326SOL     OW24613   0.526   0.064   6.525  0.1109  0.1005  0.2755
 4326SOL    HW124614   0.581   0.111   6.588 -1.3626 -0.6204  2.0874
 4326SOL    HW224615   0.504   4.718   6.568 -2.6967  1.0073  0.5726
 4327SOL     OW24616   2.805   2.952   3.376 -0.1652  0.0459  0.4443
 4327SOL    HW124617   2.719   2.909   3.381  0.0216 -0.5677 -1.7188
 4327SOL    HW224618   2.854   2.876   3.404 -0.4740 -0.0299  0.7815
 4328SOL     OW24619   3.731   4.267  10.978 -0.1489  0.2070 -0.5859
 4328SOL    HW124620   3.765   4.192  11.027 -0.7620  2.1249  2.8318
 4328SOL    HW224621   3.781   4.344  11.006 -2.0236  0.7103  1.3761
 4329SOL     OW24622   1.605   3.350  16.204  0.3301 -0.0200 -0.0936
 4329SOL    HW124623   1.545   3.424  16.191 -0.6881 -1.2514 -2.3694
 4329SOL    HW224624   1.545   3.282  16.236  1.3086 -0.0417  1.7093
 4330SOL     OW24625   2.205   3.901   7.815 -0.5423 -0.0455 -0.7627
 4330SOL    HW124626   2.206   3.889   7.720 -2.8396 -3.8105 -0.2796
 4330SOL    HW224627   2.203   3.997   7.818  1.0842 -0.1344  3.2650
 4331SOL     OW24628   3.481   2.770   2.113 -0.1758  0.0070  0.3475
 4331SOL    HW124629   3.487   2.677   2.137 -1.7533 -0.0652  0.4918
 4331SOL    HW224630   3.553   2.780   2.051 -1.2186  1.9544 -0.5486
 4332SOL     OW24631   0.472   2.820  17.532  0.3002 -0.0174  0.7646
 4332SOL    HW124632   0.547   2.819  17.591  0.9888  1.5055 -0.0808
 4332SOL    HW224633   0.474   2.909  17.497 -0.7522 -0.0193  0.7123
 4333SOL     OW24634   3.087   3.134   0.118 -0.1577 -0.9992 -0.0841
 4333SOL    HW124635   3.130   3.076   0.055 -1.7485 -2.0961 -0.1431
 4333SOL    HW224636   3.160   3.194   0.138  0.8337 -2.4386  0.5873
 4334SOL     OW24637   1.798   3.870   7.319  0.2708 -0.1314 -0.2419
 4334SOL    HW124638   1.872   3.842   7.265  0.3450 -1.5094  0.5778
 4334SOL    HW224639   1.820   3.842   7.407 -0.0977  2.5092  0.6884
 4335SOL     OW24640   0.405   3.632   5.266 -0.0110 -0.0634 -0.2230
 4335SOL    HW124641   0.355   3.550   5.266 -0.3517  0.1444  1.3480
 4335SOL    HW224642   0.437   3.632   5.357 -1.3168  0.5579  0.2338
 4336SOL     OW24643   0.502   1.486   3.110 -0.0566  0.1241  0.1798
 4336SOL    HW124644   0.472   1.516   3.196 -0.3042 -1.8637  0.7703
 4336SOL    HW224645   0.424   1.451   3.067 -1.1370  2.1847  0.4434
 4337SOL     OW24646   2.847   2.290  15.572 -0.0759 -0.6940 -0.3581
 4337SOL    HW124647   2.826   2.221  15.509  1.4862 -1.4303 -0.0880
 4337SOL    HW224648   2.819   2.376  15.542  2.3175 -0.5841 -2.3077
 4338SOL     OW24649   1.489   3.391   3.652  0.0394  0.0591 -0.0921
 4338SOL    HW124650   1.449   3.418   3.569  1.8081 -0.6537 -1.1713
 4338SOL    HW224651   1.510   3.299   3.633 -1.0361 -0.7522  2.6360
 4339SOL     OW24652   0.892   0.068   5.995 -0.7587 -0.0195  0.1085
 4339SOL    HW124653   0.870   0.157   5.969 -2.4699 -0.9805 -1.6956
 4339SOL    HW224654   0.942   0.091   6.074 -0.1178  0.4641 -0.4392
 4340SOL     OW24655   3.244   2.534   7.130 -0.1616 -0.0971  0.0916
 4340SOL    HW124656   3.180   2.464   7.144  0.4637 -0.8210 -0.6197
 4340SOL    HW224657   3.313   2.494   7.076 -0.7613 -0.8217 -0.1379
 4341SOL     OW24658   3.494   3.038   2.110 -0.2062 -0.4569 -0.3236
 4341SOL    HW124659   3.420   3.074   2.158  1.5062  0.9740  1.2636
 4341SOL    HW224660   3.483   2.945   2.128 -2.1067  0.0320  0.9307
 4342SOL     OW24661   3.947   3.648  10.347  0.0500  0.5175  0.0978
 4342SOL    HW124662   3.919   3.729  10.305 -0.1708  0.1732 -0.4270
 4342SOL    HW224663   4.038   3.640  10.318 -0.8841 -0.9330 -2.4191
 4343SOL     OW24664   1.428   1.873   3.916 -0.8132  0.3954 -0.2244
 4343SOL    HW124665   1.350   1.843   3.963 -0.0663 -0.8624  0.1992
 4343SOL    HW224666   1.491   1.878   3.987 -0.5001  2.1470 -0.6181
 4344SOL     OW24667   3.578   1.764   5.984 -0.1440  0.0384  0.3382
 4344SOL    HW124668   3.497   1.786   6.031 -1.4817  1.3931 -2.6261
 4344SOL    HW224669   3.603   1.850   5.949  2.4998 -0.5337  0.8050
 4345SOL     OW24670   2.424   0.211   6.769 -0.7131 -0.0178  0.1135
 4345SOL    HW124671   2.518   0.220   6.783 -0.6306  0.7722 -0.9781
 4345SOL    HW224672   2.386   0.179   6.851 -2.8623  0.0301 -0.8512
 4346SOL     OW24673   0.087   4.330   5.273 -0.0820  0.4716  0.2972
 4346SOL    HW124674   0.106   4.401   5.334  1.3955 -0.0893  0.5005
 4346SOL    HW224675   4.734   4.302   5.292 -0.5014  0.1350 -2.1149
 4347SOL     OW24676   0.763   4.519   8.048 -0.5010  0.2584  0.0474
 4347SOL    HW124677   0.833   4.565   8.003 -0.8674  1.4239  0.6800
 4347SOL    HW224678   0.691   4.541   7.988  0.7904 -0.1042 -1.6466
 4348SOL     OW24679   3.101   0.784   9.838 -0.4703  0.3441  0.6407
 4348SOL    HW124680   3.191   0.817   9.840 -0.4071  0.1088  1.4049
 4348SOL    HW224681   3.075   0.791   9.929 -3.1128  1.7672 -0.2343
 4349SOL     OW24682   3.082   3.120   4.021 -0.0107  0.0158  0.0602
 4349SOL    HW124683   3.046   3.106   3.934 -0.4189 -1.0873  0.4122
 4349SOL    HW224684   3.102   3.214   4.025  0.1458  0.0105 -0.7232
 4350SOL     OW24685   0.818   0.996   0.130  0.0364  0.2877  0.3864
 4350SOL    HW124686   0.835   0.950   0.048  2.2870 -1.1926  1.6584
 4350SOL    HW224687   0.758   0.933   0.169  0.1925 -0.4453 -0.5751
 4351SOL     OW24688   0.474   3.521   3.227  0.1317  0.3609  0.8278
 4351SOL    HW124689   0.379   3.531   3.217  0.0102 -2.5147 -0.7314
 4351SOL    HW224690   0.493   3.461   3.156 -0.3468  0.4327  0.6381
 4352SOL     OW24691   4.196   1.519   3.117 -0.1000  0.5051 -0.3803
 4352SOL    HW124692   4.228   1.460   3.048 -0.4150  0.4782 -0.5035
 4352SOL    HW224693   4.258   1.504   3.188 -2.7499  1.3955  2.1220
 4353SOL     OW24694   3.012   1.587   3.506 -0.0304 -0.2160 -0.1964
 4353SOL    HW124695   3.019   1.500   3.544  4.4029  0.3605  0.2987
 4353SOL    HW224696   3.102   1.619   3.510 -0.1372  0.1956 -0.9412
 4354SOL     OW24697   1.755   4.432  12.365 -0.3622 -0.2758 -0.5520
 4354SOL    HW124698   1.742   4.411  12.458  0.9039 -1.3734 -0.6167
 4354SOL    HW224699   1.734   4.347  12.326 -0.9587  1.0683 -3.0879
 4355SOL     OW24700   1.643   2.078   2.351 -0.3998 -0.4522  0.2965
 4355SOL    HW124701   1.642   1.998   2.299 -0.3977 -0.2692  0.0149
 4355SOL    HW224702   1.672   2.041   2.434  0.1549 -1.3328 -0.3017
 4356SOL     OW24703   1.409   4.169   3.712  0.5700 -0.5961  0.2751
 4356SOL    HW124704   1.333   4.227   3.703  0.3478 -0.5712  2.1617
 4356SOL    HW224705   1.433   4.152   3.621 -0.9672 -0.7867 -0.0978
 4357SOL     OW24706   1.166   0.783   5.468 -0.0888  0.1042 -0.1235
 4357SOL    HW124707   1.149   0.689   5.473  1.5978 -0.3895 -3.7704
 4357SOL    HW224708   1.255   0.791   5.433  1.0653 -2.7801  2.1621
 4358SOL     OW24709   2.581   4.727   3.195 -0.0128 -0.5183 -0.5397
 4358SOL    HW124710   2.608   0.082   3.184 -1.0968 -0.0193  0.9647
 4358SOL    HW224711   2.609   4.689   3.112  0.8858 -1.5549  0.2420
 4359SOL     OW24712   4.421   2.533  17.173  0.6192 -0.1367  0.5770
 4359SOL    HW124713   4.405   2.579  17.255 -1.3254  0.0130  0.1082
 4359SOL    HW224714   4.502   2.568  17.137  0.0527 -1.1095 -1.6535
 4360SOL     OW24715   3.497   1.550   5.788 -0.0741  0.3235 -0.7017
 4360SOL    HW124716   3.551   1.607   5.843 -0.7220 -1.3559  1.7127
 4360SOL    HW224717   3.428   1.611   5.762  1.0386  1.7275 -0.3938
 4361SOL     OW24718   2.068   2.721   1.993  0.5727  0.1331 -0.1461
 4361SOL    HW124719   2.034   2.634   1.973  0.2185  0.1169  0.5536
 4361SOL    HW224720   2.076   2.767   1.909  0.6084  0.6025  0.1138
 4362SOL     OW24721   4.386   2.609   0.094 -0.0707  0.2406  0.7634
 4362SOL    HW124722   4.426   2.634   0.177  2.3096 -1.8935  0.2492
 4362SOL    HW224723   4.338   2.537   0.134  0.4703  0.7517  2.3137
 4363SOL     OW24724   2.205   4.348   8.088 -0.0864 -0.0253  0.0450
 4363SOL    HW124725   2.278   4.330   8.028 -0.6188 -1.2756 -0.2187
 4363SOL    HW224726   2.226   4.441   8.097  0.1445 -0.2027  1.3494
 4364SOL     OW24727   1.114   3.036   2.017  0.0355 -0.1994 -0.0450
 4364SOL    HW124728   1.112   2.958   1.963  1.8562  0.3129 -0.8345
 4364SOL    HW224729   1.167   3.006   2.091  0.0954  1.5424  0.6235
 4365SOL     OW24730   1.945   2.175   1.631  0.0094  0.3268  0.2543
 4365SOL    HW124731   1.991   2.092   1.637  1.3288  1.0228 -0.3223
 4365SOL    HW224732   1.873   2.155   1.572  0.7560  1.2035 -0.9453
 4366SOL     OW24733   4.716   1.117   9.650 -0.2700  0.0003  0.2551
 4366SOL    HW124734   4.728   1.029   9.687  0.5013 -0.4141 -0.9937
 4366SOL    HW224735   4.622   1.134   9.662 -0.3840 -0.2600 -0.2599
 4367SOL     OW24736   0.319   0.290  14.367  0.4543  0.3280  0.5440
 4367SOL    HW124737   0.328   0.204  14.325 -0.2452 -0.0953  1.2716
 4367SOL    HW224738   0.402   0.334  14.349  0.2140 -0.1037 -1.6717
 4368SOL     OW24739   1.578   0.020   6.744  0.3402 -0.8510  0.4620
 4368SOL    HW124740   1.667   0.055   6.738  0.1882 -0.7509 -1.3514
 4368SOL    HW224741   1.535   0.094   6.786  0.7929  0.2704 -1.0624
 4369SOL     OW24742   3.587   2.824   7.761  0.0345 -0.6500 -0.3734
 4369SOL    HW124743   3.658   2.857   7.816  1.0174 -1.9290 -0.8771
 4369SOL    HW224744   3.522   2.787   7.820  0.3359 -1.9978 -0.8940
 4370SOL     OW24745   0.282   2.654   3.782  0.3284 -0.4080 -0.0628
 4370SOL    HW124746   0.211   2.591   3.770 -0.2405  0.3009 -0.3680
 4370SOL    HW224747   0.311   2.660   3.691  1.3735  0.5966  0.3368
 4371SOL     OW24748   2.909   0.791   1.967 -0.3245 -0.6157 -0.2728
 4371SOL    HW124749   2.978   0.744   2.013 -1.4629 -2.2712 -0.2433
 4371SOL    HW224750   2.962   0.838   1.902 -1.2983 -1.1874 -1.4775
 4372SOL     OW24751   1.973   1.046   5.344 -0.5257 -0.2284  0.4536
 4372SOL    HW124752   1.895   1.087   5.308 -0.7561 -1.7900 -0.8059
 4372SOL    HW224753   1.949   0.956   5.323  0.1995 -0.5996  1.1888
 4373SOL     OW24754   3.825   0.130  11.285 -0.4855  0.5219  0.2226
 4373SOL    HW124755   3.760   0.071  11.248 -0.2951  0.9892 -0.8691
 4373SOL    HW224756   3.764   0.205  11.282 -0.4310  0.5804  0.5899
 4374SOL     OW24757   2.313   2.046   3.476 -0.2108 -0.1575  0.2689
 4374SOL    HW124758   2.372   2.003   3.538 -0.7090 -0.7785  0.3119
 4374SOL    HW224759   2.371   2.022   3.405 -0.2492  0.8651 -0.1099
 4375SOL     OW24760   0.195   2.039   9.544  0.4859  0.0108 -0.4027
 4375SOL    HW124761   0.143   2.052   9.465  0.1007 -4.2051 -0.8017
 4375SOL    HW224762   0.250   1.965   9.519 -2.0713 -1.7470 -0.7201
 4376SOL     OW24763   1.352   0.830   4.706 -0.0391 -0.6696 -0.2840
 4376SOL    HW124764   1.264   0.804   4.679 -1.0274 -0.6460  2.9180
 4376SOL    HW224765   1.381   0.878   4.628 -0.1019 -1.2380 -0.6559
 4377SOL     OW24766   0.223   2.868  13.373  0.0777  0.1323  0.2426
 4377SOL    HW124767   0.304   2.846  13.419 -0.2893 -2.5240 -0.4323
 4377SOL    HW224768   0.177   2.909  13.447  0.6472  2.2780 -0.5882
 4378SOL     OW24769   1.319   2.831  16.478  0.2838  0.6102 -0.0428
 4378SOL    HW124770   1.284   2.919  16.472 -0.3277  0.2750 -1.4399
 4378SOL    HW224771   1.386   2.850  16.543  0.8946  0.2843 -0.5716
 4379SOL     OW24772   0.026   4.712   5.590  0.2352 -0.2005  0.3760
 4379SOL    HW124773   0.072   4.644   5.640 -0.8889 -1.2218  0.0006
 4379SOL    HW224774   4.693   4.658   5.553  2.0325 -1.4644 -1.1455
 4380SOL     OW24775   0.638   0.518   4.780  0.7166 -0.2396 -0.1174
 4380SOL    HW124776   0.675   0.596   4.821  1.8773 -0.6953 -0.2945
 4380SOL    HW224777   0.579   0.502   4.854  0.9048 -1.4598 -0.2303
 4381SOL     OW24778   0.186   1.287   7.515 -0.4340  0.0312  0.2200
 4381SOL    HW124779   0.159   1.379   7.514 -0.0151  0.1361 -1.5493
 4381SOL    HW224780   0.195   1.270   7.609 -0.0167  0.2443  0.2203
 4382SOL     OW24781   0.909   3.381  16.604 -0.5024 -0.0531 -0.1061
 4382SOL    HW124782   0.981   3.442  16.593  0.0318 -0.5256  0.7854
 4382SOL    HW224783   0.843   3.423  16.658  0.5403 -1.2277  2.0723
 4383SOL     OW24784   0.033   3.822   6.319  0.3355 -0.1684  0.0444
 4383SOL    HW124785   0.116   3.776   6.335 -2.0635 -4.3976  0.2732
 4383SOL    HW224786   4.728   3.806   6.404  0.7983  2.5381  0.7933
 4384SOL     OW24787   4.150   4.057   6.493 -0.4227  0.2767  0.6657
 4384SOL    HW124788   4.143   4.064   6.398 -0.8887  0.2449  0.6933
 4384SOL    HW224789   4.085   3.989   6.514 -0.0966  0.5596  2.5705
 4385SOL     OW24790   4.330   0.806   4.288 -0.0204 -0.5788  0.1335
 4385SOL    HW124791   4.335   0.876   4.223  1.7807 -2.0778 -1.3524
 4385SOL    HW224792   4.284   0.852   4.359  0.1009  1.2744 -1.0020
 4386SOL     OW24793   2.184   2.537   9.413 -0.0338 -0.9687 -0.0035
 4386SOL    HW124794   2.223   2.493   9.489 -0.3933 -0.1530  0.6580
 4386SOL    HW224795   2.152   2.459   9.367 -1.7323  0.0181 -0.5116
 4387SOL     OW24796   1.321   3.078   4.256  0.2342  0.3460  0.3442
 4387SOL    HW124797   1.406   3.123   4.262 -1.0838  2.9855 -1.0604
 4387SOL    HW224798   1.332   2.986   4.282 -1.1457 -0.3206 -1.4851
 4388SOL     OW24799   0.690   2.363   5.168  0.3717  0.6474  0.1007
 4388SOL    HW124800   0.636   2.422   5.221  1.2164  1.3075  0.2364
 4388SOL    HW224801   0.737   2.425   5.112 -0.2116  0.8790 -0.1360
 4389SOL     OW24802   0.311   1.180  17.441  0.4105 -0.0273 -0.7674
 4389SOL    HW124803   0.267   1.239  17.501 -0.2039 -2.4715  1.1956
 4389SOL    HW224804   0.367   1.247  17.401 -0.1152  0.8472 -0.0323
 4390SOL     OW24805   4.532   0.589   3.034 -0.3792  0.3143  0.0892
 4390SOL    HW124806   4.582   0.560   2.958  0.4954 -1.8192  1.4890
 4390SOL    HW224807   4.465   0.521   3.021  2.7328 -2.6397 -0.5492
 4391SOL     OW24808   2.722   1.763   9.278 -0.6379 -0.4355 -0.1393
 4391SOL    HW124809   2.747   1.826   9.210 -0.9194 -2.6350 -2.2616
 4391SOL    HW224810   2.654   1.713   9.234 -1.6343  0.9952 -0.2344
 4392SOL     OW24811   4.649   2.877   1.556  0.0566 -0.1549 -0.0837
 4392SOL    HW124812   4.679   2.948   1.613  2.0731 -0.4622 -0.7889
 4392SOL    HW224813   4.615   2.925   1.480  0.9153  0.9063  0.1989
 4393SOL     OW24814   2.376   1.850  17.738 -0.0970  0.4709  0.1936
 4393SOL    HW124815   2.385   1.804   0.077 -0.2407  2.8411  1.5124
 4393SOL    HW224816   2.281   1.846  17.725 -0.2529  1.4916  0.9888
 4394SOL     OW24817   0.559   4.658   5.732 -1.3541  0.3932  0.4092
 4394SOL    HW124818   0.563   4.730   5.795  0.3589  1.1587 -0.5759
 4394SOL    HW224819   0.545   4.584   5.791  1.8445 -0.7067 -0.2609
 4395SOL     OW24820   4.550   3.688   5.694  0.1155 -0.3862  0.4948
 4395SOL    HW124821   4.642   3.669   5.713  0.3819 -1.0557 -1.5306
 4395SOL    HW224822   4.526   3.736   5.774  0.6584  1.5968 -0.5541
 4396SOL     OW24823   2.888   3.099   6.516 -0.3347 -0.0032 -0.4329
 4396SOL    HW124824   2.817   3.161   6.536 -0.9468 -1.0528  0.6122
 4396SOL    HW224825   2.850   3.058   6.438  0.4319 -2.4629  0.5048
 4397SOL     OW24826   1.609   0.202   3.792 -0.0344  0.2455  0.4774
 4397SOL    HW124827   1.531   0.149   3.805 -0.0871  0.5281  1.3050
 4397SOL    HW224828   1.595   0.275   3.852  0.3007 -1.4283  2.5752
 4398SOL     OW24829   4.214   4.686   7.951 -0.0962  0.0354  0.4105
 4398SOL    HW124830   4.204   4.709   7.859  0.3983 -0.4888  0.2287
 4398SOL    HW224831   4.196   4.595   7.926  0.2796 -0.5186  2.1398
 4399SOL     OW24832   3.445   0.469  16.490 -0.5681  0.3063 -0.2527
 4399SOL    HW124833   3.498   0.444  16.414  0.8263 -0.8782  1.0982
 4399SOL    HW224834   3.358   0.457  16.453 -0.7782  2.7785 -0.5318
 4400SOL     OW24835   1.391   0.576  16.800 -0.4777  0.3516  0.0061
 4400SOL    HW124836   1.315   0.537  16.843 -0.5370  2.7595  2.0525
 4400SOL    HW224837   1.459   0.544  16.859 -0.0382 -1.6540 -1.5679
 4401SOL     OW24838   3.960   4.671   1.545 -0.2422 -0.0260 -0.0721
 4401SOL    HW124839   4.022   4.731   1.587 -1.1572 -0.0448  1.3069
 4401SOL    HW224840   4.003   4.670   1.460 -1.9852  2.6541 -0.9785
 4402SOL     OW24841   2.516   3.890   9.402 -0.7119 -0.2313  0.3541
 4402SOL    HW124842   2.588   3.939   9.363 -0.9413 -1.5058 -1.6494
 4402SOL    HW224843   2.436   3.938   9.381 -0.4357 -0.8414 -2.1276
 4403SOL     OW24844   2.388   1.512  13.447 -0.0874  0.0523  0.1030
 4403SOL    HW124845   2.359   1.484  13.534 -1.6234 -0.1521 -0.4792
 4403SOL    HW224846   2.438   1.592  13.463  1.4148 -0.9894  0.6019
 4404SOL     OW24847   4.105   4.192  13.530  0.2154 -0.5098  0.1460
 4404SOL    HW124848   4.185   4.152  13.496  0.6954  0.5851 -0.0215
 4404SOL    HW224849   4.122   4.170  13.622  0.4135 -0.9729  0.0006
 4405SOL     OW24850   4.320   1.851   6.157  0.1368  0.0743 -0.2457
 4405SOL    HW124851   4.227   1.849   6.134 -0.1585 -0.6233  1.0162
 4405SOL    HW224852   4.351   1.785   6.094 -1.5792  1.1306 -2.2192
 4406SOL     OW24853   0.406   3.049  15.572  0.5370 -0.5705  0.3438
 4406SOL    HW124854   0.432   3.094  15.653 -1.2814  1.4505 -0.1982
 4406SOL    HW224855   0.491   3.018  15.540 -0.0653 -1.1556 -0.6950
 4407SOL     OW24856   4.393   1.273   2.079 -0.6335 -0.6037  0.4970
 4407SOL    HW124857   4.317   1.249   2.026  0.2077  1.5848 -1.6986
 4407SOL    HW224858   4.381   1.368   2.078 -0.8236 -0.6116  2.1733
 4408SOL     OW24859   3.307   0.011   5.618  0.8345 -0.7579 -0.3157
 4408SOL    HW124860   3.217   4.719   5.608  0.0683  1.6182 -0.0855
 4408SOL    HW224861   3.330   0.013   5.711  0.3003  0.5961 -0.2174
 4409SOL     OW24862   2.044   3.074  13.416 -0.3380  0.1834  0.2462
 4409SOL    HW124863   2.032   2.985  13.384  1.5137 -0.1298  0.4510
 4409SOL    HW224864   2.139   3.077  13.422 -0.3778  0.9775  0.4992
 4410SOL     OW24865   0.222   2.746   1.351  0.1241  0.0818  0.2600
 4410SOL    HW124866   0.154   2.737   1.284  1.2069  0.7559 -0.9274
 4410SOL    HW224867   0.241   2.839   1.336  3.0772 -0.3613  1.2769
 4411SOL     OW24868   4.372   4.183   1.350 -0.2135  0.0719 -0.2989
 4411SOL    HW124869   4.325   4.225   1.278 -1.8992 -0.6437  0.3761
 4411SOL    HW224870   4.456   4.164   1.308  0.6139  0.3110  1.2353
 4412SOL     OW24871   4.435   2.717   7.098 -0.1653 -0.5523  0.4674
 4412SOL    HW124872   4.481   2.634   7.083  0.2077 -0.5537  1.6460
 4412SOL    HW224873   4.457   2.732   7.190 -0.6551 -0.2616  0.5368
 4413SOL     OW24874   2.421   1.019  12.058  0.0006 -0.7309 -0.4941
 4413SOL    HW124875   2.345   1.039  12.113  0.7419  1.0863 -0.1354
 4413SOL    HW224876   2.379   0.943  12.018 -1.4859 -0.5259  0.6791
 4414SOL     OW24877   4.368   3.261  11.050 -0.2590  0.4000  0.4888
 4414SOL    HW124878   4.384   3.168  11.070  0.6976  0.3353 -0.5344
 4414SOL    HW224879   4.451   3.294  11.085 -0.3017 -0.0585  1.0265
 4415SOL     OW24880   3.727   0.143  15.786 -0.2211  0.1967  0.8308
 4415SOL    HW124881   3.632   0.153  15.794  0.0539  1.9791  1.9070
 4415SOL    HW224882   3.737   0.153  15.691 -1.0120 -1.4274  0.5733
 4416SOL     OW24883   0.025   2.872   3.763  0.3087 -0.3664 -0.0116
 4416SOL    HW124884   4.678   2.870   3.717  0.8395  0.8638 -1.0352
 4416SOL    HW224885   0.044   2.966   3.755  1.1993 -0.4216  1.2940
 4417SOL     OW24886   2.900   2.619   3.721 -0.2228  0.0188  0.1261
 4417SOL    HW124887   2.830   2.554   3.718 -1.1894  1.0155  0.8968
 4417SOL    HW224888   2.947   2.585   3.797  0.1568  0.2511 -0.0058
 4418SOL     OW24889   3.673   3.912   3.881 -0.1226 -0.5793 -0.6625
 4418SOL    HW124890   3.755   3.942   3.919 -0.8647  0.2039  0.2946
 4418SOL    HW224891   3.706   3.833   3.838  0.0721 -1.0593  0.3609
 4419SOL     OW24892   1.608   3.032   3.712 -0.3975  0.1926  0.4533
 4419SOL    HW124893   1.646   3.054   3.627 -1.2865  0.0813  0.0152
 4419SOL    HW224894   1.675   2.968   3.736 -2.8673 -1.7200  2.3718
 4420SOL     OW24895   2.286   1.803   8.178 -0.0132 -0.4462  0.1502
 4420SOL    HW124896   2.351   1.803   8.249  1.1824  0.1594 -0.9333
 4420SOL    HW224897   2.310   1.888   8.141  0.1987 -0.3002  0.6194
 4421SOL     OW24898   0.455   1.741   5.425 -0.4485 -0.0684  0.4766
 4421SOL    HW124899   0.524   1.806   5.410 -1.3375  0.4770 -1.2032
 4421SOL    HW224900   0.500   1.697   5.497 -0.2115 -1.6641 -0.6539
 4422SOL     OW24901   3.831   1.092   6.752  0.3073 -0.3480  0.5952
 4422SOL    HW124902   3.753   1.050   6.787  0.6941 -1.2393  0.3890
 4422SOL    HW224903   3.793   1.171   6.712 -0.6731 -0.8630  0.5225
 4423SOL     OW24904   1.114   0.529   2.672  0.5317 -0.0917 -0.1836
 4423SOL    HW124905   1.020   0.522   2.657  0.2900 -0.0517  1.3316
 4423SOL    HW224906   1.134   0.622   2.656 -0.0323 -0.0523 -0.6631
 4424SOL     OW24907   3.197   2.750   5.332 -0.0094 -0.4110  0.4493
 4424SOL    HW124908   3.259   2.786   5.395  1.0125  0.7767 -1.2518
 4424SOL    HW224909   3.166   2.827   5.285  1.4838  0.0087  0.1688
 4425SOL     OW24910   4.719   1.121  13.928  0.0370  0.5800 -0.1524
 4425SOL    HW124911   0.045   1.139  13.999 -1.0741 -2.7800  1.6728
 4425SOL    HW224912   4.699   1.027  13.931 -1.7235  0.8992 -2.2102
 4426SOL     OW24913   2.029   3.727   8.005 -0.0809 -0.2942  0.0223
 4426SOL    HW124914   1.945   3.737   7.962 -1.0028 -1.3235  1.5775
 4426SOL    HW224915   2.007   3.676   8.083  0.8914 -1.9022 -0.7582
 4427SOL     OW24916   4.367   3.626   0.348  0.1559  0.5629 -0.3798
 4427SOL    HW124917   4.411   3.543   0.331  1.7071  1.4628 -0.6997
 4427SOL    HW224918   4.377   3.666   0.262  1.4684 -0.3519 -0.6595
 4428SOL     OW24919   0.467   4.086  13.470  0.2862 -0.0708  0.0786
 4428SOL    HW124920   0.410   4.009  13.470  1.3727 -0.8664  1.2759
 4428SOL    HW224921   0.553   4.044  13.468  0.2821 -0.0932  0.4250
 4429SOL     OW24922   3.313   3.011   9.899  0.3090  0.5969 -0.4423
 4429SOL    HW124923   3.285   3.048   9.815 -0.2166 -1.7587 -1.3037
 4429SOL    HW224924   3.302   3.089   9.954  1.0091 -0.0489  0.5984
 4430SOL     OW24925   4.307   4.542   4.318  0.5254  0.2900 -0.0146
 4430SOL    HW124926   4.327   4.631   4.290  0.1864  1.2377  2.7511
 4430SOL    HW224927   4.352   4.548   4.402  0.9219 -2.7286  0.0009
 4431SOL     OW24928   0.612   2.976   7.555 -0.3835 -0.0204  0.8178
 4431SOL    HW124929   0.688   2.966   7.498  0.1491 -3.8518  2.2152
 4431SOL    HW224930   0.542   2.979   7.490 -0.0491 -2.2096  0.3528
 4432SOL     OW24931   2.459   2.884   9.333 -0.1526  0.4959  0.2399
 4432SOL    HW124932   2.420   2.805   9.294  1.7950  0.3208 -1.3506
 4432SOL    HW224933   2.546   2.888   9.294  0.7878 -0.2336  2.2310
 4433SOL     OW24934   0.316   2.459   2.058  0.3975 -0.1566  0.4229
 4433SOL    HW124935   0.326   2.444   1.964 -0.4439 -0.7007  0.4164
 4433SOL    HW224936   0.264   2.539   2.058  0.6215 -0.0123  0.2084
 4434SOL     OW24937   3.668   0.259   5.412 -0.6707 -0.3057 -0.0086
 4434SOL    HW124938   3.573   0.265   5.403 -0.5669  0.5128 -0.6440
 4434SOL    HW224939   3.676   0.169   5.444  0.2574  0.9827  3.4203
 4435SOL     OW24940   1.714   4.330  11.160  0.1090  0.4374  0.0416
 4435SOL    HW124941   1.687   4.243  11.190 -0.8260  0.2701 -1.3128
 4435SOL    HW224942   1.744   4.303  11.073 -2.2661 -0.5960 -0.4632
 4436SOL     OW24943   2.314   1.440   5.851 -0.0183 -0.6562 -0.4603
 4436SOL    HW124944   2.285   1.469   5.937  1.1527 -0.6041 -0.0851
 4436SOL    HW224945   2.241   1.381   5.831 -3.3021  3.2714  0.0925
 4437SOL     OW24946   1.617   3.465   0.560 -0.1633  0.4023  0.4405
 4437SOL    HW124947   1.559   3.398   0.596  0.1710  0.3200  0.8280
 4437SOL    HW224948   1.658   3.420   0.487 -3.2128 -1.0653 -0.3601
 4438SOL     OW24949   3.822   1.524  16.020  0.3448  0.2767  0.3564
 4438SOL    HW124950   3.751   1.526  15.956 -0.5775  1.3426  1.4256
 4438SOL    HW224951   3.786   1.467  16.087 -0.0675 -0.0670 -0.1642
 4439SOL     OW24952   4.609   3.685   7.647 -0.4271 -0.0635 -0.2445
 4439SOL    HW124953   4.631   3.707   7.556  0.5514  0.5465  0.1467
 4439SOL    HW224954   4.592   3.773   7.681 -1.0864 -0.2783 -0.0074
 4440SOL     OW24955   3.868   0.109   8.827  0.5993 -0.0975 -0.1303
 4440SOL    HW124956   3.898   0.149   8.909 -0.5960 -1.3560  0.9071
 4440SOL    HW224957   3.787   0.155   8.805  1.1168  0.9620  0.1596
 4441SOL     OW24958   0.447   2.125   4.985  0.0454  0.2119 -0.6956
 4441SOL    HW124959   0.471   2.033   4.971  0.2913  0.4359 -1.7158
 4441SOL    HW224960   0.503   2.174   4.924  1.8902 -2.1432 -0.9291
 4442SOL     OW24961   1.236   3.894   2.165 -0.3192 -0.1458  0.0822
 4442SOL    HW124962   1.180   3.825   2.199 -0.8152 -0.7634 -2.0301
 4442SOL    HW224963   1.251   3.874   2.073  1.3385  1.9088 -0.0931
 4443SOL     OW24964   0.503   1.619   7.620  0.0652 -0.5819  0.0378
 4443SOL    HW124965   0.443   1.649   7.552 -1.3782  0.1474  1.6199
 4443SOL    HW224966   0.585   1.625   7.571  0.6915  2.6243  1.4839
 4444SOL     OW24967   1.140   1.935   3.957  0.3221 -0.2489  0.0376
 4444SOL    HW124968   1.120   1.970   3.870 -1.6647 -1.7250 -0.1048
 4444SOL    HW224969   1.071   1.869   3.967  0.1918 -0.4690 -2.3978
 4445SOL     OW24970   0.811   2.189   7.400  0.2361 -0.2393 -0.1506
 4445SOL    HW124971   0.905   2.198   7.381  0.4742  0.7760  1.5210
 4445SOL    HW224972   0.762   2.247   7.341 -0.6884 -0.0071  0.8599
 4446SOL     OW24973   0.304   1.485   2.659  0.2075  0.1494 -0.2296
 4446SOL    HW124974   0.347   1.450   2.737 -0.8601  0.0764  0.3154
 4446SOL    HW224975   0.306   1.412   2.597  2.2584  0.4484 -0.5196
 4447SOL     OW24976   4.232   2.730   7.509 -0.1100  0.0896  0.1919
 4447SOL    HW124977   4.205   2.822   7.510  2.5531  0.8703  1.4504
 4447SOL    HW224978   4.177   2.681   7.570 -1.3699  1.9405  0.5412
 4448SOL     OW24979   0.983   2.777   4.863  0.1793  0.0824  0.5361
 4448SOL    HW124980   0.960   2.817   4.779 -0.6771  0.6242  1.0187
 4448SOL    HW224981   0.897   2.750   4.895 -0.1205 -0.7818 -0.9830
 4449SOL     OW24982   4.701   3.699  15.719 -0.3799 -0.4437 -0.4065
 4449SOL    HW124983   4.660   3.784  15.735  1.6195  0.5667 -0.6450
 4449SOL    HW224984   4.633   3.655  15.770  0.7611  0.2488  1.7231
 4450SOL     OW24985   4.247   0.844  12.140  0.3246 -0.4574  0.2256
 4450SOL    HW124986   4.188   0.872  12.210  0.8331  1.1160  0.0272
 4450SOL    HW224987   4.213   0.896  12.067 -1.9392 -1.1383  0.7703
 4451SOL     OW24988   2.006   0.651   5.802  0.1033  0.6498 -0.7027
 4451SOL    HW124989   2.055   0.733   5.797 -0.3786  1.0364  1.0282
 4451SOL    HW224990   1.941   0.668   5.869  0.3184 -1.1060 -0.0372
 4452SOL     OW24991   0.845   4.570  17.628  0.1281 -0.5283  0.1517
 4452SOL    HW124992   0.774   4.634  17.622 -0.2143 -1.1546 -2.1769
 4452SOL    HW224993   0.822   4.521  17.707  1.6343 -0.6964  0.4912
 4453SOL     OW24994   0.221   0.626   3.086  0.1819  0.2680 -0.3309
 4453SOL    HW124995   0.292   0.608   3.147 -1.4263 -0.7889  1.2353
 4453SOL    HW224996   0.182   0.538   3.079  1.1643 -0.3626  2.5488
 4454SOL     OW24997   4.694   2.536   2.254  0.3441 -0.3005 -0.3781
 4454SOL    HW124998   0.006   2.459   2.286  0.0904 -0.7001 -0.9537
 4454SOL    HW224999   0.015   2.580   2.192  0.0282  0.2266 -0.2961
 4455SOL     OW25000   0.693   4.254  13.109 -0.0115 -0.3846  0.0257
 4455SOL    HW125001   0.609   4.211  13.125 -0.9831  2.4504  2.5306
 4455SOL    HW225002   0.740   4.183  13.065  0.8351  0.8174 -1.0040
 4456SOL     OW25003   3.309   1.867   8.081  0.0034  0.1564  0.1983
 4456SOL    HW125004   3.399   1.871   8.115 -0.7072  0.0226  2.0829
 4456SOL    HW225005   3.323   1.872   7.986 -1.0241 -1.2238 -0.0283
 4457SOL     OW25006   2.894   4.000   4.022 -0.8723  0.4288 -0.2627
 4457SOL    HW125007   2.889   3.998   4.118  1.4239 -1.2473 -0.1843
 4457SOL    HW225008   2.806   4.035   4.004 -1.6676 -1.0282  0.7880
 4458SOL     OW25009   1.375   0.276   5.431 -0.2469  0.1959 -0.9705
 4458SOL    HW125010   1.367   0.315   5.344 -1.0941 -1.5957 -1.6809
 4458SOL    HW225011   1.378   0.183   5.409  1.6362  0.2451 -0.9302
 4459SOL     OW25012   2.438   3.292   8.122 -0.2077 -0.0608 -0.3042
 4459SOL    HW125013   2.384   3.316   8.047 -0.2047  0.4051 -0.1525
 4459SOL    HW225014   2.453   3.374   8.169 -2.2847  0.3747 -0.4132
 4460SOL     OW25015   2.613   3.039   7.679  0.3331  0.5923 -0.6767
 4460SOL    HW125016   2.580   3.121   7.718 -0.4755 -0.1404  0.1861
 4460SOL    HW225017   2.533   2.987   7.667 -0.1769  0.7346  2.0830
 4461SOL     OW25018   3.332   4.634   2.394  0.2260 -0.7323 -0.7600
 4461SOL    HW125019   3.333   4.589   2.478 -0.5111  0.0770 -0.3138
 4461SOL    HW225020   3.250   4.684   2.400 -0.3649 -1.9434  1.0261
 4462SOL     OW25021   1.703   1.560   5.396 -0.0127  0.2139  0.0164
 4462SOL    HW125022   1.680   1.511   5.316  1.3773  0.9514 -0.8348
 4462SOL    HW225023   1.756   1.490   5.434 -1.3764 -1.1723 -0.5723
 4463SOL     OW25024   0.366   0.560   6.496 -0.1343  0.0301 -0.2487
 4463SOL    HW125025   0.401   0.553   6.407 -0.7395  1.4531 -0.5994
 4463SOL    HW225026   0.327   0.474   6.512 -1.4019  0.3452 -1.6509
 4464SOL     OW25027   3.823   1.792   7.130 -1.0782  0.2947 -0.0590
 4464SOL    HW125028   3.789   1.831   7.210  0.0571 -3.1429  2.1005
 4464SOL    HW225029   3.823   1.699   7.154  0.6625 -0.6622 -3.6017
 4465SOL     OW25030   0.153   1.772   6.890 -1.2731  1.2646 -0.0585
 4465SOL    HW125031   0.175   1.691   6.935  0.6846  1.3506 -0.8618
 4465SOL    HW225032   0.195   1.766   6.804 -1.4146 -2.7008  0.1426
 4466SOL     OW25033   4.382   2.955   6.180 -0.1303  0.1876  0.1856
 4466SOL    HW125034   4.417   2.940   6.092  1.2247  0.8837  0.6002
 4466SOL    HW225035   4.308   3.013   6.160 -2.1309 -2.6433 -0.6077
 4467SOL     OW25036   2.086   1.604   8.045  0.2054  0.0587 -0.3530
 4467SOL    HW125037   2.153   1.590   8.112  1.7281 -3.6205 -2.6368
 4467SOL    HW225038   1.999   1.596   8.084  0.6784  0.0638  0.7102
 4468SOL     OW25039   2.523   1.566   3.268 -0.7354 -0.5662  0.4176
 4468SOL    HW125040   2.471   1.646   3.279  0.3213  0.5063 -2.2018
 4468SOL    HW225041   2.569   1.570   3.352  0.9190  0.9151 -0.5386
 4469SOL     OW25042   0.562   3.058  12.335 -0.8600  0.2007  0.2806
 4469SOL    HW125043   0.474   3.024  12.351  0.3414 -2.6544  0.6852
 4469SOL    HW225044   0.562   3.148  12.368 -0.0839  0.0786  0.6096
 4470SOL     OW25045   3.066   2.788  10.934  0.1147 -0.2579  0.7183
 4470SOL    HW125046   2.997   2.766  10.996  1.1358 -2.6047  1.0263
 4470SOL    HW225047   3.134   2.786  11.002  1.1843 -0.1116 -0.3377
 4471SOL     OW25048   2.893   0.311   1.988 -0.0349 -0.6031 -0.0791
 4471SOL    HW125049   2.861   0.344   2.072 -0.6194 -0.0120 -0.5355
 4471SOL    HW225050   2.987   0.320   2.005 -0.6066 -0.8038  3.2621
 4472SOL     OW25051   3.051   4.625   5.585 -0.0825 -0.2507  0.0457
 4472SOL    HW125052   2.990   4.597   5.654 -2.0080  1.4167 -0.9559
 4472SOL    HW225053   2.995   4.682   5.531 -0.3531 -0.3460  0.2244
 4473SOL     OW25054   1.140   1.436  17.317  0.4364 -0.0022  0.3389
 4473SOL    HW125055   1.075   1.460  17.383  1.2566  0.5222  0.9651
 4473SOL    HW225056   1.209   1.495  17.348  1.3313 -1.4845  1.1394
 4474SOL     OW25057   4.013   1.821   9.242 -0.1589 -0.1840  0.6723
 4474SOL    HW125058   3.953   1.856   9.308  0.1824 -0.6735  1.2414
 4474SOL    HW225059   3.964   1.748   9.203  1.1683  0.5331 -2.2767
 4475SOL     OW25060   1.345   1.213   1.920  0.3924 -0.0942 -0.1184
 4475SOL    HW125061   1.357   1.141   1.982 -1.5905 -1.0611 -0.8338
 4475SOL    HW225062   1.433   1.251   1.912  0.9641 -1.4399 -0.2055
 4476SOL     OW25063   3.716   0.337   4.122  0.1495 -0.1149  0.1579
 4476SOL    HW125064   3.779   0.368   4.187  1.0453 -0.3863 -0.5829
 4476SOL    HW225065   3.777   0.284   4.071  0.4588 -0.9247  1.3874
 4477SOL     OW25066   2.214   1.680   9.534  0.4930 -0.9468  0.4530
 4477SOL    HW125067   2.238   1.627   9.458  1.2269  1.1656 -0.8119
 4477SOL    HW225068   2.134   1.638   9.565  1.1113 -1.5993  1.1566
 4478SOL     OW25069   0.258   4.701   2.039 -0.3533  0.2664 -0.1768
 4478SOL    HW125070   0.249   0.032   2.106  2.2113 -0.3593  0.7973
 4478SOL    HW225071   0.270   4.619   2.087  2.2080  1.1867  0.7475
 4479SOL     OW25072   2.314   0.590   3.223 -0.0584  0.1026 -0.0700
 4479SOL    HW125073   2.278   0.679   3.224 -1.1765 -0.3295 -1.2180
 4479SOL    HW225074   2.253   0.543   3.166  0.1689 -1.0551  0.6359
 4480SOL     OW25075   0.447   3.770  16.350  0.1361 -0.7900  0.2022
 4480SOL    HW125076   0.426   3.676  16.352  0.1752 -0.8227 -1.8821
 4480SOL    HW225077   0.531   3.775  16.396  1.1221 -0.2102 -1.6848
 4481SOL     OW25078   0.301   3.619   7.549 -0.3601  0.2203  0.3984
 4481SOL    HW125079   0.387   3.617   7.508 -0.1104  2.2973  0.8222
 4481SOL    HW225080   0.319   3.601   7.642 -0.7879  2.0201  0.8403
 4482SOL     OW25081   2.618   1.195  13.228  0.1050  0.4259 -0.0790
 4482SOL    HW125082   2.530   1.192  13.190 -0.1914 -3.5496  0.8820
 4482SOL    HW225083   2.632   1.101  13.238  0.9883  0.5571 -0.0982
 4483SOL     OW25084   3.882   2.287   7.220 -0.6694 -0.0852  0.3874
 4483SOL    HW125085   3.879   2.212   7.161  1.3721 -0.0431  0.2516
 4483SOL    HW225086   3.970   2.288   7.256  0.4110  0.1410 -2.2917
 4484SOL     OW25087   0.439   0.163   8.102 -0.7340  0.1922  0.1292
 4484SOL    HW125088   0.506   0.222   8.066  0.4019 -0.0269  1.9063
 4484SOL    HW225089   0.364   0.205   8.058 -1.2147 -2.1576 -1.2833
 4485SOL     OW25090   3.926   2.226   8.983 -0.3080 -0.1902  0.1804
 4485SOL    HW125091   4.013   2.226   9.023 -1.1254  0.8679  1.9728
 4485SOL    HW225092   3.940   2.256   8.893  2.0475 -0.5851  0.4126
 4486SOL     OW25093   3.187   2.830   3.778 -0.6347 -0.2314 -0.0301
 4486SOL    HW125094   3.182   2.905   3.720 -0.1032  0.3587  0.6899
 4486SOL    HW225095   3.172   2.753   3.723 -0.0159 -1.5144  1.5798
 4487SOL     OW25096   2.005   0.060   7.377 -0.0402  0.9165 -0.1139
 4487SOL    HW125097   2.045   0.094   7.457 -2.6852 -1.3237  2.1608
 4487SOL    HW225098   1.917   0.098   7.379  0.0116  1.1347 -2.1312
 4488SOL     OW25099   3.510   3.503   8.628 -0.2542 -0.6178 -0.0808
 4488SOL    HW125100   3.602   3.479   8.620 -0.8191 -2.5281 -0.8598
 4488SOL    HW225101   3.518   3.598   8.638 -0.9973 -0.6939  1.3069
 4489SOL     OW25102   2.185   3.525   7.586  0.9299 -0.0138 -0.3082
 4489SOL    HW125103   2.119   3.457   7.601 -0.1288  1.0830 -0.0602
 4489SOL    HW225104   2.240   3.475   7.525 -0.4310  0.0962 -1.6281
 4490SOL     OW25105   0.820   4.682  14.628  0.7424 -0.2616  0.1918
 4490SOL    HW125106   0.878   4.735  14.574  0.4177 -0.2985 -0.1935
 4490SOL    HW225107   0.787   4.632  14.553  2.7045 -1.2884  0.0084
 4491SOL     OW25108   2.870   0.893   4.885 -0.5475  0.3819  0.4562
 4491SOL    HW125109   2.915   0.960   4.936  2.0951 -1.0806  0.0529
 4491SOL    HW225110   2.911   0.816   4.924  0.3623 -0.0795 -1.4274
 4492SOL     OW25111   1.978   0.863   7.794 -0.4521  0.1872  0.1188
 4492SOL    HW125112   1.979   0.958   7.796  1.8136  0.1608 -0.3802
 4492SOL    HW225113   1.947   0.850   7.883 -1.3320 -0.1487 -0.2311
 4493SOL     OW25114   1.277   1.413   8.159  0.3903  0.1844  0.5886
 4493SOL    HW125115   1.244   1.429   8.247 -0.0142  1.0775  0.2754
 4493SOL    HW225116   1.311   1.324   8.164  2.0403  0.6815 -2.0446
 4494SOL     OW25117   1.493   0.513   7.237 -0.1118  0.2472  0.4943
 4494SOL    HW125118   1.403   0.489   7.212 -0.1119 -1.2746  1.9401
 4494SOL    HW225119   1.504   0.494   7.331  2.4043 -0.1502  0.1071
 4495SOL     OW25120   3.005   2.507   8.006 -0.5648 -0.1831  0.1387
 4495SOL    HW125121   3.046   2.534   8.088 -0.5937  1.8068 -0.5014
 4495SOL    HW225122   3.080   2.473   7.957  0.7830  1.6289  0.9811
 4496SOL     OW25123   1.511   0.990   9.360  0.2661 -0.8650  0.2367
 4496SOL    HW125124   1.560   0.926   9.310  1.5292 -0.4541  0.9620
 4496SOL    HW225125   1.558   1.073   9.347 -1.5867  0.2870  0.8390
 4497SOL     OW25126   0.258   3.583   3.795 -0.5137  0.4380  0.6050
 4497SOL    HW125127   0.314   3.656   3.822 -0.2056  0.7489 -0.8855
 4497SOL    HW225128   0.203   3.573   3.873 -0.7131  0.5868  0.4847
 4498SOL     OW25129   2.942   4.148   5.134 -0.0668  0.4938 -0.0600
 4498SOL    HW125130   2.944   4.241   5.156 -2.6051  0.3196  0.9615
 4498SOL    HW225131   3.011   4.115   5.191 -0.4748 -0.7010 -0.2632
 4499SOL     OW25132   0.563   1.535   6.844  0.2870  0.5493 -0.1969
 4499SOL    HW125133   0.552   1.599   6.914  1.2696 -2.3503  2.6293
 4499SOL    HW225134   0.627   1.479   6.890 -0.2228  0.4900  0.4402
 4500SOL     OW25135   2.436   2.002   4.934 -0.0195  0.3523  0.5493
 4500SOL    HW125136   2.393   2.043   4.859  0.3764 -0.4330 -0.1192
 4500SOL    HW225137   2.367   1.942   4.961 -0.1845  1.2189  1.9939
 4501SOL     OW25138   2.647   2.299  10.933 -0.0433 -0.0344 -0.2807
 4501SOL    HW125139   2.609   2.379  10.969  3.1658  1.2348  0.1983
 4501SOL    HW225140   2.715   2.326  10.872  0.1401 -0.3723 -0.2267
 4502SOL     OW25141   3.029   3.481  13.172 -0.4011  0.2974  0.3199
 4502SOL    HW125142   2.974   3.546  13.216 -0.4893  0.3289  0.1620
 4502SOL    HW225143   3.109   3.483  13.225 -0.9736 -1.0995  1.2095
 4503SOL     OW25144   1.764   1.795   3.624  0.3871 -0.2053  0.0671
 4503SOL    HW125145   1.831   1.749   3.675  0.1546 -0.2695  0.3148
 4503SOL    HW225146   1.705   1.723   3.601 -0.4892  1.3299 -2.3976
 4504SOL     OW25147   1.126   1.343  15.600 -0.0934  0.0239  0.0916
 4504SOL    HW125148   1.161   1.324  15.687  1.5227  0.9677 -0.3572
 4504SOL    HW225149   1.061   1.404  15.636  1.8642  2.1263  0.0149
 4505SOL     OW25150   3.082   1.887   9.827  0.0952  0.4592  0.3410
 4505SOL    HW125151   3.036   1.886   9.910 -1.0259 -2.1435 -0.3309
 4505SOL    HW225152   3.169   1.894   9.866 -1.0438 -0.7487  3.0247
 4506SOL     OW25153   3.676   3.350   0.930 -0.5917 -0.2558  0.1632
 4506SOL    HW125154   3.708   3.273   0.884  4.9965  0.7441  2.3516
 4506SOL    HW225155   3.583   3.331   0.928 -0.4303 -0.9987 -0.1560
 4507SOL     OW25156   4.691   1.836   6.724  0.3013  0.3857  0.2605
 4507SOL    HW125157   0.035   1.842   6.776 -0.2772 -1.6028  1.3728
 4507SOL    HW225158   4.638   1.840   6.804 -3.0056  1.2143 -1.9662
 4508SOL     OW25159   2.214   4.160  15.172 -0.3094 -0.1718  0.4173
 4508SOL    HW125160   2.286   4.202  15.123 -0.2593 -0.9594 -0.1735
 4508SOL    HW225161   2.174   4.228  15.227 -0.2979  1.7886 -2.0036
 4509SOL     OW25162   3.040   3.559   0.881 -0.3805 -0.2585  0.2168
 4509SOL    HW125163   3.117   3.616   0.882 -1.6953  1.5210 -0.5931
 4509SOL    HW225164   2.996   3.595   0.804  1.5882  0.4857 -0.5653
 4510SOL     OW25165   2.320   2.280   6.277 -0.4309 -0.6881  0.3720
 4510SOL    HW125166   2.378   2.227   6.222  0.7055  1.1290 -0.1817
 4510SOL    HW225167   2.257   2.309   6.211  1.2863  1.4259 -0.3172
 4511SOL     OW25168   2.664   2.670  14.849  0.2289  0.3312 -0.3838
 4511SOL    HW125169   2.574   2.644  14.865  1.0636 -1.4952  1.3955
 4511SOL    HW225170   2.705   2.591  14.814  0.5008  0.2226  0.1701
 4512SOL     OW25171   2.589   3.058   6.279  0.2117 -0.4223  0.4767
 4512SOL    HW125172   2.571   2.979   6.228 -1.4480  0.6447 -0.5778
 4512SOL    HW225173   2.501   3.095   6.271 -0.1898 -1.4800 -0.0934
 4513SOL     OW25174   1.139   0.345  10.965  0.5745 -0.0651 -0.3147
 4513SOL    HW125175   1.224   0.339  10.923  0.1714 -1.8048 -0.8713
 4513SOL    HW225176   1.163   0.367  11.055 -2.1308  2.4237 -0.1880
 4514SOL     OW25177   3.465   4.329   1.203 -0.2811  0.1876  0.4642
 4514SOL    HW125178   3.475   4.236   1.186 -0.4906  0.4643 -1.1705
 4514SOL    HW225179   3.512   4.366   1.128 -1.0362  1.8726  0.8062
 4515SOL     OW25180   3.123   0.349   2.149 -0.0794 -0.4022 -0.3866
 4515SOL    HW125181   3.139   0.261   2.117 -0.7700  0.1474 -2.2602
 4515SOL    HW225182   3.128   0.332   2.243  0.0272  1.4523 -0.0466
 4516SOL     OW25183   1.453   0.427   6.549 -0.1477 -0.0449  0.3416
 4516SOL    HW125184   1.510   0.453   6.477 -0.1254  0.4329  0.5319
 4516SOL    HW225185   1.374   0.455   6.504 -1.6489 -1.3741  2.0884
 4517SOL     OW25186   1.687   2.374   4.287  0.0725  0.4508 -0.1493
 4517SOL    HW125187   1.646   2.320   4.355 -0.2417  3.4957  2.0968
 4517SOL    HW225188   1.726   2.448   4.334 -2.5710  2.3370 -0.8947
 4518SOL     OW25189   3.807   2.155   9.191 -0.1884 -0.1028 -0.1787
 4518SOL    HW125190   3.841   2.188   9.107 -0.1734  1.0681  0.2993
 4518SOL    HW225191   3.737   2.216   9.212 -1.1468 -1.6079  0.9352
 4519SOL     OW25192   0.696   1.911   6.332  0.1048  0.3202 -0.3608
 4519SOL    HW125193   0.634   1.946   6.395 -0.6964 -2.2786  0.2971
 4519SOL    HW225194   0.736   1.839   6.381  1.0552  0.3460 -1.0726
 4520SOL     OW25195   1.173   4.256   7.879 -0.1771 -0.5757 -0.1241
 4520SOL    HW125196   1.133   4.247   7.792  1.7802  1.4532 -1.2202
 4520SOL    HW225197   1.231   4.331   7.869  0.5758 -1.1880 -0.3565
 4521SOL     OW25198   1.542   2.393   9.302  0.6061 -0.4372  0.1393
 4521SOL    HW125199   1.569   2.466   9.358  3.6909 -1.6802  0.2551
 4521SOL    HW225200   1.613   2.390   9.238  0.6134 -1.3461  0.1965
 4522SOL     OW25201   0.051   0.873   8.555  0.3759  0.0905 -0.3792
 4522SOL    HW125202   0.110   0.929   8.604 -0.1952  0.4046 -0.0490
 4522SOL    HW225203   4.701   0.899   8.587 -0.0720 -0.9658 -0.7208
 4523SOL     OW25204   0.587   0.327   1.726  0.1197 -0.1173  0.0178
 4523SOL    HW125205   0.671   0.372   1.741  1.3903 -1.1273 -3.9881
 4523SOL    HW225206   0.616   0.235   1.728 -1.3850 -0.5825  0.3607
 4524SOL     OW25207   3.775   2.811   9.980 -0.5082  0.1980 -0.1228
 4524SOL    HW125208   3.708   2.876   9.960  1.8235  1.8539 -2.4846
 4524SOL    HW225209   3.719   2.735  10.000  1.3502 -1.2130 -0.2831
 4525SOL     OW25210   2.554   2.130   4.620  0.0982  0.7504  0.4022
 4525SOL    HW125211   2.527   2.206   4.673 -0.4558 -0.3781  1.7341
 4525SOL    HW225212   2.511   2.153   4.537  0.2822 -0.2052  0.0494
 4526SOL     OW25213   2.866   3.454   3.626 -0.0622 -0.0689 -0.0744
 4526SOL    HW125214   2.854   3.402   3.705  1.3400 -1.1956 -0.6159
 4526SOL    HW225215   2.778   3.446   3.590  0.2816 -0.9489 -0.6955
 4527SOL     OW25216   3.621   3.683   0.235  0.4495  0.6341  0.4956
 4527SOL    HW125217   3.585   3.760   0.192  0.7477  1.3389  1.5056
 4527SOL    HW225218   3.696   3.725   0.278 -0.7921  0.9412  2.3670
 4528SOL     OW25219   1.221   0.436  11.941 -0.6376 -0.5748  0.2998
 4528SOL    HW125220   1.250   0.350  11.970  0.8650  0.4811  1.9476
 4528SOL    HW225221   1.126   0.437  11.950 -0.9213 -2.7539 -2.6278
 4529SOL     OW25222   3.241   2.447   7.868 -0.0000  0.3398  0.0368
 4529SOL    HW125223   3.308   2.392   7.910 -2.3572 -0.4789  2.7412
 4529SOL    HW225224   3.281   2.534   7.868  0.8167 -0.0277 -0.1569
 4530SOL     OW25225   2.884   1.654  11.285 -0.2498 -0.0621  0.3743
 4530SOL    HW125226   2.805   1.607  11.258 -1.1789  0.4317  2.2347
 4530SOL    HW225227   2.894   1.718  11.215  3.1846  1.5005  2.2951
 4531SOL     OW25228   2.466   1.923  15.378  0.5790 -0.6652 -0.3795
 4531SOL    HW125229   2.525   1.928  15.454  0.3295 -2.5208 -0.0693
 4531SOL    HW225230   2.529   1.900  15.309  1.4157  0.5881 -0.0415
 4532SOL     OW25231   1.860   1.137   9.495 -0.1695 -0.4302 -0.3601
 4532SOL    HW125232   1.906   1.220   9.478  0.5333 -0.9018 -0.7693
 4532SOL    HW225233   1.932   1.074   9.503  1.0610  0.8626 -1.1727
 4533SOL     OW25234   2.135   3.102   7.969 -0.5661  0.5754  0.3661
 4533SOL    HW125235   2.066   3.036   7.967 -2.4714  2.5830  0.0951
 4533SOL    HW225236   2.107   3.159   7.897  1.3993 -0.3668 -1.1373
 4534SOL     OW25237   3.895   3.536  17.446  0.1592 -0.4510  0.0319
 4534SOL    HW125238   3.965   3.487  17.489 -0.6061 -2.2863 -0.7751
 4534SOL    HW225239   3.843   3.555  17.524  1.1507 -2.2417  1.1336
 4535SOL     OW25240   4.095   2.741   2.906 -0.0015  0.0793 -0.2185
 4535SOL    HW125241   4.118   2.807   2.841 -3.3129  0.2879 -1.1552
 4535SOL    HW225242   4.018   2.780   2.948 -1.2893 -2.6311 -0.0189
 4536SOL     OW25243   1.680   0.671  10.804 -0.0133 -0.0544 -0.2664
 4536SOL    HW125244   1.728   0.630  10.876  1.2841  2.7316  0.4553
 4536SOL    HW225245   1.602   0.692  10.855 -0.0699 -1.4721  0.2260
 4537SOL     OW25246   1.812   2.492   8.813  0.7612  0.4052 -0.2051
 4537SOL    HW125247   1.863   2.571   8.797  1.5924  0.0880  0.8217
 4537SOL    HW225248   1.752   2.505   8.740  0.0912 -0.1263  0.2474
 4538SOL     OW25249   4.592   3.092   4.236  0.7126 -0.0096 -0.7063
 4538SOL    HW125250   4.566   3.046   4.316  2.9840  0.9955  0.5913
 4538SOL    HW225251   4.507   3.115   4.198  1.5164  0.8876 -1.9413
 4539SOL     OW25252   2.680   2.478  16.286 -0.2332  0.1515 -0.1444
 4539SOL    HW125253   2.727   2.427  16.352 -1.3265 -0.9272 -0.1905
 4539SOL    HW225254   2.733   2.456  16.209 -1.9209  0.8121 -1.5065
 4540SOL     OW25255   1.440   4.666   8.253 -0.4797  0.5489 -0.0472
 4540SOL    HW125256   1.489   4.603   8.306 -0.0909  0.9485  0.0594
 4540SOL    HW225257   1.406   4.706   8.333 -4.5614 -1.6470 -0.6574
 4541SOL     OW25258   0.702   0.048   6.260 -0.3458 -0.0091  0.1188
 4541SOL    HW125259   0.685   0.072   6.351  0.9500  0.9680  0.0959
 4541SOL    HW225260   0.666   0.120   6.208 -2.3146  0.6611  2.4176
 4542SOL     OW25261   3.579   1.154   3.589  0.0508  0.0852 -0.3048
 4542SOL    HW125262   3.637   1.086   3.624  0.0560 -0.2223 -0.9163
 4542SOL    HW225263   3.558   1.200   3.671 -0.4278 -1.6810  0.5545
 4543SOL     OW25264   3.313   1.937   2.856  0.0390 -0.4742  0.3257
 4543SOL    HW125265   3.245   1.966   2.917 -0.2348  1.1282 -0.7451
 4543SOL    HW225266   3.314   2.016   2.801  1.9273 -0.7716 -0.0515
 4544SOL     OW25267   4.556   1.145   4.962  0.0517 -0.4179 -0.0260
 4544SOL    HW125268   4.479   1.102   4.924 -0.9361  2.6034 -1.3966
 4544SOL    HW225269   4.619   1.081   4.927 -1.5301 -2.3495  0.6484
 4545SOL     OW25270   0.833   0.240   7.975  0.3003 -0.0292 -0.1114
 4545SOL    HW125271   0.756   0.286   8.009  2.4422  0.4592  4.0118
 4545SOL    HW225272   0.899   0.254   8.042  1.1578 -0.0841 -0.9449
 4546SOL     OW25273   4.227   3.868  14.705 -0.5962 -0.1158 -0.2212
 4546SOL    HW125274   4.170   3.802  14.666  1.9352 -1.7422 -1.1498
 4546SOL    HW225275   4.168   3.916  14.764  0.1181 -1.2404  1.4299
 4547SOL     OW25276   2.474   0.523   6.908 -0.3354 -0.8509 -0.6744
 4547SOL    HW125277   2.489   0.552   6.818 -2.8216  2.1332 -0.1380
 4547SOL    HW225278   2.541   0.457   6.923 -0.0051 -0.3215  0.1739
 4548SOL     OW25279   3.077   3.720   4.815  0.1826  0.2082 -0.3589
 4548SOL    HW125280   2.998   3.669   4.833 -0.9324  1.2710 -2.2913
 4548SOL    HW225281   3.070   3.723   4.720 -0.4717 -0.5361 -0.3307
 4549SOL     OW25282   4.037   3.517   2.133 -0.6053  0.0844  0.1002
 4549SOL    HW125283   4.058   3.508   2.226 -2.1772 -2.4097  0.2032
 4549SOL    HW225284   4.069   3.434   2.098  1.5550  1.4006 -1.0484
 4550SOL     OW25285   1.614   2.642   3.879 -0.4093 -0.7603  0.1163
 4550SOL    HW125286   1.584   2.605   3.796 -0.0920 -0.5300 -0.1048
 4550SOL    HW225287   1.551   2.620   3.947 -0.0918  0.0560  0.6825
 4551SOL     OW25288   1.976   4.378  17.456  0.0374 -0.3228  0.1508
 4551SOL    HW125289   2.025   4.422  17.526  1.2639  0.8897 -1.4504
 4551SOL    HW225290   2.016   4.410  17.375 -2.0843  2.7943  0.2972
 4552SOL     OW25291   3.946   4.381   5.411 -0.2313  0.0086  0.1552
 4552SOL    HW125292   3.959   4.335   5.327 -0.1549 -0.4171  0.3987
 4552SOL    HW225293   3.915   4.466   5.379  1.2896  0.1428 -0.9319
 4553SOL     OW25294   0.011   3.137  13.850 -0.3566  0.2588  0.0520
 4553SOL    HW125295   0.033   3.122  13.942  1.4993  1.5257 -0.1917
 4553SOL    HW225296   4.673   3.197  13.848 -0.6219 -0.0542  0.6213
 4554SOL     OW25297   4.146   2.476   4.360  0.0014  0.8700 -0.2350
 4554SOL    HW125298   4.229   2.476   4.407 -0.2358 -2.4994  0.1696
 4554SOL    HW225299   4.182   2.533   4.292  0.0158  1.1048 -0.0300
 4555SOL     OW25300   3.526   4.097  11.350 -0.5920 -0.1972  0.4671
 4555SOL    HW125301   3.614   4.111  11.314 -0.3327  1.6287  1.8006
 4555SOL    HW225302   3.492   4.185  11.335  0.3848  0.0985 -0.0746
 4556SOL     OW25303   1.897   0.085   5.112 -0.5015 -0.0589  0.0485
 4556SOL    HW125304   1.835   0.028   5.157  0.7685 -0.8746  0.7591
 4556SOL    HW225305   1.888   0.172   5.150 -0.2027  0.6342 -1.4672
 4557SOL     OW25306   0.772   0.463   3.799 -0.0378 -0.2433 -0.4089
 4557SOL    HW125307   0.764   0.392   3.737 -0.3833 -0.0814 -0.5490
 4557SOL    HW225308   0.783   0.533   3.735 -2.2393 -0.0173 -0.5303
 4558SOL     OW25309   4.415   4.675   5.657 -0.1516  0.4524  0.0724
 4558SOL    HW125310   4.340   4.684   5.715 -0.2578  0.5782 -0.0829
 4558SOL    HW225311   4.457   0.024   5.666 -0.1664  0.3690  0.8896
 4559SOL     OW25312   0.042   0.341   2.023  0.4728  0.5674  0.2682
 4559SOL    HW125313   4.714   0.402   2.060 -1.4565  0.1743 -2.4300
 4559SOL    HW225314   4.727   0.317   1.946  1.2112 -0.7608  0.1835
 4560SOL     OW25315   0.531   0.514   7.666  0.1728  0.0610  0.2275
 4560SOL    HW125316   0.619   0.543   7.690 -0.3106  0.8426  1.0707
 4560SOL    HW225317   0.490   0.594   7.699  2.7192  1.1805  0.6566
 4561SOL     OW25318   3.520   0.964   3.220  0.5583 -0.3769  0.2754
 4561SOL    HW125319   3.424   0.963   3.224  0.5269  0.3257 -0.3709
 4561SOL    HW225320   3.538   1.053   3.249  2.0732 -0.2705 -1.0115
 4562SOL     OW25321   2.513   3.459   4.409 -0.5438 -0.5180 -0.1216
 4562SOL    HW125322   2.461   3.404   4.351 -3.1260  0.3700  1.3820
 4562SOL    HW225323   2.472   3.439   4.493 -1.3229  0.6714 -0.2226
 4563SOL     OW25324   3.480   2.410   7.043  0.2216 -0.3352  0.3156
 4563SOL    HW125325   3.549   2.425   7.107  2.0791  1.3545 -2.0951
 4563SOL    HW225326   3.478   2.314   7.042 -0.2634 -0.3159 -0.9328
 4564SOL     OW25327   0.047   0.426  10.545  0.4232 -0.0338  0.2047
 4564SOL    HW125328   0.005   0.348  10.508 -1.2618  0.7714  0.4369
 4564SOL    HW225329   4.730   0.498  10.514 -0.7691 -1.0197 -0.0224
 4565SOL     OW25330   1.234   0.710  11.995  0.3443 -0.2753  0.3280
 4565SOL    HW125331   1.238   0.618  11.968  0.8040 -0.2677  0.3609
 4565SOL    HW225332   1.139   0.717  11.999  0.2721 -1.0647  0.0789
 4566SOL     OW25333   3.609   1.142  15.853 -0.3691  0.0185  0.1158
 4566SOL    HW125334   3.586   1.214  15.911 -0.6981 -0.9075  1.1342
 4566SOL    HW225335   3.536   1.137  15.792 -0.8042  1.2350  0.5342
 4567SOL     OW25336   2.433   2.523   1.385  0.2040 -0.3367 -0.1470
 4567SOL    HW125337   2.458   2.534   1.477 -2.4264  0.5905  0.4551
 4567SOL    HW225338   2.468   2.602   1.345 -0.6802  0.0045 -0.2314
 4568SOL     OW25339   0.365   0.920  17.484  0.6244 -0.1874  0.4439
 4568SOL    HW125340   0.362   1.012  17.457  1.3653 -0.3257 -0.0932
 4568SOL    HW225341   0.374   0.885  17.396  1.3836 -0.8514  0.7842
 4569SOL     OW25342   0.969   1.080   3.630 -0.3471  0.5211  0.2560
 4569SOL    HW125343   0.913   1.077   3.707  1.1366  0.6051  1.3434
 4569SOL    HW225344   0.902   1.067   3.563  0.0799  3.1884 -0.6657
 4570SOL     OW25345   4.230   1.048   3.236 -0.5905  0.6710  0.3621
 4570SOL    HW125346   4.219   1.042   3.142 -0.3081 -0.6753  0.4180
 4570SOL    HW225347   4.313   1.003   3.245  0.0435  1.6002 -0.8387
 4571SOL     OW25348   3.289   0.369  12.500  0.1308  0.3211  0.2720
 4571SOL    HW125349   3.273   0.407  12.413 -0.9743 -1.3796 -0.2641
 4571SOL    HW225350   3.211   0.402  12.544  0.4761 -0.0813  1.1790
 4572SOL     OW25351   3.078   3.106   9.376  0.3374  0.4788  0.0785
 4572SOL    HW125352   3.021   3.072   9.308 -0.7896 -2.5166  2.5203
 4572SOL    HW225353   3.023   3.111   9.455 -0.5454 -1.8226 -0.4032
 4573SOL     OW25354   4.583   2.679  10.188 -1.1790 -0.0894 -0.6153
 4573SOL    HW125355   4.542   2.757  10.225  0.5443  0.2035  0.6623
 4573SOL    HW225356   4.510   2.617  10.191 -0.3854 -0.9433  0.7116
 4574SOL     OW25357   2.819   3.189  11.364 -0.2947  0.5920 -0.2575
 4574SOL    HW125358   2.816   3.094  11.356 -1.2745  0.4674  1.5859
 4574SOL    HW225359   2.755   3.203  11.294 -0.4083 -1.2909 -0.5239
 4575SOL     OW25360   0.009   1.312   3.143 -0.0893 -0.0780 -0.1663
 4575SOL    HW125361   4.651   1.328   3.144 -0.0418  0.1607  0.5325
 4575SOL    HW225362   0.011   1.242   3.078  1.2326 -0.6832  0.5193
 4576SOL     OW25363   4.474   3.762  12.228 -0.0125 -0.0414  0.1840
 4576SOL    HW125364   4.500   3.670  12.237  0.0167  0.0991  1.5767
 4576SOL    HW225365   4.508   3.796  12.311  0.6587 -0.0550 -0.0861
 4577SOL     OW25366   1.904   2.072   4.925 -0.2938 -0.0265 -0.4924
 4577SOL    HW125367   1.869   2.014   4.857 -1.5318 -0.2590  0.3362
 4577SOL    HW225368   1.866   2.155   4.894 -1.4601 -0.4123 -0.1257
 4578SOL     OW25369   1.547   0.236   6.223  0.1488 -0.1183 -0.5494
 4578SOL    HW125370   1.556   0.331   6.211  0.0978 -0.2294 -1.4909
 4578SOL    HW225371   1.562   0.207   6.133  0.9645  0.1860 -0.5158
 4579SOL     OW25372   3.833   3.487  14.547  0.3970  0.1627  0.3101
 4579SOL    HW125373   3.765   3.532  14.496 -0.6369 -2.0276 -0.2527
 4579SOL    HW225374   3.779   3.461  14.622  0.0577 -0.7256 -0.2356
 4580SOL     OW25375   1.958   1.029   8.872 -0.5481  0.2803 -0.2452
 4580SOL    HW125376   1.940   1.096   8.938 -2.2783  0.3687 -0.7948
 4580SOL    HW225377   1.981   0.951   8.923 -0.6174  0.1201 -0.4583
 4581SOL     OW25378   0.923   3.221   3.429 -0.6771 -0.0570  0.1277
 4581SOL    HW125379   0.832   3.221   3.461 -0.9600  3.2965 -0.7434
 4581SOL    HW225380   0.909   3.268   3.347  2.1640 -0.6934 -0.7223
 4582SOL     OW25381   4.416   4.437   0.007  0.0192  0.2179  0.1184
 4582SOL    HW125382   4.497   4.407  17.710 -1.5165 -1.4840 -1.7078
 4582SOL    HW225383   4.420   4.383   0.085  0.8170  1.4742  0.9455
 4583SOL     OW25384   0.281   0.376   2.133  0.2359  0.5691  0.3750
 4583SOL    HW125385   0.339   0.411   2.065 -0.3458  0.5061 -0.1528
 4583SOL    HW225386   0.199   0.368   2.084 -1.1480  0.1744  2.7316
 4584SOL     OW25387   4.234   1.632  11.684  0.5058 -0.5626  0.0396
 4584SOL    HW125388   4.270   1.621  11.596 -2.0901 -2.1972 -0.8111
 4584SOL    HW225389   4.233   1.728  11.686 -0.8982 -0.5398 -2.0923
 4585SOL     OW25390   2.006   2.652  14.410  0.1838 -0.4289  0.6453
 4585SOL    HW125391   2.027   2.630  14.319 -2.1454 -0.0995  0.0012
 4585SOL    HW225392   2.095   2.664  14.443  1.1211  0.5490 -2.2170
 4586SOL     OW25393   3.353   3.926   7.362  0.5369 -0.7521 -0.2136
 4586SOL    HW125394   3.306   3.843   7.368  0.6737 -0.8819 -0.9198
 4586SOL    HW225395   3.437   3.922   7.406 -0.8257 -0.2442  2.4491
 4587SOL     OW25396   3.338   3.536   6.112 -0.1281 -0.2938  0.3788
 4587SOL    HW125397   3.277   3.467   6.139  0.5228 -0.6931  0.8543
 4587SOL    HW225398   3.409   3.471   6.112 -0.0647 -0.1818 -4.4172
 4588SOL     OW25399   1.359   3.117   3.683 -0.2968 -0.2407 -0.0875
 4588SOL    HW125400   1.446   3.076   3.683 -0.3939 -0.4452 -0.8704
 4588SOL    HW225401   1.359   3.184   3.751  0.2457  0.4025 -0.7242
 4589SOL     OW25402   4.337   1.891   2.075 -0.8084  0.3214  0.4572
 4589SOL    HW125403   4.387   1.893   1.994  0.6149 -2.0213  1.2692
 4589SOL    HW225404   4.394   1.840   2.132  1.9235 -0.0299 -2.6056
 4590SOL     OW25405   1.274   0.188   2.044 -0.5217  0.2631  0.6529
 4590SOL    HW125406   1.293   0.241   1.967 -1.0816 -0.2918  0.1365
 4590SOL    HW225407   1.368   0.167   2.041 -1.0407 -2.1486  1.3311
 4591SOL     OW25408   3.832   4.084   4.910 -0.1355  0.6955 -0.1120
 4591SOL    HW125409   3.921   4.054   4.893 -0.1014  0.5082  0.3758
 4591SOL    HW225410   3.845   4.173   4.945  1.0332  0.9944 -1.2846
 4592SOL     OW25411   0.826   3.731  10.754  0.1305  0.1241  0.1979
 4592SOL    HW125412   0.740   3.726  10.712 -0.2202 -2.5663  1.2979
 4592SOL    HW225413   0.851   3.818  10.722  2.2847 -1.1279 -1.4914
 4593SOL     OW25414   3.918   0.214   4.859  0.6460  0.0421  1.0575
 4593SOL    HW125415   3.935   0.261   4.778 -0.1855 -2.8680 -0.8183
 4593SOL    HW225416   3.855   0.273   4.900  1.8411  0.4435  2.3056
 4594SOL     OW25417   4.332   1.837   3.639 -0.1363 -0.8396 -0.3116
 4594SOL    HW125418   4.367   1.912   3.590 -2.6855 -0.2239 -1.2277
 4594SOL    HW225419   4.296   1.777   3.574 -1.2534 -2.2871  1.6531
 4595SOL     OW25420   2.129   3.051   5.902  0.2472  0.2051 -0.0091
 4595SOL    HW125421   2.208   3.023   5.947 -0.2823 -1.1275  0.0922
 4595SOL    HW225422   2.071   2.975   5.908 -0.2258  0.5590 -0.1671
 4596SOL     OW25423   1.437   3.466  17.706  0.0689  0.0831 -0.2185
 4596SOL    HW125424   1.481   3.471  17.621 -0.5062 -1.3102 -0.5847
 4596SOL    HW225425   1.355   3.421  17.685 -0.3511  0.2876  0.9678
 4597SOL     OW25426   3.139   0.361   5.280  0.1362  0.3575 -0.8258
 4597SOL    HW125427   3.188   0.349   5.362 -0.5179  1.9609 -0.2045
 4597SOL    HW225428   3.051   0.352   5.317  0.5676 -0.2845  0.0543
 4598SOL     OW25429   2.300   4.582   6.432 -0.4938  0.6215 -0.6203
 4598SOL    HW125430   2.364   4.609   6.497 -2.1382  1.6671  0.5528
 4598SOL    HW225431   2.266   4.505   6.478  0.3558 -1.2033 -3.0325
 4599SOL     OW25432   3.234   4.188  15.911 -0.2663  0.0301  0.1194
 4599SOL    HW125433   3.300   4.172  15.844  0.1958  0.6747  0.4169
 4599SOL    HW225434   3.152   4.189  15.862  0.3496  0.9917 -0.8792
 4600SOL     OW25435   1.930   3.572   4.939  0.1413  0.4095  0.5513
 4600SOL    HW125436   2.017   3.576   4.977  0.1868  2.3614  0.2508
 4600SOL    HW225437   1.889   3.599   5.021 -3.4144 -1.7882 -0.4931
 4601SOL     OW25438   3.447   0.304   7.680  0.1641  0.2686  0.1941
 4601SOL    HW125439   3.514   0.317   7.748  2.8152 -0.4712 -2.2686
 4601SOL    HW225440   3.401   0.232   7.723  1.7154 -1.3523 -0.8321
 4602SOL     OW25441   1.070   4.053   5.691  0.0444  0.4996 -0.0825
 4602SOL    HW125442   1.088   4.147   5.701 -2.2838  0.8091  1.3429
 4602SOL    HW225443   1.019   4.061   5.610 -1.4606 -0.3016  0.7798
 4603SOL     OW25444   3.236   0.736   5.244  0.1330 -0.0078 -0.3102
 4603SOL    HW125445   3.308   0.763   5.301 -0.0195 -0.0548 -0.0962
 4603SOL    HW225446   3.185   0.694   5.313  1.0704 -1.6517 -0.6209
 4604SOL     OW25447   4.388   0.147  10.050  0.4096  0.2462  0.6889
 4604SOL    HW125448   4.399   0.054  10.066  0.6749  0.1970  0.2268
 4604SOL    HW225449   4.349   0.156   9.962  2.1323  0.9899  0.0075
 4605SOL     OW25450   2.306   3.160  15.970  0.4728 -0.1175 -0.0129
 4605SOL    HW125451   2.389   3.188  16.008  1.1821 -1.7241 -0.3780
 4605SOL    HW225452   2.316   3.065  15.964  1.4128  0.1163 -2.2893
 4606SOL     OW25453   1.195   2.608   4.726  0.3857 -0.4842  0.2065
 4606SOL    HW125454   1.161   2.683   4.774  1.2206  0.4265 -0.6330
 4606SOL    HW225455   1.164   2.620   4.636  3.0605 -1.1694 -0.7988
 4607SOL     OW25456   3.652   0.930  17.284 -0.1294  0.5211  0.8994
 4607SOL    HW125457   3.609   0.903  17.203 -0.9254  0.3530  1.3861
 4607SOL    HW225458   3.670   1.023  17.270 -2.2225  0.5193 -1.5937
 4608SOL     OW25459   1.167   1.406   5.042  0.2604  0.0220  0.6345
 4608SOL    HW125460   1.233   1.460   5.085 -2.0319  2.7785  0.6112
 4608SOL    HW225461   1.085   1.455   5.038  0.8036  0.6224 -2.9560
 4609SOL     OW25462   0.439   0.117   1.299 -0.0673 -0.1644  0.3202
 4609SOL    HW125463   0.401   0.200   1.272  0.3279 -0.1580 -0.2088
 4609SOL    HW225464   0.374   0.074   1.355 -0.7711  1.5094  0.7711
 4610SOL     OW25465   0.518   4.137  15.047  0.6091  0.0620  0.4836
 4610SOL    HW125466   0.525   4.047  15.079  3.9726  0.4060  0.6671
 4610SOL    HW225467   0.527   4.183  15.131 -0.8389 -0.8193  1.1322
 4611SOL     OW25468   2.261   4.423   0.987 -0.0873  0.0572 -0.3576
 4611SOL    HW125469   2.334   4.432   0.926  1.2372  1.2539  1.4207
 4611SOL    HW225470   2.292   4.364   1.056  0.4977  0.4670 -0.2789
 4612SOL     OW25471   3.762   2.485   9.503 -0.4807 -0.5044  0.7082
 4612SOL    HW125472   3.701   2.411   9.497  0.5798 -1.2858 -0.3886
 4612SOL    HW225473   3.726   2.522   9.584 -0.6952  0.8511 -0.0001
 4613SOL     OW25474   0.413   2.692   6.735 -0.3596  0.0164 -0.5897
 4613SOL    HW125475   0.350   2.764   6.732 -0.5285 -0.1171 -0.3371
 4613SOL    HW225476   0.436   2.691   6.642 -1.7280  0.7282 -0.9285
 4614SOL     OW25477   2.447   2.867   7.150 -0.2182  0.1193  0.4090
 4614SOL    HW125478   2.450   2.864   7.245 -1.5616 -0.2341  0.4432
 4614SOL    HW225479   2.498   2.793   7.117  0.2848  0.5607  0.1863
 4615SOL     OW25480   4.541   3.780   3.639 -0.1018  0.1642  0.1760
 4615SOL    HW125481   4.461   3.786   3.691 -1.2971 -2.0452 -1.4074
 4615SOL    HW225482   4.591   3.706   3.675 -1.0328 -0.7729 -0.4387
 4616SOL     OW25483   2.346   1.876   6.102 -0.4993 -0.1630  0.1269
 4616SOL    HW125484   2.252   1.872   6.121 -0.2455  2.2753  2.0049
 4616SOL    HW225485   2.381   1.790   6.078  1.6993  1.5155 -2.7193
 4617SOL     OW25486   3.751   4.095   9.513 -0.2870  0.4113 -0.1478
 4617SOL    HW125487   3.734   4.008   9.549 -2.4571 -0.1219 -2.4845
 4617SOL    HW225488   3.844   4.086   9.494 -0.0564 -0.0885  1.2109
 4618SOL     OW25489   2.011   0.407   6.752  0.0126 -0.4051 -0.1947
 4618SOL    HW125490   1.952   0.475   6.721 -1.3957 -1.6214 -0.2332
 4618SOL    HW225491   2.075   0.463   6.795  1.0074 -1.0530 -0.8256
 4619SOL     OW25492   2.223   0.875   0.821 -0.1999 -0.1358 -0.2093
 4619SOL    HW125493   2.244   0.835   0.905 -3.2108 -0.7001  0.2727
 4619SOL    HW225494   2.313   0.878   0.786 -0.6100  0.0629 -1.2598
 4620SOL     OW25495   2.351   3.416   4.665 -0.0575 -0.0475  0.3720
 4620SOL    HW125496   2.261   3.448   4.659 -0.5148 -1.5985 -1.3512
 4620SOL    HW225497   2.339   3.321   4.676  0.9871 -0.0818  1.1453
 4621SOL     OW25498   2.690   1.920   3.974  0.3500 -0.2185  0.2983
 4621SOL    HW125499   2.680   1.862   4.049  0.3754 -1.1265 -0.3868
 4621SOL    HW225500   2.616   1.980   3.983  2.2097  2.1141 -0.2061
 4622SOL     OW25501   1.717   1.378   0.086  0.1522 -0.7773 -0.5395
 4622SOL    HW125502   1.733   1.363   0.179  2.6752 -3.2728 -1.3763
 4622SOL    HW225503   1.737   1.292   0.048 -3.3775 -0.7255 -2.5462
 4623SOL     OW25504   2.735   1.209   1.412 -0.1178  0.2776 -0.7403
 4623SOL    HW125505   2.786   1.146   1.463 -0.7196 -0.2500 -0.7967
 4623SOL    HW225506   2.658   1.158   1.387 -0.6750  1.3563 -1.2296
 4624SOL     OW25507   0.733   0.828  17.656  0.0988 -0.5438 -0.1519
 4624SOL    HW125508   0.784   0.766  17.604 -0.8469 -2.1445  0.8351
 4624SOL    HW225509   0.732   0.902  17.595 -0.7459 -0.3676  0.0728
 4625SOL     OW25510   3.996   1.440   8.055  0.3970  0.1053  0.1712
 4625SOL    HW125511   4.054   1.449   8.131  0.3611 -1.6756  0.4078
 4625SOL    HW225512   3.917   1.481   8.089  1.1291  0.3375  1.5871
 4626SOL     OW25513   2.437   3.667   3.700  0.1819  0.8825 -0.2900
 4626SOL    HW125514   2.387   3.749   3.702  2.4152  2.2346 -0.0599
 4626SOL    HW225515   2.500   3.680   3.630  2.1814  3.1037  1.9235
 4627SOL     OW25516   4.579   1.093   8.094  0.3415 -0.6044 -0.6652
 4627SOL    HW125517   4.608   1.033   8.162  0.9797  0.4506  0.0012
 4627SOL    HW225518   4.582   1.176   8.142 -0.0727 -1.2079  0.4018
 4628SOL     OW25519   0.866   3.141  16.709  0.0489 -0.0413 -0.2599
 4628SOL    HW125520   0.878   3.231  16.677  2.0816 -0.4604 -0.6996
 4628SOL    HW225521   0.786   3.117  16.662 -1.8147  2.9106  1.4276
 4629SOL     OW25522   4.582   0.275   8.512 -0.4528 -0.0651  0.1777
 4629SOL    HW125523   4.554   0.366   8.512 -0.0615  0.0645  2.2328
 4629SOL    HW225524   4.671   0.286   8.477 -0.8006  1.5236 -0.2017
 4630SOL     OW25525   4.158   3.485   6.875  0.2329  0.2932 -0.3563
 4630SOL    HW125526   4.103   3.492   6.953  1.9554 -0.3565  0.9080
 4630SOL    HW225527   4.159   3.577   6.850  1.0032  0.4591  0.2803
 4631SOL     OW25528   2.278   4.143   6.280 -0.4406 -0.4208 -0.2918
 4631SOL    HW125529   2.282   4.053   6.248  1.0263 -0.0759 -1.0598
 4631SOL    HW225530   2.366   4.162   6.311 -0.7166 -0.3806  0.4750
 4632SOL     OW25531   3.637   1.956   9.070 -0.2808 -0.4451 -0.1276
 4632SOL    HW125532   3.697   2.010   9.121 -2.1901  0.1108  1.5535
 4632SOL    HW225533   3.613   1.889   9.134 -4.2063  1.7257  0.6907
 4633SOL     OW25534   3.244   1.217   7.946 -0.3426  0.2110 -0.0877
 4633SOL    HW125535   3.304   1.242   7.875  0.3936  0.7676  0.7354
 4633SOL    HW225536   3.233   1.300   7.992  0.6804  0.3124 -0.0227
 4634SOL     OW25537   3.358   2.706   6.412  0.0301  0.1438  0.1872
 4634SOL    HW125538   3.333   2.647   6.483  1.3153 -1.8787 -1.0545
 4634SOL    HW225539   3.451   2.685   6.403  0.3591  0.9995  1.4241
 4635SOL     OW25540   2.867   1.189   2.512  0.1706 -0.5515 -0.3670
 4635SOL    HW125541   2.862   1.118   2.575 -1.6671  0.6561  0.8381
 4635SOL    HW225542   2.833   1.260   2.567  0.7290 -1.6525  1.3559
 4636SOL     OW25543   4.679   3.932  12.195 -0.1349 -0.1803  0.6379
 4636SOL    HW125544   4.668   3.838  12.210  0.7118 -0.5963 -1.3846
 4636SOL    HW225545   4.590   3.949  12.163 -1.8071 -4.3955  3.1627
 4637SOL     OW25546   4.368   2.962   2.030 -0.2135  0.5412 -0.1466
 4637SOL    HW125547   4.378   3.053   2.057  0.7217  0.4125 -0.0711
 4637SOL    HW225548   4.443   2.911   2.062 -0.9447 -1.7980 -2.1630
 4638SOL     OW25549   2.009   0.154   3.226  0.5733 -0.2385  0.8326
 4638SOL    HW125550   2.019   0.071   3.272 -0.4400  0.6338  2.6083
 4638SOL    HW225551   1.935   0.148   3.166  1.2069  3.2512 -0.3187
 4639SOL     OW25552   3.317   4.385   5.013  0.4177  0.0953  0.1273
 4639SOL    HW125553   3.271   4.469   5.015 -1.2672 -0.8282  0.2053
 4639SOL    HW225554   3.267   4.338   4.946 -0.5285  0.3162  0.6757
 4640SOL     OW25555   3.877   0.427  12.695  0.0997  0.5793  0.3214
 4640SOL    HW125556   3.845   0.387  12.776  0.4287  0.0489  0.1865
 4640SOL    HW225557   3.833   0.374  12.628  0.6577  1.4010 -0.6874
 4641SOL     OW25558   4.387   0.359   3.225 -0.0485  0.0494  0.5119
 4641SOL    HW125559   4.358   0.335   3.137 -0.5764 -0.8260  0.9275
 4641SOL    HW225560   4.480   0.337   3.235 -0.1261 -1.8810 -3.0824
 4642SOL     OW25561   1.864   0.998   8.352  0.3016 -0.0720  0.2588
 4642SOL    HW125562   1.934   1.030   8.409 -0.7076  0.6694  1.0837
 4642SOL    HW225563   1.891   1.054   8.278  0.6433  1.0639  1.2435
 4643SOL     OW25564   3.855   3.562   3.619 -0.1176  0.2738  0.2878
 4643SOL    HW125565   3.760   3.570   3.608  0.1987  0.0964 -2.7943
 4643SOL    HW225566   3.878   3.632   3.558 -3.3578  1.9730  1.0405
 4644SOL     OW25567   2.361   0.817   9.445  0.2573 -0.5011  0.6060
 4644SOL    HW125568   2.271   0.800   9.475  0.0613  1.2607  1.0465
 4644SOL    HW225569   2.366   0.751   9.376 -0.5814 -0.2420  0.2896
 4645SOL     OW25570   1.261   0.410   4.058  0.2387 -0.6377  0.5222
 4645SOL    HW125571   1.333   0.364   4.101 -0.8576  0.1813  3.2247
 4645SOL    HW225572   1.236   0.470   4.129 -0.0109 -0.9828  0.7273
 4646SOL     OW25573   2.441   3.234  11.392  0.3230  0.2470 -0.0465
 4646SOL    HW125574   2.375   3.193  11.447 -0.3922  0.2507 -0.8965
 4646SOL    HW225575   2.519   3.207  11.440 -0.9695 -1.5944  1.0465
 4647SOL     OW25576   3.561   4.408   7.719 -0.7940  0.3539  0.1165
 4647SOL    HW125577   3.602   4.347   7.781  0.7358  0.1689 -1.0642
 4647SOL    HW225578   3.615   4.488   7.721 -0.0336 -0.1693  0.6463
 4648SOL     OW25579   1.203   0.245   9.118  0.2322 -0.3463  0.0779
 4648SOL    HW125580   1.108   0.233   9.115  0.0429  0.9868  0.9236
 4648SOL    HW225581   1.216   0.238   9.213 -1.8988  1.9475  0.5552
 4649SOL     OW25582   3.240   0.285  12.047 -0.3558 -0.5672  0.5761
 4649SOL    HW125583   3.192   0.361  12.079  1.7303  0.8479  0.3299
 4649SOL    HW225584   3.307   0.277  12.115 -0.8210 -0.5387  1.0288
 4650SOL     OW25585   3.590   3.164   6.965 -0.4047  0.2534 -0.8963
 4650SOL    HW125586   3.607   3.183   7.057 -0.1092 -0.9653 -0.7040
 4650SOL    HW225587   3.500   3.199   6.963 -0.1488  0.7992 -3.3320
 4651SOL     OW25588   3.872   4.428   3.718  0.1271 -0.1293 -0.1124
 4651SOL    HW125589   3.896   4.407   3.808  0.1125  1.8876  0.3683
 4651SOL    HW225590   3.820   4.349   3.707  0.1347 -0.2599  0.8319
 4652SOL     OW25591   3.138   3.573   1.596  0.0199 -1.1255 -0.4104
 4652SOL    HW125592   3.086   3.533   1.526  0.1608 -2.2993  0.1497
 4652SOL    HW225593   3.216   3.518   1.587 -1.0055 -2.7612  0.6159
 4653SOL     OW25594   1.025   0.414   7.809 -0.0445 -0.5917 -0.0145
 4653SOL    HW125595   1.010   0.325   7.778  0.1943 -0.3930 -0.7039
 4653SOL    HW225596   0.939   0.449   7.787  1.1478  0.9495 -2.2529
 4654SOL     OW25597   0.829   0.184  17.370 -0.0802  0.3866  0.2573
 4654SOL    HW125598   0.897   0.141  17.319 -0.6633  0.5084 -0.6216
 4654SOL    HW225599   0.882   0.234  17.432  1.6127  0.0448 -0.9230
 4655SOL     OW25600   0.856   0.014  10.285 -0.4175  0.0437  0.1093
 4655SOL    HW125601   0.810   0.037  10.366 -0.1378 -0.8689  0.5295
 4655SOL    HW225602   0.918   0.087  10.280 -0.4486  0.0624 -0.0249
 4656SOL     OW25603   2.451   0.817   1.588 -0.1271 -0.6989  0.2249
 4656SOL    HW125604   2.501   0.859   1.658 -0.4836  0.1762 -0.0407
 4656SOL    HW225605   2.366   0.816   1.633 -0.4265 -2.3436 -0.3611
 4657SOL     OW25606   0.986   4.482   7.763 -0.4591  0.1433 -0.3917
 4657SOL    HW125607   0.895   4.453   7.764 -0.4201 -0.1178 -3.0079
 4657SOL    HW225608   0.985   4.560   7.817 -2.6858 -0.4720  0.4859
 4658SOL     OW25609   2.125   4.533  11.773 -0.1408  0.2527 -0.1108
 4658SOL    HW125610   2.037   4.497  11.785  0.3985 -1.0924 -0.2849
 4658SOL    HW225611   2.116   4.628  11.787  0.1924 -0.0339  2.0474
 4659SOL     OW25612   1.302   2.625   3.530 -0.2407  0.9273  0.6980
 4659SOL    HW125613   1.382   2.587   3.566 -1.5539 -1.1699  1.3864
 4659SOL    HW225614   1.307   2.707   3.579  0.9831  1.0900  0.2899
 4660SOL     OW25615   1.389   1.526   7.936  0.5357  0.5441  0.4312
 4660SOL    HW125616   1.303   1.568   7.934  1.1256  1.7799  1.4971
 4660SOL    HW225617   1.379   1.494   8.026 -2.4953 -1.3977 -0.5654
 4661SOL     OW25618   3.151   0.747   4.328 -0.4024  0.0122  0.3410
 4661SOL    HW125619   3.100   0.751   4.409  0.2675 -2.1849  0.8614
 4661SOL    HW225620   3.088   0.773   4.261 -1.2025 -0.4377  0.9294
 4662SOL     OW25621   1.197   1.376   6.424  0.0915  0.0231 -0.3169
 4662SOL    HW125622   1.157   1.337   6.502  2.5705  1.2086  1.5672
 4662SOL    HW225623   1.135   1.435   6.383 -0.8646 -2.0600 -1.8825
 4663SOL     OW25624   0.517   1.872  15.252 -0.3914  0.2998  0.3090
 4663SOL    HW125625   0.487   1.781  15.246  0.5452 -0.0259  0.5630
 4663SOL    HW225626   0.608   1.857  15.226 -0.2083 -1.3388  1.9146
 4664SOL     OW25627   3.051   0.753  12.366  0.1128 -0.0769  0.0823
 4664SOL    HW125628   3.075   0.844  12.381 -2.0109  0.5992 -0.7879
 4664SOL    HW225629   3.118   0.747  12.297 -0.6888 -1.5398 -0.5779
 4665SOL     OW25630   4.487   2.810  13.885 -0.0338  0.6066 -0.2947
 4665SOL    HW125631   4.413   2.753  13.907  1.4409 -0.9012  0.7868
 4665SOL    HW225632   4.511   2.844  13.972  0.7682  0.2582 -0.3803
 4666SOL     OW25633   3.996   3.435   5.830 -0.0732 -0.8012 -0.5742
 4666SOL    HW125634   4.068   3.444   5.768  0.1651 -1.0398 -0.3292
 4666SOL    HW225635   4.005   3.515   5.882  0.3012 -0.7497 -0.7154
 4667SOL     OW25636   0.683   3.739   1.954  0.0100 -0.2521 -0.9123
 4667SOL    HW125637   0.663   3.669   2.016  3.9266 -1.5363 -1.0926
 4667SOL    HW225638   0.777   3.751   1.967  0.2835 -2.5314 -0.9531
 4668SOL     OW25639   3.882   2.271  17.437 -0.2662 -0.4623 -0.2642
 4668SOL    HW125640   3.806   2.219  17.409  0.4949 -1.6291 -0.1324
 4668SOL    HW225641   3.849   2.358  17.412 -1.8493 -0.9110  0.2743
 4669SOL     OW25642   2.416   4.590  13.443 -0.4153 -0.1311  0.1798
 4669SOL    HW125643   2.376   4.640  13.372 -0.3280  0.6077  0.6527
 4669SOL    HW225644   2.432   4.663  13.503 -0.2955 -0.7735  0.9345
 4670SOL     OW25645   3.260   3.943  10.750 -0.6390  0.1309  0.5546
 4670SOL    HW125646   3.214   4.022  10.721 -0.6924  0.7342  2.2722
 4670SOL    HW225647   3.348   3.957  10.716 -1.8214  1.2380 -2.0849
 4671SOL     OW25648   1.980   4.218   7.610 -0.5218 -0.2315 -0.3600
 4671SOL    HW125649   2.012   4.283   7.673  2.7802 -0.9851 -1.3009
 4671SOL    HW225650   1.925   4.165   7.668  0.2105 -0.6444 -0.0476
 4672SOL     OW25651   4.685   1.713  11.678 -0.2941 -0.0083 -0.3616
 4672SOL    HW125652   0.004   1.668  11.742 -0.7456 -0.7990 -0.5324
 4672SOL    HW225653   4.733   1.795  11.668 -1.4571  0.4779 -1.8616
 4673SOL     OW25654   1.332   4.415   6.543  0.6508 -0.4859 -0.2823
 4673SOL    HW125655   1.278   4.421   6.622  0.7442 -0.0818 -0.2501
 4673SOL    HW225656   1.304   4.333   6.503  0.5223 -0.5214 -0.1255
 4674SOL     OW25657   2.901   0.787   1.201  0.0719  0.5405  0.7187
 4674SOL    HW125658   2.927   0.768   1.111  1.3392  0.0494  1.1983
 4674SOL    HW225659   2.969   0.741   1.250 -1.4195 -1.3850  1.0249
 4675SOL     OW25660   1.131   3.770   8.074  0.5922 -0.1591 -0.0959
 4675SOL    HW125661   1.046   3.743   8.040 -0.7886  2.0201  1.5940
 4675SOL    HW225662   1.107   3.796   8.163  0.9438  1.8213 -0.5826
 4676SOL     OW25663   3.022   0.890   4.114  0.3293 -1.2955  0.3369
 4676SOL    HW125664   2.963   0.832   4.066 -0.6477 -0.9133  1.0827
 4676SOL    HW225665   2.964   0.932   4.178 -0.6540 -1.0036 -0.7494
 4677SOL     OW25666   4.229   2.270   8.417  0.1581  0.1748 -0.4847
 4677SOL    HW125667   4.152   2.321   8.444 -1.4384 -2.4782  0.0458
 4677SOL    HW225668   4.257   2.319   8.340 -2.2435  2.7485  0.2718
 4678SOL     OW25669   3.417   0.062  12.170 -0.1271  0.2495 -0.6854
 4678SOL    HW125670   3.407   0.057  12.265 -0.4926  0.7049 -0.6985
 4678SOL    HW225671   3.510   0.076  12.154 -0.0953  1.7130  0.7925
 4679SOL     OW25672   3.133   1.305   5.595  0.0708  0.4415 -0.3149
 4679SOL    HW125673   3.114   1.213   5.581 -0.8844  0.8263 -1.5516
 4679SOL    HW225674   3.168   1.297   5.684 -0.2485 -0.8795 -0.3195
 4680SOL     OW25675   4.504   2.672   5.693  0.6246  0.3229  0.2125
 4680SOL    HW125676   4.492   2.762   5.664  0.8693  0.5500  0.8187
 4680SOL    HW225677   4.571   2.689   5.758  0.2925 -0.8612  0.8742
 4681SOL     OW25678   1.214   1.196   3.948  0.4384 -0.3392 -0.2153
 4681SOL    HW125679   1.229   1.133   3.878 -1.3638 -0.1375 -0.7863
 4681SOL    HW225680   1.149   1.153   4.004  0.4029 -0.5810 -0.4411
 4682SOL     OW25681   1.017   1.703   8.157 -0.0875 -0.5074  0.7825
 4682SOL    HW125682   0.991   1.613   8.173 -0.6334 -0.6533 -0.9320
 4682SOL    HW225683   1.044   1.734   8.244 -0.0701 -1.7153  1.1986
 4683SOL     OW25684   4.487   2.754   2.183  0.5803 -0.3547 -0.2585
 4683SOL    HW125685   4.520   2.667   2.158 -0.1348 -0.9596  0.9245
 4683SOL    HW225686   4.544   2.754   2.260  0.4751  1.8314 -0.2007
 4684SOL     OW25687   1.179   0.518   3.824 -0.1070  0.0721 -0.5319
 4684SOL    HW125688   1.235   0.496   3.899 -1.3066  0.8740  0.6016
 4684SOL    HW225689   1.095   0.522   3.870  0.8983  2.3713  1.1170
 4685SOL     OW25690   0.319   3.170   5.212 -0.1848  0.1231  0.5731
 4685SOL    HW125691   0.348   3.189   5.301  0.8099 -3.7182  1.0627
 4685SOL    HW225692   0.385   3.109   5.179 -1.2119 -0.9657  0.5532
 4686SOL     OW25693   0.812   4.227   6.818 -0.7974  0.3683 -0.6286
 4686SOL    HW125694   0.746   4.296   6.814  0.9485  2.2269  1.7106
 4686SOL    HW225695   0.885   4.280   6.852 -0.4436  1.4132 -2.9972
 4687SOL     OW25696   4.391   0.451   6.906 -0.6593 -0.5915  0.0608
 4687SOL    HW125697   4.384   0.362   6.941 -1.5389 -0.0446  1.2685
 4687SOL    HW225698   4.444   0.506   6.964 -1.2268  0.7353 -0.6905
 4688SOL     OW25699   4.488   4.496   4.876  0.3666 -0.1946 -0.2333
 4688SOL    HW125700   4.582   4.482   4.888  0.1648 -0.0016  1.5318
 4688SOL    HW225701   4.446   4.415   4.905  1.5857 -0.7425 -0.0012
 4689SOL     OW25702   0.192   0.012  15.128 -0.2229 -0.2629 -0.2170
 4689SOL    HW125703   0.167   0.072  15.199 -1.2508  0.6531 -1.3504
 4689SOL    HW225704   0.110   4.700  15.115 -0.5097 -0.2681  1.5264
 4690SOL     OW25705   0.315   2.542   8.569  0.3087  0.2351 -0.9553
 4690SOL    HW125706   0.233   2.496   8.584  0.8209  0.5265  2.6579
 4690SOL    HW225707   0.371   2.505   8.637 -0.2142 -1.0034 -1.2100
 4691SOL     OW25708   3.267   3.745  12.696 -0.3334  0.5544 -0.1520
 4691SOL    HW125709   3.184   3.735  12.742 -1.1600  0.2096 -1.7021
 4691SOL    HW225710   3.326   3.697  12.753 -1.4874  0.4265  0.9408
 4692SOL     OW25711   1.191   2.307  10.068  0.0682  0.1500 -0.5847
 4692SOL    HW125712   1.178   2.386  10.120 -1.0151  1.4514 -2.8187
 4692SOL    HW225713   1.272   2.331  10.024  0.9291 -0.8354  0.4730
 4693SOL     OW25714   1.062   3.283  11.913  0.1556 -0.6727 -0.0568
 4693SOL    HW125715   1.149   3.257  11.944  0.7997  1.3803 -0.1505
 4693SOL    HW225716   1.047   3.356  11.974 -0.5275 -0.6202 -0.2795
 4694SOL     OW25717   2.328   0.315   6.359 -0.5800  0.2258  0.1245
 4694SOL    HW125718   2.360   0.226   6.374 -1.6314 -0.7024 -2.9957
 4694SOL    HW225719   2.256   0.315   6.421 -0.4164  0.9350  0.3125
 4695SOL     OW25720   2.011   2.809   5.003  0.3421 -0.0148 -0.5038
 4695SOL    HW125721   1.973   2.878   5.057  1.4053  0.3003 -0.1716
 4695SOL    HW225722   1.950   2.810   4.929 -0.1167  0.9183 -0.1074
 4696SOL     OW25723   1.174   0.385  11.223 -0.0242  0.5621 -0.4244
 4696SOL    HW125724   1.139   0.310  11.271  0.1973  0.3840 -0.5419
 4696SOL    HW225725   1.133   0.465  11.256  0.5081  1.5001 -2.0520
 4697SOL     OW25726   0.399   1.011   8.380 -0.3270  0.3790  0.1851
 4697SOL    HW125727   0.376   1.073   8.311 -0.4936  0.2365  0.1141
 4697SOL    HW225728   0.488   1.036   8.405  0.2292 -0.6385 -0.7755
 4698SOL     OW25729   2.820   3.427  11.575 -0.2055  0.3346  0.0985
 4698SOL    HW125730   2.779   3.364  11.516 -1.8557  1.0557  0.4726
 4698SOL    HW225731   2.744   3.479  11.604  0.0814 -0.7243  2.7230
 4699SOL     OW25732   1.285   0.789   9.667  0.0935  0.7669 -0.1123
 4699SOL    HW125733   1.199   0.755   9.692  0.3470 -0.3842 -0.8067
 4699SOL    HW225734   1.268   0.867   9.615  0.5065 -0.5027 -2.1499
 4700SOL     OW25735   1.848   3.167   8.146  0.4788 -0.2008  0.2059
 4700SOL    HW125736   1.925   3.139   8.196  0.4750 -0.3763  0.1140
 4700SOL    HW225737   1.775   3.135   8.199  1.2798 -2.6904 -0.2025
 4701SOL     OW25738   3.218   3.695   7.012  0.4141 -0.2367 -0.9006
 4701SOL    HW125739   3.123   3.690   7.011  0.3137  1.5018  0.4318
 4701SOL    HW225740   3.235   3.603   7.034  2.9818  0.4730  0.1441
 4702SOL     OW25741   4.524   3.838  15.142 -0.1631 -0.4346  0.1052
 4702SOL    HW125742   4.539   3.820  15.049 -1.5461  0.0591 -0.2183
 4702SOL    HW225743   4.612   3.840  15.179  0.2752  1.2305 -1.0291
 4703SOL     OW25744   0.311   0.889   8.642  0.1310 -0.2177  0.4525
 4703SOL    HW125745   0.338   0.803   8.673  2.3500  0.2753 -0.0990
 4703SOL    HW225746   0.361   0.902   8.561  1.8520 -1.3308  1.3417
 4704SOL     OW25747   4.725   0.127   2.181 -0.4437  0.1021 -0.4613
 4704SOL    HW125748   4.734   0.204   2.124  0.4278  1.5519  1.5954
 4704SOL    HW225749   0.074   0.140   2.223 -0.9117 -0.1358  0.5573
 4705SOL     OW25750   4.726   2.977   7.179  0.5114 -0.2435  0.2557
 4705SOL    HW125751   0.046   3.027   7.239  0.3514  0.4084 -0.1381
 4705SOL    HW225752   0.003   2.895   7.227  0.3940 -1.0585 -1.1086
 4706SOL     OW25753   0.672   0.016   4.911  0.3365  0.6630  0.2737
 4706SOL    HW125754   0.688   0.092   4.855 -2.7645  0.7455 -0.4943
 4706SOL    HW225755   0.703   0.032   5.000 -0.2153  1.5142  0.3107
 4707SOL     OW25756   4.695   2.002   9.026  0.8597 -0.0816 -0.4338
 4707SOL    HW125757   4.702   2.057   8.948 -1.4853  1.5791  0.5519
 4707SOL    HW225758   4.604   1.996   9.052  0.2131 -0.9738 -2.8740
 4708SOL     OW25759   1.918   0.993  16.152  0.6721 -0.3175 -0.5275
 4708SOL    HW125760   1.840   1.009  16.099  1.3528  2.3259 -0.7247
 4708SOL    HW225761   1.875   0.934  16.215  0.2523 -0.7659 -1.2333
 4709SOL     OW25762   1.894   3.168   6.287 -0.0739  0.1018  0.0781
 4709SOL    HW125763   1.798   3.173   6.296  0.0352 -0.7026  1.7065
 4709SOL    HW225764   1.921   3.123   6.367 -0.7512 -0.7629 -0.1743
 4710SOL     OW25765   3.332   0.110   4.881  0.0134 -0.1811 -0.6806
 4710SOL    HW125766   3.277   0.178   4.921  1.5737 -1.0174  2.8173
 4710SOL    HW225767   3.410   0.108   4.936  1.8612 -1.1384 -3.3511
 4711SOL     OW25768   3.938   3.439   4.117  0.0667  0.0047  0.1244
 4711SOL    HW125769   3.929   3.526   4.156 -1.0345  1.0771 -2.5094
 4711SOL    HW225770   3.850   3.439   4.079  0.5939 -0.8226 -1.0740
 4712SOL     OW25771   4.500   4.539   7.846 -0.0902 -0.4544  0.1243
 4712SOL    HW125772   4.529   4.448   7.835 -0.9059 -0.4570 -2.0559
 4712SOL    HW225773   4.417   4.548   7.892 -0.1398  1.7733 -0.4072
 4713SOL     OW25774   2.466   2.516  10.881  0.3177 -0.2169  0.0375
 4713SOL    HW125775   2.384   2.560  10.903 -0.6023  0.3398 -4.4437
 4713SOL    HW225776   2.453   2.503  10.787 -0.1651 -0.9023  0.1955
 4714SOL     OW25777   1.328   1.837   3.051 -0.2507  0.2041  0.8043
 4714SOL    HW125778   1.376   1.879   3.122  0.2327  1.0334 -0.0058
 4714SOL    HW225779   1.249   1.805   3.094 -0.4819  0.2302  0.4008
 4715SOL     OW25780   1.945   2.600   3.730  0.2534  0.0832 -0.3718
 4715SOL    HW125781   2.007   2.572   3.798  0.1652  0.5788 -0.0888
 4715SOL    HW225782   1.884   2.528   3.742  0.3828  0.1379  0.6166
 4716SOL     OW25783   0.044   2.392  16.990 -0.0539  0.4165 -0.4645
 4716SOL    HW125784   4.699   2.347  17.012  0.0171  0.9388  0.8941
 4716SOL    HW225785   0.114   2.345  17.036 -0.9822  1.1979  1.7709
 4717SOL     OW25786   1.025   2.349   4.523  0.2665  0.5110 -0.2918
 4717SOL    HW125787   0.995   2.433   4.488  0.8512 -0.0098 -2.0368
 4717SOL    HW225788   0.957   2.324   4.586  1.6374  0.0345  0.9697
 4718SOL     OW25789   0.938   4.022   2.080  1.1351 -0.0887 -0.0009
 4718SOL    HW125790   0.933   3.934   2.042 -1.0269  0.7451 -1.6561
 4718SOL    HW225791   1.031   4.034   2.096  0.7554  1.2545  1.2147
 4719SOL     OW25792   4.289   3.509   2.732 -0.5159 -0.1202  0.1201
 4719SOL    HW125793   4.355   3.441   2.741  0.2935  0.3264 -2.4914
 4719SOL    HW225794   4.322   3.559   2.658  1.9335 -0.1395  1.1958
 4720SOL     OW25795   1.929   1.322   8.439 -0.5095 -0.7669  0.0264
 4720SOL    HW125796   1.836   1.337   8.453 -0.4461  1.8300 -2.3773
 4720SOL    HW225797   1.963   1.338   8.527  1.0028  0.9522 -0.8609
 4721SOL     OW25798   1.410   0.186   6.887 -0.4986 -0.4519  0.4287
 4721SOL    HW125799   1.368   0.174   6.972  1.9640  0.5240  1.8100
 4721SOL    HW225800   1.344   0.206   6.821 -0.8608 -0.2859  0.8422
 4722SOL     OW25801   4.262   1.232   6.711  0.1433 -0.4276  0.0405
 4722SOL    HW125802   4.299   1.237   6.799 -0.1527  1.9362  0.0211
 4722SOL    HW225803   4.310   1.304   6.670 -0.7942  0.3767  0.3660
 4723SOL     OW25804   1.942   4.346  16.315 -0.7190 -0.0921 -0.2960
 4723SOL    HW125805   1.930   4.292  16.237  0.0426 -1.1264  0.3109
 4723SOL    HW225806   2.033   4.328  16.339 -0.9873 -0.0937  0.7090
 4724SOL     OW25807   3.356   3.230   4.325 -0.6916  0.1200 -0.0244
 4724SOL    HW125808   3.385   3.166   4.261  0.7540  1.0681 -0.3292
 4724SOL    HW225809   3.397   3.196   4.405 -0.6396  1.2243  0.4249
 4725SOL     OW25810   4.734   0.069   2.867 -0.2386 -0.1179 -0.3021
 4725SOL    HW125811   4.706   0.030   2.784 -1.4170 -1.7201  0.8403
 4725SOL    HW225812   4.661   0.131   2.871 -0.4792 -0.3949 -0.3771
 4726SOL     OW25813   2.561   2.935  11.463 -0.1724 -0.1649 -0.2521
 4726SOL    HW125814   2.577   2.901  11.551  2.7312  2.8315  0.3947
 4726SOL    HW225815   2.468   2.954  11.476 -0.2947  0.1474 -1.5656
 4727SOL     OW25816   0.598   4.069   0.861 -0.1638 -0.3391  1.0361
 4727SOL    HW125817   0.570   4.152   0.823 -0.9820 -0.2601  1.8086
 4727SOL    HW225818   0.693   4.077   0.849 -0.6482  0.2821 -2.6569
 4728SOL     OW25819   3.637   0.256   3.622 -0.1252 -0.2109  0.0078
 4728SOL    HW125820   3.704   0.190   3.605  0.1729 -0.0051  0.3583
 4728SOL    HW225821   3.607   0.261   3.531 -1.8307 -0.0102  0.5756
 4729SOL     OW25822   4.430   0.223  10.576 -0.0392  0.3000 -0.2139
 4729SOL    HW125823   4.401   0.294  10.519  1.1703  1.2696  0.3992
 4729SOL    HW225824   4.398   0.249  10.662 -2.2426  1.1427 -1.2896
 4730SOL     OW25825   3.093   0.954   2.825  0.5796  0.3688  0.2999
 4730SOL    HW125826   3.137   1.034   2.796  0.6772  0.8164  1.6848
 4730SOL    HW225827   3.013   0.967   2.773  0.4103  1.3044  0.8047
 4731SOL     OW25828   1.386   0.524   5.559 -0.3938  0.4651  0.0326
 4731SOL    HW125829   1.337   0.519   5.641 -0.3396  1.5845  0.1312
 4731SOL    HW225830   1.377   0.433   5.530 -1.8146  0.2339  1.2094
 4732SOL     OW25831   0.810   0.622  15.329 -0.2198  0.2546 -0.0431
 4732SOL    HW125832   0.882   0.587  15.276 -1.9540 -1.2424 -1.4021
 4732SOL    HW225833   0.738   0.620  15.267 -0.8192 -0.6226  0.6832
 4733SOL     OW25834   2.233   0.836   3.167  0.7517 -0.7666 -0.1752
 4733SOL    HW125835   2.212   0.806   3.078  0.3421  0.9995 -0.6701
 4733SOL    HW225836   2.146   0.858   3.199  0.7321  3.2265 -3.0359
 4734SOL     OW25837   3.031   2.906   0.296 -0.5594  0.6472  0.0718
 4734SOL    HW125838   3.081   2.977   0.255 -1.7640  1.6951  0.4288
 4734SOL    HW225839   2.992   2.944   0.374 -0.7165  1.9307 -0.6211
 4735SOL     OW25840   1.544   2.563   2.312  0.3831 -0.0042  0.6073
 4735SOL    HW125841   1.504   2.650   2.321 -1.5309 -0.4520 -4.0229
 4735SOL    HW225842   1.460   2.521   2.296 -0.2570  1.0342  1.2357
 4736SOL     OW25843   3.551   0.397   4.551 -0.6654  0.3478  0.7606
 4736SOL    HW125844   3.473   0.350   4.582  0.6180 -1.3611  1.4457
 4736SOL    HW225845   3.504   0.466   4.506  0.5378  0.2490 -0.6337
 4737SOL     OW25846   3.194   4.364  10.684 -0.5946  0.2821 -0.2611
 4737SOL    HW125847   3.143   4.312  10.746 -0.5420  0.9475  0.3390
 4737SOL    HW225848   3.266   4.302  10.672  1.2895  2.4763 -0.2966
 4738SOL     OW25849   3.422   3.238  10.559  0.5090  0.3460 -0.3645
 4738SOL    HW125850   3.394   3.179  10.629  3.8134  0.8281  1.3265
 4738SOL    HW225851   3.378   3.320  10.585 -1.2194 -0.6286 -0.2299
 4739SOL     OW25852   3.474   1.441   6.741 -0.0820 -0.3245  0.1219
 4739SOL    HW125853   3.397   1.401   6.782 -0.1395  0.3937  0.7189
 4739SOL    HW225854   3.437   1.507   6.682  0.9453 -0.8620 -1.1151
 4740SOL     OW25855   2.104   0.917   9.942  0.2145  0.1065  0.9401
 4740SOL    HW125856   2.083   0.983  10.008 -2.0610 -0.4628  0.7811
 4740SOL    HW225857   2.182   0.958   9.906 -0.4515  0.8073  0.3101
 4741SOL     OW25858   1.313   0.274   1.799  0.6655  0.3143  0.6721
 4741SOL    HW125859   1.361   0.299   1.720 -1.0512 -3.2841 -1.5107
 4741SOL    HW225860   1.303   0.363   1.833 -1.3123  0.1936  0.4139
 4742SOL     OW25861   2.018   0.133   2.862  0.4293 -0.4738  0.8204
 4742SOL    HW125862   1.940   0.167   2.904 -0.6245 -0.2137 -1.3662
 4742SOL    HW225863   1.993   0.040   2.860 -1.0122 -0.0864  0.8853
 4743SOL     OW25864   3.585   3.583   5.062  0.7620 -0.7232  0.4522
 4743SOL    HW125865   3.534   3.663   5.079 -1.4934 -1.9273 -0.6572
 4743SOL    HW225866   3.523   3.541   5.002 -1.0656  1.7651  0.5964
 4744SOL     OW25867   2.839   0.427   1.335 -0.0179 -0.3464 -0.1142
 4744SOL    HW125868   2.858   0.395   1.423 -1.1136  2.8651  1.3233
 4744SOL    HW225869   2.750   0.392   1.329  0.6966 -2.1732  0.0999
 4745SOL     OW25870   3.206   2.508   3.844  0.2631  0.8075 -0.3376
 4745SOL    HW125871   3.163   2.433   3.804  2.4365 -2.3716  3.3541
 4745SOL    HW225872   3.143   2.551   3.901 -0.7983  2.1431 -2.4922
 4746SOL     OW25873   0.407   3.665  14.720  0.0960  0.5578 -0.0621
 4746SOL    HW125874   0.379   3.623  14.801  1.4541 -0.0262  0.0900
 4746SOL    HW225875   0.427   3.594  14.659  1.4324 -0.4154  1.5103
 4747SOL     OW25876   3.692   1.919   5.155  0.2400 -0.1007  0.6760
 4747SOL    HW125877   3.683   1.975   5.078 -0.6873  2.4017  2.5908
 4747SOL    HW225878   3.664   1.980   5.223  2.0061  1.0834  0.3509
 4748SOL     OW25879   3.576   2.940   5.783  0.0288  0.0419 -0.2665
 4748SOL    HW125880   3.581   2.853   5.743 -1.5360 -0.8643  1.5731
 4748SOL    HW225881   3.481   2.949   5.777  0.1780  2.1591  0.3232
 4749SOL     OW25882   1.894   0.332   2.355  0.3101 -0.1672  0.2579
 4749SOL    HW125883   1.862   0.371   2.274 -1.2992 -2.0478  0.0081
 4749SOL    HW225884   1.964   0.272   2.329 -0.8175 -1.0767 -0.6768
 4750SOL     OW25885   3.306   0.290   8.166  0.4333  0.5814  0.3993
 4750SOL    HW125886   3.314   0.384   8.179  2.7559  0.2428  1.4456
 4750SOL    HW225887   3.313   0.249   8.252 -1.2523 -3.0041 -1.1625
 4751SOL     OW25888   0.064   3.646   6.043 -0.1935  0.4061  0.2620
 4751SOL    HW125889   0.007   3.700   5.988  0.7702  0.4507 -0.6934
 4751SOL    HW225890   0.011   3.587   6.095  0.1528 -0.1442 -0.0120
 4752SOL     OW25891   3.445   2.827   9.777  0.2866  0.3516 -0.2740
 4752SOL    HW125892   3.411   2.877   9.851 -1.4881  1.0431 -1.5482
 4752SOL    HW225893   3.388   2.855   9.706 -0.4308 -0.9456 -0.2122
 4753SOL     OW25894   1.541   2.342   6.780  0.2379 -0.1697  0.3506
 4753SOL    HW125895   1.466   2.288   6.756  1.3593 -0.5850 -2.2490
 4753SOL    HW225896   1.575   2.286   6.849  0.8907  0.1046  0.2536
 4754SOL     OW25897   1.701   0.166  14.182 -0.0290 -0.0872 -0.5286
 4754SOL    HW125898   1.646   0.092  14.155  0.1504 -0.5658  0.4087
 4754SOL    HW225899   1.772   0.120  14.229  0.2103  0.2685 -0.5457
 4755SOL     OW25900   2.717   3.721   9.834 -0.2232  0.4235  0.1172
 4755SOL    HW125901   2.800   3.677   9.819 -1.3994 -1.8218  0.2683
 4755SOL    HW225902   2.658   3.698   9.762  0.1516  0.7996 -0.3057
 4756SOL     OW25903   4.075   1.205   7.425  0.1539  0.1744 -0.3186
 4756SOL    HW125904   4.090   1.151   7.347  2.5379 -0.6995  0.7741
 4756SOL    HW225905   4.002   1.155   7.461 -0.6239  0.9245 -0.8527
 4757SOL     OW25906   1.918   2.845  12.054  0.0364  0.0049 -0.6988
 4757SOL    HW125907   1.841   2.882  12.012 -2.1955 -0.9555  2.4975
 4757SOL    HW225908   1.890   2.768  12.103  1.1342  0.9303  1.4246
 4758SOL     OW25909   2.809   4.105   5.854  0.0646  0.5864 -0.2339
 4758SOL    HW125910   2.834   4.180   5.906 -0.3351 -0.2207  1.1079
 4758SOL    HW225911   2.778   4.051   5.927  0.7790 -0.5918 -0.7864
 4759SOL     OW25912   1.674   3.629   2.420 -0.5046  0.1891 -0.2178
 4759SOL    HW125913   1.603   3.641   2.356 -1.9702  0.7536  1.5267
 4759SOL    HW225914   1.635   3.559   2.472  0.0201 -1.4014 -1.9434
 4760SOL     OW25915   4.282   4.736   6.518 -0.1033  0.2448 -0.7030
 4760SOL    HW125916   4.264   0.081   6.565  1.0077  1.2101 -1.9741
 4760SOL    HW225917   4.279   0.025   6.426  0.4339 -0.7219 -0.9846
 4761SOL     OW25918   4.429   2.010   9.114  0.7776 -0.2972 -0.0326
 4761SOL    HW125919   4.353   2.067   9.119  2.1661  1.7118 -1.7681
 4761SOL    HW225920   4.393   1.935   9.162 -0.0018 -0.1139 -0.3415
 4762SOL     OW25921   2.686   0.462   5.300 -0.3849  0.3245 -0.1332
 4762SOL    HW125922   2.718   0.549   5.326  1.3437 -0.1171 -0.7801
 4762SOL    HW225923   2.753   0.399   5.325  0.3412  1.5729  1.0401
 4763SOL     OW25924   3.732   3.120   2.326  0.0010 -0.1120  0.2267
 4763SOL    HW125925   3.709   3.042   2.276 -0.8511 -1.2162  2.3603
 4763SOL    HW225926   3.650   3.169   2.329 -0.2934 -0.6273  0.5108
 4764SOL     OW25927   2.744   2.657   6.454  0.0595  0.0251 -0.2310
 4764SOL    HW125928   2.813   2.596   6.482  0.5111  1.0560  0.8924
 4764SOL    HW225929   2.748   2.647   6.359  0.7864 -0.1070 -0.1898
 4765SOL     OW25930   1.737   2.456   0.308  0.4631 -0.0401  0.6819
 4765SOL    HW125931   1.742   2.392   0.237  1.5667  0.2487  0.4984
 4765SOL    HW225932   1.668   2.415   0.360 -0.2033  0.6330  0.3151
 4766SOL     OW25933   0.201   3.544  15.686  0.2997 -0.0989  0.3673
 4766SOL    HW125934   0.127   3.597  15.713  0.2912 -0.4619  1.0506
 4766SOL    HW225935   0.262   3.577  15.753  0.2699 -0.4668  0.5765
 4767SOL     OW25936   4.681   0.581  16.285  0.3429 -0.4076 -0.0192
 4767SOL    HW125937   4.716   0.533  16.359  0.0043 -1.0502 -0.2782
 4767SOL    HW225938   4.682   0.668  16.326 -0.6445 -0.8784  0.9962
 4768SOL     OW25939   1.871   0.087  11.088 -0.2986 -0.5697  0.2055
 4768SOL    HW125940   1.931   0.078  11.014 -2.2156 -1.5459 -1.2492
 4768SOL    HW225941   1.833   0.000  11.102  0.1247 -0.5240  1.6659
 4769SOL     OW25942   2.948   2.090   7.856 -0.3431  0.1290  0.0038
 4769SOL    HW125943   3.038   2.115   7.836 -0.4845 -1.8417 -3.0647
 4769SOL    HW225944   2.933   2.042   7.775 -1.5127  0.8585 -0.2089
 4770SOL     OW25945   0.622   0.524   2.060 -0.0472  0.5368 -0.3167
 4770SOL    HW125946   0.587   0.501   1.974 -0.7893  4.1308 -0.9546
 4770SOL    HW225947   0.651   0.437   2.087  0.1087  0.2436 -1.4345
 4771SOL     OW25948   0.327   3.424   5.082  0.2716 -0.5077 -0.1052
 4771SOL    HW125949   0.370   3.406   4.999 -1.8297 -1.3980 -0.9929
 4771SOL    HW225950   0.325   3.336   5.119  0.9795 -0.0440  1.0519
 4772SOL     OW25951   2.304   2.933   2.985 -0.3678 -0.4584 -0.3243
 4772SOL    HW125952   2.209   2.925   2.992 -0.2268 -1.3816  0.5654
 4772SOL    HW225953   2.337   2.848   3.011 -0.6012 -0.2580  0.6353
 4773SOL     OW25954   0.756   4.025  13.417 -0.0808 -0.0125  0.0663
 4773SOL    HW125955   0.812   4.097  13.389 -0.8340  0.1337 -1.0824
 4773SOL    HW225956   0.767   4.013  13.511  0.2923  0.2274  0.0527
 4774SOL     OW25957   1.582   1.920   4.358 -0.1656 -0.2481 -0.2371
 4774SOL    HW125958   1.529   1.947   4.433 -0.2130  0.3366 -0.4785
 4774SOL    HW225959   1.670   1.953   4.375 -0.8260  1.8879 -0.8330
 4775SOL     OW25960   2.540   1.023   5.711  0.1845 -0.0027 -0.1344
 4775SOL    HW125961   2.554   0.932   5.685 -1.1705  0.4194 -2.2899
 4775SOL    HW225962   2.478   1.041   5.640  0.3424 -0.1426 -0.3068
 4776SOL     OW25963   0.430   3.378  14.675 -0.2243  0.2654 -0.2793
 4776SOL    HW125964   0.363   3.344  14.735  0.8269 -0.9800  0.1785
 4776SOL    HW225965   0.464   3.298  14.635 -1.2446  0.2537 -1.1241
 4777SOL     OW25966   3.363   1.290   4.959  0.2322  0.3650 -0.4670
 4777SOL    HW125967   3.282   1.260   4.918 -1.0314  1.1521  1.4657
 4777SOL    HW225968   3.319   1.337   5.030  0.9061  0.5413 -0.1646
 4778SOL     OW25969   2.495   2.795   6.182  0.2500  0.1649  0.4255
 4778SOL    HW125970   2.454   2.765   6.263  1.2900 -1.0695  0.4880
 4778SOL    HW225971   2.489   2.714   6.133  2.6755  0.5414 -0.4648
 4779SOL     OW25972   3.061   0.589   8.504  0.3727 -1.0223 -0.6448
 4779SOL    HW125973   3.035   0.645   8.430 -0.7808 -1.0159 -0.2400
 4779SOL    HW225974   3.128   0.543   8.453  1.4443 -1.5249  1.2385
 4780SOL     OW25975   4.130   2.473   9.036  0.3593  0.4984 -0.2459
 4780SOL    HW125976   4.037   2.477   9.058  0.4348 -1.3172  0.4317
 4780SOL    HW225977   4.123   2.498   8.944 -1.7579 -1.2110 -0.5569
 4781SOL     OW25978   1.685   1.662   3.308 -0.4489 -0.0964 -0.0391
 4781SOL    HW125979   1.613   1.716   3.341 -1.4128 -2.6608  2.0109
 4781SOL    HW225980   1.683   1.597   3.378  0.8517  0.2155  0.2886
 4782SOL     OW25981   0.424   4.686   2.297  0.9687  0.0184  0.1536
 4782SOL    HW125982   0.428   4.600   2.337  1.7449  0.1983  0.4631
 4782SOL    HW225983   0.515   4.692   2.269 -0.4722 -1.4743 -4.9173
 4783SOL     OW25984   3.852   3.707   1.025 -1.0426 -0.4905  0.2758
 4783SOL    HW125985   3.859   3.633   1.085  0.5998 -0.5063  0.0846
 4783SOL    HW225986   3.942   3.707   0.990 -1.6798 -1.2780 -1.3644
 4784SOL     OW25987   2.316   3.496   4.059  0.0003 -0.1385  0.0463
 4784SOL    HW125988   2.246   3.469   4.119 -0.9536  0.0513 -0.9828
 4784SOL    HW225989   2.272   3.504   3.974 -1.9150  3.1920  1.3817
 4785SOL     OW25990   0.482   1.391   4.332  1.0938 -0.5077 -0.8065
 4785SOL    HW125991   0.529   1.474   4.327 -0.0865  0.2646  0.6809
 4785SOL    HW225992   0.544   1.334   4.377  0.6256  0.2122  0.7732
 4786SOL     OW25993   2.531   0.085   7.355  0.1519 -0.4409 -0.3879
 4786SOL    HW125994   2.466   0.016   7.355  1.8205 -2.0148  0.8843
 4786SOL    HW225995   2.477   0.156   7.321 -1.5173 -2.3002 -1.6346
 4787SOL     OW25996   0.539   1.571  11.116 -0.4578 -0.1404  0.3233
 4787SOL    HW125997   0.507   1.564  11.206 -1.5128 -2.8343 -0.2846
 4787SOL    HW225998   0.556   1.665  11.108  1.7096 -0.4812  0.9268
 4788SOL     OW25999   1.836   1.296   6.334 -0.2659 -0.0703  0.8688
 4788SOL    HW126000   1.815   1.241   6.410 -0.7484 -0.5121  0.4080
 4788SOL    HW226001   1.756   1.345   6.315  0.5006  0.3024 -1.3339
 4789SOL     OW26002   0.749   3.582   6.902  0.2375  0.5529 -0.2833
 4789SOL    HW126003   0.657   3.567   6.881 -0.2422 -0.1487  2.2780
 4789SOL    HW226004   0.762   3.510   6.964 -0.2228  1.4893  0.9251
 4790SOL     OW26005   0.385   4.422   2.398 -0.1675  0.4483 -0.3463
 4790SOL    HW126006   0.470   4.409   2.440  0.0995  0.4824 -0.8703
 4790SOL    HW226007   0.331   4.359   2.444 -0.6549  0.6000 -0.7102
 4791SOL     OW26008   4.545   1.272   7.554  0.0024  0.0966 -0.2456
 4791SOL    HW126009   4.525   1.180   7.571 -1.1244  0.5936  1.1184
 4791SOL    HW226010   4.463   1.294   7.511  0.8668  1.9717 -0.9620
 4792SOL     OW26011   0.662   1.955   7.846 -0.3790 -0.0573 -0.0113
 4792SOL    HW126012   0.602   1.886   7.876 -0.7803 -0.0587 -0.8175
 4792SOL    HW226013   0.605   2.028   7.821 -0.7472 -1.0586 -2.0591
 4793SOL     OW26014   0.812   2.570   3.343 -0.1206 -0.0201  0.8880
 4793SOL    HW126015   0.861   2.498   3.385  0.7015 -0.5365 -0.9547
 4793SOL    HW226016   0.873   2.641   3.364  2.6421 -1.4507 -2.1802
 4794SOL     OW26017   3.877   2.726   1.022  0.0066  0.2392 -0.3517
 4794SOL    HW126018   3.814   2.659   1.051 -1.2625  2.0103  0.9974
 4794SOL    HW226019   3.902   2.771   1.103 -0.2265  1.5529 -1.0260
 4795SOL     OW26020   0.940   1.154   4.452  0.6980  0.4961 -0.0085
 4795SOL    HW126021   1.017   1.176   4.504  0.2833 -1.2875  1.3612
 4795SOL    HW226022   0.921   1.241   4.417 -2.7293  0.0697  0.7704
 4796SOL     OW26023   4.479   0.178   2.947  0.1844  0.0468 -0.2389
 4796SOL    HW126024   4.467   0.113   2.878 -1.0048  0.0183 -0.0127
 4796SOL    HW226025   4.388   0.208   2.945 -0.5153 -2.1828 -0.9488
 4797SOL     OW26026   3.783   1.094   8.926 -0.2929 -0.2283  0.2813
 4797SOL    HW126027   3.772   1.148   8.847 -1.5651  1.5501  1.6727
 4797SOL    HW226028   3.724   1.144   8.982  0.3625  1.9060 -0.8983
 4798SOL     OW26029   3.140   2.592   8.261  0.0365 -0.8436  0.3314
 4798SOL    HW126030   3.172   2.680   8.240 -1.2003 -1.1083 -2.6809
 4798SOL    HW226031   3.226   2.557   8.282  0.1557 -0.0628  1.1498
 4799SOL     OW26032   2.256   2.723   7.745 -0.1478  0.4763 -0.1137
 4799SOL    HW126033   2.305   2.727   7.827 -0.3594  3.0854 -0.0974
 4799SOL    HW226034   2.231   2.631   7.746 -3.0791  1.2546  0.4569
 4800SOL     OW26035   3.694   2.229  17.682 -0.2416  0.0267 -0.4273
 4800SOL    HW126036   3.751   2.157  17.655 -0.1925 -0.2610  0.4641
 4800SOL    HW226037   3.642   2.225  17.601 -0.2821  0.8050 -0.4449
 4801SOL     OW26038   0.252   3.957   2.179  0.2665  0.3259 -0.0250
 4801SOL    HW126039   0.337   3.964   2.224  0.4938 -1.3264 -0.2038
 4801SOL    HW226040   0.281   3.903   2.105  2.7905  3.8992 -1.6462
 4802SOL     OW26041   4.318   1.597   5.977  0.1642 -0.0595 -0.9419
 4802SOL    HW126042   4.231   1.584   6.015  0.6632  0.5458  0.4275
 4802SOL    HW226043   4.298   1.568   5.888  0.8037  1.4907 -1.5924
 4803SOL     OW26044   2.445   4.303   4.325 -0.6711  0.0594 -0.7259
 4803SOL    HW126045   2.487   4.372   4.376 -0.1586 -0.8177  0.0367
 4803SOL    HW226046   2.451   4.232   4.389  0.0770  0.1267 -0.7160
 4804SOL     OW26047   3.015   2.117   3.798 -0.4039 -0.3780  0.4682
 4804SOL    HW126048   3.070   2.040   3.784  2.1759  1.1121  2.4896
 4804SOL    HW226049   3.058   2.190   3.754 -2.2762  0.5547  0.1780
 4805SOL     OW26050   3.877   1.648   1.931 -0.0388 -0.0279 -0.4024
 4805SOL    HW126051   3.965   1.680   1.953 -0.6850  1.6396 -0.2147
 4805SOL    HW226052   3.855   1.696   1.851  1.2953 -0.8328 -1.2518
 4806SOL     OW26053   3.093   1.287   4.864  0.4593 -0.3920 -0.1651
 4806SOL    HW126054   3.081   1.340   4.942 -0.4327  1.7064 -1.7293
 4806SOL    HW226055   3.064   1.345   4.793 -0.2188 -0.4903  0.0302
 4807SOL     OW26056   3.628   4.361  17.676  0.4922  0.0860  0.4583
 4807SOL    HW126057   3.692   4.354   0.003  1.1070 -2.6151 -0.3852
 4807SOL    HW226058   3.550   4.378  17.730 -0.2329 -2.5646  0.2459
 4808SOL     OW26059   0.204   1.820  15.523 -0.5366  0.7453  0.1940
 4808SOL    HW126060   0.140   1.888  15.544 -1.9800  0.0005 -1.8201
 4808SOL    HW226061   0.147   1.760  15.476  2.0623 -1.9700  0.4965
 4809SOL     OW26062   3.694   1.785   7.737  0.1350 -0.4110  0.1424
 4809SOL    HW126063   3.768   1.845   7.724 -1.6850  2.1873  1.9521
 4809SOL    HW226064   3.695   1.734   7.655 -1.0544 -0.1682 -0.0165
 4810SOL     OW26065   0.477   3.552   6.952 -0.0319  0.3585  0.0728
 4810SOL    HW126066   0.411   3.505   7.002 -1.1580 -0.9945 -2.6825
 4810SOL    HW226067   0.430   3.605   6.888  0.5125  0.4416 -0.2527
 4811SOL     OW26068   1.459   4.564   6.875  0.0096  0.2592 -0.1299
 4811SOL    HW126069   1.394   4.634   6.872 -0.2749  0.0576  1.3988
 4811SOL    HW226070   1.542   4.598   6.840  0.1200  0.6311  0.4813
 4812SOL     OW26071   3.050   1.141   8.130 -1.4076  0.0687  0.4036
 4812SOL    HW126072   3.106   1.155   8.054  1.8694 -0.1740  2.7602
 4812SOL    HW226073   3.073   1.216   8.186 -1.9930  0.2265  0.4284
 4813SOL     OW26074   2.342   0.283   1.560 -0.2355  0.1955  0.7179
 4813SOL    HW126075   2.343   0.284   1.465  0.9236 -0.5688  0.7249
 4813SOL    HW226076   2.413   0.340   1.588  0.0388  0.2261 -0.0432
 4814SOL     OW26077   0.611   2.697   0.810  0.1000 -0.1856  0.3691
 4814SOL    HW126078   0.586   2.726   0.722 -2.2126  1.8017  1.6856
 4814SOL    HW226079   0.674   2.761   0.841 -1.4192 -0.4093  3.9106
 4815SOL     OW26080   3.049   1.524   5.814  0.0104 -0.1730 -0.5847
 4815SOL    HW126081   3.018   1.451   5.867  2.7388 -0.8496  0.0623
 4815SOL    HW226082   2.965   1.549   5.776 -0.1619  0.5925  0.2779
 4816SOL     OW26083   0.174   2.943   5.519 -0.1431  0.3570 -0.0459
 4816SOL    HW126084   0.111   2.937   5.448 -0.3615 -1.0939  0.2809
 4816SOL    HW226085   0.163   2.863   5.571 -2.7582  1.1603  0.6654
 4817SOL     OW26086   3.047   2.545   7.537  0.0987 -0.4780 -0.4658
 4817SOL    HW126087   3.138   2.565   7.561 -1.0372  0.5575  2.9978
 4817SOL    HW226088   3.046   2.450   7.541  0.1892 -0.4370  0.4843
 4818SOL     OW26089   0.358   3.731   6.732  0.3160  0.1788  0.1338
 4818SOL    HW126090   0.414   3.715   6.656 -0.3297  2.2345 -0.7622
 4818SOL    HW226091   0.364   3.826   6.738  0.2061  0.0569  2.3490
 4819SOL     OW26092   0.950   0.494   4.075  0.7122  0.0489  0.3699
 4819SOL    HW126093   0.856   0.506   4.089  0.2719 -0.1084 -2.3888
 4819SOL    HW226094   0.993   0.543   4.145 -0.4238  0.9647  0.4245
 4820SOL     OW26095   1.847   0.328   4.500  0.0216  0.3815 -0.3086
 4820SOL    HW126096   1.763   0.287   4.520 -0.9978  2.5453 -0.2278
 4820SOL    HW226097   1.872   0.268   4.429  0.9852 -1.1337  1.3203
 4821SOL     OW26098   4.388   3.859   0.484  0.3673  0.6321 -0.3810
 4821SOL    HW126099   4.373   3.782   0.430  2.8912 -0.4761  0.5312
 4821SOL    HW226100   4.449   3.820   0.546 -1.2119 -0.3427  0.5568
 4822SOL     OW26101   0.889   3.435   0.569 -0.3223 -0.6231 -0.3303
 4822SOL    HW126102   0.831   3.508   0.592  0.6603 -0.2547  0.9822
 4822SOL    HW226103   0.968   3.473   0.532  0.8977 -0.6987  2.2058
 4823SOL     OW26104   4.081   4.393   1.329 -0.0414  0.3648  0.2148
 4823SOL    HW126105   4.153   4.379   1.267  1.0897  1.8209  1.2081
 4823SOL    HW226106   4.009   4.356   1.279 -2.1244  2.7882  1.4396
 4824SOL     OW26107   2.292   3.851   6.303 -0.3252 -0.0640  0.5321
 4824SOL    HW126108   2.331   3.764   6.314  0.9665  0.4783  0.2483
 4824SOL    HW226109   2.302   3.890   6.390 -2.0466 -0.8007  1.0510
 4825SOL     OW26110   1.298   2.648   9.117 -0.4739  0.2329  0.1722
 4825SOL    HW126111   1.348   2.568   9.098 -0.8273  0.2751 -0.9614
 4825SOL    HW226112   1.354   2.714   9.077 -0.3700  0.6042  0.9296
 4826SOL     OW26113   4.389   0.619   6.453 -0.6293 -0.2771  0.3376
 4826SOL    HW126114   4.306   0.572   6.450 -0.6517 -0.2920  1.2202
 4826SOL    HW226115   4.432   0.564   6.518 -0.1674 -0.8282 -0.4299
 4827SOL     OW26116   3.848   1.857   3.390 -0.0690 -0.2221  0.2491
 4827SOL    HW126117   3.918   1.922   3.400  0.6183 -0.9878  0.4030
 4827SOL    HW226118   3.895   1.774   3.392  0.6339  0.1387 -0.9788
 4828SOL     OW26119   1.212   4.507   3.919 -0.2964  0.8256  0.7580
 4828SOL    HW126120   1.224   4.468   4.006 -3.0078 -2.3992 -0.3259
 4828SOL    HW226121   1.250   4.594   3.932 -0.9582  1.1536  0.5213
 4829SOL     OW26122   1.599   1.335   1.987  0.5617  0.7885 -0.4498
 4829SOL    HW126123   1.643   1.257   2.021 -2.2492 -0.5467  0.1267
 4829SOL    HW226124   1.572   1.368   2.073  0.5234 -1.3515  0.3670
 4830SOL     OW26125   4.150   3.354   5.605 -0.0875 -0.4360 -0.3434
 4830SOL    HW126126   4.159   3.272   5.653  0.4040  0.4632  1.0730
 4830SOL    HW226127   4.082   3.323   5.545  0.5129 -0.1563 -1.1637
 4831SOL     OW26128   4.719   2.581   8.088  0.4950  0.1730  0.7307
 4831SOL    HW126129   0.022   2.544   8.167  0.5635 -0.8474  0.2205
 4831SOL    HW226130   4.640   2.527   8.093 -1.2155  2.5835 -0.2033
 4832SOL     OW26131   4.453   2.448   2.343 -0.0847  0.0188  0.1572
 4832SOL    HW126132   4.536   2.487   2.318 -0.0375  0.8504  1.6017
 4832SOL    HW226133   4.489   2.360   2.339 -1.4399 -0.5721  0.8277
 4833SOL     OW26134   2.601   0.762  10.303 -0.2016  0.3625  0.7754
 4833SOL    HW126135   2.651   0.844  10.304 -0.1931  0.3409  1.7464
 4833SOL    HW226136   2.557   0.776  10.387 -2.2120 -2.0762  0.1114
 4834SOL     OW26137   1.111   0.156   7.686 -0.0607  0.0389  0.2811
 4834SOL    HW126138   1.149   0.074   7.717 -1.3659 -0.9804 -0.8324
 4834SOL    HW226139   1.092   0.146   7.593 -2.5954 -1.1256  0.9097
 4835SOL     OW26140   2.250   1.281   9.042  0.3224 -0.3723 -0.0023
 4835SOL    HW126141   2.247   1.261   8.948 -1.2668 -0.0968 -0.0182
 4835SOL    HW226142   2.217   1.197   9.073  0.0048 -0.2290  0.0494
 4836SOL     OW26143   4.324   1.275   5.412 -0.3669  0.1849 -0.0734
 4836SOL    HW126144   4.328   1.371   5.409  1.4724  0.1722  2.1739
 4836SOL    HW226145   4.330   1.256   5.319 -1.5643  0.6672 -0.2507
 4837SOL     OW26146   2.519   3.766   4.999  0.0627 -0.4315 -0.0600
 4837SOL    HW126147   2.593   3.812   5.037  1.4996 -0.6354 -2.6110
 4837SOL    HW226148   2.484   3.837   4.944 -2.0245  0.7123  2.7660
 4838SOL     OW26149   0.836   2.019   4.217 -0.0107  0.2621 -0.8244
 4838SOL    HW126150   0.782   1.944   4.193  1.1979 -1.1326  0.8777
 4838SOL    HW226151   0.790   2.078   4.157 -3.2289  0.3685  1.7664
 4839SOL     OW26152   2.523   3.435  14.854 -0.6476  0.5898 -0.2442
 4839SOL    HW126153   2.602   3.452  14.906 -1.8398  1.0947  1.4078
 4839SOL    HW226154   2.459   3.431  14.925 -0.8023  2.1983 -0.2874
 4840SOL     OW26155   2.384   0.567   5.919 -0.6147  0.2927  0.2273
 4840SOL    HW126156   2.346   0.497   5.972 -1.2514 -0.5206 -1.3119
 4840SOL    HW226157   2.432   0.525   5.847 -0.2594 -0.2882  0.8064
 4841SOL     OW26158   2.316   2.070   9.507  0.1760  0.0345  0.4131
 4841SOL    HW126159   2.316   2.029   9.594 -1.0937  1.0808  0.9064
 4841SOL    HW226160   2.384   2.014   9.470 -1.9178 -1.9587 -0.4049
 4842SOL     OW26161   2.908   1.059  16.855 -0.5965  0.2631 -0.1213
 4842SOL    HW126162   2.960   1.138  16.840 -1.8404  0.3156 -4.0819
 4842SOL    HW226163   2.860   1.085  16.934 -0.4646  0.7478 -0.2047
 4843SOL     OW26164   3.256   0.016   6.321 -0.2982 -0.4853 -0.9599
 4843SOL    HW126165   3.224   0.095   6.277 -0.3757  1.0377  1.7812
 4843SOL    HW226166   3.237   0.026   6.415  2.1043  0.7388 -0.5988
 4844SOL     OW26167   3.498   3.277   3.468 -0.0608  0.4215  0.3314
 4844SOL    HW126168   3.412   3.253   3.433  0.7797 -1.5706 -0.3692
 4844SOL    HW226169   3.526   3.344   3.405 -2.8097  2.3957  1.1731
 4845SOL     OW26170   4.633   3.756   7.391 -0.3744  0.0210 -0.1694
 4845SOL    HW126171   4.719   3.797   7.400 -0.1512 -0.6034  0.5325
 4845SOL    HW226172   4.634   3.736   7.298  1.5320 -0.7492  0.0297
 4846SOL     OW26173   0.961   4.470  11.693  0.2925 -0.5778 -0.3207
 4846SOL    HW126174   0.912   4.515  11.762  0.4769 -0.1064 -0.4949
 4846SOL    HW226175   1.047   4.513  11.695  0.1853 -0.3750  0.0264
 4847SOL     OW26176   0.592   2.102   5.887 -0.3265 -0.4363 -0.8323
 4847SOL    HW126177   0.564   2.151   5.809  0.1882  1.0716 -0.0738
 4847SOL    HW226178   0.540   2.158   5.945  2.7623  0.8007  0.7744
 4848SOL     OW26179   3.769   4.234  12.956 -0.1180 -0.1862  0.6847
 4848SOL    HW126180   3.807   4.173  12.893 -1.9974 -0.8594  0.2070
 4848SOL    HW226181   3.689   4.260  12.909  1.5490  2.4092 -0.7108
 4849SOL     OW26182   0.960   4.224   2.730 -0.0190  0.1646  0.0032
 4849SOL    HW126183   1.029   4.259   2.786 -0.5416 -1.2689  1.5237
 4849SOL    HW226184   0.912   4.302   2.701 -0.6172  0.5992  2.1877
 4850SOL     OW26185   0.516   2.186   5.248  0.4740  0.0076 -0.1309
 4850SOL    HW126186   0.486   2.162   5.161  0.2307  0.6424 -0.2209
 4850SOL    HW226187   0.587   2.246   5.225  0.6852  0.5825  1.9601
 4851SOL     OW26188   3.218   2.838   8.178 -0.9005  0.1001  0.4186
 4851SOL    HW126189   3.276   2.908   8.207  0.2529 -0.5669 -0.2856
 4851SOL    HW226190   3.171   2.883   8.108 -0.7136 -1.1634 -0.5149
 4852SOL     OW26191   2.100   1.064   6.678 -0.5427  0.0116  0.2779
 4852SOL    HW126192   2.102   1.095   6.587 -1.9495  2.1178  0.9723
 4852SOL    HW226193   2.116   1.142   6.730 -0.1408  0.7916 -0.9973
 4853SOL     OW26194   1.124   0.436   6.056 -0.4477 -0.0764 -0.4803
 4853SOL    HW126195   1.199   0.477   6.013 -1.0640  3.3710  1.7265
 4853SOL    HW226196   1.056   0.480   6.005  0.5127 -0.6816 -2.2748
 4854SOL     OW26197   3.165   1.336   8.309 -0.0451  0.5328  0.3482
 4854SOL    HW126198   3.259   1.345   8.319  0.0376  0.1848 -0.1284
 4854SOL    HW226199   3.141   1.424   8.339 -2.2508  0.0890 -0.0682
 4855SOL     OW26200   2.851   1.238   2.249  0.0656  0.0736 -0.3648
 4855SOL    HW126201   2.829   1.154   2.208 -0.7591 -1.5478  3.4118
 4855SOL    HW226202   2.843   1.215   2.342  0.4162 -0.0552 -0.3653
 4856SOL     OW26203   3.926   4.422  16.829 -0.2540  0.3423 -0.0364
 4856SOL    HW126204   3.890   4.511  16.834  1.3196  0.8761  1.7649
 4856SOL    HW226205   3.981   4.427  16.907 -0.9463 -1.0053  0.5323
 4857SOL     OW26206   1.962   0.809   5.208  0.0893 -0.7712  0.0445
 4857SOL    HW126207   2.050   0.788   5.176  0.0111 -2.9831  1.2729
 4857SOL    HW226208   1.923   0.754   5.140  0.9677  2.6614 -3.2212
 4858SOL     OW26209   3.882   2.980  17.501  0.1815  0.1902 -0.2705
 4858SOL    HW126210   3.806   3.020  17.457  1.5441  1.1595 -1.7352
 4858SOL    HW226211   3.948   3.048  17.506  1.3582 -0.7795 -2.3319
 4859SOL     OW26212   3.105   2.239   2.780  0.2273  1.0040  0.0664
 4859SOL    HW126213   3.196   2.258   2.759  0.4158 -0.1196 -0.1266
 4859SOL    HW226214   3.081   2.174   2.713  0.8309  1.2072 -0.3457
 4860SOL     OW26215   3.174   0.405   2.737 -0.6471 -0.2490 -0.1573
 4860SOL    HW126216   3.174   0.310   2.727 -0.5951 -0.2753  0.0992
 4860SOL    HW226217   3.251   0.429   2.789 -0.4534 -0.1486 -0.4853
 4861SOL     OW26218   3.477   2.692   1.254 -0.3091 -0.1882  0.0049
 4861SOL    HW126219   3.503   2.669   1.165  1.5732 -0.5225  0.6253
 4861SOL    HW226220   3.562   2.723   1.286 -0.6743  1.0867 -0.2985
 4862SOL     OW26221   4.539   1.838   1.887  0.8515 -0.4658 -0.3016
 4862SOL    HW126222   4.499   1.752   1.898 -0.3203  0.0539 -0.5663
 4862SOL    HW226223   4.571   1.831   1.797 -0.5082 -0.6839 -0.7692
 4863SOL     OW26224   3.792   4.629   8.701 -0.3132  0.5973 -0.6186
 4863SOL    HW126225   3.800   4.637   8.606  1.6946  1.8877 -0.3385
 4863SOL    HW226226   3.835   4.712   8.722 -0.1625  0.2950  0.2961
 4864SOL     OW26227   2.288   0.643   8.172  0.2341 -0.1944 -0.1834
 4864SOL    HW126228   2.194   0.652   8.188  0.4400  0.9553  0.3957
 4864SOL    HW226229   2.302   0.704   8.099 -2.5261  0.6887  0.0241
 4865SOL     OW26230   1.170   2.484   0.394 -0.3903  0.1827  0.8707
 4865SOL    HW126231   1.164   2.479   0.489 -0.2856 -2.1744  0.7496
 4865SOL    HW226232   1.139   2.574   0.384 -0.1844  0.2092  0.4600
 4866SOL     OW26233   3.011   3.419  11.121  0.0749 -0.1880  0.1414
 4866SOL    HW126234   3.027   3.396  11.212  0.5291 -0.8833 -0.1126
 4866SOL    HW226235   2.993   3.509  11.145 -1.6943 -0.4660 -0.1079
 4867SOL     OW26236   2.143   2.915  15.228 -0.1914 -0.2950 -0.1851
 4867SOL    HW126237   2.117   2.829  15.261 -0.9009  0.5365  1.4665
 4867SOL    HW226238   2.137   2.892  15.135  0.4727  1.6741 -0.7068
 4868SOL     OW26239   3.798   1.715  12.267 -0.5759 -0.6256 -0.4175
 4868SOL    HW126240   3.867   1.724  12.332 -1.2794 -2.3243  0.5556
 4868SOL    HW226241   3.751   1.635  12.292  1.4700 -1.1439  1.6786
 4869SOL     OW26242   3.267   1.199   6.165 -0.2579 -0.3168  0.1733
 4869SOL    HW126243   3.248   1.131   6.230 -0.3894 -0.4419  0.0021
 4869SOL    HW226244   3.226   1.166   6.085  1.5654  1.9406 -1.6929
 4870SOL     OW26245   2.401   2.478  15.328 -0.1315  0.5573 -0.5104
 4870SOL    HW126246   2.480   2.532  15.324  0.6325 -0.5124 -0.1539
 4870SOL    HW226247   2.404   2.461  15.422 -0.9951  1.3443 -0.3542
 4871SOL     OW26248   4.508   1.695   7.243  0.7454  0.2064 -0.8761
 4871SOL    HW126249   4.583   1.732   7.290 -0.2560  1.0309  0.0586
 4871SOL    HW226250   4.429   1.713   7.293 -0.3134 -0.8996 -2.1732
 4872SOL     OW26251   2.089   2.765   4.666  0.1828  1.0919 -0.0267
 4872SOL    HW126252   2.085   2.767   4.571  2.4492 -2.4370 -0.1996
 4872SOL    HW226253   2.120   2.855   4.678  1.7899  0.2008  2.7350
 4873SOL     OW26254   3.664   2.132  15.361 -0.0497  0.0254 -0.3026
 4873SOL    HW126255   3.702   2.053  15.399 -1.9817 -1.8152 -2.2248
 4873SOL    HW226256   3.614   2.094  15.289 -0.2024  1.3998 -0.9157
 4874SOL     OW26257   2.299   1.520   9.323  0.2386 -0.0169  0.5575
 4874SOL    HW126258   2.363   1.457   9.290 -2.0471 -1.1728 -1.6950
 4874SOL    HW226259   2.221   1.495   9.273  0.1134 -0.3572  0.9258
 4875SOL     OW26260   1.916   3.198   5.892 -0.0873  0.3241  0.4435
 4875SOL    HW126261   1.863   3.133   5.938 -1.2896  0.6099 -0.5425
 4875SOL    HW226262   2.005   3.162   5.898  0.6958  2.0092 -0.8636
 4876SOL     OW26263   1.026   2.714   0.951  0.1436  0.1908  0.4107
 4876SOL    HW126264   1.015   2.747   1.040 -0.3451 -0.6624  0.6615
 4876SOL    HW226265   1.099   2.655   0.966  0.8305  0.0438 -3.5364
 4877SOL     OW26266   4.501   1.526   9.580  0.1375  0.1057  0.4924
 4877SOL    HW126267   4.541   1.541   9.666 -2.5588  1.0948  1.5753
 4877SOL    HW226268   4.426   1.472   9.607  2.3663 -3.1327  0.1184
 4878SOL     OW26269   0.213   2.037   7.074 -0.1372  0.1349 -0.1920
 4878SOL    HW126270   0.146   2.022   7.007  1.7209  2.3211 -2.5694
 4878SOL    HW226271   0.268   1.959   7.069 -0.8583 -0.2198 -2.8901
 4879SOL     OW26272   3.692   4.244   3.652  0.0576 -0.5849 -0.3057
 4879SOL    HW126273   3.646   4.297   3.586  2.9725  0.8176 -1.2226
 4879SOL    HW226274   3.621   4.186   3.679 -1.5247  0.8880 -1.2266
 4880SOL     OW26275   0.348   3.929  14.802 -0.2877  0.4615  0.3705
 4880SOL    HW126276   0.363   3.836  14.786 -0.8797 -0.2912  4.2016
 4880SOL    HW226277   0.399   3.966  14.730 -1.3690  3.4849  1.1875
 4881SOL     OW26278   2.645   1.769   7.736  0.5847  0.6044  0.1833
 4881SOL    HW126279   2.623   1.695   7.792 -1.1305  1.5871  0.8113
 4881SOL    HW226280   2.737   1.747   7.722  0.0488 -0.5593 -1.4994
 4882SOL     OW26281   4.732   2.905   0.454  0.8109 -0.0761  0.5633
 4882SOL    HW126282   4.703   2.834   0.511 -1.0092 -1.7570 -2.4359
 4882SOL    HW226283   0.089   2.903   0.476  0.7419  0.3761  0.9043
 4883SOL     OW26284   2.248   3.442   5.781 -0.2409 -0.3656 -0.2535
 4883SOL    HW126285   2.337   3.443   5.745 -0.7870 -3.6189 -1.6749
 4883SOL    HW226286   2.227   3.535   5.769 -0.4321 -0.3724  0.0274
 4884SOL     OW26287   1.170   1.657   8.837  0.5336  0.1103 -0.0498
 4884SOL    HW126288   1.127   1.738   8.863  1.0055 -0.3868  2.3533
 4884SOL    HW226289   1.191   1.620   8.923  1.6363  0.4445 -0.1708
 4885SOL     OW26290   3.746   3.634   0.492  0.0768 -0.4551 -0.0993
 4885SOL    HW126291   3.771   3.619   0.583 -0.0439 -0.5905 -0.0875
 4885SOL    HW226292   3.794   3.571   0.437 -2.0993 -1.6953 -0.5992
 4886SOL     OW26293   1.414   1.306   6.096 -0.3678  0.2891 -0.2145
 4886SOL    HW126294   1.382   1.392   6.068  1.1599  1.3569  1.3870
 4886SOL    HW226295   1.480   1.284   6.031  1.5823  1.0536  1.5360
 4887SOL     OW26296   1.294   3.033  12.963  0.6795 -0.4587  0.1397
 4887SOL    HW126297   1.362   3.033  12.896 -2.6934  0.5650 -3.2675
 4887SOL    HW226298   1.307   2.944  12.997 -4.2512 -0.3978  2.1651
 4888SOL     OW26299   3.781   2.713   6.660  0.0983  0.2725 -0.0900
 4888SOL    HW126300   3.750   2.800   6.685  0.5260  0.7719 -1.3122
 4888SOL    HW226301   3.752   2.699   6.570 -1.2258 -1.7024  0.6324
 4889SOL     OW26302   1.880   4.396   6.876  0.0084  0.4201  0.3664
 4889SOL    HW126303   1.973   4.409   6.860 -0.2314  2.5529  0.6848
 4889SOL    HW226304   1.858   4.376   6.785  3.3295 -1.1112 -0.0872
 4890SOL     OW26305   4.661   2.309   4.178 -0.2626  0.4085  0.3116
 4890SOL    HW126306   4.666   2.375   4.248 -1.1797  1.2215 -0.3940
 4890SOL    HW226307   4.697   2.237   4.230 -0.5385  0.5252  0.6653
 4891SOL     OW26308   2.005   0.036   9.053  0.8221  0.2967 -0.1105
 4891SOL    HW126309   2.033   4.692   9.097 -0.3156 -0.8070 -1.3991
 4891SOL    HW226310   1.922   0.016   9.011 -1.0600  0.4456  3.5363
 4892SOL     OW26311   1.130   3.749   7.043  0.1139 -0.6175  0.5802
 4892SOL    HW126312   1.152   3.728   6.952 -1.4212 -2.8934  0.7233
 4892SOL    HW226313   1.179   3.829   7.058 -0.9348  0.3124 -0.9455
 4893SOL     OW26314   3.379   0.388   5.176  0.0281 -0.1205  0.3527
 4893SOL    HW126315   3.290   0.404   5.208 -0.6482 -1.7906 -0.6919
 4893SOL    HW226316   3.405   0.336   5.252  0.6106 -1.1281 -0.5337
 4894SOL     OW26317   2.997   3.280   5.709 -0.8142 -0.4869  0.7165
 4894SOL    HW126318   3.053   3.222   5.657 -1.5283 -0.6650  0.1398
 4894SOL    HW226319   2.927   3.303   5.649  0.2599  0.1260 -0.3029
 4895SOL     OW26320   3.963   2.226   3.253  0.2270  0.1660 -0.1720
 4895SOL    HW126321   3.997   2.200   3.339 -0.2347 -3.7713 -1.1650
 4895SOL    HW226322   4.015   2.169   3.197 -0.3990 -0.2802 -0.2945
 4896SOL     OW26323   3.151   0.072   5.356 -0.0939  0.1136 -0.2643
 4896SOL    HW126324   3.124   0.116   5.436  0.9850  2.4028 -1.1650
 4896SOL    HW226325   3.116   4.719   5.365 -3.1787  1.5677  2.0056
 4897SOL     OW26326   2.989   3.624  17.642  0.1437 -0.1324  0.1094
 4897SOL    HW126327   3.022   3.539  17.669  2.8687  0.9868  0.2851
 4897SOL    HW226328   3.003   3.627  17.548  1.0396 -2.6995  0.1695
 4898SOL     OW26329   3.729   3.968   0.985 -0.3053  0.2584 -0.1240
 4898SOL    HW126330   3.784   3.953   1.062  3.7340  1.4703 -2.7563
 4898SOL    HW226331   3.673   4.042   1.009 -0.6066 -0.6127  1.9313
 4899SOL     OW26332   2.027   2.412   1.134  0.4701 -0.4153 -0.0705
 4899SOL    HW126333   2.020   2.360   1.213 -0.0571  0.1097  0.2327
 4899SOL    HW226334   2.122   2.415   1.125  0.3998 -5.5333 -2.4183
 4900SOL     OW26335   1.831   1.106   3.635  0.5875  0.4692 -0.2253
 4900SOL    HW126336   1.784   1.105   3.718 -1.2294 -0.3285 -1.2555
 4900SOL    HW226337   1.867   1.018   3.646 -0.2547 -0.2379 -3.0341
 4901SOL     OW26338   2.457   1.599   7.565  0.5048  0.3081 -0.6257
 4901SOL    HW126339   2.479   1.524   7.620  0.1550  1.1679  0.7031
 4901SOL    HW226340   2.523   1.664   7.588  1.2839 -1.0665  1.0361
 4902SOL     OW26341   3.719   2.774   2.432  0.0491 -0.0984 -0.6207
 4902SOL    HW126342   3.725   2.834   2.358 -0.8539  0.0975 -0.5409
 4902SOL    HW226343   3.810   2.761   2.457  0.4732  2.6082 -0.7969
 4903SOL     OW26344   0.871   1.932  13.784 -0.6344  0.2933  0.2052
 4903SOL    HW126345   0.783   1.959  13.811 -1.1361 -1.4667  0.3170
 4903SOL    HW226346   0.906   2.021  13.776  0.6068 -0.2109  0.0771
 4904SOL     OW26347   2.816   1.104   4.614  0.4095 -0.2007 -0.2077
 4904SOL    HW126348   2.738   1.060   4.648 -0.1256  2.1298  1.5924
 4904SOL    HW226349   2.777   1.187   4.588  1.2031  0.8766  2.0422
 4905SOL     OW26350   3.463   3.377   4.913  0.0315 -0.0910  0.2755
 4905SOL    HW126351   3.424   3.300   4.955  0.3188 -1.1254 -1.3165
 4905SOL    HW226352   3.396   3.376   4.845  1.9297 -0.3036 -1.5848
 4906SOL     OW26353   1.335   1.786   4.938 -0.4686  0.5816 -0.1355
 4906SOL    HW126354   1.283   1.744   4.869 -0.5059  0.8931 -0.2985
 4906SOL    HW226355   1.264   1.807   4.999 -0.5288  1.1182 -0.3874
 4907SOL     OW26356   2.190   0.716   6.414  0.0008 -0.2580 -0.4269
 4907SOL    HW126357   2.116   0.762   6.454 -0.2523 -0.6408 -0.4557
 4907SOL    HW226358   2.192   0.747   6.323 -0.9956  1.2834  0.0740
 4908SOL     OW26359   2.268   0.486   3.471 -0.0354  0.3628 -0.1608
 4908SOL    HW126360   2.309   0.506   3.386  1.6304 -0.0383  0.5451
 4908SOL    HW226361   2.189   0.434   3.458  0.7757 -0.8185 -0.3340
 4909SOL     OW26362   4.232   0.233   4.910  0.3139  0.0603 -0.0909
 4909SOL    HW126363   4.263   0.144   4.897 -0.0905  0.2410 -2.2444
 4909SOL    HW226364   4.302   0.259   4.971 -1.0342  0.4961  1.2896
 4910SOL     OW26365   4.238   2.722   8.587 -0.2950 -0.5431  0.0640
 4910SOL    HW126366   4.167   2.736   8.523 -1.4567 -1.8619  1.0696
 4910SOL    HW226367   4.311   2.774   8.554  0.3875 -2.3599 -1.2982
 4911SOL     OW26368   4.466   2.253   4.655  0.3328  0.3508  0.1303
 4911SOL    HW126369   4.552   2.215   4.641 -0.2870 -1.6467  1.8076
 4911SOL    HW226370   4.437   2.283   4.569  0.7598  0.1937 -0.0661
 4912SOL     OW26371   3.566   3.620   1.409  0.2028 -0.1796  0.7931
 4912SOL    HW126372   3.512   3.569   1.470 -0.4526  1.8462  1.9019
 4912SOL    HW226373   3.650   3.579   1.429  0.8108  1.1506  0.9296
 4913SOL     OW26374   1.527   3.382   6.535 -0.4240 -0.0021 -0.4753
 4913SOL    HW126375   1.610   3.427   6.516 -1.1702  2.3944  1.8544
 4913SOL    HW226376   1.479   3.449   6.584 -0.6059  0.4539 -1.2734
 4914SOL     OW26377   1.288   4.606   2.205  0.1574 -0.0489 -0.2951
 4914SOL    HW126378   1.354   4.651   2.152  0.5037  2.1435  2.0334
 4914SOL    HW226379   1.342   4.541   2.248 -0.1274 -0.5959 -0.7671
 4915SOL     OW26380   0.550   4.539   7.883 -0.1295 -0.6358  0.4974
 4915SOL    HW126381   0.487   4.480   7.924 -0.8368 -0.3999 -0.2309
 4915SOL    HW226382   0.505   4.590   7.815  0.9013  2.3597  2.0828
 4916SOL     OW26383   2.423   4.398   6.844  0.4476 -1.1328  0.2327
 4916SOL    HW126384   2.459   4.444   6.769 -3.8990  2.7126  0.5220
 4916SOL    HW226385   2.460   4.444   6.920 -2.0986  1.0506  0.1685
 4917SOL     OW26386   3.105   3.639  10.540 -0.4202  0.2647  0.2528
 4917SOL    HW126387   3.102   3.668  10.631 -0.1682 -1.1886  0.7281
 4917SOL    HW226388   3.142   3.551  10.550 -1.5816 -0.2866 -0.3424
 4918SOL     OW26389   2.571   4.120   5.234 -0.7338 -0.0539 -0.0002
 4918SOL    HW126390   2.592   4.027   5.223 -1.7598 -0.1068 -1.5617
 4918SOL    HW226391   2.579   4.151   5.144  1.8220 -1.8450 -0.4075
 4919SOL     OW26392   3.821   2.967   3.385  0.1073  0.3826  0.0616
 4919SOL    HW126393   3.829   2.933   3.473 -0.3208  1.4277  0.5063
 4919SOL    HW226394   3.807   2.884   3.338 -1.0381  1.3711 -1.3402
 4920SOL     OW26395   2.075   0.739  13.397 -0.5279  0.0643  0.4811
 4920SOL    HW126396   2.149   0.733  13.336 -0.5959 -1.8132  0.5816
 4920SOL    HW226397   2.120   0.756  13.480  1.9541 -0.4956 -0.7288
 4921SOL     OW26398   0.924   2.000   9.868  0.0243  0.0280  0.6528
 4921SOL    HW126399   1.011   2.029   9.839 -1.6217  2.4228 -1.8349
 4921SOL    HW226400   0.933   2.028   9.959 -0.4981 -1.8500  1.2950
 4922SOL     OW26401   2.707   1.473   7.425 -0.3073  0.4949 -0.0102
 4922SOL    HW126402   2.748   1.430   7.500  0.5462 -0.2378 -0.8906
 4922SOL    HW226403   2.617   1.445   7.442 -0.9085  2.5984  0.2765
 4923SOL     OW26404   4.272   3.246   1.218 -0.2325  0.2056 -0.3275
 4923SOL    HW126405   4.237   3.170   1.264 -0.0488 -1.2533 -2.6438
 4923SOL    HW226406   4.365   3.225   1.230 -0.1547  0.6014 -0.2186
 4924SOL     OW26407   3.100   3.313   2.345  0.3742 -0.2445  0.1480
 4924SOL    HW126408   3.007   3.299   2.361  0.0972  0.7384 -0.5549
 4924SOL    HW226409   3.096   3.402   2.309 -0.2552 -0.4760 -0.3510
 4925SOL     OW26410   2.683   1.503  10.050 -0.4447 -0.3017  0.3860
 4925SOL    HW126411   2.593   1.523  10.075 -0.6607  0.3751 -0.9643
 4925SOL    HW226412   2.665   1.415  10.016  1.2460 -0.2545 -0.6307
 4926SOL     OW26413   2.384   1.083   6.095  0.0386  0.0263  0.3882
 4926SOL    HW126414   2.471   1.078   6.055 -0.2035  3.0724 -0.5340
 4926SOL    HW226415   2.404   1.050   6.183 -2.2279  1.2987  1.3808
 4927SOL     OW26416   4.068   4.674   4.032 -0.1982  0.3025 -0.3525
 4927SOL    HW126417   4.106   0.010   3.982 -0.2008 -0.1197 -0.9723
 4927SOL    HW226418   3.974   4.689   4.020 -0.1429  1.5368  0.8262
 4928SOL     OW26419   0.682   2.231   9.118 -0.1414  0.0805 -0.9719
 4928SOL    HW126420   0.620   2.304   9.106 -1.1545 -0.8388 -1.3184
 4928SOL    HW226421   0.753   2.280   9.159  0.3370  0.4552 -2.2438
 4929SOL     OW26422   3.866   1.551   2.449 -0.2398 -0.6268 -0.0127
 4929SOL    HW126423   3.841   1.577   2.538 -1.2278 -0.0156 -0.4779
 4929SOL    HW226424   3.943   1.496   2.467  0.2409  0.3006  0.7967
 4930SOL     OW26425   3.416   2.652  13.359  0.5455 -0.0087 -0.7409
 4930SOL    HW126426   3.483   2.699  13.409  0.8319  0.5051 -1.6036
 4930SOL    HW226427   3.441   2.561  13.374  0.3431 -0.1334 -1.1428
 4931SOL     OW26428   0.289   1.137   5.104 -0.1894  0.0814  0.2203
 4931SOL    HW126429   0.201   1.109   5.129  0.6248 -0.5044  2.4340
 4931SOL    HW226430   0.279   1.229   5.131  0.0763  0.1547  0.0665
 4932SOL     OW26431   0.146   0.156   4.686 -0.2512 -0.0833  0.0887
 4932SOL    HW126432   0.104   0.183   4.604 -2.8548 -0.9186  1.1173
 4932SOL    HW226433   0.071   0.108   4.722 -1.6650  0.3329 -2.2611
 4933SOL     OW26434   2.404   1.790   8.427  0.4456  0.2204 -0.4279
 4933SOL    HW126435   2.400   1.695   8.411 -0.2713  0.6321 -2.7052
 4933SOL    HW226436   2.344   1.789   8.502  1.8100  0.2655  0.6458
 4934SOL     OW26437   0.502   0.414  17.140  0.2107  0.2773 -0.0598
 4934SOL    HW126438   0.584   0.451  17.108 -0.1329  0.9727 -0.1319
 4934SOL    HW226439   0.490   0.464  17.221 -2.4872 -1.9992  0.9473
 4935SOL     OW26440   4.314   0.889  12.797  0.0791  0.0329  0.4369
 4935SOL    HW126441   4.406   0.869  12.777 -0.4389 -0.9616 -0.9897
 4935SOL    HW226442   4.271   0.822  12.744  0.3784  0.6357 -0.5773
 4936SOL     OW26443   2.095   4.385   6.236 -0.3329 -0.5241  0.1156
 4936SOL    HW126444   2.020   4.328   6.255 -0.1782 -0.0333  2.1626
 4936SOL    HW226445   2.170   4.330   6.258 -2.2162 -2.4740  1.7299
 4937SOL     OW26446   2.812   0.020   4.114 -0.0993  0.6886 -0.1595
 4937SOL    HW126447   2.776   4.674   4.148  1.4753  0.0600  0.0110
 4937SOL    HW226448   2.782   0.091   4.171 -3.4320  0.7674 -2.0461
 4938SOL     OW26449   0.874   4.089   5.500 -0.4633  0.3037 -0.1756
 4938SOL    HW126450   0.878   4.146   5.423 -2.2657  1.4283  0.5428
 4938SOL    HW226451   0.781   4.089   5.524 -0.4449 -0.7717 -0.1240
 4939SOL     OW26452   4.002   3.021   2.137  0.4345 -0.0469  0.5092
 4939SOL    HW126453   4.044   2.976   2.064 -2.0084 -0.2598 -0.7632
 4939SOL    HW226454   3.993   3.107   2.096 -1.5596 -0.6145 -0.2227
 4940SOL     OW26455   0.092   4.572   4.523 -0.0438 -0.2499 -0.3419
 4940SOL    HW126456   0.062   4.608   4.440 -1.1008 -1.0182 -0.2852
 4940SOL    HW226457   0.149   4.498   4.502  0.5620  0.2461 -0.4701
 4941SOL     OW26458   2.796   2.883  11.339 -0.4052 -0.0127  0.1508
 4941SOL    HW126459   2.705   2.909  11.346 -0.2411  0.8950 -1.0703
 4941SOL    HW226460   2.793   2.799  11.385 -2.7136  0.6894  1.2527
 4942SOL     OW26461   3.359   0.987   8.045 -0.5768 -0.1582 -0.4619
 4942SOL    HW126462   3.434   1.006   7.989 -0.6939  0.7645 -0.3129
 4942SOL    HW226463   3.300   1.057   8.016 -1.8076 -1.1861 -0.4595
 4943SOL     OW26464   2.599   0.323  15.256 -0.1183  0.0820  0.4120
 4943SOL    HW126465   2.516   0.371  15.259 -0.2962 -0.1258 -1.1238
 4943SOL    HW226466   2.576   0.239  15.297 -0.9206  0.7883  1.4011
 4944SOL     OW26467   1.854   4.092   5.994 -0.1240 -0.1666  0.0738
 4944SOL    HW126468   1.814   4.170   5.956  1.3845  0.7092  0.2651
 4944SOL    HW226469   1.856   4.124   6.084 -0.0294  0.7319 -0.2462
 4945SOL     OW26470   0.178   4.101  15.286  0.2526 -0.0091  0.1045
 4945SOL    HW126471   0.261   4.058  15.305  0.8757  0.5774 -1.2515
 4945SOL    HW226472   0.175   4.102  15.190 -1.2286 -1.9251  0.1411
 4946SOL     OW26473   1.537   4.143   3.986  0.1190  0.1267  0.3832
 4946SOL    HW126474   1.454   4.130   3.940  0.2880 -1.1235  0.4104
 4946SOL    HW226475   1.585   4.110   3.910 -0.0713  1.5660 -0.3492
 4947SOL     OW26476   0.769   0.313   3.584  0.1898  0.1871  0.0217
 4947SOL    HW126477   0.732   0.324   3.496 -0.4009 -1.6220  0.0398
 4947SOL    HW226478   0.863   0.298   3.572 -0.1408 -2.4352  0.7019
 4948SOL     OW26479   2.622   1.810   5.173 -0.1102  0.2565 -0.5143
 4948SOL    HW126480   2.709   1.771   5.175 -0.7240 -1.1658 -1.3808
 4948SOL    HW226481   2.572   1.734   5.201 -0.4649  1.2656  1.6221
 4949SOL     OW26482   0.019   3.661  14.981 -0.1894 -0.2471 -0.7120
 4949SOL    HW126483   4.727   3.591  14.923  2.3137  1.0123 -3.4381
 4949SOL    HW226484   0.041   3.606  15.057  1.3198 -0.3525 -1.2263
 4950SOL     OW26485   1.473   1.878   6.692  0.0507  0.2769 -0.1901
 4950SOL    HW126486   1.429   1.962   6.703 -0.6253 -0.4748  2.8407
 4950SOL    HW226487   1.548   1.901   6.637 -0.0719  0.0839 -0.4375
 4951SOL     OW26488   4.338   2.107   7.774  0.0394  0.3481  0.0904
 4951SOL    HW126489   4.333   2.162   7.695 -0.1848 -0.4190 -0.4323
 4951SOL    HW226490   4.298   2.025   7.744  1.3091 -0.9677  2.0706
 4952SOL     OW26491   3.150   0.526   7.240  0.1488  0.0450  0.0601
 4952SOL    HW126492   3.054   0.523   7.237  0.1781 -1.0702  0.1035
 4952SOL    HW226493   3.165   0.447   7.291 -1.9441 -0.3755  0.0223
 4953SOL     OW26494   1.984   1.845   1.935  0.1164  0.5517 -0.3309
 4953SOL    HW126495   2.025   1.841   1.849  0.0196  0.3425 -0.3687
 4953SOL    HW226496   1.902   1.886   1.911 -1.2444 -1.7989  0.2655
 4954SOL     OW26497   1.918   3.225  12.671 -0.2637 -0.1129 -0.0478
 4954SOL    HW126498   1.987   3.204  12.608 -0.9073  1.2215 -1.2199
 4954SOL    HW226499   1.936   3.159  12.738 -1.4562 -0.8013 -0.4120
 4955SOL     OW26500   2.353   3.044   3.369  0.3239 -0.1272 -0.1013
 4955SOL    HW126501   2.418   3.102   3.329 -1.5044  0.7598 -1.7240
 4955SOL    HW226502   2.399   2.997   3.439  0.8017 -1.7586 -1.5124
 4956SOL     OW26503   3.587   3.833   2.040  0.6385  0.2620  0.4542
 4956SOL    HW126504   3.602   3.742   2.014  0.0615 -0.6213  3.1866
 4956SOL    HW226505   3.586   3.872   1.952  1.8875 -0.9172 -0.0864
 4957SOL     OW26506   1.741   3.609   1.973  0.6731  0.1225 -0.1836
 4957SOL    HW126507   1.757   3.521   1.939 -1.7050  0.5736 -2.4439
 4957SOL    HW226508   1.754   3.651   1.888  0.7680 -2.7826 -1.5996
 4958SOL     OW26509   4.573   1.624  12.139  0.3154 -0.4247  0.4769
 4958SOL    HW126510   4.542   1.650  12.052 -1.1944 -0.9345  0.8572
 4958SOL    HW226511   4.533   1.674  12.210  3.0310  2.5545 -0.1172
 4959SOL     OW26512   2.159   1.439  10.159 -0.1312 -0.1708  0.6266
 4959SOL    HW126513   2.209   1.454  10.079 -1.3535  0.0987 -0.0898
 4959SOL    HW226514   2.176   1.515  10.215  0.2420  1.7145 -2.0437
 4960SOL     OW26515   2.164   0.972   2.453  0.0392 -0.1425  0.6769
 4960SOL    HW126516   2.152   0.971   2.358  0.0249 -1.0924  0.6843
 4960SOL    HW226517   2.195   1.061   2.467  2.2294 -0.5720 -1.5399
 4961SOL     OW26518   4.509   0.972   7.124  0.2166  0.3991 -0.1081
 4961SOL    HW126519   4.531   1.031   7.196 -1.9298  0.4207  0.5119
 4961SOL    HW226520   4.414   0.980   7.115 -0.0795  0.2369  3.1195
 4962SOL     OW26521   2.255   1.340   9.871 -0.2048 -0.2631  0.1566
 4962SOL    HW126522   2.191   1.269   9.870 -1.7398  1.0934  1.3153
 4962SOL    HW226523   2.289   1.328   9.783  1.7576 -1.3768  1.0703
 4963SOL     OW26524   1.065   3.361  16.926 -0.0308 -0.1823 -0.0444
 4963SOL    HW126525   1.149   3.373  16.881  0.0157  0.2665  0.1602
 4963SOL    HW226526   1.049   3.267  16.923  2.4115 -0.6751  3.7811
 4964SOL     OW26527   2.060   0.402   9.254  0.4588 -0.3793  0.1161
 4964SOL    HW126528   2.061   0.369   9.164 -1.4761 -0.1040 -0.0017
 4964SOL    HW226529   2.065   0.322   9.307  0.2349 -1.8255 -2.0790
 4965SOL     OW26530   1.115   4.145   4.052 -0.3454 -0.5179 -0.2513
 4965SOL    HW126531   1.149   4.215   4.109 -0.5638 -1.6655  1.3054
 4965SOL    HW226532   1.119   4.173   3.961 -0.1632 -2.6290 -0.8876
 4966SOL     OW26533   0.537   4.519   4.833  0.7248  0.9310  0.5110
 4966SOL    HW126534   0.448   4.554   4.835  1.5791  3.0724  0.6993
 4966SOL    HW226535   0.571   4.588   4.889 -0.4841  0.7529  1.4757
 4967SOL     OW26536   1.226   4.226   6.372 -0.1873  0.5764  0.1581
 4967SOL    HW126537   1.167   4.295   6.341 -2.0608 -1.8764 -1.7374
 4967SOL    HW226538   1.239   4.193   6.284 -2.5641 -1.9303  0.7224
 4968SOL     OW26539   3.661   0.690   3.467 -0.4935  0.5568  0.3535
 4968SOL    HW126540   3.622   0.643   3.393 -2.8357  0.5703  1.5825
 4968SOL    HW226541   3.695   0.616   3.517 -1.1771 -0.5156 -0.7820
 4969SOL     OW26542   1.013   4.081  12.400  0.1857 -0.5900 -0.5401
 4969SOL    HW126543   0.946   4.085  12.331 -0.2510 -0.8129 -0.1283
 4969SOL    HW226544   1.056   4.000  12.373 -1.1147 -0.6065 -2.5861
 4970SOL     OW26545   4.057   1.782   6.381 -0.2992 -0.0839  0.0543
 4970SOL    HW126546   4.050   1.804   6.289 -1.0615  1.0952  0.3939
 4970SOL    HW226547   4.136   1.828   6.410  0.7523  0.2856 -3.3933
 4971SOL     OW26548   2.923   3.029   5.411 -0.2678 -0.0110  0.4951
 4971SOL    HW126549   2.879   3.025   5.496 -0.4675  0.3203  0.4086
 4971SOL    HW226550   2.890   2.957   5.359 -1.6988  0.8278  0.2434
 4972SOL     OW26551   0.889   2.959  10.558  0.0305 -0.4933 -0.0152
 4972SOL    HW126552   0.866   2.878  10.513 -0.8610  0.3976 -1.1541
 4972SOL    HW226553   0.801   2.995  10.543 -0.4106 -1.4700  0.2074
 4973SOL     OW26554   0.365   1.716   8.166  0.4753  0.3790 -0.2509
 4973SOL    HW126555   0.358   1.695   8.259  0.0604 -2.0489 -0.8370
 4973SOL    HW226556   0.276   1.741   8.141  0.0152  0.2626  1.2703
 4974SOL     OW26557   1.675   1.996   6.228  0.1112 -0.1130  0.1704
 4974SOL    HW126558   1.585   1.968   6.212  0.0317 -0.5791  1.3889
 4974SOL    HW226559   1.688   1.955   6.314 -0.9163  1.5609  1.1382
 4975SOL     OW26560   4.349   0.870   6.720  0.0395  0.1125  0.1894
 4975SOL    HW126561   4.326   0.889   6.811 -1.6459 -2.4879  0.3159
 4975SOL    HW226562   4.431   0.820   6.726  0.1906  0.4635  1.0765
 4976SOL     OW26563   4.212   0.069   1.617 -0.3357  0.2943  0.4114
 4976SOL    HW126564   4.299   0.040   1.644  1.3788  2.8711 -2.2241
 4976SOL    HW226565   4.218   0.080   1.522 -3.1802 -0.8420  0.1156
 4977SOL     OW26566   1.478   0.334  17.252 -0.0688  0.8034 -0.4447
 4977SOL    HW126567   1.415   0.396  17.214  0.4398  1.5307 -0.1040
 4977SOL    HW226568   1.450   0.324  17.342  2.0892  0.8200  0.2393
 4978SOL     OW26569   2.701   1.236  10.283 -0.1865 -0.1002 -0.4202
 4978SOL    HW126570   2.640   1.234  10.209 -1.9895 -0.1649  1.0500
 4978SOL    HW226571   2.642   1.268  10.351  1.6207 -1.0571  1.5817
 4979SOL     OW26572   2.705   3.947   3.281  0.3956  0.2137  0.3281
 4979SOL    HW126573   2.735   3.858   3.263 -0.3967 -0.4297  2.2912
 4979SOL    HW226574   2.714   3.951   3.376  0.0094 -0.0202  0.3713
 4980SOL     OW26575   3.327   1.197   7.077 -0.1618  0.2473  0.2715
 4980SOL    HW126576   3.338   1.279   7.125  0.9582  0.4864 -0.3914
 4980SOL    HW226577   3.298   1.234   6.994 -0.1340  1.8578  0.9725
 4981SOL     OW26578   2.632   1.464   6.753  0.1367  0.2106  0.3201
 4981SOL    HW126579   2.552   1.489   6.707  0.6345 -0.9981 -1.1850
 4981SOL    HW226580   2.673   1.400   6.695  0.5994 -0.7916  1.7612
 4982SOL     OW26581   0.128   1.049   7.419  0.1279 -0.0684  0.5789
 4982SOL    HW126582   0.157   1.134   7.454  0.1660  0.2748 -0.2788
 4982SOL    HW226583   0.073   1.014   7.488  0.5948  0.7758  1.3883
 4983SOL     OW26584   3.361   0.620   7.344 -0.0776 -0.0719 -0.1405
 4983SOL    HW126585   3.296   0.569   7.296  2.3699 -1.1424 -2.2751
 4983SOL    HW226586   3.308   0.626   7.424 -0.0744  0.3877 -0.1715
 4984SOL     OW26587   1.121   0.785   2.576 -0.4787  0.0065  0.4699
 4984SOL    HW126588   1.077   0.870   2.584  0.3445  0.1640  3.0229
 4984SOL    HW226589   1.202   0.801   2.527 -1.0253 -0.4009 -0.5794
 4985SOL     OW26590   1.859   1.993   3.420 -0.9681  0.4803 -0.5094
 4985SOL    HW126591   1.909   1.917   3.448 -0.4567  0.2428 -2.0655
 4985SOL    HW226592   1.786   1.982   3.482 -0.1269  0.2667  0.4372
 4986SOL     OW26593   4.122   1.974   0.422  0.0366  0.0922  0.5102
 4986SOL    HW126594   4.206   2.008   0.390  0.1059 -1.1131 -0.6200
 4986SOL    HW226595   4.107   2.044   0.485  0.8607  1.3298 -0.6767
 4987SOL     OW26596   3.462   2.313   9.391  0.2003 -0.1734  0.0681
 4987SOL    HW126597   3.477   2.345   9.302 -2.2193  0.1794 -0.2000
 4987SOL    HW226598   3.415   2.385   9.433  0.7795  0.2600 -0.0114
 4988SOL     OW26599   0.000   2.609   7.748  0.0815  0.1531 -0.0825
 4988SOL    HW126600   0.075   2.562   7.710  1.4599  1.2110  1.3325
 4988SOL    HW226601   4.692   2.527   7.771 -2.6954  1.1906 -1.7579
 4989SOL     OW26602   1.357   3.317   3.036  0.9522 -0.0622  0.2875
 4989SOL    HW126603   1.305   3.397   3.039  1.7510  0.5124 -1.1660
 4989SOL    HW226604   1.311   3.280   3.111 -0.6962  0.8492 -0.2869
 4990SOL     OW26605   1.792   2.303   4.869 -0.6631  0.0278 -0.3921
 4990SOL    HW126606   1.807   2.381   4.924  0.6213 -1.3982  1.2669
 4990SOL    HW226607   1.698   2.317   4.854  0.0014 -0.4355 -4.6778
 4991SOL     OW26608   3.278   2.166   3.444  0.2319 -0.1178  0.0660
 4991SOL    HW126609   3.230   2.112   3.381  0.4545  1.2434 -1.2576
 4991SOL    HW226610   3.319   2.233   3.390  0.6426 -0.6540 -0.2834
 4992SOL     OW26611   2.203   3.183   6.778 -0.0771  0.2949 -0.2674
 4992SOL    HW126612   2.138   3.252   6.791 -3.2476 -2.5905 -0.8697
 4992SOL    HW226613   2.187   3.140   6.862  0.4885  0.5108 -0.0470
 4993SOL     OW26614   3.533   3.556  11.614 -0.1999  0.2491 -0.3064
 4993SOL    HW126615   3.485   3.483  11.574 -1.5802  0.1958  1.4834
 4993SOL    HW226616   3.622   3.525  11.597 -1.1315 -2.0555 -1.0788
 4994SOL     OW26617   3.560   1.476   7.888 -0.6783 -0.4259  0.3515
 4994SOL    HW126618   3.618   1.466   7.812  1.8065  1.2434  2.0532
 4994SOL    HW226619   3.560   1.401   7.947 -0.2207 -0.0053  0.8762
 4995SOL     OW26620   0.103   2.540   6.466 -0.0406 -0.4895  0.3550
 4995SOL    HW126621   0.138   2.451   6.470 -0.2201 -0.5238  1.0757
 4995SOL    HW226622   0.044   2.533   6.391 -0.5795 -0.0769  0.7413
 4996SOL     OW26623   1.080   3.856   2.935  0.2329  0.2674 -0.1128
 4996SOL    HW126624   1.073   3.843   3.029 -0.1069 -1.1986 -0.3366
 4996SOL    HW226625   0.987   3.871   2.919  0.1770  0.0523  0.0157
 4997SOL     OW26626   3.220   1.909   9.576 -0.0607 -0.1097 -0.1835
 4997SOL    HW126627   3.204   1.996   9.613 -1.6703  0.0820 -1.3281
 4997SOL    HW226628   3.168   1.853   9.633  0.1071  1.7117  1.7515
 4998SOL     OW26629   0.686   3.776  15.384  0.0812  0.0119 -0.3352
 4998SOL    HW126630   0.644   3.762  15.300  0.2936 -0.2903 -0.3924
 4998SOL    HW226631   0.696   3.871  15.393 -0.2041 -0.0719  0.9318
 4999SOL     OW26632   0.933   3.107  14.863 -0.1741 -0.1275 -0.3561
 4999SOL    HW126633   0.925   3.185  14.918  1.8645  1.7729 -2.7808
 4999SOL    HW226634   1.028   3.108  14.869 -0.0871 -1.1794 -1.4780
 5000SOL     OW26635   4.052   1.059  16.916 -0.2417  0.0584  0.2708
 5000SOL    HW126636   3.999   1.000  16.862  0.2034 -0.4353  0.3812
 5000SOL    HW226637   4.037   1.034  17.007 -2.0312  1.6362  0.4112
 5001SOL     OW26638   0.384   1.984   6.156  0.6764 -0.0807  0.1814
 5001SOL    HW126639   0.309   2.030   6.117  0.1828 -0.7997  0.2706
 5001SOL    HW226640   0.458   2.006   6.100  0.1286 -1.5690 -1.1082
 5002SOL     OW26641   3.018   2.271   7.542 -0.8074 -0.7742 -0.2226
 5002SOL    HW126642   3.073   2.261   7.619 -2.3150 -0.7445  0.8577
 5002SOL    HW226643   2.962   2.198   7.570 -1.0944 -0.8725 -1.0494
 5003SOL     OW26644   1.065   1.805   8.435 -0.3706 -0.5149 -0.1348
 5003SOL    HW126645   1.025   1.780   8.519 -0.2647 -0.2694 -0.0113
 5003SOL    HW226646   1.143   1.853   8.464 -1.3714  0.6590  0.5682
 5004SOL     OW26647   1.971   1.806   6.892  0.3194  0.7809  0.0218
 5004SOL    HW126648   1.876   1.796   6.880  0.3060  0.3640  0.5105
 5004SOL    HW226649   1.980   1.765   6.978 -2.3707 -0.3643 -0.2514
 5005SOL     OW26650   3.513   4.455   8.469  0.0419 -0.4449  0.3189
 5005SOL    HW126651   3.529   4.545   8.442  3.5258 -0.7473  1.3824
 5005SOL    HW226652   3.445   4.468   8.535 -0.1724  2.0206 -0.3906
 5006SOL     OW26653   4.007   0.706   8.702 -0.2173 -0.2889 -0.0637
 5006SOL    HW126654   4.050   0.774   8.754 -1.4833  0.4395  0.0409
 5006SOL    HW226655   4.018   0.630   8.759  0.8179 -0.2485 -0.2185
 5007SOL     OW26656   0.518   2.295   6.814 -0.2671 -0.0141 -0.5137
 5007SOL    HW126657   0.440   2.346   6.836  0.7529  1.4245 -0.2466
 5007SOL    HW226658   0.581   2.348   6.863 -2.1549  1.0692  0.7837
 5008SOL     OW26659   4.713   0.475   6.054 -0.4999  0.0093 -0.6358
 5008SOL    HW126660   0.025   0.397   6.024  1.5888  0.4350  1.6241
 5008SOL    HW226661   4.699   0.447   6.144  0.0786  0.2814 -0.4625
 5009SOL     OW26662   2.795   3.368   4.080  0.6505 -0.1902 -0.4260
 5009SOL    HW126663   2.729   3.432   4.107  1.8476  0.6117  0.5965
 5009SOL    HW226664   2.854   3.370   4.155  0.5460  0.9751 -0.3712
 5010SOL     OW26665   2.631   3.212  11.159 -0.0226  0.3915 -0.5783
 5010SOL    HW126666   2.586   3.286  11.201 -2.0759 -1.1351 -0.0840
 5010SOL    HW226667   2.556   3.157  11.137  0.6617 -0.6113 -0.4237
 5011SOL     OW26668   3.583   1.096   4.230 -0.5317  0.7706  0.5234
 5011SOL    HW126669   3.591   1.004   4.206 -0.4043  0.3013  2.4121
 5011SOL    HW226670   3.490   1.106   4.250 -0.6118  1.0566  0.0124
 5012SOL     OW26671   4.321   3.199   9.587 -0.1035  0.0093  0.0099
 5012SOL    HW126672   4.408   3.175   9.621 -0.0301 -0.1251 -0.2747
 5012SOL    HW226673   4.344   3.264   9.521  0.2665 -0.9896 -0.8320
 5013SOL     OW26674   1.062   0.909  14.371  0.1807  0.0134 -0.6349
 5013SOL    HW126675   1.147   0.877  14.342  1.1976  1.8501  0.3850
 5013SOL    HW226676   1.079   0.972  14.440  0.5340  0.3152 -0.9950
 5014SOL     OW26677   4.190   1.128   7.696  0.3055  0.3705 -0.1806
 5014SOL    HW126678   4.141   1.131   7.778 -0.2187 -1.3623 -0.4243
 5014SOL    HW226679   4.127   1.119   7.625  0.4488  0.8962 -0.3700
 5015SOL     OW26680   1.880   4.035  16.674 -0.0567  0.3755 -0.4209
 5015SOL    HW126681   1.848   4.085  16.599 -1.1634 -0.2658 -0.3793
 5015SOL    HW226682   1.804   3.977  16.688  2.1908 -2.2260  1.1743
 5016SOL     OW26683   0.454   4.306  16.667 -0.3259 -0.2999  0.1335
 5016SOL    HW126684   0.433   4.253  16.744 -0.3700  0.2066  0.4688
 5016SOL    HW226685   0.420   4.393  16.688  0.8118 -0.7897  3.8820
 5017SOL     OW26686   3.289   3.029   0.607  0.4318  0.2033 -0.2736
 5017SOL    HW126687   3.198   3.027   0.577  0.2787 -0.1661  0.2211
 5017SOL    HW226688   3.293   2.938   0.636 -2.4839 -0.3806 -1.6821
 5018SOL     OW26689   0.622   4.508  12.524 -0.0369 -0.5182 -0.1617
 5018SOL    HW126690   0.619   4.441  12.456 -1.4325 -0.4569 -0.1686
 5018SOL    HW226691   0.689   4.566  12.491 -0.7761 -0.5622 -1.7398
 5019SOL     OW26692   0.845   4.420   2.937 -0.3372 -0.3002  0.0358
 5019SOL    HW126693   0.811   4.504   2.906 -1.5170 -0.1952  1.6446
 5019SOL    HW226694   0.768   4.363   2.942 -1.1458  0.6034 -2.1317
 5020SOL     OW26695   2.119   1.457  13.662 -0.0459  0.1302  0.1472
 5020SOL    HW126696   2.208   1.459  13.699 -0.2830 -0.9069  0.7765
 5020SOL    HW226697   2.108   1.364  13.645 -0.1466 -0.2238  2.1716
 5021SOL     OW26698   3.781   1.721   6.349 -0.1649  0.0109  0.2064
 5021SOL    HW126699   3.869   1.756   6.359 -0.1774 -0.1629  0.9497
 5021SOL    HW226700   3.729   1.790   6.390 -0.1058 -0.4711  1.1034
 5022SOL     OW26701   2.621   2.397   5.244  0.6280 -0.3578 -0.6841
 5022SOL    HW126702   2.564   2.431   5.175 -1.7490 -0.7013  1.0807
 5022SOL    HW226703   2.559   2.337   5.287  0.1557  1.1636  0.7390
 5023SOL     OW26704   3.195   3.701   4.349 -0.5367  0.4231  0.2810
 5023SOL    HW126705   3.228   3.622   4.391 -1.6297  0.2526  0.8105
 5023SOL    HW226706   3.103   3.686   4.371 -1.4560  1.5542 -2.8479
 5024SOL     OW26707   1.199   4.013   8.820 -0.2474 -0.1629  0.1728
 5024SOL    HW126708   1.120   3.960   8.829 -0.5534  0.3705  0.6697
 5024SOL    HW226709   1.184   4.086   8.881  1.9237 -0.8810  1.5511
 5025SOL     OW26710   2.915   1.884   4.399  0.7595  0.5976 -0.4008
 5025SOL    HW126711   2.997   1.863   4.445 -0.5352 -0.7643  1.3055
 5025SOL    HW226712   2.863   1.899   4.478 -0.7724 -1.5135 -1.0126
 5026SOL     OW26713   2.713   0.367   7.476  0.0375 -0.2133  0.1340
 5026SOL    HW126714   2.738   0.290   7.526 -1.6931 -1.0786 -0.3415
 5026SOL    HW226715   2.624   0.373   7.508  0.1227 -0.1563  0.3572
 5027SOL     OW26716   1.949   0.178   3.726 -0.3232  0.2293  0.0417
 5027SOL    HW126717   1.863   0.197   3.764 -0.4055  1.3304 -0.7082
 5027SOL    HW226718   1.961   0.251   3.666 -1.4581  0.3105 -0.0877
 5028SOL     OW26719   4.007   2.062   3.479  0.4758 -0.1061 -0.3780
 5028SOL    HW126720   4.074   2.059   3.411  2.0702  0.5284  1.1566
 5028SOL    HW226721   4.060   2.091   3.554 -0.3209 -1.7755  0.8211
 5029SOL     OW26722   4.306   2.592  11.642 -0.1344  0.2447  0.4626
 5029SOL    HW126723   4.363   2.553  11.709  1.9018  0.0949 -1.3399
 5029SOL    HW226724   4.309   2.520  11.580 -0.0401  0.6336  0.0183
 5030SOL     OW26725   1.807   0.527  11.005  0.0814 -0.1566 -0.1697
 5030SOL    HW126726   1.786   0.447  11.053  0.3100  0.5328  1.0831
 5030SOL    HW226727   1.823   0.591  11.075  0.8191  0.0016 -0.4699
 5031SOL     OW26728   1.432   3.481   5.962 -0.1284 -0.1785  0.7356
 5031SOL    HW126729   1.499   3.520   6.017  0.4695  0.7273 -0.6349
 5031SOL    HW226730   1.387   3.559   5.928 -0.2325 -1.1406 -1.3661
 5032SOL     OW26731   2.581   0.084   5.201  0.7785 -0.1635 -0.0139
 5032SOL    HW126732   2.578   0.011   5.262 -1.4201 -0.1613 -0.1267
 5032SOL    HW226733   2.639   0.056   5.129  0.5892 -3.9895  1.3202
 5033SOL     OW26734   4.404   3.058   6.623  0.1251  0.0282 -0.2774
 5033SOL    HW126735   4.488   3.101   6.608  0.7628  0.0184  3.1906
 5033SOL    HW226736   4.367   3.121   6.684 -3.5883 -1.7822 -0.6444
 5034SOL     OW26737   4.261   0.824  14.559  0.0186 -0.2409 -0.3095
 5034SOL    HW126738   4.326   0.796  14.494  0.7045  1.4837 -0.3570
 5034SOL    HW226739   4.181   0.830  14.506  0.9747 -1.1413 -1.8778
 5035SOL     OW26740   1.749   2.739   1.457  0.0303  0.1703  0.4305
 5035SOL    HW126741   1.803   2.764   1.382 -0.3720 -0.2333  0.0068
 5035SOL    HW226742   1.749   2.644   1.448 -0.2300  0.2309 -0.2041
 5036SOL     OW26743   4.565   2.008   8.128  0.3818  0.2038  0.4809
 5036SOL    HW126744   4.620   2.054   8.065 -3.6665  2.0733 -1.7059
 5036SOL    HW226745   4.551   1.931   8.073 -0.5731  1.0136 -0.4151
 5037SOL     OW26746   4.270   2.232   7.542 -0.3606 -0.2717 -0.4151
 5037SOL    HW126747   4.338   2.297   7.522 -1.4060  1.3747  1.4671
 5037SOL    HW226748   4.226   2.292   7.602  0.0222  0.5389 -0.9500
 5038SOL     OW26749   0.299   0.449  15.142 -0.3468  0.5396 -0.0837
 5038SOL    HW126750   0.225   0.395  15.168  0.2567 -0.3694 -0.2575
 5038SOL    HW226751   0.273   0.531  15.184 -2.1931 -1.0494  1.8713
 5039SOL     OW26752   0.169   3.063   3.076 -0.3360 -0.3720  0.6196
 5039SOL    HW126753   0.226   3.135   3.103 -0.1253  0.1388 -1.2163
 5039SOL    HW226754   0.079   3.096   3.077 -0.4491 -0.6418 -1.8799
 5040SOL     OW26755   1.136   1.692  11.635  0.0427 -0.2028 -0.0325
 5040SOL    HW126756   1.103   1.687  11.545 -1.7778  0.8341  0.5606
 5040SOL    HW226757   1.178   1.777  11.627 -0.6461  0.0829 -0.6412
 5041SOL     OW26758   2.039   3.571   7.312 -0.1523  0.3374 -0.1098
 5041SOL    HW126759   2.098   3.577   7.387 -0.4900 -0.8866  0.2710
 5041SOL    HW226760   2.063   3.648   7.261  0.1966 -0.6885 -1.4978
 5042SOL     OW26761   1.579   0.904   3.971 -0.5104 -0.1986 -0.5961
 5042SOL    HW126762   1.606   0.820   4.007 -2.2538 -0.5439 -0.0709
 5042SOL    HW226763   1.485   0.902   3.954 -0.6205 -0.7429  0.0749
 5043SOL     OW26764   0.990   0.515  10.163 -0.7033 -0.3709 -0.0863
 5043SOL    HW126765   0.995   0.586  10.227  0.5100 -1.9033  1.5052
 5043SOL    HW226766   1.080   0.485  10.159 -0.6030 -0.2031  0.9226
 5044SOL     OW26767   0.641   4.213   4.007 -0.0531  0.3711  0.2569
 5044SOL    HW126768   0.615   4.136   3.958  0.8944 -0.0201  0.3651
 5044SOL    HW226769   0.671   4.168   4.086 -2.9613 -1.6083  0.2273
 5045SOL     OW26770   1.192   3.583  10.711  1.0655  0.2342 -0.1249
 5045SOL    HW126771   1.241   3.523  10.655 -0.8076  0.1070 -1.6037
 5045SOL    HW226772   1.265   3.632  10.750 -0.7258  0.6155  2.8048
 5046SOL     OW26773   1.128   2.243   1.606 -0.2385  0.2429  0.2357
 5046SOL    HW126774   1.223   2.236   1.615 -0.3529 -0.6596  0.6410
 5046SOL    HW226775   1.098   2.156   1.632  0.7692 -0.2748 -0.3296
 5047SOL     OW26776   0.689   0.040   4.001  0.3123  0.2831  0.0771
 5047SOL    HW126777   0.752   4.726   3.951 -3.1159 -1.4288 -2.5537
 5047SOL    HW226778   0.738   0.071   4.077  1.7873  0.8919 -1.1354
 5048SOL     OW26779   2.386   3.385   3.736  0.0233  0.0529 -0.0803
 5048SOL    HW126780   2.439   3.378   3.657 -1.0195 -1.0692 -0.6776
 5048SOL    HW226781   2.401   3.478   3.753 -2.5593  0.3085  0.8258
 5049SOL     OW26782   2.668   0.686   9.867 -0.4065 -0.6488 -0.4278
 5049SOL    HW126783   2.640   0.612   9.814 -2.0854 -0.6056  0.4198
 5049SOL    HW226784   2.622   0.763   9.833 -2.1679 -1.1387  0.8741
 5050SOL     OW26785   4.600   4.095   3.332 -0.0145 -0.0383  0.2100
 5050SOL    HW126786   4.601   4.086   3.236 -0.8090 -1.6913  0.3619
 5050SOL    HW226787   4.685   4.058   3.356 -1.0586 -3.9808 -2.1452
 5051SOL     OW26788   3.853   3.260   7.087  0.0804 -0.0046  0.0411
 5051SOL    HW126789   3.927   3.320   7.094 -0.0068  0.1939 -0.8000
 5051SOL    HW226790   3.788   3.296   7.147  1.3761  1.3557  0.6205
 5052SOL     OW26791   0.838   4.276  13.346  0.7719 -0.0494 -0.0949
 5052SOL    HW126792   0.840   4.286  13.251 -1.9836  0.0562 -0.1487
 5052SOL    HW226793   0.743   4.289  13.356  1.0344  1.9294 -0.0422
 5053SOL     OW26794   3.102   0.438  10.092 -0.3455  0.4510 -0.1934
 5053SOL    HW126795   3.041   0.483  10.151  0.3058  0.3153  0.5683
 5053SOL    HW226796   3.090   0.483  10.007  0.0097  1.6785  0.4027
 5054SOL     OW26797   1.446   1.181   9.858  0.1669  0.1724 -0.3327
 5054SOL    HW126798   1.383   1.250   9.878 -1.1180 -0.8407 -0.8246
 5054SOL    HW226799   1.483   1.207   9.773  1.5012  2.1212  0.8448
 5055SOL     OW26800   2.735   1.360  16.782  0.2147 -0.5150  0.2338
 5055SOL    HW126801   2.763   1.451  16.792  0.6832 -0.5731 -0.5934
 5055SOL    HW226802   2.771   1.333  16.866 -0.2578 -2.7914 -0.2880
 5056SOL     OW26803   1.413   3.744   4.272  0.8506  0.0027  0.2126
 5056SOL    HW126804   1.324   3.723   4.302  0.1944  0.1959 -1.6014
 5056SOL    HW226805   1.457   3.699   4.344 -0.6817  0.0711  1.1756
 5057SOL     OW26806   2.087   0.890   5.775  0.0486  0.4782 -0.1586
 5057SOL    HW126807   2.088   0.934   5.859 -1.6169  0.8426 -0.3345
 5057SOL    HW226808   2.103   0.965   5.718 -1.6548  2.0780  1.5121
 5058SOL     OW26809   2.911   3.916   5.690  0.1471 -0.6013 -0.0226
 5058SOL    HW126810   2.993   3.889   5.731 -0.3524 -0.2892  1.1756
 5058SOL    HW226811   2.876   3.985   5.746 -1.6277 -1.7218  0.2538
 5059SOL     OW26812   1.404   1.307  10.770 -0.1755 -0.3301  0.4181
 5059SOL    HW126813   1.413   1.232  10.712  1.0035  1.1102 -1.2822
 5059SOL    HW226814   1.420   1.264  10.854 -1.6610 -2.7390 -0.5350
 5060SOL     OW26815   3.979   1.100   4.233 -0.5903 -0.2718 -0.3809
 5060SOL    HW126816   3.946   1.023   4.186 -2.3979 -1.6525  3.2220
 5060SOL    HW226817   3.962   1.170   4.170  1.6661 -0.7611 -1.5686
 5061SOL     OW26818   2.983   4.147   1.720  0.5871 -0.0676 -0.2937
 5061SOL    HW126819   3.074   4.161   1.696  1.5681 -2.3732  2.0324
 5061SOL    HW226820   2.932   4.227   1.709  1.5706  0.3317 -1.8423
 5062SOL     OW26821   3.329   2.792  13.118  0.3304  0.4619 -0.4804
 5062SOL    HW126822   3.343   2.718  13.177  1.5467 -0.4983 -1.9697
 5062SOL    HW226823   3.235   2.788  13.100  0.0730  0.9269  0.7724
 5063SOL     OW26824   0.204   4.534   6.964  0.2258 -0.2972  0.1379
 5063SOL    HW126825   0.201   4.585   6.883  2.2621 -0.2898  0.0605
 5063SOL    HW226826   0.113   4.530   6.991  0.8580 -1.4975  2.1205
 5064SOL     OW26827   1.564   0.233  15.908  0.4586  0.2568  0.0037
 5064SOL    HW126828   1.605   0.319  15.918  3.3631 -1.2128  0.7796
 5064SOL    HW226829   1.477   0.260  15.878  0.2534 -0.1514  0.2348
 5065SOL     OW26830   2.486   2.716   8.631  0.1789 -0.3203 -0.3143
 5065SOL    HW126831   2.548   2.784   8.605 -0.6537  0.6841  0.3477
 5065SOL    HW226832   2.541   2.660   8.686 -1.1216 -1.2735  0.0009
 5066SOL     OW26833   4.485   3.080   0.541 -0.3561 -0.6011  0.1637
 5066SOL    HW126834   4.541   3.035   0.477  0.3896  0.8131 -0.1716
 5066SOL    HW226835   4.434   3.010   0.583 -2.8206  0.6786 -0.6748
 5067SOL     OW26836   4.276   2.281  17.684 -0.6837  0.4774  0.2881
 5067SOL    HW126837   4.193   2.239  17.663 -0.3904  0.9515 -1.8437
 5067SOL    HW226838   4.251   2.315   0.026  0.3522 -0.1347  0.8319
 5068SOL     OW26839   0.124   2.138   4.253 -0.2623  0.1513 -0.4852
 5068SOL    HW126840   0.101   2.047   4.275 -0.4742  0.8026  1.9764
 5068SOL    HW226841   0.207   2.156   4.298 -0.9498  0.7527  0.5481
 5069SOL     OW26842   3.701   4.162   3.309  0.0923  0.3618  0.0471
 5069SOL    HW126843   3.698   4.181   3.215 -0.7216  0.6870  0.1404
 5069SOL    HW226844   3.627   4.101   3.312 -1.6657  2.4667 -0.1939
 5070SOL     OW26845   3.618   2.558  17.497 -0.2209 -0.0128  0.2051
 5070SOL    HW126846   3.698   2.564  17.445  0.8915  1.0385  2.0416
 5070SOL    HW226847   3.582   2.477  17.462  0.3645  0.1504 -0.7756
 5071SOL     OW26848   0.472   3.359  15.284  0.1312 -0.6285 -0.1538
 5071SOL    HW126849   0.517   3.280  15.314  2.6084 -0.0514 -2.3870
 5071SOL    HW226850   0.507   3.363  15.195  0.7037 -1.3601  0.0372
 5072SOL     OW26851   3.228   0.285   1.560 -0.0619 -0.2856  0.0936
 5072SOL    HW126852   3.298   0.334   1.517  1.4032 -1.0899  1.5508
 5072SOL    HW226853   3.197   0.340   1.631  1.6915  0.0571  0.5899
 5073SOL     OW26854   1.087   0.019   5.786  0.5888  0.0070  1.0241
 5073SOL    HW126855   1.005   0.069   5.787  1.3424  1.2233  1.4649
 5073SOL    HW226856   1.054   4.694   5.852  0.3665 -0.2990  0.6299
 5074SOL     OW26857   0.396   2.899  11.944  0.4109  0.4382 -0.1345
 5074SOL    HW126858   0.416   2.975  11.999  2.9739  2.0167 -3.1901
 5074SOL    HW226859   0.406   2.837  12.015 -0.9455 -0.9154 -1.1299
 5075SOL     OW26860   3.776   0.295   5.162 -0.1516 -0.4429  0.3086
 5075SOL    HW126861   3.753   0.298   5.255  0.1779 -0.1452  0.3822
 5075SOL    HW226862   3.870   0.278   5.166 -0.2329 -0.1696  3.0980
 5076SOL     OW26863   4.190   2.075  13.932 -0.1505 -0.2091  0.1076
 5076SOL    HW126864   4.278   2.040  13.946 -0.2000  0.0791  1.1378
 5076SOL    HW226865   4.145   1.993  13.912 -0.6037 -0.4330  2.0846
 5077SOL     OW26866   4.182   0.737   2.196 -0.2643 -0.3873 -0.1497
 5077SOL    HW126867   4.222   0.723   2.110  0.6826  4.3392 -0.5112
 5077SOL    HW226868   4.117   0.668   2.207  0.1348 -0.7094  0.1518
 5078SOL     OW26869   0.171   3.157   7.964  0.6957  0.4208  0.4728
 5078SOL    HW126870   0.133   3.116   8.041  0.6388 -0.9885 -0.3023
 5078SOL    HW226871   0.263   3.138   7.983  0.9298  2.5067  1.4332
 5079SOL     OW26872   4.488   0.951   3.137  0.2157 -0.4944  0.1672
 5079SOL    HW126873   4.457   0.878   3.084  0.1824 -0.8403  0.6590
 5079SOL    HW226874   4.558   0.908   3.187 -1.6838  0.1075  3.3441
 5080SOL     OW26875   3.845   2.752  12.532 -0.3981  0.7038  0.2849
 5080SOL    HW126876   3.824   2.781  12.621  0.3410 -0.9272  0.9841
 5080SOL    HW226877   3.932   2.713  12.542  0.1822  2.0101  0.2885
 5081SOL     OW26878   3.932   2.469   6.443  0.3646 -0.6477  0.6619
 5081SOL    HW126879   3.907   2.445   6.353  0.2850  0.8683  0.2689
 5081SOL    HW226880   3.875   2.422   6.503 -1.1044  0.1085 -0.1168
 5082SOL     OW26881   2.465   2.077   3.985  0.6178  0.1507 -0.1108
 5082SOL    HW126882   2.455   2.156   4.038  0.0058  0.8873 -1.3337
 5082SOL    HW226883   2.377   2.038   3.989  0.0582  1.3022 -1.1051
 5083SOL     OW26884   2.656   0.687   9.250 -0.1527 -0.0227  0.2356
 5083SOL    HW126885   2.586   0.626   9.273  0.3060 -0.8026 -0.4643
 5083SOL    HW226886   2.723   0.658   9.311 -0.1642  0.0129  0.2649
 5084SOL     OW26887   2.258   2.286  14.000  0.2551 -0.3733 -0.3659
 5084SOL    HW126888   2.243   2.366  13.949 -1.1351 -1.7066 -2.0297
 5084SOL    HW226889   2.204   2.311  14.076 -1.8433  0.5003 -2.1541
 5085SOL     OW26890   4.553   0.704   0.515 -0.1130 -0.0287  0.2902
 5085SOL    HW126891   4.591   0.616   0.524  1.9220  0.4266 -3.8030
 5085SOL    HW226892   4.555   0.705   0.419  0.8085  3.9183  0.3572
 5086SOL     OW26893   2.039   1.553   6.003  0.4853  0.4134  0.4292
 5086SOL    HW126894   1.991   1.584   5.926  0.7517  0.5334  0.3133
 5086SOL    HW226895   2.079   1.634   6.035 -1.2963  1.4793 -0.0286
 5087SOL     OW26896   1.307   4.523  13.635 -0.1218 -0.1943  0.0560
 5087SOL    HW126897   1.312   4.521  13.731 -0.2188  1.6746  0.0970
 5087SOL    HW226898   1.343   4.608  13.610  0.1943 -0.6409 -0.9980
 5088SOL     OW26899   3.718   1.200   9.823  0.3226 -0.1991  0.7479
 5088SOL    HW126900   3.752   1.286   9.849 -0.0055 -0.0227  0.6030
 5088SOL    HW226901   3.778   1.172   9.754  0.1864  0.2390  0.4435
 5089SOL     OW26902   4.055   2.968  16.695 -0.1485  0.3532  0.3325
 5089SOL    HW126903   4.134   3.014  16.725  0.4466  1.0560 -2.2378
 5089SOL    HW226904   4.061   2.997  16.604  1.8035  0.0289  0.3599
 5090SOL     OW26905   1.342   3.927   2.923  0.3403  0.1758 -0.5140
 5090SOL    HW126906   1.249   3.910   2.939 -0.5728  3.5957 -2.0511
 5090SOL    HW226907   1.342   4.007   2.977 -1.2008 -0.8274  0.9823
 5091SOL     OW26908   4.281   2.128   3.009  0.3730 -0.2305 -0.1191
 5091SOL    HW126909   4.316   2.039   3.017 -2.4921 -1.2716  0.7704
 5091SOL    HW226910   4.337   2.172   2.945 -0.7938  2.2309  0.5586
 5092SOL     OW26911   2.113   0.497   8.892  0.4521 -0.3284  0.0223
 5092SOL    HW126912   2.122   0.471   8.800  0.5148  0.9747 -0.3476
 5092SOL    HW226913   2.105   0.415   8.940 -0.6620  0.1834  0.7268
 5093SOL     OW26914   2.485   0.563  10.130 -0.6451 -0.0025  0.1686
 5093SOL    HW126915   2.553   0.507  10.093 -0.2037  1.4035 -1.1469
 5093SOL    HW226916   2.533   0.639  10.164  1.6248  0.1062 -3.3581
 5094SOL     OW26917   2.588   1.744   2.305  0.3787  0.1698 -0.0844
 5094SOL    HW126918   2.632   1.720   2.223 -2.9993  0.2169 -1.9118
 5094SOL    HW226919   2.495   1.743   2.281  0.2895 -2.9057  0.4009
 5095SOL     OW26920   0.858   2.506   8.589 -0.1411  0.0518 -0.3150
 5095SOL    HW126921   0.787   2.562   8.620 -0.7843 -0.7035 -0.4268
 5095SOL    HW226922   0.936   2.562   8.594  1.2714 -2.0843  1.6296
 5096SOL     OW26923   3.691   0.599   6.147 -0.6134  0.6261  0.2556
 5096SOL    HW126924   3.778   0.585   6.185 -1.4202 -1.8201  1.2036
 5096SOL    HW226925   3.656   0.678   6.189 -0.5998  1.0420 -0.5214
 5097SOL     OW26926   0.620   4.004   3.609  0.0238  0.1920  0.0793
 5097SOL    HW126927   0.647   3.913   3.603  0.2604  0.4180 -2.3346
 5097SOL    HW226928   0.608   4.009   3.704 -0.9999  3.3714 -0.2086
 5098SOL     OW26929   4.476   0.434   2.388  0.3438  1.0855  1.1332
 5098SOL    HW126930   4.397   0.381   2.394  1.0649 -0.1415 -0.2063
 5098SOL    HW226931   4.438   0.521   2.389  0.0173  0.9437  1.0000
 5099SOL     OW26932   2.384   3.792  10.973 -0.3851 -0.3046  0.3272
 5099SOL    HW126933   2.383   3.771  11.066  0.4497 -3.4354 -0.3794
 5099SOL    HW226934   2.320   3.730  10.939 -1.1820  0.9397 -0.4699
 5100SOL     OW26935   2.670   2.593   7.381  0.7865  0.0138 -0.3409
 5100SOL    HW126936   2.693   2.554   7.465 -0.1493  0.1780 -0.0171
 5100SOL    HW226937   2.750   2.581   7.329  0.9930 -0.3789  0.0696
 5101SOL     OW26938   4.683   2.809   6.159 -0.5092 -0.8691  0.3315
 5101SOL    HW126939   4.614   2.841   6.218  0.8618  0.2806  1.3139
 5101SOL    HW226940   4.720   2.733   6.204 -0.6291 -1.0360  0.1488
 5102SOL     OW26941   0.798   1.476   5.414 -0.1837  0.0809  0.1810
 5102SOL    HW126942   0.871   1.532   5.388 -0.7866  0.1839 -1.3087
 5102SOL    HW226943   0.836   1.389   5.409  0.1470  0.3258 -1.8506
 5103SOL     OW26944   2.918   4.306   7.323 -0.7410 -0.6131  0.1637
 5103SOL    HW126945   2.871   4.285   7.403  0.2865  1.4056  1.2820
 5103SOL    HW226946   3.002   4.260   7.330 -0.8422 -0.9249 -0.6350
 5104SOL     OW26947   2.823   4.130   2.896  0.1792 -0.0058  0.0231
 5104SOL    HW126948   2.828   4.148   2.990  0.7653 -0.7629  0.1381
 5104SOL    HW226949   2.884   4.056   2.892 -0.7074 -0.8436  2.1166
 5105SOL     OW26950   3.993   4.572   9.393  0.2537  0.3325 -0.0365
 5105SOL    HW126951   3.950   4.554   9.309 -2.3059 -0.9859  1.5440
 5105SOL    HW226952   4.083   4.561   9.365  0.0242 -0.0849 -0.6103
 5106SOL     OW26953   2.579   0.454   9.652  0.4302 -0.2981 -0.2404
 5106SOL    HW126954   2.622   0.450   9.566  0.4086  0.2836 -0.2780
 5106SOL    HW226955   2.498   0.502   9.631  1.2920  2.0747  1.9106
 5107SOL     OW26956   4.680   2.101  12.107  0.7086 -0.3486  0.5121
 5107SOL    HW126957   4.714   2.022  12.064  0.6531  1.1129 -2.1922
 5107SOL    HW226958   0.015   2.123  12.166  2.6424  0.5954 -2.1809
 5108SOL     OW26959   1.159   3.736   6.764 -0.5081  0.2274  0.9202
 5108SOL    HW126960   1.099   3.714   6.693  0.5396  1.8299 -0.4714
 5108SOL    HW226961   1.161   3.832   6.772 -1.7139  0.4787 -1.9335
 5109SOL     OW26962   4.349   1.555   5.349 -0.0259 -0.1405  0.1685
 5109SOL    HW126963   4.322   1.640   5.315 -0.0800 -0.4126 -0.4665
 5109SOL    HW226964   4.426   1.541   5.294 -0.3933 -2.1095  0.1723
 5110SOL     OW26965   3.399   0.231   9.552  0.1964  0.4121  0.3891
 5110SOL    HW126966   3.358   0.252   9.636  0.0221  0.3758  0.3118
 5110SOL    HW226967   3.476   0.183   9.583 -0.6098 -0.9694  0.2257
 5111SOL     OW26968   3.674   4.291  16.801 -0.1746 -0.5013 -0.3717
 5111SOL    HW126969   3.764   4.322  16.804 -1.1405  2.4059 -1.5265
 5111SOL    HW226970   3.681   4.208  16.847  3.7733  0.9169  1.5613
 5112SOL     OW26971   3.680   1.285   2.921  0.3178  0.4010 -0.0153
 5112SOL    HW126972   3.591   1.315   2.903  0.0383 -1.5220 -1.8547
 5112SOL    HW226973   3.688   1.211   2.860  0.5909  0.9781 -0.6768
 5113SOL     OW26974   2.330   3.746  14.296  0.0756  0.0418 -0.1600
 5113SOL    HW126975   2.369   3.762  14.210  0.2417  1.5262  0.1866
 5113SOL    HW226976   2.311   3.834  14.329 -0.1369 -0.4693  1.0871
 5114SOL     OW26977   4.511   4.006  12.586 -0.0278  0.1150  0.1569
 5114SOL    HW126978   4.460   4.016  12.506  1.3230  0.1352 -0.7149
 5114SOL    HW226979   4.450   4.043  12.649  1.1194 -0.5871  1.6802
 5115SOL     OW26980   3.568   3.786   4.133  0.3103 -0.5383  0.0603
 5115SOL    HW126981   3.604   3.827   4.054 -0.4743  2.5501  1.2824
 5115SOL    HW226982   3.486   3.834   4.141 -0.2475 -1.5776  0.5751
 5116SOL     OW26983   3.762   4.046  11.170 -0.0366 -0.5539 -0.1949
 5116SOL    HW126984   3.716   3.963  11.174 -0.1785 -0.4502  0.2811
 5116SOL    HW226985   3.850   4.018  11.198 -0.6970  1.8051  4.2004
 5117SOL     OW26986   4.704   1.203   7.034 -0.1658 -0.0192  0.3780
 5117SOL    HW126987   4.683   1.182   7.125  1.0957  0.7753  0.8487
 5117SOL    HW226988   4.685   1.297   7.030  0.0742 -0.0130 -0.6614
 5118SOL     OW26989   4.591   4.237   8.075 -0.5850  0.7447 -0.1614
 5118SOL    HW126990   4.533   4.303   8.110 -2.3373 -1.4824  1.0947
 5118SOL    HW226991   4.555   4.153   8.102 -0.3040  0.1304 -1.6541
 5119SOL     OW26992   3.610   2.840   0.558 -0.0951 -0.5959  0.0533
 5119SOL    HW126993   3.703   2.817   0.551  0.2039  0.1969  1.2791
 5119SOL    HW226994   3.593   2.895   0.482 -0.8401 -0.5199  0.2758
 5120SOL     OW26995   4.116   1.522   6.144 -0.3102  0.4572  0.2789
 5120SOL    HW126996   4.120   1.487   6.233  0.5720  0.0551  0.0828
 5120SOL    HW226997   4.039   1.482   6.105  0.1928  0.4527 -0.7232
 5121SOL     OW26998   4.361   0.272  14.291 -0.1661  0.0085  0.3687
 5121SOL    HW126999   4.372   0.349  14.235 -1.2931 -1.4650 -1.8894
 5121SOL    HW227000   4.350   0.203  14.226  1.9744  0.3523 -0.3471
 5122SOL     OW27001   2.299   0.826   8.569 -0.3775 -0.1022  0.3561
 5122SOL    HW127002   2.242   0.750   8.579  1.8663 -2.1314 -2.3772
 5122SOL    HW227003   2.344   0.824   8.654 -0.7297 -1.3357  0.5013
 5123SOL     OW27004   3.554   3.874  16.373  0.0143 -0.3570  0.5263
 5123SOL    HW127005   3.575   3.887  16.466  2.2969  0.7541 -0.1471
 5123SOL    HW227006   3.626   3.922  16.332 -2.2004  1.6766 -0.9838
 5124SOL     OW27007   1.330   3.711   0.514 -0.2864 -0.4452  0.3631
 5124SOL    HW127008   1.395   3.657   0.471 -0.8551 -0.7937 -0.0579
 5124SOL    HW227009   1.361   3.790   0.470  0.3325 -0.1707  1.2987
 5125SOL     OW27010   0.945   2.099  15.354  0.3633  0.2189  0.1581
 5125SOL    HW127011   0.988   2.041  15.416  0.2643 -1.5023 -1.3744
 5125SOL    HW227012   0.903   2.039  15.292  1.3141 -0.7746  0.4787
 5126SOL     OW27013   1.933   1.031   1.890  0.1465 -0.9907 -0.3015
 5126SOL    HW127014   1.932   1.024   1.985 -0.7122 -0.4703 -0.2735
 5126SOL    HW227015   1.849   1.068   1.863  0.2431 -1.4698 -1.2982
 5127SOL     OW27016   3.698   4.344  16.175  0.2156 -0.1799 -0.6351
 5127SOL    HW127017   3.627   4.366  16.114  0.6268  0.4828 -0.8799
 5127SOL    HW227018   3.741   4.427  16.155  3.1823 -0.9199  2.7490
 5128SOL     OW27019   1.498   0.782   8.287 -0.4358 -0.5065 -0.7591
 5128SOL    HW127020   1.537   0.816   8.207 -0.9642 -0.4400 -0.9904
 5128SOL    HW227021   1.481   0.692   8.260 -2.1349 -1.0429  2.0645
 5129SOL     OW27022   3.416   1.426   3.497  0.2157 -0.2563  0.2601
 5129SOL    HW127023   3.484   1.465   3.443 -1.2055  2.3238  0.3261
 5129SOL    HW227024   3.455   1.381   3.573 -3.3074 -0.9696  1.6573
 5130SOL     OW27025   4.257   2.582  16.290 -0.1421 -0.3434  0.3905
 5130SOL    HW127026   4.236   2.497  16.251 -0.4468 -0.5280  0.9576
 5130SOL    HW227027   4.344   2.561  16.322 -0.6121 -0.8866  1.3117
 5131SOL     OW27028   3.680   0.327   8.173  0.4335 -0.2475  0.2336
 5131SOL    HW127029   3.664   0.268   8.247  0.1890 -1.9280 -1.1616
 5131SOL    HW227030   3.732   0.395   8.215 -1.4696  0.4470  1.4822
 5132SOL     OW27031   4.454   2.248  14.305 -0.5830  0.1559 -0.1159
 5132SOL    HW127032   4.396   2.288  14.240 -0.2561 -0.3779 -0.7438
 5132SOL    HW227033   4.463   2.322  14.364 -1.9624 -0.4216  0.8220
 5133SOL     OW27034   1.685   0.017   3.376  0.4635  0.2800 -0.5195
 5133SOL    HW127035   1.763   4.734   3.427 -0.1632 -1.6159 -0.2641
 5133SOL    HW227036   1.619   0.016   3.446  0.2581 -1.1020 -0.7172
 5134SOL     OW27037   4.689   3.176  12.722 -0.1830 -0.2383 -0.0210
 5134SOL    HW127038   4.731   3.247  12.770  0.4509 -0.6905  0.1014
 5134SOL    HW227039   4.695   3.111  12.793 -1.8807 -0.4018 -0.0303
 5135SOL     OW27040   4.109   2.085   7.045  0.1863 -0.2162 -0.3165
 5135SOL    HW127041   4.051   2.136   6.988  0.0688 -0.7022 -0.6338
 5135SOL    HW227042   4.067   1.999   7.038  0.1430 -0.4147  2.3567
 5136SOL     OW27043   1.252   4.466   4.872  0.0639 -0.4435  0.4864
 5136SOL    HW127044   1.249   4.416   4.790  1.7334 -0.1686  0.2619
 5136SOL    HW227045   1.224   4.397   4.933 -1.6478  0.5695  0.8511
 5137SOL     OW27046   0.591   1.254   1.381 -0.0056  0.3606  0.0783
 5137SOL    HW127047   0.521   1.306   1.342  0.3051  0.1715 -0.7360
 5137SOL    HW227048   0.551   1.210   1.456 -2.5513 -0.1900 -1.6171
 5138SOL     OW27049   0.816   3.530   5.848 -0.2465  0.2744  0.2604
 5138SOL    HW127050   0.880   3.461   5.863 -1.0426 -0.7023 -0.8384
 5138SOL    HW227051   0.745   3.505   5.908  0.6165 -1.0248  0.7451
 5139SOL     OW27052   0.595   3.348   4.531 -0.0257  0.7659 -0.0882
 5139SOL    HW127053   0.594   3.379   4.440  0.1988 -0.8085 -0.6249
 5139SOL    HW227054   0.626   3.430   4.570  2.6843  0.9985 -2.7131
 5140SOL     OW27055   1.461   0.822  10.230  0.4542 -0.5781 -0.1915
 5140SOL    HW127056   1.470   0.732  10.199 -1.0371 -0.6597 -0.4118
 5140SOL    HW227057   1.463   0.872  10.148  0.8220  0.0833  0.2268
 5141SOL     OW27058   2.151   3.665   8.307  0.0332 -0.1167 -0.5424
 5141SOL    HW127059   2.221   3.655   8.372  0.2930 -0.8965 -0.9430
 5141SOL    HW227060   2.149   3.572   8.284  1.0015  0.1225 -1.5821
 5142SOL     OW27061   2.804   3.124   8.867 -0.0736  0.2146 -0.5760
 5142SOL    HW127062   2.847   3.091   8.946 -0.0724  0.9740 -0.2500
 5142SOL    HW227063   2.808   3.217   8.893 -2.2080  0.3035 -0.5693
 5143SOL     OW27064   2.778   2.780   8.373  0.4304 -0.2234 -0.0022
 5143SOL    HW127065   2.809   2.847   8.435  0.0202 -0.2105  0.1885
 5143SOL    HW227066   2.690   2.816   8.363  0.7372  0.7774  0.8602
 5144SOL     OW27067   4.283   2.714   1.623 -0.4313 -0.1350  0.2828
 5144SOL    HW127068   4.284   2.683   1.714 -2.2710  0.6946  0.5849
 5144SOL    HW227069   4.324   2.800   1.636 -0.9088 -0.1027  1.6656
 5145SOL     OW27070   4.041   0.745  16.836  0.1627 -0.4608 -0.6742
 5145SOL    HW127071   3.965   0.798  16.861 -1.8740 -2.9800 -1.5039
 5145SOL    HW227072   4.087   0.749  16.920  0.7705  0.7518 -1.0749
 5146SOL     OW27073   3.964   1.571   3.426 -0.5926 -0.4335  0.0774
 5146SOL    HW127074   3.873   1.568   3.458 -0.9477  0.7957 -0.8269
 5146SOL    HW227075   3.975   1.481   3.395  0.2755 -0.5578  0.7622
 5147SOL     OW27076   4.600   4.626   3.535 -0.2574  0.6947 -0.1091
 5147SOL    HW127077   4.679   4.670   3.567  1.6759 -1.5983 -1.6799
 5147SOL    HW227078   4.628   4.535   3.523  1.2655  0.8832  1.9948
 5148SOL     OW27079   2.860   3.031   9.240 -1.1863 -0.2974  0.6574
 5148SOL    HW127080   2.808   2.951   9.250 -0.3916 -1.1904 -2.2969
 5148SOL    HW227081   2.790   3.087   9.205  1.4347  2.4703 -0.0687
 5149SOL     OW27082   3.733   3.021   6.195 -0.0897  0.0175  0.1896
 5149SOL    HW127083   3.646   3.057   6.179  0.7258  2.4137  1.2082
 5149SOL    HW227084   3.723   3.000   6.288  1.6122 -2.4783 -0.2043
 5150SOL     OW27085   0.925   0.525   9.044  0.6376 -0.7215  0.4927
 5150SOL    HW127086   0.896   0.616   9.038  0.9639 -0.7357 -1.3775
 5150SOL    HW227087   0.867   0.477   8.984  0.4634  2.4713 -1.8840
 5151SOL     OW27088   1.077   2.857   4.124  0.2061  0.1010  0.1860
 5151SOL    HW127089   1.082   2.762   4.110 -2.4480 -0.0072 -0.1051
 5151SOL    HW227090   1.163   2.886   4.093  1.2225 -0.8145  2.1900
 5152SOL     OW27091   4.692   0.557   4.464  0.4638  0.1480 -0.4838
 5152SOL    HW127092   4.713   0.646   4.435  0.7571  0.2096 -0.0774
 5152SOL    HW227093   0.042   0.515   4.457  0.5362  0.1652  0.4040
 5153SOL     OW27094   1.162   0.666   7.605 -0.0937 -0.1637 -0.0361
 5153SOL    HW127095   1.201   0.741   7.559  0.7652 -1.5182 -1.4846
 5153SOL    HW227096   1.084   0.712   7.637  0.2175 -0.1690  0.7364
 5154SOL     OW27097   4.371   2.762  14.564 -0.1699 -0.0467 -0.2788
 5154SOL    HW127098   4.287   2.805  14.546 -0.0221 -0.2650 -1.4806
 5154SOL    HW227099   4.384   2.776  14.658  2.2332 -2.6553 -0.2072
 5155SOL     OW27100   2.765   2.272  16.423 -0.0893 -0.7060 -0.7181
 5155SOL    HW127101   2.697   2.214  16.388 -0.2036 -0.5768 -0.7107
 5155SOL    HW227102   2.725   2.284  16.509 -1.3791 -0.4620 -1.3583
 5156SOL     OW27103   2.249   1.719   5.547 -0.6379  0.3625 -0.2015
 5156SOL    HW127104   2.332   1.672   5.540 -0.2372  0.9955  0.4463
 5156SOL    HW227105   2.269   1.796   5.494 -0.4984  0.9081  0.6483
 5157SOL     OW27106   4.040   0.998   8.876 -0.0938  0.1147  0.0177
 5157SOL    HW127107   4.049   0.979   8.969 -0.3919 -0.7498 -0.1232
 5157SOL    HW227108   3.948   1.022   8.873 -0.2400 -0.6921 -2.4361
 5158SOL     OW27109   2.733   4.726   4.631 -0.7158 -0.1677  0.1647
 5158SOL    HW127110   2.805   0.024   4.684  0.3345 -2.7345  0.3580
 5158SOL    HW227111   2.779   4.699   4.552 -0.5915 -1.4631  0.6963
 5159SOL     OW27112   4.316   0.503   8.822  0.2032  0.1032 -0.0373
 5159SOL    HW127113   4.315   0.598   8.814  0.5647  0.2322  1.5217
 5159SOL    HW227114   4.397   0.481   8.866  0.5664 -1.6316 -1.5491
 5160SOL     OW27115   0.337   2.016   8.021  0.1074 -0.0812 -0.0513
 5160SOL    HW127116   0.376   2.056   7.943 -0.0370 -1.7829 -0.9870
 5160SOL    HW227117   0.244   2.019   7.999 -0.0386 -0.5850  0.4902
 5161SOL     OW27118   3.089   3.924  15.511 -0.4783 -0.7476  0.1664
 5161SOL    HW127119   3.183   3.944  15.514 -0.9134  1.5727 -1.2070
 5161SOL    HW227120   3.080   3.888  15.599 -1.5212 -0.0094  0.3567
 5162SOL     OW27121   0.186   3.075   7.374  0.4622  0.0479  0.2602
 5162SOL    HW127122   0.240   3.001   7.402 -0.3756 -0.6044  0.1329
 5162SOL    HW227123   0.257   3.121   7.328  0.2266  0.8654  0.7187
 5163SOL     OW27124   4.045   1.874   6.129 -0.7085 -0.4902  0.1261
 5163SOL    HW127125   3.983   1.868   6.056  0.2924 -0.4116 -0.7306
 5163SOL    HW227126   4.050   1.970   6.123 -3.1283 -0.4651 -1.2275
 5164SOL     OW27127   2.605   1.246   8.645  0.2592  0.2160 -0.6745
 5164SOL    HW127128   2.687   1.288   8.619  2.0946 -0.8283  3.3742
 5164SOL    HW227129   2.580   1.322   8.698 -2.3072 -0.6821 -0.5735
 5165SOL     OW27130   3.647   3.757   2.564 -0.1166  0.2992  0.0517
 5165SOL    HW127131   3.650   3.707   2.483 -0.7237  0.6628 -0.1912
 5165SOL    HW227132   3.724   3.813   2.567  0.6003 -0.7319  0.8697
 5166SOL     OW27133   0.906   3.891   5.279  0.0802 -0.0755  0.2265
 5166SOL    HW127134   0.982   3.837   5.302  0.1257  0.2002  0.7235
 5166SOL    HW227135   0.902   3.894   5.184  0.7010  0.4896  0.2173
 5167SOL     OW27136   2.005   2.438   9.772 -0.1664 -0.2784 -0.4720
 5167SOL    HW127137   2.060   2.370   9.733  0.2833 -0.2048  0.0391
 5167SOL    HW227138   1.986   2.486   9.691  0.8174 -0.8459 -1.0380
 5168SOL     OW27139   1.508   2.448   2.752 -0.5086  0.3863  0.0965
 5168SOL    HW127140   1.456   2.513   2.799 -0.6674  0.5745 -0.3311
 5168SOL    HW227141   1.445   2.377   2.756  0.0489 -0.0340  1.1824
 5169SOL     OW27142   0.927   4.713  15.725 -0.3343  1.4104  0.1033
 5169SOL    HW127143   1.021   4.702  15.711 -0.5665  0.2775 -0.5088
 5169SOL    HW227144   0.905   4.729  15.633  3.8069 -0.7995 -1.2808
 5170SOL     OW27145   1.538   3.595   4.510  0.0844 -1.3423 -0.2721
 5170SOL    HW127146   1.618   3.566   4.466 -0.6611 -1.8844 -1.2982
 5170SOL    HW227147   1.575   3.666   4.562  1.4454 -1.8882 -0.4940
 5171SOL     OW27148   3.828   4.621  13.835  0.1921 -0.2770  0.2531
 5171SOL    HW127149   3.853   4.530  13.848  0.4655 -0.2903 -0.3674
 5171SOL    HW227150   3.778   4.609  13.754 -1.4121 -1.0835  1.3551
 5172SOL     OW27151   2.353   3.802  11.258  0.1787  0.6397  0.1301
 5172SOL    HW127152   2.363   3.843  11.344 -4.1915 -2.7117  2.2313
 5172SOL    HW227153   2.265   3.774  11.282  0.3572  2.1615  2.5072
 5173SOL     OW27154   2.733   3.724  17.723 -0.8371 -0.1763  0.8127
 5173SOL    HW127155   2.828   3.712  17.723 -0.7257  0.7866  0.1757
 5173SOL    HW227156   2.729   3.744   0.073 -3.1336  1.9749  0.2541
 5174SOL     OW27157   3.882   0.825   4.190 -0.3574  0.3084  0.0980
 5174SOL    HW127158   3.788   0.829   4.208 -0.7011  0.0130 -1.6221
 5174SOL    HW227159   3.904   0.752   4.248 -3.7524 -0.6466  0.1861
 5175SOL     OW27160   1.601   2.698   6.792 -0.7794 -0.7105  0.0305
 5175SOL    HW127161   1.625   2.633   6.726 -2.3123 -0.1600 -1.0510
 5175SOL    HW227162   1.634   2.651   6.869 -0.3156  1.4345  1.1390
 5176SOL     OW27163   3.986   0.281   4.261  0.2641  0.0458 -0.1495
 5176SOL    HW127164   4.011   0.284   4.168 -0.5758  0.2185 -0.3701
 5176SOL    HW227165   4.068   0.283   4.311 -0.2315  1.6204  0.5977
 5177SOL     OW27166   0.190   4.517   1.484 -0.4595 -0.1239  0.0002
 5177SOL    HW127167   0.195   4.600   1.437 -2.0658  0.1467  0.3332
 5177SOL    HW227168   0.282   4.495   1.499 -0.1213 -1.1037 -3.4106
 5178SOL     OW27169   3.325   4.733   8.364  0.4283  0.0014 -1.1752
 5178SOL    HW127170   3.316   0.068   8.428 -0.7567 -1.9069  0.7595
 5178SOL    HW227171   3.418   4.711   8.366  0.5980  0.7915 -0.5561
 5179SOL     OW27172   2.459   3.635   6.385 -0.4230 -0.1017  0.0108
 5179SOL    HW127173   2.448   3.662   6.476  1.2267  0.0780  0.1640
 5179SOL    HW227174   2.434   3.543   6.391  0.4559 -0.2446  1.5258
 5180SOL     OW27175   4.602   4.199   5.096  0.0349  0.2622  0.5264
 5180SOL    HW127176   4.525   4.238   5.055  1.9008  1.0136 -2.2458
 5180SOL    HW227177   4.594   4.239   5.183  0.0625 -1.1371  1.1739
 5181SOL     OW27178   3.254   0.761  12.174 -0.0654 -0.2348 -0.1208
 5181SOL    HW127179   3.309   0.790  12.247 -0.3276  1.0241 -0.4376
 5181SOL    HW227180   3.282   0.808  12.095  0.4310 -0.6900 -0.2218
 5182SOL     OW27181   2.098   1.225   4.373  0.8456 -0.3250  0.1619
 5182SOL    HW127182   2.159   1.152   4.380  0.4677 -0.6965 -0.4365
 5182SOL    HW227183   2.017   1.187   4.407  1.4574 -0.8045  1.0870
 5183SOL     OW27184   2.249   2.136   6.754 -0.2195 -0.0460  0.8831
 5183SOL    HW127185   2.204   2.052   6.755 -0.5842  0.1504  0.5202
 5183SOL    HW227186   2.240   2.160   6.846 -2.2899 -0.9454  0.9081
 5184SOL     OW27187   1.989   3.033  10.266 -0.0976  0.9605 -0.8249
 5184SOL    HW127188   2.046   3.100  10.306  0.1819 -0.2375  0.7773
 5184SOL    HW227189   2.049   2.960  10.253 -1.8715 -1.0721  2.6482
 5185SOL     OW27190   3.270   4.315  16.387  0.1522 -0.1823 -0.1822
 5185SOL    HW127191   3.364   4.317  16.404 -0.0569  2.9886  0.5996
 5185SOL    HW227192   3.276   4.279  16.298 -3.3947 -1.9190  0.2700
 5186SOL     OW27193   2.899   2.915   2.952  0.5716  0.3229  0.3448
 5186SOL    HW127194   2.827   2.857   2.974  0.2202  1.0987  1.2380
 5186SOL    HW227195   2.893   2.920   2.856  1.5975 -0.6455  0.2258
 5187SOL     OW27196   3.229   0.651   3.665 -0.2137  0.0440 -0.2823
 5187SOL    HW127197   3.309   0.702   3.655 -0.9442  1.3668  0.7323
 5187SOL    HW227198   3.243   0.604   3.747  0.1523 -1.4154 -1.1693
 5188SOL     OW27199   0.786   2.787   7.670 -0.8693 -0.2007  0.0094
 5188SOL    HW127200   0.740   2.850   7.614 -1.9262 -0.7593  0.2611
 5188SOL    HW227201   0.783   2.708   7.616 -0.5772 -0.3992  0.2889
 5189SOL     OW27202   3.315   4.363  12.049  0.2712  0.3031 -0.3677
 5189SOL    HW127203   3.370   4.422  11.998  1.1484 -1.4977 -1.5362
 5189SOL    HW227204   3.387   4.322  12.096  1.7486  1.5351 -1.5326
 5190SOL     OW27205   2.206   0.813  10.528  0.4376  0.7196  0.1320
 5190SOL    HW127206   2.115   0.793  10.505 -0.3501  0.8937  3.1462
 5190SOL    HW227207   2.213   0.757  10.605 -0.8908 -0.5801 -0.6924
 5191SOL     OW27208   3.941   4.539  10.479  0.4013 -0.7021  0.1615
 5191SOL    HW127209   3.903   4.591  10.550 -0.4870 -2.0647  0.6924
 5191SOL    HW227210   3.908   4.451  10.498  0.9198 -1.7318 -3.6264
 5192SOL     OW27211   3.426   4.363   1.994 -0.5342  0.0886  0.0126
 5192SOL    HW127212   3.337   4.341   1.968 -0.3031 -2.0562  1.0038
 5192SOL    HW227213   3.469   4.375   1.910  0.5568  0.8196  0.6740
 5193SOL     OW27214   1.520   4.137  14.592 -0.3781  0.4679 -0.3335
 5193SOL    HW127215   1.539   4.206  14.655  1.0024  0.2620 -0.5226
 5193SOL    HW227216   1.428   4.120  14.611  0.0384 -0.2923  0.9549
 5194SOL     OW27217   4.693   1.884   9.411  0.1948 -1.0149 -0.4144
 5194SOL    HW127218   4.621   1.825   9.390  0.7430 -1.6316 -0.5886
 5194SOL    HW227219   0.038   1.841   9.383  0.7292  0.5862 -1.3374
 5195SOL     OW27220   1.148   2.898   8.901 -0.6573 -0.6164  0.0909
 5195SOL    HW127221   1.100   2.970   8.859  0.8980 -0.5319 -1.5406
 5195SOL    HW227222   1.112   2.915   8.988 -1.2412  2.1260 -0.6792
 5196SOL     OW27223   3.627   1.048   1.664 -0.0982  0.0234  0.5076
 5196SOL    HW127224   3.701   0.987   1.662 -0.8972 -0.9387 -0.0100
 5196SOL    HW227225   3.559   1.006   1.717 -1.0418  0.3444 -0.4329
 5197SOL     OW27226   2.983   2.889   1.275  0.3543 -0.4533  0.1378
 5197SOL    HW127227   2.948   2.801   1.264 -0.6592 -0.3416  2.4237
 5197SOL    HW227228   3.070   2.880   1.237  0.2782  0.9248 -0.3724
 5198SOL     OW27229   3.198   2.632   4.257 -0.0480 -0.5940  0.1582
 5198SOL    HW127230   3.267   2.620   4.192  0.2893 -0.3796  0.4781
 5198SOL    HW227231   3.213   2.544   4.290 -0.1853 -0.0631  1.6351
 5199SOL     OW27232   4.468   3.076   7.402 -0.7038 -0.3991  0.5428
 5199SOL    HW127233   4.502   3.162   7.425  1.1845 -1.3505  1.3022
 5199SOL    HW227234   4.407   3.061   7.475 -1.1913 -0.6879  0.0826
 5200SOL     OW27235   1.018   2.794   1.914 -0.0551 -0.0176 -0.4413
 5200SOL    HW127236   0.966   2.728   1.960 -0.6526 -0.4765 -1.7587
 5200SOL    HW227237   0.999   2.761   1.826  0.3223  0.2246 -0.6127
 5201SOL     OW27238   4.716   2.917   0.175 -0.0959  0.5723 -0.5139
 5201SOL    HW127239   4.711   2.821   0.167  0.6923  0.2441  2.9857
 5201SOL    HW227240   4.713   2.926   0.270  2.3962 -2.2450 -0.1442
 5202SOL     OW27241   3.758   0.677   6.785  0.1490  0.2910 -0.1799
 5202SOL    HW127242   3.741   0.647   6.874 -1.9852 -1.1450 -1.0791
 5202SOL    HW227243   3.851   0.658   6.778  0.4240  1.7320 -0.4137
 5203SOL     OW27244   1.242   1.465   8.427  0.5136 -0.9883  0.1808
 5203SOL    HW127245   1.312   1.409   8.463  0.8845  0.4243  1.6734
 5203SOL    HW227246   1.271   1.555   8.441 -1.5009 -0.5359  1.5145
 5204SOL     OW27247   1.496   2.568   7.198 -0.0891  0.4121 -0.2315
 5204SOL    HW127248   1.434   2.549   7.127  1.4663  1.3804 -1.8402
 5204SOL    HW227249   1.548   2.640   7.164 -0.8885  1.5967  1.0576
 5205SOL     OW27250   3.877   2.889   8.620 -0.3054  0.2410  0.0895
 5205SOL    HW127251   3.961   2.936   8.621 -0.5351  0.6428  0.7182
 5205SOL    HW227252   3.889   2.819   8.685  1.3118 -0.8814 -1.4227
 5206SOL     OW27253   1.106   0.764   7.211  0.0989  0.3311  0.2927
 5206SOL    HW127254   1.080   0.822   7.140 -1.6818 -1.0085 -0.1699
 5206SOL    HW227255   1.030   0.706   7.215  0.8736 -0.8262 -1.3236
 5207SOL     OW27256   1.579   0.697  12.369  0.2342  0.3094 -0.0995
 5207SOL    HW127257   1.578   0.711  12.274 -0.4287 -0.4922 -0.2092
 5207SOL    HW227258   1.524   0.619  12.382  0.8052 -0.0411  0.2209
 5208SOL     OW27259   0.231   4.718   7.836 -0.3686  0.0889 -0.3377
 5208SOL    HW127260   0.284   4.687   7.764  1.1604  0.7239  0.5249
 5208SOL    HW227261   0.282   0.047   7.883  0.1411 -1.4230  1.2527
 5209SOL     OW27262   1.244   0.768  15.938  0.3061 -0.8117 -0.2173
 5209SOL    HW127263   1.339   0.768  15.925  0.1064  0.4772 -1.6911
 5209SOL    HW227264   1.223   0.848  15.890 -0.3817 -0.8271  0.0592
 5210SOL     OW27265   0.793   4.549   5.314  0.0783  0.1334 -0.6538
 5210SOL    HW127266   0.718   4.491   5.309 -1.5877  2.1995  0.5242
 5210SOL    HW227267   0.747   4.625   5.349  0.9002 -0.9755  2.8408
 5211SOL     OW27268   3.162   3.710   6.712 -0.6473  0.2437  0.2585
 5211SOL    HW127269   3.228   3.772   6.743  0.1882  0.3699 -1.7861
 5211SOL    HW227270   3.082   3.736   6.759 -0.6419 -0.7672  0.8215
 5212SOL     OW27271   3.733   0.327  12.892  0.1281  0.1013 -0.6919
 5212SOL    HW127272   3.711   0.383  12.967  0.1415  1.4316 -1.6983
 5212SOL    HW227273   3.673   0.255  12.908  0.5353  0.0649  0.6940
 5213SOL     OW27274   3.051   3.043  13.791 -0.2599  0.0912  0.1055
 5213SOL    HW127275   3.127   3.102  13.788 -0.7438  0.7388  0.4192
 5213SOL    HW227276   2.977   3.098  13.818 -0.5092 -0.0184 -0.3548
 5214SOL     OW27277   2.302   4.224   1.987 -0.3103 -0.1310 -0.1473
 5214SOL    HW127278   2.363   4.233   2.060 -0.1644  0.2086 -0.3132
 5214SOL    HW227279   2.330   4.288   1.922  1.9915 -1.0926 -0.1167
 5215SOL     OW27280   4.515   3.121   7.844  0.0402  0.4501 -0.6466
 5215SOL    HW127281   4.528   3.202   7.893  0.1065  0.3976 -0.5794
 5215SOL    HW227282   4.444   3.136   7.782  1.5413  3.3582 -1.6566
 5216SOL     OW27283   2.487   0.865   7.243  0.2333 -0.4882  0.5097
 5216SOL    HW127284   2.550   0.853   7.171  0.0939 -1.2664  0.5249
 5216SOL    HW227285   2.410   0.841   7.192  1.4552 -0.6871 -1.2672
 5217SOL     OW27286   2.132   0.250   8.215 -0.0700  0.2144  0.7447
 5217SOL    HW127287   2.197   0.185   8.191  1.8311  2.2952  0.2633
 5217SOL    HW227288   2.077   0.252   8.137  1.3636  1.3009 -0.2292
 5218SOL     OW27289   0.820   0.529  16.191  0.7215  0.4441 -0.1295
 5218SOL    HW127290   0.830   0.617  16.155  3.0294  0.5738  0.8277
 5218SOL    HW227291   0.856   0.477  16.120  0.7069 -0.8400  0.7988
 5219SOL     OW27292   1.549   0.870   7.195 -0.3971 -0.2798  0.3520
 5219SOL    HW127293   1.468   0.826   7.170  1.9027 -2.5339 -3.1023
 5219SOL    HW227294   1.616   0.811   7.160  0.1545  0.3120  0.4084
 5220SOL     OW27295   0.432   4.567   3.004 -0.2465 -0.0745 -0.2378
 5220SOL    HW127296   0.430   4.477   3.035  0.8666  0.1854  0.6116
 5220SOL    HW227297   0.337   4.577   3.003 -0.3195 -0.6518  3.4463
 5221SOL     OW27298   0.846   3.545   0.223 -0.1849  0.4445  0.0332
 5221SOL    HW127299   0.917   3.604   0.250 -0.4493  0.5437  0.4989
 5221SOL    HW227300   0.780   3.613   0.212  1.1782  1.6036 -1.0014
 5222SOL     OW27301   3.462   0.281   6.439  0.1138  0.2661  0.1521
 5222SOL    HW127302   3.466   0.327   6.355  0.7188 -3.3485 -1.7857
 5222SOL    HW227303   3.519   0.208   6.414 -0.6096 -0.1612 -0.2686
 5223SOL     OW27304   0.568   0.336   6.274  0.7702 -0.2561  0.0299
 5223SOL    HW127305   0.659   0.351   6.248  0.2705  0.6958 -1.1639
 5223SOL    HW227306   0.528   0.412   6.232 -2.1531 -1.5055  0.5789
 5224SOL     OW27307   3.553   0.797   1.992 -0.6265 -0.2009  0.0969
 5224SOL    HW127308   3.561   0.855   2.068  0.7879  1.7746 -1.5729
 5224SOL    HW227309   3.523   0.867   1.934 -4.2075 -0.0052  2.2012
 5225SOL     OW27310   4.311   0.670   1.971  0.2701 -0.0266  0.0285
 5225SOL    HW127311   4.251   0.599   1.946  0.7285 -0.2722 -0.3641
 5225SOL    HW227312   4.336   0.695   1.882  2.0583  0.5327  0.7052
 5226SOL     OW27313   0.777   1.363  15.362  0.6221  0.6879 -0.0083
 5226SOL    HW127314   0.692   1.379  15.321 -0.2707  0.0236  1.6099
 5226SOL    HW227315   0.757   1.307  15.436  0.8417  1.0499  0.3241
 5227SOL     OW27316   4.289   1.788   9.219 -0.4883  0.1729  0.4068
 5227SOL    HW127317   4.198   1.796   9.246 -1.1128  0.3825 -1.7874
 5227SOL    HW227318   4.330   1.792   9.305  0.9494 -0.8202 -0.2230
 5228SOL     OW27319   2.131   4.512   3.224  0.3695  0.2458  0.8363
 5228SOL    HW127320   2.051   4.474   3.259 -0.4537 -0.0588 -1.3992
 5228SOL    HW227321   2.145   4.584   3.285  1.7440  0.5661  0.1421
 5229SOL     OW27322   2.910   0.491  10.305 -0.0408  0.8718 -0.4425
 5229SOL    HW127323   2.874   0.409  10.270  0.1776 -0.0980  1.6263
 5229SOL    HW227324   2.859   0.562  10.266 -1.4752  0.7547  1.2302
 5230SOL     OW27325   3.450   0.272   3.830 -0.3278  0.0233  0.1359
 5230SOL    HW127326   3.450   0.342   3.895 -0.0890  0.2411 -0.1001
 5230SOL    HW227327   3.525   0.292   3.774 -1.8969  0.0441 -1.9497
 5231SOL     OW27328   1.153   2.299  10.850 -0.3098  0.2109  0.4025
 5231SOL    HW127329   1.231   2.268  10.804 -0.5484  0.0630  0.1035
 5231SOL    HW227330   1.152   2.237  10.923 -0.8234  0.4610  0.6063
 5232SOL     OW27331   4.111   0.543  17.728 -0.4129  0.1203  0.4467
 5232SOL    HW127332   4.170   0.477   0.020 -0.7925  0.5940  1.9259
 5232SOL    HW227333   4.160   0.625  17.726  0.7237 -0.6061 -1.6382
 5233SOL     OW27334   3.346   2.102   3.914  0.1598  0.3557 -0.2163
 5233SOL    HW127335   3.330   2.069   3.826 -0.3416 -3.5701  1.3520
 5233SOL    HW227336   3.417   2.163   3.893 -0.5461  1.2108 -0.1620
 5234SOL     OW27337   3.408   1.860   6.218 -0.1122  0.3721  0.0424
 5234SOL    HW127338   3.466   1.913   6.273  1.2902 -2.0781  0.9498
 5234SOL    HW227339   3.415   1.775   6.261  0.0116  0.7197  0.7092
 5235SOL     OW27340   2.698   0.511  12.546  0.3613  0.4068  0.4961
 5235SOL    HW127341   2.731   0.557  12.468 -0.3051  1.4314  0.8231
 5235SOL    HW227342   2.762   0.440  12.549 -0.0772  0.0439  1.3397
 5236SOL     OW27343   2.922   2.606   4.453 -0.0507  0.6585  0.2395
 5236SOL    HW127344   3.012   2.573   4.464  0.1546  0.8292 -0.9121
 5236SOL    HW227345   2.926   2.694   4.489 -0.4683  0.9271 -0.3885
 5237SOL     OW27346   2.299   4.024   9.317 -0.1533  0.4886  0.0005
 5237SOL    HW127347   2.209   3.998   9.301  0.1293 -1.1459  1.0985
 5237SOL    HW227348   2.298   4.118   9.295  2.4574  0.3847 -0.6205
 5238SOL     OW27349   4.411   4.162   2.818 -0.4893 -0.1943  0.0590
 5238SOL    HW127350   4.480   4.217   2.855  1.5679 -1.6134 -1.6695
 5238SOL    HW227351   4.439   4.072   2.833  0.9185  0.2866  0.2521
 5239SOL     OW27352   1.624   2.384  13.081 -0.1794 -0.2038 -0.0120
 5239SOL    HW127353   1.716   2.409  13.074 -0.0722 -0.1698  1.5417
 5239SOL    HW227354   1.624   2.289  13.095 -2.3886 -0.1564  0.2965
 5240SOL     OW27355   4.622   2.959   8.298  0.6099  0.6544  0.0048
 5240SOL    HW127356   4.604   2.892   8.364  0.6372 -0.5049 -1.1606
 5240SOL    HW227357   4.551   3.022   8.301  0.2200  0.2986 -1.7391
 5241SOL     OW27358   4.261   2.335  17.244 -0.1231 -0.0031  0.0586
 5241SOL    HW127359   4.323   2.401  17.214 -1.5827  1.2283 -0.2763
 5241SOL    HW227360   4.200   2.325  17.171  0.2957  0.2663 -0.3279
 5242SOL     OW27361   1.693   0.295   8.088 -0.3528  0.0901  0.1293
 5242SOL    HW127362   1.756   0.291   8.016 -0.4523  1.7417 -0.0371
 5242SOL    HW227363   1.638   0.218   8.074 -1.2880  1.0337 -1.2766
 5243SOL     OW27364   0.574   4.405  16.445  0.0924 -0.3484 -0.1280
 5243SOL    HW127365   0.508   4.473  16.458  1.1570  0.2172  2.4808
 5243SOL    HW227366   0.550   4.334  16.504  0.2058 -0.4313 -0.1815
 5244SOL     OW27367   4.484   1.399  15.423  0.0202 -0.7579 -0.5097
 5244SOL    HW127368   4.425   1.341  15.376 -0.0176 -1.1499  0.0199
 5244SOL    HW227369   4.519   1.347  15.495  2.1990  0.9397 -0.3307
 5245SOL     OW27370   1.636   0.371  10.851 -0.1419  0.4037  0.0924
 5245SOL    HW127371   1.627   0.461  10.884  1.0734  0.4595  0.2966
 5245SOL    HW227372   1.730   0.373  10.832 -0.6901 -1.9589 -2.9405
 5246SOL     OW27373   1.320   4.089   8.021 -0.0098  0.1621  0.6653
 5246SOL    HW127374   1.346   4.134   8.102  2.8251 -0.7090  0.2138
 5246SOL    HW227375   1.256   4.152   7.987  0.7775 -0.2060 -1.4655
 5247SOL     OW27376   1.409   3.101   9.084  0.0888 -0.1176 -0.2696
 5247SOL    HW127377   1.328   3.151   9.073  0.8624  1.1378 -0.2302
 5247SOL    HW227378   1.444   3.157   9.152  1.4974 -0.3200 -0.8353
 5248SOL     OW27379   3.358   3.724   2.159 -0.0672  0.3245  0.2349
 5248SOL    HW127380   3.398   3.673   2.230 -0.0945  2.5329  1.8496
 5248SOL    HW227381   3.442   3.761   2.132 -0.9212  1.4877 -0.8183
 5249SOL     OW27382   1.525   2.345   4.739 -0.3352  0.0184 -0.6261
 5249SOL    HW127383   1.456   2.291   4.777 -1.2801  0.8246 -1.1925
 5249SOL    HW227384   1.476   2.386   4.668 -0.5169  0.5732 -0.1807
 5250SOL     OW27385   2.237   2.440   6.666 -0.3899 -0.1094  0.1518
 5250SOL    HW127386   2.162   2.482   6.625 -2.3344  0.7414  4.6146
 5250SOL    HW227387   2.277   2.379   6.604  2.0180  3.1619 -1.4813
 5251SOL     OW27388   2.277   3.382  11.200  0.5322  0.0204  0.0490
 5251SOL    HW127389   2.191   3.354  11.230  0.9423 -0.4110  0.8266
 5251SOL    HW227390   2.327   3.322  11.256  2.9746  0.1013 -2.0313
 5252SOL     OW27391   3.592   3.970   5.949 -0.1059 -0.1486  0.8165
 5252SOL    HW127392   3.599   3.888   5.997 -0.2073 -1.0543 -0.7099
 5252SOL    HW227393   3.684   3.985   5.925 -0.6974 -0.5127 -1.6651
 5253SOL     OW27394   0.172   3.054   8.894 -0.3559  0.0307 -0.1771
 5253SOL    HW127395   0.097   3.003   8.926  0.6477 -0.6062  1.1597
 5253SOL    HW227396   0.205   3.086   8.978 -3.6640 -0.4858  1.2984
 5254SOL     OW27397   3.727   2.409   6.622  0.0653 -0.0213  0.2485
 5254SOL    HW127398   3.645   2.430   6.668  0.0184  0.9385 -0.2728
 5254SOL    HW227399   3.787   2.448   6.685 -0.2172 -0.6994  0.9443
 5255SOL     OW27400   2.035   2.156   9.003 -0.4004 -0.0932 -0.1860
 5255SOL    HW127401   1.960   2.098   9.012 -1.3749  0.9907 -1.2565
 5255SOL    HW227402   2.116   2.106   8.999 -0.7201 -0.7078  1.0157
 5256SOL     OW27403   3.402   3.982  10.992  0.0579 -0.0265  0.1749
 5256SOL    HW127404   3.351   3.967  10.912 -0.4881 -0.0397  0.5276
 5256SOL    HW227405   3.416   4.076  10.988  1.8315 -0.2587  1.3010
 5257SOL     OW27406   4.050   1.568   6.579  0.1006  0.0061 -0.9006
 5257SOL    HW127407   4.090   1.599   6.660 -0.3457  1.6694 -1.3009
 5257SOL    HW227408   4.023   1.648   6.533  0.1712  0.0942 -0.7894
 5258SOL     OW27409   3.094   4.528   5.337 -0.2254  0.6611 -0.0877
 5258SOL    HW127410   3.138   4.443   5.339  1.3027  1.4244 -1.0978
 5258SOL    HW227411   3.092   4.539   5.432  1.5284 -1.3013  0.1814
 5259SOL     OW27412   2.204   3.219   7.253  0.7523  0.4436  0.3478
 5259SOL    HW127413   2.245   3.183   7.174  1.0111 -1.4512  1.3432
 5259SOL    HW227414   2.255   3.299   7.258 -1.7129  2.1403 -1.3850
 5260SOL     OW27415   1.697   1.646   4.747  0.0936  0.1053 -0.3733
 5260SOL    HW127416   1.778   1.641   4.697  0.4691 -0.3021  0.2908
 5260SOL    HW227417   1.634   1.663   4.677 -0.6183 -1.5238 -0.1300
 5261SOL     OW27418   3.537   4.661   8.684  0.4176 -0.3231  0.2745
 5261SOL    HW127419   3.620   4.619   8.704  1.6136  1.9434  0.0428
 5261SOL    HW227420   3.463   4.613   8.720  1.1949 -0.6879  1.3547
 5262SOL     OW27421   1.053   4.337   5.691 -0.8546 -0.3670 -0.8175
 5262SOL    HW127422   1.080   4.400   5.758 -1.2984  1.4834 -2.3626
 5262SOL    HW227423   0.969   4.300   5.717 -0.2671 -1.6680 -0.7863
 5263SOL     OW27424   3.270   1.844   5.366 -0.1616 -0.3612  0.0294
 5263SOL    HW127425   3.277   1.767   5.423  1.2878 -1.2003 -1.2621
 5263SOL    HW227426   3.321   1.817   5.290 -0.0323  0.0264 -0.0197
 5264SOL     OW27427   0.292   2.937   0.548  0.0607 -0.2210 -0.3100
 5264SOL    HW127428   0.368   2.895   0.590 -0.2675 -0.1628  0.3447
 5264SOL    HW227429   0.308   2.920   0.455  2.4102 -3.2443  0.6332
 5265SOL     OW27430   2.125   4.162   1.655 -0.1814 -0.8184  0.3544
 5265SOL    HW127431   2.220   4.161   1.667  0.0872 -2.5051 -1.8641
 5265SOL    HW227432   2.090   4.168   1.744  0.6239  2.8679  0.4022
 5266SOL     OW27433   0.563   3.627   2.612  0.0056 -0.3368 -0.5034
 5266SOL    HW127434   0.520   3.558   2.561 -1.0464  0.1721 -0.2970
 5266SOL    HW227435   0.554   3.693   2.543  1.0678 -0.4610 -0.7484
 5267SOL     OW27436   4.633   2.173   5.256 -0.2659  0.5348 -0.1349
 5267SOL    HW127437   4.603   2.241   5.195  1.2319  0.3242 -1.0831
 5267SOL    HW227438   4.715   2.211   5.288  0.4115 -0.2200 -1.0099
 5268SOL     OW27439   1.982   0.216   7.967 -0.2467 -0.1128  0.7358
 5268SOL    HW127440   1.985   0.289   7.905  0.2603  1.5220  2.7030
 5268SOL    HW227441   2.015   0.155   7.901  1.7177 -1.4631  2.9736
 5269SOL     OW27442   0.358   2.336  15.264  0.4818  0.3396  0.3131
 5269SOL    HW127443   0.438   2.284  15.254  1.9148  2.8641 -1.6238
 5269SOL    HW227444   0.296   2.312  15.196 -1.9101 -0.8928  2.9150
 5270SOL     OW27445   1.353   4.702   9.804  0.0934 -0.2010  0.2114
 5270SOL    HW127446   1.273   4.665   9.767  0.4840  1.2263 -2.0329
 5270SOL    HW227447   1.327   4.695   9.896 -1.2618 -1.2110 -0.2399
 5271SOL     OW27448   2.413   2.566  16.728  0.1070  0.0360  0.3201
 5271SOL    HW127449   2.443   2.615  16.652 -0.3472 -1.3304 -0.7393
 5271SOL    HW227450   2.456   2.481  16.715 -0.7378 -0.6075  1.7775
 5272SOL     OW27451   1.996   3.093   7.602  0.1132  0.1608  0.6872
 5272SOL    HW127452   2.074   3.084   7.546 -0.4871  1.0939 -0.2921
 5272SOL    HW227453   1.965   3.002   7.602  0.5339  0.0186 -1.1318
 5273SOL     OW27454   3.913   4.338  14.115 -0.1886 -0.0823  0.3230
 5273SOL    HW127455   3.882   4.278  14.183  1.7607  0.4442  1.7051
 5273SOL    HW227456   3.892   4.423  14.155 -2.6798  0.2411 -1.7430
 5274SOL     OW27457   3.392   4.455  13.062  0.1169  0.2562 -0.4002
 5274SOL    HW127458   3.439   4.487  12.985 -0.0305  2.8915  0.6108
 5274SOL    HW227459   3.326   4.523  13.073  0.0597  0.0958  0.2626
 5275SOL     OW27460   0.411   1.007   0.865 -0.3124  0.1662 -0.1199
 5275SOL    HW127461   0.377   1.079   0.812  0.8500  0.6440 -0.2110
 5275SOL    HW227462   0.332   0.957   0.887 -1.1853  1.1703 -0.9702
 5276SOL     OW27463   3.166   0.458   1.286  0.6197 -0.1111 -0.5601
 5276SOL    HW127464   3.111   0.392   1.328 -1.4035  0.2959 -2.5809
 5276SOL    HW227465   3.173   0.427   1.196 -0.1067  0.7490 -0.9121
 5277SOL     OW27466   1.373   3.021   6.391 -0.3057  0.0975  0.0471
 5277SOL    HW127467   1.442   2.957   6.407 -2.5620 -2.0381  1.3337
 5277SOL    HW227468   1.380   3.060   6.478  0.9464  3.6065 -1.6521
 5278SOL     OW27469   1.723   0.641   2.018 -0.2468  0.1886 -0.7657
 5278SOL    HW127470   1.638   0.638   1.974 -0.4635 -3.5163 -0.0924
 5278SOL    HW227471   1.731   0.730   2.051 -1.1165 -1.1725  3.1960
 5279SOL     OW27472   0.771   3.503   8.858  0.0947  0.3048  0.2870
 5279SOL    HW127473   0.727   3.547   8.785 -0.7337  1.3778  1.4348
 5279SOL    HW227474   0.853   3.553   8.856 -0.1122  0.6535  0.7265
 5280SOL     OW27475   3.916   0.685  15.591 -0.0127 -0.0442  0.0103
 5280SOL    HW127476   3.927   0.719  15.503  0.2721  1.2008  0.5215
 5280SOL    HW227477   3.823   0.703  15.604  0.5975  2.7911  0.4782
 5281SOL     OW27478   2.828   3.138   9.872 -0.0133 -0.2265 -0.0026
 5281SOL    HW127479   2.864   3.124   9.785  0.1494  0.4282 -0.0380
 5281SOL    HW227480   2.797   3.227   9.859  0.1986 -0.4462 -2.0305
 5282SOL     OW27481   4.024   3.727   1.641  0.3267  0.3968 -0.2077
 5282SOL    HW127482   3.948   3.720   1.698  0.4058  1.6281  0.0474
 5282SOL    HW227483   4.091   3.774   1.691 -1.2095  1.4437  0.8672
 5283SOL     OW27484   3.292   2.122   5.938 -0.3429  0.1382  0.2338
 5283SOL    HW127485   3.282   2.035   5.900 -1.8168  0.1664  0.5272
 5283SOL    HW227486   3.272   2.125   6.032  1.8697 -0.7402  0.7248
 5284SOL     OW27487   4.343   3.401   7.981 -0.5271  0.2113  0.0238
 5284SOL    HW127488   4.346   3.422   7.888 -0.5206  1.6310  0.3472
 5284SOL    HW227489   4.411   3.455   8.021  0.3984 -2.3739  1.9296
 5285SOL     OW27490   3.538   3.334   6.046 -0.2530  0.2535 -0.6437
 5285SOL    HW127491   3.625   3.314   6.013 -0.1067  0.2907 -0.2736
 5285SOL    HW227492   3.523   3.272   6.117  1.5587  1.8860  1.1651
 5286SOL     OW27493   2.800   0.896   1.553 -0.3418 -0.1838  0.0403
 5286SOL    HW127494   2.871   0.954   1.526  0.1973 -0.8186  0.0646
 5286SOL    HW227495   2.848   0.812   1.553 -0.2511 -0.1243 -2.8330
 5287SOL     OW27496   0.618   3.756  12.468  0.1307  0.0686 -0.2795
 5287SOL    HW127497   0.678   3.691  12.506 -0.8774 -1.1721 -0.8105
 5287SOL    HW227498   0.532   3.718  12.484 -0.1236  0.5751 -0.4625
 5288SOL     OW27499   2.405   2.681   3.027 -0.0137  0.1218 -0.3992
 5288SOL    HW127500   2.407   2.630   3.108 -1.0136  0.4868 -0.1395
 5288SOL    HW227501   2.400   2.610   2.963 -1.7311 -0.6253  0.5514
 5289SOL     OW27502   4.721   1.458   8.804  0.1382  0.3776 -0.3762
 5289SOL    HW127503   4.720   1.551   8.827 -0.9833 -0.3584  2.5005
 5289SOL    HW227504   4.628   1.439   8.795 -0.1646  2.0627 -0.9304
 5290SOL     OW27505   0.713   4.103   6.143 -0.2474 -0.0821  0.0350
 5290SOL    HW127506   0.801   4.142   6.140  0.0065 -0.6070  0.8575
 5290SOL    HW227507   0.690   4.128   6.232 -1.2255  3.1793 -1.1283
 5291SOL     OW27508   1.417   3.048   2.121  0.1717 -0.3652  0.0092
 5291SOL    HW127509   1.449   2.965   2.085  0.5761  0.4148 -1.4283
 5291SOL    HW227510   1.476   3.105   2.072 -1.5817 -0.3171 -2.0495
 5292SOL     OW27511   4.044   4.297   6.911 -0.0080  0.5353  0.0642
 5292SOL    HW127512   3.969   4.330   6.961  0.4831 -0.0677  1.1971
 5292SOL    HW227513   4.004   4.227   6.859 -0.0754  0.7789 -0.2106
 5293SOL     OW27514   3.066   2.762  12.996 -0.6053  0.8014  0.0322
 5293SOL    HW127515   2.997   2.757  13.062 -1.1632 -3.1539 -0.8352
 5293SOL    HW227516   3.054   2.849  12.958  0.6920  1.6148  1.4843
 5294SOL     OW27517   0.295   3.912   1.785 -0.2040  0.0477 -0.2055
 5294SOL    HW127518   0.386   3.919   1.816 -0.3673  0.7968  0.0992
 5294SOL    HW227519   0.307   3.969   1.709  0.2579  0.4154  0.1393
 5295SOL     OW27520   1.704   0.595   6.162  0.4441  0.2626  0.1719
 5295SOL    HW127521   1.660   0.553   6.237 -2.8004  0.6973 -1.4738
 5295SOL    HW227522   1.793   0.586   6.196  0.0752 -2.1743  0.4620
 5296SOL     OW27523   1.194   3.409   6.055  0.0546  0.3079 -0.1328
 5296SOL    HW127524   1.155   3.483   6.101 -1.7266 -1.0833  0.5996
 5296SOL    HW227525   1.280   3.441   6.027  0.9157 -2.2035 -0.3766
 5297SOL     OW27526   1.944   4.557   6.092 -0.4273  0.7473  0.1766
 5297SOL    HW127527   1.999   4.496   6.140  2.4656  1.3474 -2.3653
 5297SOL    HW227528   2.006   4.622   6.059 -1.2913  0.6691 -1.6049
 5298SOL     OW27529   4.538   1.928  16.625 -0.0612  0.0445 -0.3584
 5298SOL    HW127530   4.627   1.961  16.638 -0.4332  0.2140  1.7713
 5298SOL    HW227531   4.506   1.962  16.542  2.3982 -3.2644 -2.6466
 5299SOL     OW27532   3.973   4.170   5.217  0.3041 -0.1467  0.3387
 5299SOL    HW127533   4.037   4.100   5.203  1.0047  0.5892 -0.1358
 5299SOL    HW227534   3.957   4.202   5.128  2.7133 -0.5828 -0.2693
 5300SOL     OW27535   2.327   0.130   5.074  0.5349  0.0628  0.1301
 5300SOL    HW127536   2.361   0.127   4.984 -2.0716  0.1038 -0.8701
 5300SOL    HW227537   2.409   0.125   5.122  1.0362  0.6716 -0.6652
 5301SOL     OW27538   0.069   1.765   1.927 -0.3436 -0.4797 -0.1778
 5301SOL    HW127539   0.157   1.757   1.892 -0.0062 -0.9833  0.7793
 5301SOL    HW227540   0.034   1.676   1.917 -1.0186 -0.2310 -0.0785
 5302SOL     OW27541   4.228   2.709  14.203 -0.2582  0.3437 -0.6681
 5302SOL    HW127542   4.212   2.783  14.262  1.0008  0.4600 -0.4816
 5302SOL    HW227543   4.186   2.635  14.247  1.0667  0.9585  1.6178
 5303SOL     OW27544   2.653   3.241   6.493  0.0346 -0.2517  0.4031
 5303SOL    HW127545   2.583   3.213   6.551 -2.5628 -0.0462 -2.6109
 5303SOL    HW227546   2.637   3.192   6.412 -0.7821  1.4739 -0.4792
 5304SOL     OW27547   3.687   2.133   2.310  0.3511  0.4046 -0.4310
 5304SOL    HW127548   3.769   2.137   2.360 -0.4163  3.0313  0.6330
 5304SOL    HW227549   3.723   2.132   2.222 -0.3000 -0.7060 -0.6857
 5305SOL     OW27550   2.399   2.226   9.287 -0.3153  0.5861 -0.1929
 5305SOL    HW127551   2.365   2.154   9.339  0.5000 -1.2291 -2.1779
 5305SOL    HW227552   2.318   2.267   9.255 -1.5811 -0.6312  1.4475
 5306SOL     OW27553   1.043   4.698   3.043 -0.1847 -0.0566  0.0290
 5306SOL    HW127554   1.134   4.688   3.069  0.0369 -0.8970 -1.0652
 5306SOL    HW227555   1.058   4.704   2.949 -0.5296  4.3186  0.2616
 5307SOL     OW27556   4.468   3.738   4.995  0.5012  0.2661  0.5005
 5307SOL    HW127557   4.509   3.820   4.970 -0.7324  0.6527 -0.2680
 5307SOL    HW227558   4.538   3.708   5.054  0.8429  1.0750  0.4983
 5308SOL     OW27559   3.769   3.447  16.412 -0.1467 -0.4602  0.0910
 5308SOL    HW127560   3.817   3.437  16.330 -0.6816  0.6358 -0.3396
 5308SOL    HW227561   3.819   3.386  16.467  0.4655  0.4319  0.5229
 5309SOL     OW27562   1.051   2.211   4.032  0.4768 -0.1874 -0.5487
 5309SOL    HW127563   1.076   2.134   4.085  0.5929  1.7673  2.2597
 5309SOL    HW227564   1.060   2.188   3.940  0.5227  2.4145 -1.1837
 5310SOL     OW27565   1.156   3.036   6.906 -0.0417  0.3326  0.1371
 5310SOL    HW127566   1.226   2.971   6.902 -0.9548 -0.5424 -1.8732
 5310SOL    HW227567   1.216   3.110   6.916  1.0419 -0.9647  3.3873
 5311SOL     OW27568   0.287   2.136  13.183 -0.3360  0.2446  0.0905
 5311SOL    HW127569   0.265   2.215  13.133 -1.0608 -0.2199 -0.3254
 5311SOL    HW227570   0.375   2.159  13.212 -0.1197 -1.1318  0.5122
 5312SOL     OW27571   0.587   1.156   3.989  0.6521  0.0256  0.1359
 5312SOL    HW127572   0.643   1.148   3.911  0.5851 -1.8066  0.2750
 5312SOL    HW227573   0.504   1.139   3.945  0.4804 -0.1660  0.5318
 5313SOL     OW27574   3.602   1.226   7.999 -0.2251  0.4207  0.2863
 5313SOL    HW127575   3.669   1.167   8.034  0.3514  0.0514 -1.4652
 5313SOL    HW227576   3.560   1.183   7.925  1.1364 -0.1972 -0.1297
 5314SOL     OW27577   1.364   1.606   8.637  0.0861 -0.1939 -0.1233
 5314SOL    HW127578   1.290   1.632   8.694  0.0054  0.8182 -0.6783
 5314SOL    HW227579   1.376   1.516   8.666 -2.8568 -0.7274 -0.5604
 5315SOL     OW27580   1.232   2.341   1.962 -0.0564  0.6018  0.1829
 5315SOL    HW127581   1.221   2.422   2.010 -1.8262 -0.3924  1.4573
 5315SOL    HW227582   1.140   2.313   1.969  0.4053 -1.1865 -0.7234
 5316SOL     OW27583   2.782   2.885   2.494  0.4250 -0.1806  0.0295
 5316SOL    HW127584   2.774   2.825   2.568 -1.8714 -1.2348 -1.0669
 5316SOL    HW227585   2.867   2.925   2.510 -1.5921  4.0005  0.2302
 5317SOL     OW27586   1.460   3.592   2.248  0.5242  0.2960 -0.2056
 5317SOL    HW127587   1.414   3.511   2.224 -1.5938  1.7069 -0.9491
 5317SOL    HW227588   1.461   3.629   2.159 -1.4758  0.4964 -0.1536
 5318SOL     OW27589   1.928   3.559  13.859 -0.0439 -0.5844  0.8277
 5318SOL    HW127590   1.950   3.505  13.935  0.2661 -1.4901  0.1009
 5318SOL    HW227591   2.010   3.608  13.847 -0.8387  1.3651  3.2668
 5319SOL     OW27592   2.974   0.157   5.846 -0.2460 -1.0404  0.0690
 5319SOL    HW127593   3.057   0.125   5.882  1.4263  0.1484 -2.7284
 5319SOL    HW227594   2.909   0.112   5.900  1.7695  0.7726  3.9603
 5320SOL     OW27595   0.000   0.228   9.951  0.1557  0.8763  0.4188
 5320SOL    HW127596   4.662   0.236   9.892  2.1161  0.8448 -2.0377
 5320SOL    HW227597   0.064   0.178   9.901  0.7641  2.0644  0.0104
 5321SOL     OW27598   1.233   4.527   7.061 -0.6582  0.0039 -0.3164
 5321SOL    HW127599   1.317   4.512   7.017 -1.0533 -1.1313 -0.6748
 5321SOL    HW227600   1.242   4.469   7.137  1.3449 -0.0682 -0.6015
 5322SOL     OW27601   3.858   2.661   1.695 -0.0798 -0.5829  0.0063
 5322SOL    HW127602   3.874   2.661   1.790  1.0290  0.7857 -0.1837
 5322SOL    HW227603   3.902   2.580   1.666  1.3435 -0.3605  1.5230
 5323SOL     OW27604   4.102   2.408  13.010 -0.1499 -0.1169 -0.1480
 5323SOL    HW127605   4.064   2.447  12.931  3.2971  1.9492 -0.7714
 5323SOL    HW227606   4.174   2.467  13.033 -1.3621  1.6525 -0.9023
 5324SOL     OW27607   1.986   4.013   4.795  0.2590 -0.6339  0.0794
 5324SOL    HW127608   1.948   3.935   4.834 -1.0320  0.8265  1.7558
 5324SOL    HW227609   1.989   4.067   4.874 -0.2195  0.4853 -0.6635
 5325SOL     OW27610   4.331   0.093   4.534  0.1502 -0.4815  0.8179
 5325SOL    HW127611   4.306   0.007   4.566  1.1385 -1.2894 -0.5681
 5325SOL    HW227612   4.346   0.068   4.443  1.6928 -1.9726  1.4878
 5326SOL     OW27613   3.218   2.418   9.816  0.0008  0.5391 -0.1048
 5326SOL    HW127614   3.189   2.340   9.863 -1.7713 -0.1343 -2.3584
 5326SOL    HW227615   3.303   2.425   9.860  0.1562 -2.1674  0.0159
 5327SOL     OW27616   3.152   2.659   9.264 -0.1110  0.3738  0.1164
 5327SOL    HW127617   3.095   2.691   9.333 -0.3262  1.3317 -0.4922
 5327SOL    HW227618   3.159   2.737   9.209 -0.4354  1.3431  1.4720
 5328SOL     OW27619   3.992   2.572   7.343  0.6105  0.0229  0.2585
 5328SOL    HW127620   4.082   2.541   7.331  1.1913  0.8797  2.4080
 5328SOL    HW227621   3.956   2.553   7.256  0.6789 -0.7932  0.4146
 5329SOL     OW27622   1.923   4.417   2.704  0.3997 -0.0642  0.1412
 5329SOL    HW127623   1.873   4.347   2.662 -0.0686 -0.0637  0.7034
 5329SOL    HW227624   1.982   4.436   2.630 -0.2657 -1.8358 -0.8538
 5330SOL     OW27625   4.430   1.018   7.596  0.4649  0.4333 -0.5850
 5330SOL    HW127626   4.400   0.976   7.516  2.7161 -1.5422 -0.3818
 5330SOL    HW227627   4.350   1.049   7.639  0.5129 -1.0201  0.5730
 5331SOL     OW27628   3.875   4.636  16.432 -0.3897  0.8282  0.0274
 5331SOL    HW127629   3.822   4.713  16.451  2.7853  2.6345  1.4229
 5331SOL    HW227630   3.818   4.566  16.464  1.4596 -0.5891  0.1751
 5332SOL     OW27631   2.440   1.393   3.019  0.4979  0.1055  0.1121
 5332SOL    HW127632   2.523   1.348   3.002 -0.2832 -1.1938 -0.2731
 5332SOL    HW227633   2.464   1.452   3.090 -0.0287  0.3278  0.1006
 5333SOL     OW27634   0.887   2.914   2.676  0.1018  0.1072 -0.0241
 5333SOL    HW127635   0.917   2.998   2.640  0.2272 -0.5974 -1.5625
 5333SOL    HW227636   0.793   2.924   2.661  0.1785 -0.6236 -0.9742
 5334SOL     OW27637   3.705   2.491  12.893 -0.2546  0.1449  0.3636
 5334SOL    HW127638   3.761   2.441  12.951 -0.8893 -0.4796  0.4403
 5334SOL    HW227639   3.754   2.509  12.812 -0.5143 -0.9465 -0.0338
 5335SOL     OW27640   2.282   2.392   1.189  0.6437  0.0342  0.3422
 5335SOL    HW127641   2.325   2.426   1.268 -0.6857 -1.5007  1.7408
 5335SOL    HW227642   2.270   2.299   1.213  0.8040  0.1115  0.7327
 5336SOL     OW27643   3.125   2.674   9.874  0.4160  0.1162  0.1764
 5336SOL    HW127644   3.187   2.689   9.945 -2.2455  0.0664  2.5284
 5336SOL    HW227645   3.134   2.579   9.865 -2.4864 -0.0322 -1.2175
 5337SOL     OW27646   1.895   0.337   1.783 -0.1293  0.6775  0.0624
 5337SOL    HW127647   1.958   0.398   1.744  2.6749 -2.3794 -0.1734
 5337SOL    HW227648   1.809   0.362   1.748 -0.3299  0.7015  0.5795
 5338SOL     OW27649   0.875   4.360   2.149  0.5674 -0.0844  0.2803
 5338SOL    HW127650   0.912   4.325   2.230 -0.9408  0.1198  1.0553
 5338SOL    HW227651   0.903   4.451   2.146 -0.5479  0.1550 -3.3059
 5339SOL     OW27652   2.745   3.668   4.812 -0.0470 -0.8335  0.2889
 5339SOL    HW127653   2.700   3.611   4.876 -0.3384 -0.8125  0.1023
 5339SOL    HW227654   2.688   3.649   4.737  1.3305 -0.7671 -0.7683
 5340SOL     OW27655   1.314   3.275   6.926  0.2034 -0.4189 -0.0394
 5340SOL    HW127656   1.390   3.311   6.971  0.2826  1.7289 -1.9159
 5340SOL    HW227657   1.300   3.336   6.855 -2.5459 -1.3295 -0.2829
 5341SOL     OW27658   1.934   3.969  14.018  0.2605  0.5626 -0.1850
 5341SOL    HW127659   1.977   3.888  14.045 -0.2141  0.6575  0.8725
 5341SOL    HW227660   1.960   3.984  13.927  2.3520 -0.6920  0.2091
 5342SOL     OW27661   4.165   0.709   6.100 -0.0665 -0.4873 -0.1172
 5342SOL    HW127662   4.176   0.731   6.008  0.9937 -0.3449  0.0414
 5342SOL    HW227663   4.148   0.798   6.132 -0.4084 -0.1850 -1.1367
 5343SOL     OW27664   0.509   2.171   9.375 -0.3388 -0.2044 -0.4245
 5343SOL    HW127665   0.550   2.151   9.291  1.6492 -0.1971  0.5438
 5343SOL    HW227666   0.444   2.238   9.352  2.0576  2.4518  0.5787
 5344SOL     OW27667   4.156   3.680   7.288 -0.1034 -0.1633  0.0487
 5344SOL    HW127668   4.098   3.750   7.320  0.5321 -0.4780  1.8809
 5344SOL    HW227669   4.232   3.692   7.345 -0.1998 -2.9344  0.7538
 5345SOL     OW27670   1.905   3.460   5.839 -0.1947  0.2752  0.3659
 5345SOL    HW127671   1.951   3.377   5.845  1.6686  1.4211  1.8101
 5345SOL    HW227672   1.845   3.463   5.914 -0.9946  0.4209 -0.2732
 5346SOL     OW27673   4.076   0.841   9.562  0.2933  0.0268 -0.1316
 5346SOL    HW127674   3.995   0.790   9.572 -0.0431  0.3272 -1.4218
 5346SOL    HW227675   4.115   0.799   9.486 -0.5769 -0.8632 -0.0890
 5347SOL     OW27676   0.132   1.834  15.161 -0.0478 -0.3269  0.0939
 5347SOL    HW127677   0.173   1.918  15.139  0.6994 -1.0358 -1.2680
 5347SOL    HW227678   0.072   1.855  15.232  0.3837 -1.0415  0.6658
 5348SOL     OW27679   4.409   3.618   8.308 -0.2131  0.3647 -0.2982
 5348SOL    HW127680   4.337   3.555   8.311 -0.6587  0.8484 -0.6710
 5348SOL    HW227681   4.447   3.587   8.226 -2.9993  3.2750 -2.7206
 5349SOL     OW27682   1.037   0.362   4.295 -0.8299 -0.1427  0.4044
 5349SOL    HW127683   1.084   0.293   4.343  3.7775  2.0924 -0.9337
 5349SOL    HW227684   1.039   0.332   4.204  1.8422  0.7335  0.1868
 5350SOL     OW27685   3.193   2.830  10.322 -0.1274  0.9631  0.2027
 5350SOL    HW127686   3.237   2.826  10.237 -1.5696 -1.8356 -0.3926
 5350SOL    HW227687   3.109   2.830  10.277 -1.0849 -0.4728  1.9877
 5351SOL     OW27688   0.609   1.656   2.669 -0.2929 -0.2212 -0.7008
 5351SOL    HW127689   0.588   1.740   2.710  0.7506 -0.2947  0.0007
 5351SOL    HW227690   0.605   1.617   2.756  0.0207 -0.3385 -0.7377
 5352SOL     OW27691   0.693   1.188   2.381 -0.0657 -0.1299 -0.0676
 5352SOL    HW127692   0.602   1.182   2.408  0.7959  0.4753  2.9270
 5352SOL    HW227693   0.697   1.092   2.379 -1.8159 -0.1948 -0.5882
 5353SOL     OW27694   2.496   4.356   0.022  0.4722 -0.1441  0.5578
 5353SOL    HW127695   2.444   4.299  17.709 -1.2845  1.6286  0.3670
 5353SOL    HW227696   2.579   4.366  17.719 -0.3084 -2.4057 -1.3180
 5354SOL     OW27697   3.261   2.149   4.308  0.3779  0.1790 -0.6563
 5354SOL    HW127698   3.337   2.193   4.270  2.0341 -2.1205  0.0338
 5354SOL    HW227699   3.216   2.123   4.228 -1.4870  1.8620 -0.1540
 5355SOL     OW27700   3.417   4.084   1.780 -0.3285 -0.0959  0.6113
 5355SOL    HW127701   3.357   4.077   1.854 -2.7338 -1.9171 -1.5020
 5355SOL    HW227702   3.351   4.114   1.717  0.1318  0.5510  0.4312
 5356SOL     OW27703   1.994   0.332   9.721  0.2493 -0.7547  0.7343
 5356SOL    HW127704   2.001   0.387   9.799 -1.0088  0.9955 -0.3891
 5356SOL    HW227705   1.909   0.289   9.732 -1.7030  3.1600  0.9545
 5357SOL     OW27706   3.841   1.796   8.620 -0.1667  0.4207 -0.2579
 5357SOL    HW127707   3.800   1.851   8.687  2.5257 -0.8567  2.4371
 5357SOL    HW227708   3.905   1.751   8.675  0.8027  2.8133  0.5963
 5358SOL     OW27709   3.379   1.560   8.067  0.1337 -0.0484 -0.5425
 5358SOL    HW127710   3.379   1.655   8.062  1.1503  0.0474  1.5149
 5358SOL    HW227711   3.447   1.540   8.003 -0.4569 -0.2507 -1.1154
 5359SOL     OW27712   3.735   2.256   9.674  0.2027 -0.6212 -0.5212
 5359SOL    HW127713   3.806   2.318   9.691  0.3925 -0.6275 -1.2773
 5359SOL    HW227714   3.727   2.206   9.756  2.3147 -1.3112 -0.7210
 5360SOL     OW27715   4.318   4.641   0.993  0.1041  0.0919  0.0618
 5360SOL    HW127716   4.223   4.634   1.002  0.1709  2.1742  2.2293
 5360SOL    HW227717   4.324   4.662   0.899 -1.9227 -0.7898 -0.2769
 5361SOL     OW27718   2.042   1.287   6.116  0.0503  0.5269  0.5553
 5361SOL    HW127719   2.066   1.379   6.118  0.7732  0.3607 -0.6515
 5361SOL    HW227720   1.976   1.297   6.185 -0.3418  0.7101  0.1522
 5362SOL     OW27721   2.842   2.968  16.089  0.3802  0.2172 -0.2622
 5362SOL    HW127722   2.921   3.015  16.062  1.7712 -0.3353  2.8097
 5362SOL    HW227723   2.780   3.029  16.051  0.4735  0.2274 -0.3979
 5363SOL     OW27724   2.262   0.289  10.954  0.1557  0.1320  0.6446
 5363SOL    HW127725   2.272   0.259  11.045 -0.1951  3.0129  1.6369
 5363SOL    HW227726   2.252   0.383  10.963 -0.4921 -0.1452  2.9024
 5364SOL     OW27727   4.455   1.170   8.435  0.5298 -0.5688  0.4253
 5364SOL    HW127728   4.468   1.109   8.362  1.9187 -1.0465  1.0920
 5364SOL    HW227729   4.498   1.124   8.507  1.1398 -0.8262 -0.1113
 5365SOL     OW27730   0.635   2.633   2.678  0.9040  0.0353 -0.6075
 5365SOL    HW127731   0.683   2.591   2.749  0.3109 -1.0776 -0.8611
 5365SOL    HW227732   0.675   2.577   2.611 -0.0001 -1.4211  0.0671
 5366SOL     OW27733   2.883   0.876   5.992  0.1073 -0.0367 -0.7079
 5366SOL    HW127734   2.793   0.896   6.017  0.4063 -1.0960  1.2425
 5366SOL    HW227735   2.903   0.795   6.039 -0.1148  0.5454  0.3965
 5367SOL     OW27736   1.653   4.450   2.275 -0.7608  0.5485 -0.3064
 5367SOL    HW127737   1.651   4.509   2.199  3.1275  2.7756  1.3100
 5367SOL    HW227738   1.711   4.377   2.257 -1.6230  0.2695 -1.9700
 5368SOL     OW27739   1.632   3.217   2.030 -0.1746 -0.1796  0.4117
 5368SOL    HW127740   1.648   3.279   1.959 -3.4577  0.6695  0.4197
 5368SOL    HW227741   1.655   3.134   1.988 -1.1821 -0.6448  0.7702
 5369SOL     OW27742   1.934   4.090  17.344 -0.1479  0.6478  0.4060
 5369SOL    HW127743   1.936   4.166  17.402  1.9129 -0.2784  1.5255
 5369SOL    HW227744   1.899   4.130  17.264 -0.7266  1.9789  1.3149
 5370SOL     OW27745   4.257   1.901  16.280  0.2022 -0.0056  0.4826
 5370SOL    HW127746   4.218   1.849  16.210  1.4440 -1.1017  0.5944
 5370SOL    HW227747   4.271   1.827  16.340 -0.1726  0.7063  1.4594
 5371SOL     OW27748   0.723   4.071  13.665 -0.0910  0.0650  0.3645
 5371SOL    HW127749   0.711   4.165  13.672 -2.1326 -0.1788  0.1735
 5371SOL    HW227750   0.691   4.038  13.749  2.8890  1.4123  2.0056
 5372SOL     OW27751   3.374   4.446  11.709 -0.2639 -0.0310  0.3679
 5372SOL    HW127752   3.291   4.421  11.750 -1.4931 -0.0337 -2.1302
 5372SOL    HW227753   3.436   4.426  11.780 -1.2292 -1.1135  0.8988
 5373SOL     OW27754   2.297   4.313   4.097 -0.3877 -0.0468  0.0733
 5373SOL    HW127755   2.217   4.364   4.111 -2.1625 -2.6204 -0.6396
 5373SOL    HW227756   2.327   4.297   4.187 -2.0200 -0.3168  0.5843
 5374SOL     OW27757   1.801   1.543  10.105  0.8708  0.4876  0.5563
 5374SOL    HW127758   1.706   1.542  10.115  0.8082 -1.3641 -0.1425
 5374SOL    HW227759   1.807   1.476  10.037  1.7654  0.1990  0.9256
 5375SOL     OW27760   0.065   2.787  15.442 -0.3802  0.0474 -0.1348
 5375SOL    HW127761   0.037   2.872  15.475  2.1693 -0.1199  2.4973
 5375SOL    HW227762   0.057   2.721  15.511 -0.2123  1.2126  1.0052
 5376SOL     OW27763   0.782   3.092  13.093 -0.6633  0.2327  0.4092
 5376SOL    HW127764   0.846   3.021  13.093  1.1424  1.8885 -1.3663
 5376SOL    HW227765   0.852   3.156  13.099  0.0798 -0.5253 -0.0915
 5377SOL     OW27766   1.484   2.212   5.643 -0.0101 -0.1223  0.2029
 5377SOL    HW127767   1.460   2.135   5.592 -1.2466  0.4803 -0.1483
 5377SOL    HW227768   1.438   2.282   5.597 -0.7129  0.3372  1.5951
 5378SOL     OW27769   3.720   1.476   1.307  0.2769  0.1202 -0.3948
 5378SOL    HW127770   3.788   1.501   1.370 -2.1505 -0.4640  2.4881
 5378SOL    HW227771   3.762   1.398   1.270  0.9907  0.7097 -0.8280
 5379SOL     OW27772   4.210   2.528   5.280 -0.0916 -0.1339 -0.3004
 5379SOL    HW127773   4.215   2.520   5.185 -1.7317 -2.2711 -0.1858
 5379SOL    HW227774   4.299   2.526   5.315 -0.7119 -2.0225  1.1885
 5380SOL     OW27775   2.445   3.514  14.382 -0.2098  0.6084 -0.4546
 5380SOL    HW127776   2.511   3.560  14.433 -0.5108  2.0716 -1.3847
 5380SOL    HW227777   2.408   3.589  14.335 -2.8019  0.1994  0.9087
 5381SOL     OW27778   3.008   2.077  15.847 -0.3808  0.6935  0.6265
 5381SOL    HW127779   3.102   2.090  15.858  0.6496 -3.6753 -3.0286
 5381SOL    HW227780   2.980   2.168  15.837  1.3778  1.2249  0.7032
 5382SOL     OW27781   1.959   4.116   8.026  0.4044 -0.1278 -0.0143
 5382SOL    HW127782   2.053   4.096   8.029  0.8517  2.1310  1.0042
 5382SOL    HW227783   1.916   4.094   8.109 -0.9831 -1.1850 -1.0081
 5383SOL     OW27784   0.610   2.401   8.409 -0.4410 -0.0758 -0.5578
 5383SOL    HW127785   0.613   2.364   8.321  1.0277  0.6976 -0.8321
 5383SOL    HW227786   0.701   2.429   8.419 -0.5369 -0.4876  1.4212
 5384SOL     OW27787   2.568   4.070  10.097  0.0178  0.0227 -0.6278
 5384SOL    HW127788   2.632   4.118  10.150  0.6920  0.4586 -1.8531
 5384SOL    HW227789   2.495   4.078  10.158 -0.8350 -0.7205 -1.5421
 5385SOL     OW27790   4.085   3.289   1.005  0.1223 -0.7345  0.5787
 5385SOL    HW127791   4.159   3.297   1.065  0.6051 -1.7458  0.1114
 5385SOL    HW227792   4.045   3.207   1.034 -1.2491 -0.7070 -1.2487
 5386SOL     OW27793   1.103   3.179   0.961 -0.0830 -0.0950 -1.0156
 5386SOL    HW127794   1.078   3.260   0.917  0.5113  0.1947 -0.8263
 5386SOL    HW227795   1.107   3.129   0.880 -0.6094  1.3548 -1.9331
 5387SOL     OW27796   3.760   0.870   3.160  0.8890 -0.2729  0.7992
 5387SOL    HW127797   3.666   0.857   3.168  0.8674 -1.3143 -1.3455
 5387SOL    HW227798   3.755   0.947   3.217  0.0166  0.8194 -0.7464
 5388SOL     OW27799   4.322   4.226   7.780 -0.1629 -0.1548  0.3466
 5388SOL    HW127800   4.331   4.149   7.725  0.2461 -1.3916  2.1379
 5388SOL    HW227801   4.413   4.249   7.798  0.4424 -2.2670 -0.0427
 5389SOL     OW27802   3.150   3.544   2.195  0.1575 -0.2569  0.7030
 5389SOL    HW127803   3.201   3.625   2.189  0.6938 -0.4839  2.1228
 5389SOL    HW227804   3.072   3.576   2.150  2.0155  3.7229  0.2972
 5390SOL     OW27805   4.325   2.565  14.855  1.1240  0.1112  0.3617
 5390SOL    HW127806   4.359   2.538  14.770  0.3712 -1.4773  0.5623
 5390SOL    HW227807   4.373   2.647  14.854 -0.5279  1.1423  3.2548
 5391SOL     OW27808   0.062   0.462   1.580 -0.3583  0.4650  0.0676
 5391SOL    HW127809   0.015   0.388   1.542  0.6097 -0.3077  0.3531
 5391SOL    HW227810   0.017   0.474   1.664 -0.0191  0.0769  0.3096
 5392SOL     OW27811   1.684   3.049   5.427  0.2902 -0.8522 -0.4541
 5392SOL    HW127812   1.761   3.065   5.482  0.1186 -1.8818  0.0662
 5392SOL    HW227813   1.725   3.010   5.350  0.0699  0.7269 -1.3734
 5393SOL     OW27814   3.398   0.886  11.923 -0.4485 -0.1048 -0.6978
 5393SOL    HW127815   3.459   0.960  11.930 -0.3638 -0.1065 -1.3835
 5393SOL    HW227816   3.453   0.823  11.875  0.8544 -0.3217  1.0873
 5394SOL     OW27817   3.889   1.423  10.307 -0.0481  0.2870  0.4291
 5394SOL    HW127818   3.888   1.492  10.241  0.1362  0.7457  0.9126
 5394SOL    HW227819   3.911   1.464  10.390 -1.0924  2.3501 -0.3271
 5395SOL     OW27820   3.335   0.569  15.998  0.5259 -0.0682 -0.1889
 5395SOL    HW127821   3.310   0.477  15.997  1.3841 -0.3099  0.5188
 5395SOL    HW227822   3.251   0.605  15.969  2.0311  2.6804 -1.1965
 5396SOL     OW27823   2.937   1.880   3.499 -0.4637 -0.0098 -0.1830
 5396SOL    HW127824   2.977   1.794   3.515  0.5341  0.4582 -0.2168
 5396SOL    HW227825   2.889   1.888   3.582  0.8873 -0.8086  0.6826
 5397SOL     OW27826   3.932   1.845  10.302  0.1382  0.4157 -0.3050
 5397SOL    HW127827   3.995   1.782  10.337 -0.9344 -1.7129 -2.1752
 5397SOL    HW227828   3.963   1.926  10.343  2.4241 -0.1542 -0.9163
 5398SOL     OW27829   2.145   3.081   8.955  0.4298  0.3229  0.1767
 5398SOL    HW127830   2.113   3.005   8.906 -0.5564 -0.0193  1.3669
 5398SOL    HW227831   2.144   3.052   9.046 -0.7673  2.4876  0.8418
 5399SOL     OW27832   2.448   3.893  12.009  0.6541  0.3611 -0.1048
 5399SOL    HW127833   2.426   3.849  12.090  0.6179  0.2944 -0.1508
 5399SOL    HW227834   2.400   3.976  12.013  1.9919  1.1191  0.3464
 5400SOL     OW27835   0.514   4.199   4.438 -0.0668  0.6749  0.4427
 5400SOL    HW127836   0.544   4.157   4.519  0.6803 -0.2905 -0.3327
 5400SOL    HW227837   0.583   4.264   4.443  0.1608  0.6777 -3.1737
 5401SOL     OW27838   1.154   2.316   6.528  0.4362  0.0863 -0.0571
 5401SOL    HW127839   1.234   2.310   6.477 -0.3204  0.0770 -1.2420
 5401SOL    HW227840   1.129   2.407   6.511  1.1357  0.6178  1.7996
 5402SOL     OW27841   1.987   0.218  11.484 -0.0787  0.2860 -0.4765
 5402SOL    HW127842   2.072   0.197  11.524  0.2241 -0.1288 -1.3329
 5402SOL    HW227843   1.958   0.134  11.449 -1.9416  0.4514  0.6724
 5403SOL     OW27844   0.826   4.417   8.282 -0.3733 -0.0498  0.0659
 5403SOL    HW127845   0.862   4.342   8.235 -1.3984 -0.6148  0.1696
 5403SOL    HW227846   0.805   4.470   8.206  0.5499  0.6169  0.2817
 5404SOL     OW27847   0.462   0.629   3.211  0.2454  0.6643 -0.8748
 5404SOL    HW127848   0.539   0.586   3.249 -0.4831 -0.2804 -0.4805
 5404SOL    HW227849   0.457   0.711   3.261  0.1831 -0.7048  1.3634
 5405SOL     OW27850   2.942   4.043   8.489 -0.0085  0.7528 -0.0771
 5405SOL    HW127851   2.950   4.138   8.498 -0.5847  0.9270 -1.3021
 5405SOL    HW227852   2.973   4.019   8.576  0.4921 -1.0645 -0.7509
 5406SOL     OW27853   2.653   0.921   2.854 -0.0365  0.5806  0.1233
 5406SOL    HW127854   2.574   0.910   2.907  0.5659  1.4829  1.2203
 5406SOL    HW227855   2.697   0.838   2.874  0.7629  1.1393  0.7163
 5407SOL     OW27856   3.288   4.084  16.881  0.1042 -0.2096  0.2371
 5407SOL    HW127857   3.213   4.034  16.913  0.5341 -0.5409  0.7260
 5407SOL    HW227858   3.333   4.102  16.963  0.0312  0.3899  0.1481
 5408SOL     OW27859   3.471   3.378   2.263  0.6858 -0.2259 -0.2266
 5408SOL    HW127860   3.565   3.388   2.246  0.8682 -0.1066  0.8859
 5408SOL    HW227861   3.453   3.406   2.353  2.8011  0.3805  0.0022
 5409SOL     OW27862   2.092   2.150   3.335 -0.6249  0.4896 -0.1355
 5409SOL    HW127863   2.024   2.086   3.356 -0.1200 -0.7607 -2.2918
 5409SOL    HW227864   2.170   2.123   3.384 -1.1930  1.2290  1.1866
 5410SOL     OW27865   2.404   2.426   3.648 -0.1749  0.3573 -0.1762
 5410SOL    HW127866   2.339   2.467   3.590  0.0274  1.6361  0.4954
 5410SOL    HW227867   2.441   2.363   3.586  1.2479 -0.8057  1.8492
 5411SOL     OW27868   0.064   2.262   3.574 -0.4711  0.1245 -0.1991
 5411SOL    HW127869   0.043   2.187   3.629 -1.9612 -0.4054 -1.5077
 5411SOL    HW227870   0.103   2.218   3.498 -1.7107 -1.4985  0.0978
 5412SOL     OW27871   0.091   2.446   9.379  0.0932 -0.0003 -0.3033
 5412SOL    HW127872   0.149   2.424   9.306  1.6780  1.2910  0.5436
 5412SOL    HW227873   0.164   2.457   9.441  1.0992 -2.2981 -1.0990
 5413SOL     OW27874   2.540   1.582  13.886 -0.4903  0.2994 -0.8465
 5413SOL    HW127875   2.523   1.511  13.948  2.2575 -1.3492 -1.9786
 5413SOL    HW227876   2.551   1.654  13.948  0.3429 -0.1999 -0.4054
 5414SOL     OW27877   0.441   4.677   4.024  0.0569 -0.3597  0.1305
 5414SOL    HW127878   0.520   4.730   4.012  0.2217 -0.3951  1.0433
 5414SOL    HW227879   0.471   4.615   4.091  0.2194 -0.8476 -0.3913
 5415SOL     OW27880   3.399   0.272   5.414 -0.2234 -0.0983  0.2955
 5415SOL    HW127881   3.388   0.353   5.464 -1.8527  0.7272 -1.3842
 5415SOL    HW227882   3.371   0.202   5.473 -1.0635  0.4459  0.5625
 5416SOL     OW27883   2.937   2.712   3.452  0.4210 -0.4882 -0.1989
 5416SOL    HW127884   3.032   2.701   3.448  0.0864 -2.9768 -1.1356
 5416SOL    HW227885   2.912   2.669   3.534  2.2903 -1.1057  0.0496
 5417SOL     OW27886   0.213   2.477   7.587 -0.4431 -0.3944  0.2548
 5417SOL    HW127887   0.290   2.482   7.529 -0.3922  3.2015  0.6251
 5417SOL    HW227888   0.249   2.488   7.675  0.5566  0.9164 -0.3109
 5418SOL     OW27889   2.522   2.592   8.035 -0.2069  0.4767 -0.1156
 5418SOL    HW127890   2.600   2.623   8.081  0.9749 -1.5868 -0.7516
 5418SOL    HW227891   2.464   2.664   8.059  1.0520  1.0418  1.2026
 5419SOL     OW27892   4.402   3.291   3.511  0.7850 -0.1695  0.2272
 5419SOL    HW127893   4.350   3.320   3.437  2.1973  0.8817 -0.3496
 5419SOL    HW227894   4.349   3.322   3.584 -1.4973 -2.1089 -0.6205
 5420SOL     OW27895   3.385   3.094   7.798  0.2530  0.2237 -0.1319
 5420SOL    HW127896   3.399   3.054   7.884  3.1363  1.4538 -0.0165
 5420SOL    HW227897   3.340   3.030   7.744 -1.2350 -0.6909  2.1951
 5421SOL     OW27898   0.470   2.796   4.587 -0.2351 -0.1388  0.2557
 5421SOL    HW127899   0.536   2.790   4.518 -1.1867  0.1741 -0.6859
 5421SOL    HW227900   0.477   2.886   4.619 -0.5936 -0.3826  1.0161
 5422SOL     OW27901   4.134   3.209   9.075  0.0837  0.4043  0.3659
 5422SOL    HW127902   4.219   3.171   9.097 -0.3290 -1.6340 -1.6096
 5422SOL    HW227903   4.137   3.224   8.981 -1.0994  0.2152  0.3025
 5423SOL     OW27904   3.002   0.602   6.838 -0.5400  0.0589 -0.5777
 5423SOL    HW127905   2.986   0.640   6.925 -1.0865 -1.2932 -0.0821
 5423SOL    HW227906   3.056   0.662   6.787  1.3888 -0.1323  1.2630
 5424SOL     OW27907   4.424   3.384  10.781 -0.1485 -0.4000  0.2661
 5424SOL    HW127908   4.519   3.376  10.765 -0.0033 -2.1790  2.0800
 5424SOL    HW227909   4.418   3.347  10.869  2.0257  1.5314  1.2300
 5425SOL     OW27910   2.643   0.965   1.760 -0.0004 -0.2291 -0.9681
 5425SOL    HW127911   2.708   1.024   1.798 -1.0636 -0.5833  1.3728
 5425SOL    HW227912   2.692   0.938   1.682 -0.0339 -0.6607 -0.8363
 5426SOL     OW27913   0.835   3.752   7.108  0.0229  0.3314  0.0607
 5426SOL    HW127914   0.796   3.691   7.046  3.1028 -1.8797  0.2649
 5426SOL    HW227915   0.926   3.738   7.083  1.2494  1.1469  4.0375
 5427SOL     OW27916   3.198   0.099   2.130  0.0441 -0.1663  0.3038
 5427SOL    HW127917   3.154   0.018   2.155 -0.8452 -0.3525 -1.8003
 5427SOL    HW227918   3.225   0.064   2.045  0.3420  0.1625  0.2627
 5428SOL     OW27919   1.482   4.344   5.123  0.3080 -0.1734 -0.6067
 5428SOL    HW127920   1.564   4.347   5.074  0.4936  1.2771 -0.2289
 5428SOL    HW227921   1.468   4.250   5.130  2.4117 -0.3553  1.4316
 5429SOL     OW27922   1.946   1.984   3.813 -0.3594 -0.0540  0.4042
 5429SOL    HW127923   2.021   2.042   3.801 -1.0399  0.9911  1.2634
 5429SOL    HW227924   1.988   1.914   3.762 -0.2195  0.1528  0.2369
 5430SOL     OW27925   1.867   3.064   3.040 -0.2179 -0.1499 -0.1621
 5430SOL    HW127926   1.787   3.015   3.025 -0.5247  0.4686 -0.5518
 5430SOL    HW227927   1.839   3.128   2.974 -2.0104  0.1780  0.9300
 5431SOL     OW27928   4.158   0.070  12.217 -0.3793 -0.6259  0.0132
 5431SOL    HW127929   4.138   0.023  12.298  0.9229  0.0014  0.6977
 5431SOL    HW227930   4.162   0.160  12.250 -0.8787  0.2044 -2.2008
 5432SOL     OW27931   0.422   3.698   8.879 -0.2918  0.0775 -0.0520
 5432SOL    HW127932   0.505   3.743   8.898 -0.3840  0.4225 -0.4838
 5432SOL    HW227933   0.449   3.609   8.857 -2.4794 -0.5257 -0.2671
 5433SOL     OW27934   3.148   1.922   6.166 -0.9026 -0.5157  0.2277
 5433SOL    HW127935   3.135   2.011   6.198  1.8189 -0.7156  1.9756
 5433SOL    HW227936   3.229   1.889   6.206 -0.7630  0.3102  0.6146
 5434SOL     OW27937   2.586   0.759   4.575 -0.1194  0.2264  0.2401
 5434SOL    HW127938   2.613   0.843   4.612 -0.8374  0.2568  0.6929
 5434SOL    HW227939   2.584   0.692   4.643 -1.2013 -1.0668 -1.0819
 5435SOL     OW27940   3.989   1.415  14.907 -0.4619  0.7119  0.6360
 5435SOL    HW127941   4.081   1.412  14.878 -1.5595 -1.7310 -2.6338
 5435SOL    HW227942   3.946   1.441  14.826  0.5170 -0.6338 -0.3085
 5436SOL     OW27943   3.536   1.157   3.896 -0.1191  0.3293 -0.0283
 5436SOL    HW127944   3.501   1.070   3.875  0.1109  0.0884  0.6141
 5436SOL    HW227945   3.532   1.158   3.991  0.9852  0.4554  0.0184
 5437SOL     OW27946   0.414   1.996   8.571 -0.3815  0.2221 -0.0434
 5437SOL    HW127947   0.406   2.008   8.476 -5.2320  1.1136  0.4939
 5437SOL    HW227948   0.450   2.083   8.586 -0.0015 -0.1843  1.4082
 5438SOL     OW27949   1.014   4.700   8.685  0.0660  0.2313 -0.1321
 5438SOL    HW127950   0.960   4.633   8.643  1.3856 -0.5584 -0.5638
 5438SOL    HW227951   1.065   4.642   8.741  2.0165  2.3120  0.2486
 5439SOL     OW27952   3.894   3.876   2.989  1.1366  0.3987 -0.4743
 5439SOL    HW127953   3.838   3.900   3.063  3.9028  1.8730  1.1826
 5439SOL    HW227954   3.855   3.789   2.978 -0.3568  0.9899  0.1879
 5440SOL     OW27955   0.707   3.023   4.899  0.0254 -0.6790  0.3802
 5440SOL    HW127956   0.738   2.937   4.927 -0.7591 -1.6532 -1.7527
 5440SOL    HW227957   0.711   3.008   4.804 -1.2075 -0.2478  0.2572
 5441SOL     OW27958   1.551   0.197   5.923 -0.3420  0.1651  0.0656
 5441SOL    HW127959   1.460   0.214   5.899 -0.4559 -1.1705 -0.4257
 5441SOL    HW227960   1.593   0.213   5.838  1.6373 -0.9141  0.8306
 5442SOL     OW27961   3.510   0.339   7.428 -0.3338 -0.2943 -0.4202
 5442SOL    HW127962   3.439   0.295   7.381 -2.0323  1.9807 -0.0184
 5442SOL    HW227963   3.480   0.337   7.519  0.4275 -0.4690 -0.1759
 5443SOL     OW27964   1.809   2.672   6.497 -0.3294 -0.1595 -0.0823
 5443SOL    HW127965   1.770   2.604   6.553  0.6464 -0.1705  0.5888
 5443SOL    HW227966   1.903   2.655   6.503 -0.3505  0.0557  0.8172
 5444SOL     OW27967   2.961   3.691   3.709 -0.1020 -0.0335 -0.4906
 5444SOL    HW127968   3.055   3.679   3.704 -0.2507 -1.5795  0.5253
 5444SOL    HW227969   2.929   3.622   3.651  1.3918  0.4891 -1.9352
 5445SOL     OW27970   1.428   3.294   4.760 -0.1002  0.1852  0.0867
 5445SOL    HW127971   1.520   3.267   4.759  0.2047  1.3461 -2.5819
 5445SOL    HW227972   1.394   3.204   4.753  0.6266 -0.1242  0.5850
 5446SOL     OW27973   2.315   0.760   1.052  0.1274  0.0889 -0.6834
 5446SOL    HW127974   2.325   0.769   1.147  2.5316  1.9597 -1.1083
 5446SOL    HW227975   2.353   0.672   1.045 -1.8233 -0.7023 -1.2405
 5447SOL     OW27976   4.225   0.146   9.061 -0.4948 -0.1153 -0.0764
 5447SOL    HW127977   4.142   0.192   9.070  0.4666  1.2949  1.4898
 5447SOL    HW227978   4.185   0.060   9.046  0.3718 -1.1080  3.0876
 5448SOL     OW27979   1.125   2.688   3.088  0.6238 -0.0346  0.2970
 5448SOL    HW127980   1.141   2.776   3.121 -0.5435  0.0570  0.6415
 5448SOL    HW227981   1.124   2.631   3.165 -0.4443 -1.5128 -0.7961
 5449SOL     OW27982   3.332   2.891   6.182 -0.2338  0.0227  0.1755
 5449SOL    HW127983   3.343   2.979   6.220  0.5332  1.0462 -2.4052
 5449SOL    HW227984   3.356   2.841   6.260 -1.9052  1.1402  1.3995
 5450SOL     OW27985   2.955   0.005   5.126 -0.4108  0.0205 -0.1503
 5450SOL    HW127986   2.910   4.707   5.203  2.0328 -1.6910  0.5350
 5450SOL    HW227987   3.040   4.696   5.130 -1.9511 -2.6302  2.2526
 5451SOL     OW27988   4.221   4.487   3.854  0.2958  0.8888  0.5227
 5451SOL    HW127989   4.189   4.408   3.897  0.2491  0.1867 -0.7954
 5451SOL    HW227990   4.154   4.548   3.887 -0.3926 -0.2930  1.3033
 5452SOL     OW27991   4.406   0.803   9.852  0.2581 -0.0476 -0.0311
 5452SOL    HW127992   4.381   0.724   9.805 -0.9256 -0.7122  1.7384
 5452SOL    HW227993   4.401   0.777   9.943  0.4935  0.6552  0.1845
 5453SOL     OW27994   1.652   0.204   8.431  0.1199 -0.0276  0.6231
 5453SOL    HW127995   1.722   0.155   8.474 -0.6989  0.3693  2.4203
 5453SOL    HW227996   1.573   0.150   8.439 -0.8891  1.3660  0.0479
 5454SOL     OW27997   1.859   1.260   7.127  0.2201  0.4717  0.0542
 5454SOL    HW127998   1.867   1.333   7.066  0.3703 -0.1210 -0.6364
 5454SOL    HW227999   1.949   1.250   7.159  0.0066 -2.6489 -0.3228
 5455SOL     OW28000   4.459   1.340   3.440 -0.3304 -0.7770  0.1861
 5455SOL    HW128001   4.512   1.407   3.483 -0.1025 -2.8809  3.2109
 5455SOL    HW228002   4.472   1.264   3.497  0.1021 -1.5052 -0.8876
 5456SOL     OW28003   3.258   3.549  13.374  0.0243 -0.9293 -0.4052
 5456SOL    HW128004   3.283   3.639  13.355  0.7644 -1.0714 -0.1220
 5456SOL    HW228005   3.341   3.513  13.408  0.6465  0.7907 -0.1096
 5457SOL     OW28006   2.891   1.712   5.158  0.0855 -0.0151 -0.3436
 5457SOL    HW128007   2.931   1.737   5.075 -0.7413  2.0270 -0.1117
 5457SOL    HW228008   2.960   1.648   5.176  0.4496  0.8010  1.0829
 5458SOL     OW28009   1.745   2.009   2.584 -0.1149  0.1635  0.5729
 5458SOL    HW128010   1.719   2.074   2.649 -1.3150  1.2838 -0.9929
 5458SOL    HW228011   1.839   2.024   2.594 -0.3491  1.2947  1.0550
 5459SOL     OW28012   3.066   0.267   2.421 -0.6519 -0.7329  0.1893
 5459SOL    HW128013   3.079   0.173   2.410  0.0355 -0.7785  1.4298
 5459SOL    HW228014   2.975   0.270   2.450 -1.2614  1.1561 -1.9200
 5460SOL     OW28015   2.003   2.191   2.468  0.1982 -0.4959  0.4064
 5460SOL    HW128016   1.962   2.242   2.538  0.3374  0.3933 -0.1628
 5460SOL    HW228017   2.048   2.131   2.527  2.1983  2.0147  1.4593
 5461SOL     OW28018   2.067   1.902   8.326 -0.0651 -0.7286  0.1016
 5461SOL    HW128019   2.146   1.853   8.307  1.2791  2.9605 -3.7895
 5461SOL    HW228020   2.105   1.971   8.381 -1.2976  0.8215 -0.9629
 5462SOL     OW28021   2.777   3.764   7.736 -0.1010  1.0431 -0.7896
 5462SOL    HW128022   2.816   3.682   7.709  0.0525  0.7954  0.1575
 5462SOL    HW228023   2.723   3.785   7.661 -0.3156  0.1994 -0.8636
 5463SOL     OW28024   2.670   0.332   6.925  0.5713 -0.2175  0.3671
 5463SOL    HW128025   2.665   0.258   6.985 -0.8875 -0.4036  0.0226
 5463SOL    HW228026   2.762   0.335   6.899  0.6444 -2.5182  0.3275
 5464SOL     OW28027   2.594   0.652  13.186 -0.2185  1.0668  0.3088
 5464SOL    HW128028   2.564   0.648  13.095  0.2675  1.8296  0.1123
 5464SOL    HW228029   2.620   0.560  13.196  1.7199  1.7783  2.0375
 5465SOL     OW28030   3.937   1.018   7.588 -0.1757  0.3583 -0.2266
 5465SOL    HW128031   3.884   1.037   7.666 -0.3583  1.0069 -0.5167
 5465SOL    HW228032   3.889   0.953   7.536 -0.4634 -0.4294  1.0255
 5466SOL     OW28033   3.019   2.770   2.696 -0.4064 -0.0702  0.0884
 5466SOL    HW128034   3.055   2.695   2.650 -0.6920  0.2976 -0.7354
 5466SOL    HW228035   3.005   2.742   2.786 -1.2705  0.2491  0.0585
 5467SOL     OW28036   3.530   2.257   4.987  0.6249  0.1834  0.0384
 5467SOL    HW128037   3.570   2.202   4.920 -0.0015 -0.0940 -0.1073
 5467SOL    HW228038   3.609   2.278   5.037  0.2391 -0.8984  1.0839
 5468SOL     OW28039   2.454   3.607   2.982 -0.2346 -0.1627 -0.2995
 5468SOL    HW128040   2.416   3.612   3.070 -0.7803 -2.7545 -0.3816
 5468SOL    HW228041   2.467   3.512   2.976 -0.5213 -0.1097 -1.7289
 5469SOL     OW28042   2.459   4.524  10.185  0.0461 -0.3432 -0.4291
 5469SOL    HW128043   2.474   4.465  10.259 -0.2236 -1.4457 -1.2596
 5469SOL    HW228044   2.502   4.484  10.110 -0.1200 -0.2792 -0.5590
 5470SOL     OW28045   2.939   1.607   2.406  0.0854 -0.2629  0.5417
 5470SOL    HW128046   2.972   1.671   2.343 -0.5942  0.9803  1.4732
 5470SOL    HW228047   2.941   1.656   2.487  1.2590  2.1280 -0.9356
 5471SOL     OW28048   3.992   4.658   6.388  0.0916 -0.0302 -0.3556
 5471SOL    HW128049   3.900   4.683   6.384 -0.1036 -0.8893 -1.0957
 5471SOL    HW228050   4.040   4.721   6.335 -0.0824 -1.9126 -2.7453
 5472SOL     OW28051   0.300   0.816   1.870  0.2816 -0.0593 -0.2082
 5472SOL    HW128052   0.335   0.767   1.944  0.3210  1.3234  0.6804
 5472SOL    HW228053   0.287   0.740   1.813  0.0432 -1.0462  1.1709
 5473SOL     OW28054   1.332   4.032   2.372 -0.5523  0.5756  0.3313
 5473SOL    HW128055   1.297   3.966   2.311 -1.7789 -1.1391  2.8764
 5473SOL    HW228056   1.304   4.003   2.459  0.7651 -0.2050  0.4911
 5474SOL     OW28057   2.731   0.843   6.582 -0.3589 -0.2172  0.2223
 5474SOL    HW128058   2.707   0.757   6.547  0.7174 -0.7004  0.6733
 5474SOL    HW228059   2.652   0.868   6.631 -1.0115  0.0886 -0.9713
 5475SOL     OW28060   2.991   1.221   3.276  0.3675 -0.0230  0.3354
 5475SOL    HW128061   3.041   1.295   3.241 -0.5386  0.6869  0.5419
 5475SOL    HW228062   2.902   1.256   3.274  0.0988 -0.6174  2.1587
 5476SOL     OW28063   0.863   2.879   4.636  0.2471  0.1286  0.5642
 5476SOL    HW128064   0.918   2.905   4.563  0.9145  0.3103  1.1318
 5476SOL    HW228065   0.781   2.922   4.610 -1.4866 -1.6495  3.0439
 5477SOL     OW28066   2.936   1.300   5.292  0.2659 -0.0537 -0.1359
 5477SOL    HW128067   2.867   1.292   5.226  1.4908  1.6943 -1.6173
 5477SOL    HW228068   2.886   1.336   5.365  1.6341 -0.9599  1.2367
 5478SOL     OW28069   2.262   0.901  12.999 -0.4821 -0.1938  0.1065
 5478SOL    HW128070   2.258   0.893  12.904  1.6985 -0.7067  0.0495
 5478SOL    HW228071   2.187   0.847  13.025  0.1942 -0.7051  1.0236
 5479SOL     OW28072   4.484   2.736   8.448  0.2988 -0.1068 -0.7310
 5479SOL    HW128073   4.555   2.733   8.512  0.4154 -2.1495 -0.9499
 5479SOL    HW228074   4.475   2.644   8.422  0.6724  0.3581 -2.5383
 5480SOL     OW28075   0.019   4.122   2.376 -0.4648  0.0028 -0.8518
 5480SOL    HW128076   4.673   4.126   2.426  0.0366  2.0259 -0.2010
 5480SOL    HW228077   0.009   4.031   2.350 -0.7227 -0.3157  0.3602
 5481SOL     OW28078   4.016   0.299   2.268  0.1523 -0.2855 -0.0445
 5481SOL    HW128079   3.992   0.258   2.184  1.0308 -0.1426 -0.3654
 5481SOL    HW228080   3.950   0.269   2.330  0.6580  1.1350  1.1677
 5482SOL     OW28081   0.900   0.602   5.952 -0.5241  0.3674 -0.1815
 5482SOL    HW128082   0.859   0.595   5.866 -1.0453  0.1363  0.0853
 5482SOL    HW228083   0.862   0.682   5.990 -1.3188 -0.0906 -0.0035
 5483SOL     OW28084   1.058   2.258   8.764  0.3542  0.0306 -0.0873
 5483SOL    HW128085   1.057   2.163   8.760 -1.7067 -0.0550  2.1531
 5483SOL    HW228086   1.044   2.277   8.857 -0.9164  0.2511 -0.3237
 5484SOL     OW28087   1.532   3.043   7.619 -0.0427  0.4885  0.4903
 5484SOL    HW128088   1.576   2.960   7.636  1.6884  1.3992  0.4811
 5484SOL    HW228089   1.600   3.110   7.630 -0.4798  0.7558  1.5355
 5485SOL     OW28090   3.867   1.147  10.955  0.1854 -0.1936  0.3313
 5485SOL    HW128091   3.930   1.186  11.015  0.5858  0.9179 -0.7995
 5485SOL    HW228092   3.901   1.058  10.941  1.2409  0.1234  0.8295
 5486SOL     OW28093   1.202   4.513   8.226  0.2415  0.3271 -0.3477
 5486SOL    HW128094   1.211   4.579   8.157 -1.0192  0.1304 -0.6910
 5486SOL    HW228095   1.296   4.495   8.237  0.4393  0.0364 -2.5468
 5487SOL     OW28096   3.881   1.890  17.222 -0.4071 -0.0814  0.2988
 5487SOL    HW128097   3.953   1.953  17.229 -0.5240 -0.0677  1.3634
 5487SOL    HW228098   3.814   1.944  17.181 -1.7051 -1.8070  0.1608
 5488SOL     OW28099   0.501   0.706   3.488  0.0619 -0.3991  0.8529
 5488SOL    HW128100   0.476   0.795   3.464  1.4376 -0.4506 -0.7481
 5488SOL    HW228101   0.424   0.681   3.540 -0.4195  0.4833  0.5515
 5489SOL     OW28102   1.853   4.086   1.833  0.2688  0.0200 -0.3182
 5489SOL    HW128103   1.856   4.059   1.741  0.6318  0.5955 -0.4760
 5489SOL    HW228104   1.943   4.059   1.852  0.1657 -0.3956 -0.4404
 5490SOL     OW28105   4.710   4.638   2.382 -0.0653  0.4408  0.2275
 5490SOL    HW128106   4.718   4.718   2.330  2.0269  0.3093  0.3508
 5490SOL    HW228107   0.040   4.582   2.342 -1.1559  2.4106 -4.3661
 5491SOL     OW28108   2.375   4.436   3.118 -0.2316 -0.6567 -0.3053
 5491SOL    HW128109   2.388   4.468   3.029 -0.9701  0.1294 -0.1321
 5491SOL    HW228110   2.284   4.455   3.142  0.7710  1.6968  1.6341
 5492SOL     OW28111   3.404   0.269   8.422 -0.0153  0.1865  0.0165
 5492SOL    HW128112   3.393   0.363   8.410 -1.5445 -0.2779 -1.9795
 5492SOL    HW228113   3.496   0.262   8.447 -0.3950 -2.7079  0.6163
 5493SOL     OW28114   1.566   2.112  14.630  0.0360 -0.0231 -0.0463
 5493SOL    HW128115   1.589   2.136  14.720 -3.0097  0.3231  0.6240
 5493SOL    HW228116   1.540   2.192  14.585 -2.9434 -1.5199 -0.9557
 5494SOL     OW28117   3.619   2.195   9.936 -0.6185  0.4591  0.1345
 5494SOL    HW128118   3.621   2.184  10.031 -0.4459 -0.3186  0.0450
 5494SOL    HW228119   3.588   2.109   9.905 -0.2559  0.6253 -0.6915
 5495SOL     OW28120   1.201   4.085   4.400  0.0183 -0.1994 -0.6175
 5495SOL    HW128121   1.127   4.075   4.460 -1.3800 -2.0615 -2.6359
 5495SOL    HW228122   1.191   4.014   4.336  0.5379 -0.7450 -0.0937
 5496SOL     OW28123   1.409   1.375   5.580 -0.0173 -0.0140  0.2945
 5496SOL    HW128124   1.358   1.455   5.592  0.7640  0.0125  3.3624
 5496SOL    HW228125   1.477   1.413   5.524  0.6479 -1.7949 -0.1407
 5497SOL     OW28126   2.824   1.595  13.381 -0.5735  0.1646  0.1859
 5497SOL    HW128127   2.771   1.659  13.334 -0.6455 -0.4163 -0.5262
 5497SOL    HW228128   2.854   1.652  13.451  0.6463  1.1024 -1.0889
 5498SOL     OW28129   0.076   0.278   5.348  0.5647 -0.1335 -0.1699
 5498SOL    HW128130   0.162   0.285   5.388 -0.2665  3.1757  0.9648
 5498SOL    HW228131   0.012   0.293   5.418 -0.5776 -2.1600 -0.7527
 5499SOL     OW28132   2.562   0.200   9.294  0.0401  0.0861 -0.3399
 5499SOL    HW128133   2.515   0.182   9.376 -0.1113  4.1278  0.4209
 5499SOL    HW228134   2.493   0.251   9.252  0.2110  1.6023  1.2242
 5500SOL     OW28135   2.924   1.335   4.193  0.6356  0.0614  0.2551
 5500SOL    HW128136   2.941   1.390   4.116 -4.0860  2.1393  0.7248
 5500SOL    HW228137   2.971   1.253   4.174  1.1708  0.1174  1.3101
 5501SOL     OW28138   0.589   2.551  12.119 -0.2044 -0.5109 -0.1574
 5501SOL    HW128139   0.520   2.531  12.182 -1.5284 -2.5239 -2.2010
 5501SOL    HW228140   0.567   2.644  12.124 -1.7172 -0.8934  0.2216
 5502SOL     OW28141   2.144   4.279   9.498 -0.4002  0.8927  0.3487
 5502SOL    HW128142   2.234   4.300   9.474  0.1274  0.8470  2.3426
 5502SOL    HW228143   2.141   4.318   9.585  1.0142 -2.1923  1.7584
 5503SOL     OW28144   1.703   2.465   2.081  1.0506 -0.3090  0.9256
 5503SOL    HW128145   1.652   2.486   2.159 -1.2791 -0.8891 -0.4403
 5503SOL    HW228146   1.666   2.381   2.054 -0.2776  0.2708  0.9421
 5504SOL     OW28147   0.184   4.122  15.020 -0.0473 -0.1593  0.3651
 5504SOL    HW128148   0.128   4.079  14.954  0.8951 -0.6731 -0.1064
 5504SOL    HW228149   0.268   4.087  14.989  1.3406  1.4521  2.3860
 5505SOL     OW28150   4.469   2.283   3.768  0.1192 -0.3310  0.0971
 5505SOL    HW128151   4.484   2.351   3.834 -0.4407 -0.3041  0.2004
 5505SOL    HW228152   4.463   2.336   3.688  0.7980  0.2795  0.4520
 5506SOL     OW28153   4.460   0.987  14.717  0.3053  0.0462  0.5852
 5506SOL    HW128154   4.439   1.043  14.642 -2.6240 -1.1482  0.5540
 5506SOL    HW228155   4.413   0.908  14.691  1.6339  0.4121 -3.0029
 5507SOL     OW28156   0.852   0.508   2.606  0.0072 -0.0214 -0.0494
 5507SOL    HW128157   0.821   0.431   2.653  1.0210 -0.2236  0.2914
 5507SOL    HW228158   0.807   0.497   2.523  0.6417  1.5067 -0.5984
 5508SOL     OW28159   4.109   3.345  10.980  0.0075 -0.6798 -0.1924
 5508SOL    HW128160   4.164   3.424  10.988 -1.0682  0.0925 -0.3913
 5508SOL    HW228161   4.175   3.284  11.012  0.2933 -1.0072 -1.3996
 5509SOL     OW28162   3.311   0.293  16.015 -0.4296 -0.6706  0.0477
 5509SOL    HW128163   3.280   0.229  15.950  0.3239 -1.8335  0.8454
 5509SOL    HW228164   3.239   0.305  16.076 -0.6663  0.6427 -0.4987
 5510SOL     OW28165   4.095   4.666  16.851 -0.0034 -0.2745  0.4060
 5510SOL    HW128166   4.003   4.678  16.827  0.3392  1.6245  0.0690
 5510SOL    HW228167   4.124   4.592  16.797 -0.4351 -0.6648  0.7036
 5511SOL     OW28168   4.238   4.364   2.336  0.1873  0.4027 -0.2536
 5511SOL    HW128169   4.186   4.441   2.360  1.5720  1.0305  0.7172
 5511SOL    HW228170   4.193   4.293   2.382  0.6632  0.2705  0.0004
 5512SOL     OW28171   0.571   3.321   5.450  0.6699 -0.3240 -0.3093
 5512SOL    HW128172   0.500   3.384   5.447  2.3935  1.6794  1.1104
 5512SOL    HW228173   0.531   3.279   5.526  0.7253  1.5089  0.7309
 5513SOL     OW28174   0.476   0.593   6.252 -0.1341 -0.5322  0.7775
 5513SOL    HW128175   0.416   0.640   6.194  1.5934  0.8680  0.1648
 5513SOL    HW228176   0.513   0.673   6.289 -0.4687  0.5338 -1.1894
 5514SOL     OW28177   3.675   2.005   5.877 -0.0300  0.2124 -0.2103
 5514SOL    HW128178   3.707   2.029   5.790  1.2204 -2.8185 -0.5758
 5514SOL    HW228179   3.629   2.083   5.910  0.5176 -0.2297  1.5710
 5515SOL     OW28180   1.476   3.021   3.948  0.3615  0.2579  0.0900
 5515SOL    HW128181   1.501   3.105   3.911 -1.1771  1.1464  1.0758
 5515SOL    HW228182   1.547   2.966   3.915 -0.2210 -1.0297  0.9661
 5516SOL     OW28183   2.517   2.861   4.898 -0.2156 -0.3173  0.5817
 5516SOL    HW128184   2.597   2.857   4.951  0.1613 -1.6646 -0.0761
 5516SOL    HW228185   2.548   2.842   4.810  0.2463 -2.1514  1.1362
 5517SOL     OW28186   0.405   4.640   3.751  0.2552 -0.0856 -0.0998
 5517SOL    HW128187   0.422   4.641   3.846  1.1616  0.8381 -0.2676
 5517SOL    HW228188   0.470   4.706   3.728 -0.5378  0.0548 -1.8875
 5518SOL     OW28189   2.247   2.373   8.262 -0.1976 -0.1418 -0.1389
 5518SOL    HW128190   2.303   2.370   8.339 -0.7136 -0.4445  0.2231
 5518SOL    HW228191   2.196   2.450   8.285 -1.3374 -0.5610 -1.2636
 5519SOL     OW28192   0.833   1.980   5.594 -0.1185  0.2202  0.5858
 5519SOL    HW128193   0.838   2.035   5.672  1.6243 -0.2721  0.8263
 5519SOL    HW228194   0.889   2.027   5.532 -1.5734 -1.3336 -1.9034
 5520SOL     OW28195   3.779   1.440   3.153 -0.3072 -0.1054  0.2727
 5520SOL    HW128196   3.721   1.390   3.095  1.0273 -1.7679  0.3401
 5520SOL    HW228197   3.847   1.374   3.167 -0.2213 -0.3543 -1.2310
 5521SOL     OW28198   0.790   3.858   7.614  0.1894  0.1681 -0.0986
 5521SOL    HW128199   0.816   3.880   7.524  1.8120  0.1223  0.3628
 5521SOL    HW228200   0.816   3.766   7.617 -2.4832 -0.6047 -0.9506
 5522SOL     OW28201   3.094   3.319  14.703 -0.5333 -0.0425  0.0788
 5522SOL    HW128202   2.999   3.330  14.700 -0.5348 -0.1217 -0.2166
 5522SOL    HW228203   3.108   3.227  14.725  0.1372  0.7742  2.9805
 5523SOL     OW28204   0.484   2.730   0.104  0.1591 -0.2691  0.0743
 5523SOL    HW128205   0.435   2.657   0.065  0.1899 -0.1683 -0.1559
 5523SOL    HW228206   0.545   2.766   0.040 -0.8021  0.0234 -0.6821
 5524SOL     OW28207   2.333   1.077  17.266 -0.4726  0.6695  0.2918
 5524SOL    HW128208   2.323   1.081  17.171  3.6496 -0.3856 -0.2075
 5524SOL    HW228209   2.244   1.056  17.292 -0.4838 -1.0025 -1.1097
 5525SOL     OW28210   0.013   4.343  14.768 -0.3886 -0.0179  0.4542
 5525SOL    HW128211   0.023   4.380  14.680 -0.3439 -2.2668 -0.4998
 5525SOL    HW228212   0.098   4.303  14.784 -0.0994 -1.5403 -4.8182
 5526SOL     OW28213   3.461   2.441   4.613  0.0019  0.2433 -0.1657
 5526SOL    HW128214   3.384   2.443   4.670 -0.5450  1.7354 -0.9303
 5526SOL    HW228215   3.444   2.367   4.554 -1.0007  0.5886 -0.3183
 5527SOL     OW28216   3.270   1.586   4.560  0.3178  0.2758 -0.6673
 5527SOL    HW128217   3.211   1.660   4.580 -0.4664  0.0565 -2.1971
 5527SOL    HW228218   3.330   1.627   4.498  1.5406  0.5442  0.6818
 5528SOL     OW28219   1.627   1.717  12.742  0.0824 -0.1972  0.4557
 5528SOL    HW128220   1.543   1.706  12.698 -0.3347  3.1613  0.4206
 5528SOL    HW228221   1.613   1.785  12.807 -0.8003 -0.4323  0.5113
 5529SOL     OW28222   1.089   0.795   4.640  0.2701 -0.2024 -0.2150
 5529SOL    HW128223   1.053   0.827   4.558 -2.3697 -0.9330  0.6596
 5529SOL    HW228224   1.076   0.703   4.620 -0.9191 -0.0445 -0.1740
 5530SOL     OW28225   1.289   2.680  12.023  0.1743 -0.0663  0.3178
 5530SOL    HW128226   1.303   2.714  11.935  0.1999 -1.8393 -0.3605
 5530SOL    HW228227   1.359   2.729  12.068 -0.3995  1.7893 -0.8519
 5531SOL     OW28228   0.789   4.526   4.203  0.2066  0.2745  0.1283
 5531SOL    HW128229   0.856   4.518   4.271  1.2672  1.5591 -0.7776
 5531SOL    HW228230   0.709   4.555   4.248  1.4779  0.6354  2.1598
 5532SOL     OW28231   0.141   3.105  17.606  0.1087 -0.8046 -0.0567
 5532SOL    HW128232   0.107   3.067  17.525 -1.0333  0.6359 -0.2580
 5532SOL    HW228233   0.125   3.197  17.589 -0.7715 -1.0639 -0.6591
 5533SOL     OW28234   1.369   4.684   4.048 -0.6262 -0.0501 -0.1614
 5533SOL    HW128235   1.387   0.035   4.012  0.6722 -0.5044 -0.6134
 5533SOL    HW228236   1.393   4.686   4.141  0.1799  1.5453 -0.4027
 5534SOL     OW28237   4.405   0.461  15.501  0.0509 -0.1404  0.0434
 5534SOL    HW128238   4.420   0.528  15.567  1.2300  1.1030 -1.4588
 5534SOL    HW228239   4.311   0.456  15.515  0.0825  1.1229  0.6915
 5535SOL     OW28240   4.674   1.224  15.664  0.3511 -0.5157 -0.1377
 5535SOL    HW128241   4.713   1.221  15.752 -1.3677  0.0932  0.6641
 5535SOL    HW228242   4.584   1.257  15.669 -0.1515 -2.0786  1.0073
 5536SOL     OW28243   3.379   2.012   7.686 -0.2431  0.4260  0.0237
 5536SOL    HW128244   3.405   1.932   7.732 -0.3296  1.8758  2.5475
 5536SOL    HW228245   3.455   2.021   7.629 -1.9150 -1.8708 -2.6067
 5537SOL     OW28246   2.384   3.819   8.236  0.1464 -0.1917  0.6210
 5537SOL    HW128247   2.300   3.800   8.278 -0.0533 -1.5678 -0.4307
 5537SOL    HW228248   2.367   3.780   8.151 -0.3234 -0.5140  0.8629
 5538SOL     OW28249   0.263   2.691   7.946 -0.0802 -0.0218 -0.1040
 5538SOL    HW128250   0.296   2.603   7.968 -1.7770 -0.5246  0.4025
 5538SOL    HW228251   0.340   2.732   7.908 -0.9830  1.9106  0.1773
 5539SOL     OW28252   2.165   3.355  13.862  0.2185  0.5172 -0.4666
 5539SOL    HW128253   2.143   3.261  13.859 -1.5331  0.9629 -1.2634
 5539SOL    HW228254   2.155   3.377  13.769  0.9393 -1.6632 -1.0653
 5540SOL     OW28255   1.320   1.648   5.566  0.7139 -0.1617  0.6639
 5540SOL    HW128256   1.250   1.711   5.584  1.9083  0.8643  1.6686
 5540SOL    HW228257   1.391   1.707   5.542  1.0712 -0.2405  1.5259
 5541SOL     OW28258   1.012   2.424   3.501  0.0869 -0.3189 -0.2899
 5541SOL    HW128259   1.087   2.369   3.521 -1.5706 -1.4495  2.6908
 5541SOL    HW228260   0.997   2.467   3.585 -0.0706 -1.6382  0.3511
 5542SOL     OW28261   1.415   0.128   0.741 -0.2703  0.1761 -0.2376
 5542SOL    HW128262   1.457   0.124   0.655  1.0947 -0.0408  0.4354
 5542SOL    HW228263   1.369   0.212   0.738 -2.0486 -0.8142 -0.6330
 5543SOL     OW28264   4.702   3.962   6.914 -0.0774  0.0418  0.1990
 5543SOL    HW128265   4.699   3.944   6.820 -1.2482  0.1247  0.2301
 5543SOL    HW228266   4.612   3.990   6.930  0.3277  1.7559 -0.5460
 5544SOL     OW28267   4.270   1.457   7.205 -0.1774 -0.1237  0.3800
 5544SOL    HW128268   4.302   1.466   7.115  0.1728  0.9744  0.6062
 5544SOL    HW228269   4.275   1.552   7.218 -2.0089  0.2545 -1.6922
 5545SOL     OW28270   3.042   1.647  10.120 -0.7547 -0.1030  0.2890
 5545SOL    HW128271   3.002   1.732  10.102 -0.5196 -0.1200 -0.3023
 5545SOL    HW228272   3.130   1.671  10.150 -1.1092 -0.0831  1.3265
 5546SOL     OW28273   2.523   1.251  10.025  0.2642  0.1703 -0.3138
 5546SOL    HW128274   2.441   1.214  10.055  1.7209 -1.5696  1.4843
 5546SOL    HW228275   2.548   1.202   9.947 -0.1619 -0.0001 -0.3433
 5547SOL     OW28276   3.788   2.503  11.270 -0.0729  0.1580  0.1399
 5547SOL    HW128277   3.809   2.467  11.184 -2.1323 -0.4129 -0.1252
 5547SOL    HW228278   3.838   2.585  11.276  0.9487 -0.3000 -1.9574
 5548SOL     OW28279   4.567   2.456   7.151  0.0352  0.1207 -0.5372
 5548SOL    HW128280   4.568   2.417   7.063  1.1395  1.3814 -1.0711
 5548SOL    HW228281   4.641   2.408   7.188 -0.4598  0.4137  0.8282
 5549SOL     OW28282   3.259   1.703   2.560 -0.0537 -0.2427  0.0855
 5549SOL    HW128283   3.315   1.625   2.553 -0.3766 -0.5967  1.3937
 5549SOL    HW228284   3.205   1.685   2.636  0.2146 -1.5149 -0.0174
 5550SOL     OW28285   2.670   4.389  13.188  0.2672  0.0204 -0.7763
 5550SOL    HW128286   2.749   4.358  13.143  2.0216 -0.1002  2.3598
 5550SOL    HW228287   2.679   4.343  13.272 -1.6683  0.5693 -0.2649
 5551SOL     OW28288   1.462   0.959  10.001  0.0104 -0.1907  0.2307
 5551SOL    HW128289   1.460   1.038   9.948 -0.5772 -0.5946 -0.3440
 5551SOL    HW228290   1.487   0.894   9.936  1.6970 -1.8601  2.5456
 5552SOL     OW28291   0.496   3.273   5.744  0.5508  0.3955  0.2942
 5552SOL    HW128292   0.476   3.286   5.837  0.6366  1.5198  0.1537
 5552SOL    HW228293   0.427   3.213   5.714  1.0482  0.1046 -0.2666
 5553SOL     OW28294   1.816   2.267   5.656  0.3314  0.1094  0.4958
 5553SOL    HW128295   1.811   2.320   5.576  1.3411  1.0965  1.0820
 5553SOL    HW228296   1.726   2.239   5.666  0.5031 -0.1855  1.1851
 5554SOL     OW28297   0.664   4.708  15.381 -0.0833 -0.4908 -0.4297
 5554SOL    HW128298   0.677   4.621  15.419 -2.6117 -0.7352 -0.1095
 5554SOL    HW228299   0.755   4.736  15.386 -0.2601 -0.0493  0.2356
 5555SOL     OW28300   3.586   3.503   2.768  0.6593  0.2407  0.4174
 5555SOL    HW128301   3.615   3.578   2.715 -0.2172  0.6451  0.5149
 5555SOL    HW228302   3.663   3.452   2.793  2.4614  4.0368  2.5020
 5556SOL     OW28303   0.387   0.917   3.369  0.1587 -0.2687 -0.2746
 5556SOL    HW128304   0.383   1.011   3.386  0.6185  0.1658 -2.6346
 5556SOL    HW228305   0.297   0.913   3.336 -0.0623 -0.8106  0.3780
 5557SOL     OW28306   2.057   0.706   9.715 -0.4599  0.1469  0.2327
 5557SOL    HW128307   2.080   0.760   9.791 -1.5832  0.0664  0.6276
 5557SOL    HW228308   2.045   0.616   9.745  0.2709  0.5494  1.7092
 5558SOL     OW28309   2.767   4.280   2.096 -0.0200  0.4960  0.2366
 5558SOL    HW128310   2.674   4.278   2.116 -0.8371 -0.1062 -3.6861
 5558SOL    HW228311   2.761   4.369   2.063  2.5680  0.2530 -0.8652
 5559SOL     OW28312   0.914   3.111   8.135  0.4352 -0.0051  1.0133
 5559SOL    HW128313   0.951   3.194   8.108 -0.0277 -1.0506 -2.7904
 5559SOL    HW228314   0.845   3.106   8.069  2.4750 -0.8369 -1.0490
 5560SOL     OW28315   4.292   1.889   3.911  0.0037  0.3309  0.1614
 5560SOL    HW128316   4.354   1.962   3.923 -2.2060  2.4066 -1.2533
 5560SOL    HW228317   4.307   1.878   3.817  0.8490  0.5434  0.2723
 5561SOL     OW28318   0.067   4.424   4.014  0.4982  0.4595  0.6351
 5561SOL    HW128319   0.070   4.484   3.940 -2.9021  0.2201  0.2984
 5561SOL    HW228320   0.035   4.473   4.091 -3.1707  0.1348 -0.6575
 5562SOL     OW28321   1.281   4.652   1.519  0.3401 -0.8162 -0.2069
 5562SOL    HW128322   1.269   4.632   1.426  1.1873  0.8923 -0.6904
 5562SOL    HW228323   1.228   4.732   1.519  0.9345 -0.4193 -0.4128
 5563SOL     OW28324   2.591   3.064   2.360 -0.3588 -0.3031  0.0387
 5563SOL    HW128325   2.528   3.052   2.432 -0.5418  1.3330  0.1593
 5563SOL    HW228326   2.649   2.994   2.389  1.5084  0.7109 -1.2556
 5564SOL     OW28327   3.885   1.055   9.635  0.2179  0.5095 -0.0721
 5564SOL    HW128328   3.864   1.026   9.546 -2.0816  0.3038  0.5481
 5564SOL    HW228329   3.946   0.989   9.667 -0.5359  0.4750  1.2919
 5565SOL     OW28330   3.726   0.154   7.936  0.2252  0.3081  0.0397
 5565SOL    HW128331   3.677   0.205   8.001 -0.2439 -0.0780 -0.0157
 5565SOL    HW228332   3.810   0.184   7.971  1.0992 -2.8444  0.6059
 5566SOL     OW28333   2.163   2.593   3.951  0.1493 -0.1738 -0.3163
 5566SOL    HW128334   2.167   2.685   3.923 -3.3810  0.5891  1.5639
 5566SOL    HW228335   2.125   2.594   4.039 -0.3350 -0.5903 -0.5180
 5567SOL     OW28336   2.068   4.340   3.802  0.4116  0.3399 -0.2103
 5567SOL    HW128337   1.992   4.381   3.760  0.6565  0.8669 -0.1459
 5567SOL    HW228338   2.137   4.392   3.759  0.6283  0.8318  0.7506
 5568SOL     OW28339   3.094   4.075   0.252  0.0707 -0.3862 -0.8094
 5568SOL    HW128340   3.113   4.169   0.251 -0.1274 -0.3622 -2.2813
 5568SOL    HW228341   3.013   4.071   0.303  0.3249 -1.5067 -0.4969
 5569SOL     OW28342   0.559   3.431   3.881 -0.2211 -0.4723 -0.2072
 5569SOL    HW128343   0.523   3.354   3.925 -0.0212 -0.5047 -0.0997
 5569SOL    HW228344   0.576   3.493   3.951  0.4913  1.2132 -1.8662
 5570SOL     OW28345   4.228   3.402   8.314 -0.2624 -0.0780  0.1776
 5570SOL    HW128346   4.165   3.447   8.370 -0.2210 -0.4747  0.5463
 5570SOL    HW228347   4.231   3.324   8.370 -0.1999 -0.1230  0.1123
 5571SOL     OW28348   1.022   2.717   7.056  0.1268  0.2056 -0.5180
 5571SOL    HW128349   1.050   2.638   7.102 -0.3682 -0.4019 -1.2632
 5571SOL    HW228350   1.096   2.774   7.079  0.2988 -0.9068  1.6751
 5572SOL     OW28351   3.898   3.717  11.000 -0.4388  0.3054 -0.1310
 5572SOL    HW128352   3.912   3.780  11.071  1.3409 -0.8136  0.5038
 5572SOL    HW228353   3.916   3.633  11.043 -0.1267  0.9818  1.0386
 5573SOL     OW28354   2.955   1.420   6.527  0.0482  0.0441 -0.0644
 5573SOL    HW128355   3.047   1.412   6.551  0.2412  1.7216 -0.1921
 5573SOL    HW228356   2.932   1.329   6.510  1.5001 -0.5483  1.1730
 5574SOL     OW28357   3.649   1.440   7.628  0.1617  0.0178 -0.2746
 5574SOL    HW128358   3.724   1.485   7.589  1.4441 -1.3845  0.5623
 5574SOL    HW228359   3.626   1.370   7.566  0.5174 -0.0208 -0.3599
 5575SOL     OW28360   0.838   1.306  16.559  0.1580  0.0943  0.4396
 5575SOL    HW128361   0.894   1.244  16.606  0.7053 -0.3910 -0.8500
 5575SOL    HW228362   0.894   1.315  16.481  0.2300 -0.7661  0.3831
 5576SOL     OW28363   2.041   0.725   8.560 -0.3304 -0.5954  0.5154
 5576SOL    HW128364   2.010   0.815   8.554  0.0328 -0.4997  0.0976
 5576SOL    HW228365   2.001   0.693   8.478  1.0717 -1.9184  0.3514
 5577SOL     OW28366   1.060   0.043   1.923  0.7335 -0.6561  0.1466
 5577SOL    HW128367   1.138   0.093   1.949  0.1182 -0.0604  0.8646
 5577SOL    HW228368   0.995   0.112   1.911 -1.0156 -2.3233  0.0979
 5578SOL     OW28369   3.361   3.687   2.880 -0.3265  0.2273  0.4259
 5578SOL    HW128370   3.410   3.606   2.867 -1.1686 -0.4538  1.4406
 5578SOL    HW228371   3.275   3.646   2.871  0.3584 -0.9642 -0.7042
 5579SOL     OW28372   0.429   3.738  10.083  0.7714  0.0265  0.2126
 5579SOL    HW128373   0.342   3.776  10.070 -0.0385 -1.7275  0.5224
 5579SOL    HW228374   0.477   3.790  10.019  0.0430  2.2843  1.5238
 5580SOL     OW28375   0.893   0.776   3.419  0.5997 -0.2353 -0.3951
 5580SOL    HW128376   0.899   0.695   3.369 -0.0472 -0.6214  0.1652
 5580SOL    HW228377   0.966   0.828   3.384  0.2147 -0.6774 -1.8658
 5581SOL     OW28378   1.673   1.309   4.321 -0.6479  0.1600  0.7436
 5581SOL    HW128379   1.765   1.336   4.320 -0.0750 -1.7633  1.5211
 5581SOL    HW228380   1.647   1.345   4.406  0.6977 -0.7365  1.5421
 5582SOL     OW28381   1.591   3.536   7.754 -0.0428  0.6713 -0.0582
 5582SOL    HW128382   1.579   3.567   7.664  0.2379  0.9818  0.0123
 5582SOL    HW228383   1.498   3.540   7.775  0.1593  1.9523  0.5877
 5583SOL     OW28384   1.009   0.864   9.258  0.3266 -0.1783 -0.0248
 5583SOL    HW128385   1.083   0.829   9.208 -1.4281  1.3108 -3.6632
 5583SOL    HW228386   0.932   0.826   9.215 -0.0360  1.3113 -0.6911
 5584SOL     OW28387   1.544   1.810  10.438  0.2037  0.8282 -0.1796
 5584SOL    HW128388   1.490   1.769  10.506  0.6854 -1.6251 -1.2639
 5584SOL    HW228389   1.606   1.737  10.430 -1.7995 -0.9601  0.3789
 5585SOL     OW28390   2.663   1.113   3.486  0.2181  0.3329 -0.0613
 5585SOL    HW128391   2.637   1.023   3.468  0.0411  0.3659  0.0359
 5585SOL    HW228392   2.701   1.126   3.399 -0.3614  1.5048 -0.1439
 5586SOL     OW28393   2.144   4.339  11.107  0.0904 -0.3339  0.3237
 5586SOL    HW128394   2.151   4.249  11.074 -1.3828  0.0282 -0.9555
 5586SOL    HW228395   2.202   4.325  11.182  0.9165 -1.4720 -0.5104
 5587SOL     OW28396   2.454   0.554   2.502 -0.5594  0.2662  0.2651
 5587SOL    HW128397   2.433   0.531   2.592 -1.8028  2.4178  0.5333
 5587SOL    HW228398   2.406   0.637   2.493  0.1236  0.7355  1.0355
 5588SOL     OW28399   0.948   0.419  17.564 -0.0501  1.1560  0.8712
 5588SOL    HW128400   0.961   0.364  17.641  0.5625 -0.7788 -0.6244
 5588SOL    HW228401   1.022   0.479  17.564  0.9633 -0.1201  2.0288
 5589SOL     OW28402   2.043   3.817   7.148  0.2118 -0.2304  0.2175
 5589SOL    HW128403   2.111   3.783   7.089 -0.6999 -1.8481  0.0865
 5589SOL    HW228404   2.067   3.909   7.159 -1.4010  0.1719  0.4118
 5590SOL     OW28405   2.830   4.034   7.691  0.1118  0.7141  0.3080
 5590SOL    HW128406   2.923   4.050   7.679  0.2309 -0.5348 -0.3471
 5590SOL    HW228407   2.825   3.939   7.684 -1.5979  0.5904  3.2461
 5591SOL     OW28408   4.717   2.015   2.227 -0.5418 -0.1488  0.0787
 5591SOL    HW128409   4.657   1.942   2.210  0.9410 -1.4457  0.4254
 5591SOL    HW228410   0.043   1.973   2.286  1.4857  1.0356 -1.2495
 5592SOL     OW28411   2.998   3.309   8.222 -0.1029  0.5233  0.6197
 5592SOL    HW128412   2.905   3.329   8.237 -1.0164 -2.2535 -1.2972
 5592SOL    HW228413   3.007   3.214   8.218 -0.0765  0.4547  2.1124
 5593SOL     OW28414   1.882   3.325   3.486 -0.1141 -0.5447  0.0686
 5593SOL    HW128415   1.928   3.308   3.403  2.3197  1.6681  0.9821
 5593SOL    HW228416   1.840   3.239   3.491  0.0310 -0.6239 -0.0690
 5594SOL     OW28417   3.952   0.849   1.917 -0.1054 -0.0789 -0.1085
 5594SOL    HW128418   4.038   0.890   1.925 -1.7208  3.0240  1.8754
 5594SOL    HW228419   3.933   0.846   2.011  1.9491  0.5034  0.3221
 5595SOL     OW28420   0.451   4.644  14.095 -1.1137  0.1545 -0.0143
 5595SOL    HW128421   0.378   4.704  14.110 -0.4397  0.3659  2.3874
 5595SOL    HW228422   0.504   4.666  14.171 -0.7545  1.2519 -0.5722
 5596SOL     OW28423   3.788   1.728   4.581 -0.1411  0.3397 -0.0111
 5596SOL    HW128424   3.702   1.769   4.594 -0.9273 -1.1302 -0.5350
 5596SOL    HW228425   3.776   1.681   4.498 -4.7775  1.3919  0.0450
 5597SOL     OW28426   2.621   1.535   8.490 -0.6797 -0.0479 -0.3807
 5597SOL    HW128427   2.624   1.551   8.395 -1.4217 -0.8130 -0.5396
 5597SOL    HW228428   2.616   1.628   8.514  0.3590  0.4398 -2.0505
 5598SOL     OW28429   1.146   2.247   3.012  0.3242 -0.3283 -0.4785
 5598SOL    HW128430   1.120   2.155   3.020  2.8924 -0.9477  0.7299
 5598SOL    HW228431   1.112   2.283   3.094 -1.5000  0.2310 -1.4728
 5599SOL     OW28432   4.661   3.809   5.239 -0.7077  0.4896  0.1754
 5599SOL    HW128433   0.006   3.859   5.228  0.5649 -1.2092  1.8550
 5599SOL    HW228434   4.601   3.869   5.195 -1.7617 -1.9872 -1.7610
 5600SOL     OW28435   4.442   2.679   0.619 -0.1604 -0.1201 -0.5324
 5600SOL    HW128436   4.469   2.749   0.679 -1.1227 -1.6764  1.7045
 5600SOL    HW228437   4.349   2.704   0.619 -0.0757  0.1249  2.2738
 5601SOL     OW28438   2.920   4.330   3.455 -0.0132  0.6478  0.3859
 5601SOL    HW128439   2.970   4.279   3.518  0.5037  2.7118  1.6510
 5601SOL    HW228440   2.858   4.369   3.517 -1.5814  2.0447 -2.0476
 5602SOL     OW28441   4.266   1.307  16.984 -0.4210 -0.2447 -0.0072
 5602SOL    HW128442   4.189   1.343  17.029 -0.8447 -1.2686  0.0818
 5602SOL    HW228443   4.234   1.289  16.896 -2.7056  0.2993  0.7189
 5603SOL     OW28444   4.418   3.777   6.579 -0.5451 -0.2075  0.3828
 5603SOL    HW128445   4.395   3.684   6.578 -1.5061  0.0336 -0.5184
 5603SOL    HW228446   4.354   3.806   6.514  0.7351 -0.2850 -0.9036
 5604SOL     OW28447   0.490   1.571   5.157  0.7572 -0.7306 -0.1479
 5604SOL    HW128448   0.489   1.565   5.253  1.7407  2.3695  0.0616
 5604SOL    HW228449   0.521   1.657   5.129  0.2350 -1.0366 -1.6159
 5605SOL     OW28450   0.395   2.596   1.535  0.4122  0.2212  0.4807
 5605SOL    HW128451   0.352   2.658   1.476 -1.3236  0.4723  1.9604
 5605SOL    HW228452   0.369   2.509   1.506 -1.8233  1.0659 -0.0809
 5606SOL     OW28453   0.895   4.048   3.332 -0.3957  0.8114 -0.2436
 5606SOL    HW128454   0.812   4.095   3.340 -1.2309 -0.6417 -0.3895
 5606SOL    HW228455   0.949   4.095   3.395 -1.8836  1.4231  0.5658
 5607SOL     OW28456   3.652   2.075  15.674 -0.7846 -0.6634  0.0829
 5607SOL    HW128457   3.657   2.010  15.604 -1.5844 -0.1288 -0.4716
 5607SOL    HW228458   3.741   2.110  15.682 -1.5367  1.6052 -1.3394
 5608SOL     OW28459   3.674   1.005   6.482  0.0343  0.1218  0.3765
 5608SOL    HW128460   3.690   1.068   6.552 -2.3195  0.5755  0.4731
 5608SOL    HW228461   3.641   0.933   6.535  0.1741  0.1260  0.4698
 5609SOL     OW28462   3.883   4.195   4.652 -0.3278  0.0598  0.5511
 5609SOL    HW128463   3.870   4.159   4.740 -1.5145  1.5038  0.9716
 5609SOL    HW228464   3.835   4.144   4.587  0.0277  0.5397 -0.0921
 5610SOL     OW28465   2.625   3.370   4.696  0.0760 -0.3040 -0.1311
 5610SOL    HW128466   2.615   3.355   4.790  1.8801  3.0420  0.6019
 5610SOL    HW228467   2.534   3.377   4.667 -0.2282  1.9150  1.2848
 5611SOL     OW28468   1.506   3.670   3.771 -0.0670  0.9185 -0.0206
 5611SOL    HW128469   1.518   3.647   3.863  0.8752  0.1092 -0.3518
 5611SOL    HW228470   1.500   3.580   3.742  1.0463  0.8467 -0.0273
 5612SOL     OW28471   0.022   0.743   9.131 -0.3083 -1.1893 -0.1992
 5612SOL    HW128472   4.707   0.722   9.053  1.3891  2.2044 -2.2175
 5612SOL    HW228473   4.731   0.828   9.166 -2.1427 -1.8418 -0.0770
 5613SOL     OW28474   1.472   3.265   4.420 -0.2877 -0.1932 -0.6131
 5613SOL    HW128475   1.539   3.327   4.449  2.0490 -2.3179 -1.5169
 5613SOL    HW228476   1.389   3.312   4.408 -1.3015 -1.3875  1.6665
 5614SOL     OW28477   0.342   0.243   5.435 -0.2339 -0.3619  0.3102
 5614SOL    HW128478   0.418   0.299   5.448 -0.5806  0.1330  0.2517
 5614SOL    HW228479   0.351   0.198   5.518  0.3601 -1.4768 -0.3675
 5615SOL     OW28480   0.703   3.816   3.052 -0.1231 -0.2481  0.1789
 5615SOL    HW128481   0.739   3.768   2.977  0.4109 -1.5564  1.2907
 5615SOL    HW228482   0.781   3.869   3.066 -0.5743  0.0348  1.6474
 5616SOL     OW28483   3.022   1.833   0.574  0.2941  0.7680 -0.4502
 5616SOL    HW128484   3.024   1.745   0.611 -1.3558  0.7306 -0.4849
 5616SOL    HW228485   2.977   1.817   0.492  1.4016  1.4293 -1.1964
 5617SOL     OW28486   1.739   2.484   6.661 -0.1908  0.4797  0.2190
 5617SOL    HW128487   1.663   2.436   6.694  0.6036  0.4001  1.9451
 5617SOL    HW228488   1.796   2.408   6.649  0.1265  0.4380  2.0115
 5618SOL     OW28489   3.077   0.647   5.461  0.1510  0.0386  0.3983
 5618SOL    HW128490   2.995   0.678   5.498 -0.8582  0.2448 -1.9941
 5618SOL    HW228491   3.100   0.594   5.537  0.7759 -0.2322  0.0212
 5619SOL     OW28492   0.196   1.363   3.740 -0.1247  0.2721 -0.5167
 5619SOL    HW128493   0.122   1.386   3.796 -0.4340  0.4909 -1.0090
 5619SOL    HW228494   0.169   1.278   3.706  1.2923 -0.5199  0.3190
 5620SOL     OW28495   3.109   0.919   1.772  0.1858 -0.4201 -0.2945
 5620SOL    HW128496   3.106   1.014   1.787 -1.8395 -0.7721  1.5505
 5620SOL    HW228497   3.155   0.915   1.689 -0.3388 -0.6471 -0.5749
 5621SOL     OW28498   0.646   1.222  17.737 -0.1809  0.2396 -0.2919
 5621SOL    HW128499   0.679   1.176  17.660  2.6890  0.5959  0.7255
 5621SOL    HW228500   0.687   1.164   0.058  1.7220  1.0480 -0.7714
 5622SOL     OW28501   0.643   0.764   4.252  0.1952  0.2577 -0.1194
 5622SOL    HW128502   0.553   0.761   4.286  0.6050  1.7902  1.1049
 5622SOL    HW228503   0.653   0.669   4.252 -4.2569 -0.2367  1.2173
 5623SOL     OW28504   3.623   0.342  16.674 -0.4288  0.3186  0.3184
 5623SOL    HW128505   3.615   0.281  16.600 -1.2926 -0.5884  1.1467
 5623SOL    HW228506   3.552   0.403  16.653  1.2561  2.0717 -0.1915
 5624SOL     OW28507   3.105   4.451   9.870 -0.1972  0.2574 -0.2728
 5624SOL    HW128508   3.103   4.414   9.959 -0.5635  3.0201  0.8634
 5624SOL    HW228509   3.200   4.456   9.855 -0.4862  1.4026 -1.6302
 5625SOL     OW28510   1.525   2.095   3.495  0.3133  0.1089 -0.6780
 5625SOL    HW128511   1.562   2.182   3.512  1.4557 -0.7008  0.9464
 5625SOL    HW228512   1.539   2.050   3.579  1.3028  0.8371 -0.4527
 5626SOL     OW28513   1.890   3.296   7.919  0.0233  0.1935 -0.1666
 5626SOL    HW128514   1.875   3.256   8.004 -2.3740  1.2041 -0.1433
 5626SOL    HW228515   1.820   3.360   7.916 -1.4690 -1.2776  3.3594
 5627SOL     OW28516   4.492   4.286   2.282 -0.5935 -0.3794 -0.1874
 5627SOL    HW128517   4.478   4.213   2.343 -1.4794 -1.0748 -1.2259
 5627SOL    HW228518   4.410   4.335   2.283 -0.8521 -0.8111 -0.8553
 5628SOL     OW28519   0.844   4.392   6.527  0.3019 -0.2039 -0.0133
 5628SOL    HW128520   0.766   4.337   6.528  0.1067  0.0873  0.5716
 5628SOL    HW228521   0.802   4.470   6.564 -1.2711 -1.0512 -0.0483
 5629SOL     OW28522   4.625   0.610  11.593  0.0365  0.0725  0.3242
 5629SOL    HW128523   4.565   0.641  11.525  0.6245  1.3061  0.3574
 5629SOL    HW228524   4.603   0.517  11.587 -0.1910  0.0186  1.8393
 5630SOL     OW28525   2.785   3.741   5.310 -0.4776 -0.6732  0.2243
 5630SOL    HW128526   2.866   3.789   5.323 -0.7417  0.5221 -2.6068
 5630SOL    HW228527   2.747   3.797   5.243  0.1644 -0.2704  0.2000
 5631SOL     OW28528   2.534   0.535   8.653  0.4729  0.4322 -0.2353
 5631SOL    HW128529   2.489   0.611   8.689  1.8869  1.0745  0.1949
 5631SOL    HW228530   2.539   0.553   8.560 -1.2543  2.1629  0.0171
 5632SOL     OW28531   3.580   4.706   8.308 -0.2504 -0.0400 -0.1642
 5632SOL    HW128532   3.676   4.709   8.304 -0.1965 -3.5731 -1.9605
 5632SOL    HW228533   3.557   4.726   8.217  1.0637  0.0315 -0.4852
 5633SOL     OW28534   2.928   0.127   9.010 -0.1516 -0.0530 -0.2373
 5633SOL    HW128535   2.933   0.218   9.041 -2.2452  0.8095 -2.4508
 5633SOL    HW228536   2.898   0.089   9.092 -0.1530  0.8682  0.1928
 5634SOL     OW28537   2.962   0.463   5.902  0.4550  0.5648 -0.1167
 5634SOL    HW128538   2.931   0.388   5.952  1.1971  1.0114  1.0222
 5634SOL    HW228539   2.881   0.510   5.883 -0.8399 -1.6563 -0.0960
 5635SOL     OW28540   2.786   1.346   1.997  0.4869 -0.0050  0.0898
 5635SOL    HW128541   2.733   1.426   2.007  0.5884 -0.3442  3.1188
 5635SOL    HW228542   2.801   1.327   2.089  0.1652 -1.3436 -0.1404
 5636SOL     OW28543   0.411   2.458   2.530  0.6037  0.5726 -0.5448
 5636SOL    HW128544   0.463   2.439   2.452  0.5617 -1.5492 -0.0602
 5636SOL    HW228545   0.471   2.514   2.580  1.8680 -2.0738  0.8589
 5637SOL     OW28546   3.948   2.109   0.640  0.0041  0.0150 -0.0890
 5637SOL    HW128547   3.874   2.065   0.597  1.1583 -1.2942 -0.7417
 5637SOL    HW228548   3.982   2.161   0.567 -0.4734 -2.0617 -1.8060
 5638SOL     OW28549   0.539   0.688   6.806 -0.3871  0.0437 -0.3445
 5638SOL    HW128550   0.496   0.634   6.871  0.7178 -1.4965 -0.8842
 5638SOL    HW228551   0.608   0.723   6.862 -0.7000  1.5761 -0.9090
 5639SOL     OW28552   1.622   4.310   4.197 -0.2356 -0.1048 -0.1879
 5639SOL    HW128553   1.551   4.280   4.253  0.0212 -1.3759 -0.5448
 5639SOL    HW228554   1.614   4.251   4.122  0.5778 -0.6725  0.1696
 5640SOL     OW28555   2.427   1.211   2.489  0.3747  0.0345 -0.4030
 5640SOL    HW128556   2.482   1.145   2.448  0.2850 -0.6916  0.6537
 5640SOL    HW228557   2.479   1.223   2.568  0.9405  2.0759 -1.0775
 5641SOL     OW28558   4.458   0.820   5.089  0.5576 -0.0553 -0.2604
 5641SOL    HW128559   4.476   0.797   5.180  0.2008  0.4596 -0.0617
 5641SOL    HW228560   4.516   0.752   5.053  0.3069 -1.5333  2.0802
 5642SOL     OW28561   3.609   2.460   2.132 -0.0953  0.4738 -0.3695
 5642SOL    HW128562   3.591   2.508   2.051 -3.0923  1.9291  1.1682
 5642SOL    HW228563   3.705   2.463   2.131 -0.0748 -0.1647  0.8400
 5643SOL     OW28564   0.027   4.453   4.786 -0.0712  0.1058  0.3565
 5643SOL    HW128565   0.054   4.494   4.704 -2.6834  1.0218 -0.0514
 5643SOL    HW228566   0.103   4.396   4.800  0.2455  0.5514  0.4375
 5644SOL     OW28567   0.470   1.268   9.261 -0.0803 -0.4533 -1.2083
 5644SOL    HW128568   0.377   1.275   9.284 -0.3488  0.7849 -2.6334
 5644SOL    HW228569   0.459   1.260   9.167 -2.1961  1.3192 -1.1084
 5645SOL     OW28570   2.775   0.333  16.880  0.3485  0.5629  0.0091
 5645SOL    HW128571   2.742   0.283  16.805 -0.0228 -0.0763  0.5951
 5645SOL    HW228572   2.700   0.392  16.884  0.3083  0.7286 -2.9483
 5646SOL     OW28573   0.203   3.661   4.146 -0.3064 -0.4523  0.3918
 5646SOL    HW128574   0.148   3.591   4.111  2.0611 -1.3614 -1.4960
 5646SOL    HW228575   0.141   3.734   4.158 -0.4235 -0.8126  1.9808
 5647SOL     OW28576   0.659   4.092   5.328  0.2357 -0.2522 -0.3257
 5647SOL    HW128577   0.573   4.057   5.306 -0.9268  0.9461  2.2660
 5647SOL    HW228578   0.712   4.012   5.325 -1.2673 -1.2819  0.9640
 5648SOL     OW28579   0.077   2.683   2.069  0.4076  0.3383 -1.0860
 5648SOL    HW128580   0.055   2.772   2.041  0.5398  0.2795 -1.3789
 5648SOL    HW228581   0.045   2.633   1.994  1.2378  0.2651 -1.4005
 5649SOL     OW28582   3.835   2.719   3.264  0.1608  0.4471  0.0240
 5649SOL    HW128583   3.908   2.657   3.259  0.4234  0.8094 -0.6176
 5649SOL    HW228584   3.791   2.701   3.181  1.1822  0.7621 -0.5913
 5650SOL     OW28585   2.589   4.242   9.181 -0.0088 -0.0563 -0.4548
 5650SOL    HW128586   2.582   4.245   9.276 -0.2465 -1.3561 -0.4316
 5650SOL    HW228587   2.512   4.189   9.159 -0.6943  1.0637 -0.7502
 5651SOL     OW28588   1.644   3.662   0.739  0.0621 -0.1710 -0.8054
 5651SOL    HW128589   1.646   3.595   0.670 -0.8877 -0.8603 -0.1435
 5651SOL    HW228590   1.717   3.630   0.793 -0.6677  0.6923  0.6779
 5652SOL     OW28591   3.551   2.843  10.195  0.1213 -0.0919  0.1507
 5652SOL    HW128592   3.532   2.834  10.288 -0.6764  2.4398  0.2490
 5652SOL    HW228593   3.591   2.930  10.199  4.1971 -2.0136  0.3522
 5653SOL     OW28594   2.166   1.754  13.833  0.0910 -0.5234  0.4389
 5653SOL    HW128595   2.240   1.802  13.871 -1.0436  2.2915 -0.9300
 5653SOL    HW228596   2.144   1.690  13.901  0.3102 -2.4569 -1.2858
 5654SOL     OW28597   0.614   3.619   5.074  0.3493  0.1735  0.0782
 5654SOL    HW128598   0.525   3.619   5.110 -0.5130 -0.6305 -2.0474
 5654SOL    HW228599   0.667   3.605   5.152 -0.3532  0.4737  0.6037
 5655SOL     OW28600   4.606   3.639  15.467 -0.2515 -0.0142  0.7028
 5655SOL    HW128601   4.689   3.667  15.428 -0.3994 -0.7311 -0.1182
 5655SOL    HW228602   4.623   3.668  15.557 -1.3318 -0.1539  0.9489
 5656SOL     OW28603   2.773   0.542   6.665  0.0303  0.3898  0.2378
 5656SOL    HW128604   2.857   0.576   6.696 -0.5223  1.7858  0.2113
 5656SOL    HW228605   2.799   0.517   6.576  2.9079 -0.1087  1.2229
 5657SOL     OW28606   4.421   2.934  11.293 -0.5706  0.5363  0.0213
 5657SOL    HW128607   4.446   2.863  11.351 -0.8643  0.0916 -0.3939
 5657SOL    HW228608   4.478   2.920  11.218  1.5668  1.4132  1.4991
 5658SOL     OW28609   3.954   2.903   4.891  0.0066  0.1886 -0.1819
 5658SOL    HW128610   3.902   2.827   4.918 -0.6000  0.1833 -1.3559
 5658SOL    HW228611   3.935   2.912   4.797 -1.1445 -0.4892 -0.0047
 5659SOL     OW28612   3.805   3.886   4.642 -0.0814 -0.0354 -0.2439
 5659SOL    HW128613   3.795   3.831   4.720  0.3251 -1.9979 -1.5901
 5659SOL    HW228614   3.740   3.853   4.580  1.8559 -1.0265 -1.7205
 5660SOL     OW28615   4.695   2.300   9.592  0.5072  0.1461  0.0355
 5660SOL    HW128616   0.013   2.329   9.666  1.1671  0.2421 -0.4920
 5660SOL    HW228617   0.020   2.301   9.519  1.5949 -1.4904  0.9305
 5661SOL     OW28618   0.126   0.024   0.510 -0.2084  0.7611  0.3131
 5661SOL    HW128619   0.149   0.116   0.519 -0.0940  0.6310  1.2967
 5661SOL    HW228620   0.111   0.014   0.416  0.9935 -0.4457  0.2485
 5662SOL     OW28621   1.611   3.813   3.015  0.4722 -1.0713  0.0248
 5662SOL    HW128622   1.556   3.853   2.947  1.0170 -0.0379  0.1855
 5662SOL    HW228623   1.631   3.723   2.991  0.8620 -0.9541 -0.0987
 5663SOL     OW28624   2.586   0.268   3.154 -0.0325 -0.1362 -0.0831
 5663SOL    HW128625   2.580   0.342   3.093  1.1725 -0.3152 -0.4263
 5663SOL    HW228626   2.681   0.257   3.160  0.0528  1.7578  1.9297
 5664SOL     OW28627   4.011   3.698  16.713 -0.5651  0.0727 -0.3151
 5664SOL    HW128628   4.100   3.707  16.747 -1.9243  1.9424  2.7568
 5664SOL    HW228629   4.035   3.679  16.622  0.6855 -1.6388  0.3666
 5665SOL     OW28630   3.057   4.558   8.671  0.8110  0.3913  0.3764
 5665SOL    HW128631   2.993   4.628   8.684  0.0561 -0.3985  0.9220
 5665SOL    HW228632   3.097   4.583   8.588 -0.1442 -0.0715 -0.2224
 5666SOL     OW28633   3.349   4.714   8.988 -0.3791  0.1299  0.2145
 5666SOL    HW128634   3.302   0.045   8.938  1.2641  1.8282  0.9857
 5666SOL    HW228635   3.404   0.043   9.031  1.6077 -0.9770 -0.6446
 5667SOL     OW28636   0.970   1.666   9.492 -0.4770  0.1351  0.1768
 5667SOL    HW128637   1.050   1.655   9.543 -0.6122 -0.5757  0.2393
 5667SOL    HW228638   0.944   1.579   9.461  0.3696  0.5170 -1.5988
 5668SOL     OW28639   0.252   4.425   2.130 -0.2142 -0.0206 -0.0051
 5668SOL    HW128640   0.304   4.424   2.211 -0.0747  3.2964 -0.0577
 5668SOL    HW228641   0.173   4.400   2.177  0.6865  0.1753  1.6365
 5669SOL     OW28642   0.260   2.022   4.738  0.0851 -0.1881  0.1342
 5669SOL    HW128643   0.300   2.079   4.673  2.6051 -0.6181  1.2963
 5669SOL    HW228644   0.213   2.077   4.800  1.5968  0.5643  0.6265
 5670SOL     OW28645   2.783   2.232   3.855 -0.1825 -0.4056 -0.4026
 5670SOL    HW128646   2.778   2.227   3.950  1.3447 -2.1865 -0.4164
 5670SOL    HW228647   2.870   2.196   3.839  0.2335  0.2270  0.4651
 5671SOL     OW28648   1.564   4.115   4.827 -0.4018 -0.1961  0.4358
 5671SOL    HW128649   1.608   4.188   4.872 -0.5985 -2.5375  4.3316
 5671SOL    HW228650   1.570   4.039   4.884 -0.8713 -1.1678 -0.8087
 5672SOL     OW28651   0.033   0.733   2.024  0.4309  0.2753 -0.5098
 5672SOL    HW128652   0.122   0.769   2.031  0.4382  0.1726 -0.0640
 5672SOL    HW228653   0.018   0.697   2.111  0.1391 -0.7592 -0.9910
 5673SOL     OW28654   4.011   0.893   5.596  0.8514  0.0282  0.1393
 5673SOL    HW128655   4.046   0.980   5.578 -0.3158  0.6414  0.8117
 5673SOL    HW228656   3.918   0.895   5.573  1.1012  0.3069 -0.8239
 5674SOL     OW28657   2.063   3.972   3.175  1.0213 -0.2164  0.4159
 5674SOL    HW128658   1.986   3.926   3.206  2.7963 -1.3480  3.1579
 5674SOL    HW228659   2.118   3.971   3.254  0.3591  1.4712  0.9010
 5675SOL     OW28660   0.903   3.186  15.959  0.3080  0.1404  0.5543
 5675SOL    HW128661   0.989   3.145  15.945  1.0705  2.0134 -0.2804
 5675SOL    HW228662   0.902   3.240  15.880 -1.5006  0.4222  0.7865
 5676SOL     OW28663   4.125   4.344   0.800  0.8262 -0.1975  0.2332
 5676SOL    HW128664   4.149   4.432   0.773  0.7932 -0.5814 -1.0514
 5676SOL    HW228665   4.209   4.308   0.829  2.6276  2.5829 -1.4813
 5677SOL     OW28666   1.661   4.375  11.647  0.0505 -0.3532 -0.2408
 5677SOL    HW128667   1.591   4.394  11.584  0.1124 -2.0359 -0.8016
 5677SOL    HW228668   1.606   4.337  11.715 -2.6163 -0.0052 -2.1747
 5678SOL     OW28669   2.173   0.222  12.144  0.3110 -0.0546 -0.2150
 5678SOL    HW128670   2.082   0.203  12.120  0.2374  1.9238 -1.5641
 5678SOL    HW228671   2.173   0.204  12.238  1.1521 -0.5923 -0.3133
 5679SOL     OW28672   0.602   1.607   1.986 -0.1224  0.0899 -0.1762
 5679SOL    HW128673   0.642   1.598   2.073 -1.0554 -1.3136  0.1051
 5679SOL    HW228674   0.631   1.526   1.944 -0.0695 -0.1394  0.3004
 5680SOL     OW28675   4.085   2.378   5.563 -0.3577 -0.6528 -0.9205
 5680SOL    HW128676   4.108   2.462   5.604  0.0286 -2.0642  1.7228
 5680SOL    HW228677   4.139   2.322   5.617  0.1783  0.8972  0.1549
 5681SOL     OW28678   2.182   3.564   2.656 -0.2320  0.2879 -0.4527
 5681SOL    HW128679   2.099   3.585   2.612 -1.4699 -2.2655  0.6265
 5681SOL    HW228680   2.247   3.602   2.598 -0.2881  2.3231  0.8006
 5682SOL     OW28681   1.109   0.216   7.386 -0.2613 -0.0600 -0.2823
 5682SOL    HW128682   1.126   0.306   7.413 -1.9318  1.0105 -2.8378
 5682SOL    HW228683   1.191   0.167   7.383 -1.6732 -2.5081  0.6713
 5683SOL     OW28684   3.059   4.170   8.918  0.1603 -0.1326  0.5320
 5683SOL    HW128685   3.121   4.101   8.941 -0.5512 -0.7486  0.6024
 5683SOL    HW228686   3.114   4.248   8.922 -2.3305  1.6460 -0.0555
 5684SOL     OW28687   0.598   2.151   6.588  0.2954  0.0074  0.0778
 5684SOL    HW128688   0.553   2.176   6.668  0.9456  2.7619 -0.4111
 5684SOL    HW228689   0.670   2.214   6.592  0.7527 -0.6131  1.3392
 5685SOL     OW28690   2.779   1.610   9.819  0.0420 -0.0041 -0.5290
 5685SOL    HW128691   2.759   1.699   9.850  0.4982  1.1369 -3.4950
 5685SOL    HW228692   2.751   1.560   9.895  1.2219 -0.1351 -0.1691
 5686SOL     OW28693   2.866   1.086   1.860  0.0741  0.2641 -0.5870
 5686SOL    HW128694   2.875   1.154   1.927 -0.0404 -1.6944  1.4190
 5686SOL    HW228695   2.946   1.103   1.810  0.4231 -2.2352 -0.8896
 5687SOL     OW28696   0.733   4.214   7.928  0.9720  0.0336  0.2734
 5687SOL    HW128697   0.718   4.248   7.840 -0.0112  1.7298  1.1005
 5687SOL    HW228698   0.704   4.123   7.922 -0.0966  0.3144  1.0498
 5688SOL     OW28699   0.143   3.854   7.535 -0.4621 -0.0007 -0.0739
 5688SOL    HW128700   0.209   3.791   7.566 -0.4805  0.1355  0.2464
 5688SOL    HW228701   0.159   3.924   7.599  1.3485 -0.6170  0.1627
 5689SOL     OW28702   0.055   1.225  15.923 -0.7411 -0.3154  0.1023
 5689SOL    HW128703   4.719   1.255  15.978 -0.7398 -0.1008 -0.0133
 5689SOL    HW228704   0.067   1.143  15.970 -1.4560 -0.8391 -0.6346
 5690SOL     OW28705   3.663   4.689  11.139 -0.4525 -0.4410  0.0860
 5690SOL    HW128706   3.591   4.655  11.086 -1.7461 -0.4874  1.8638
 5690SOL    HW228707   3.677   4.620  11.204  1.3208  1.3682  1.5904
 5691SOL     OW28708   1.289   1.150  13.657  0.6824 -0.7090 -0.1120
 5691SOL    HW128709   1.303   1.242  13.680  0.6944 -0.6732 -0.2625
 5691SOL    HW228710   1.203   1.124  13.691 -0.4637  1.3948 -1.3647
 5692SOL     OW28711   4.211   2.232   6.559 -0.0040  0.0320 -0.5289
 5692SOL    HW128712   4.172   2.202   6.477  2.2591  3.1252 -2.7365
 5692SOL    HW228713   4.234   2.320   6.528 -0.7083  0.9981  1.6579
 5693SOL     OW28714   3.412   1.773  15.824  0.0748 -0.1523  0.0029
 5693SOL    HW128715   3.398   1.796  15.732  2.4330  2.0903  0.2084
 5693SOL    HW228716   3.479   1.706  15.816 -0.7591 -1.4142  3.3470
 5694SOL     OW28717   3.482   3.423  14.915  0.0951  0.1572  0.5115
 5694SOL    HW128718   3.452   3.349  14.968  0.5432 -0.9036 -0.7194
 5694SOL    HW228719   3.438   3.492  14.966 -1.9750  0.3152 -1.5241
 5695SOL     OW28720   2.205   4.526  12.053  0.0016  0.1162 -0.9082
 5695SOL    HW128721   2.233   4.490  11.968  1.7019  2.7291 -1.4771
 5695SOL    HW228722   2.155   4.602  12.021 -0.5506  0.4436  0.7493
 5696SOL     OW28723   1.601   1.553   3.950  0.6553 -0.1581  0.8951
 5696SOL    HW128724   1.599   1.645   3.974  1.0164  0.6148 -2.0168
 5696SOL    HW228725   1.571   1.514   4.032  1.2823 -1.7862  0.3519
 5697SOL     OW28726   0.933   4.519  15.938  0.3992 -0.0712  0.6269
 5697SOL    HW128727   0.941   4.567  15.856 -1.5709 -2.0706 -0.7356
 5697SOL    HW228728   0.838   4.511  15.944  0.4387 -0.2650  1.0288
 5698SOL     OW28729   0.473   3.511  12.643 -0.6099 -0.3272 -0.4813
 5698SOL    HW128730   0.428   3.542  12.565  0.2739  0.1847 -0.7831
 5698SOL    HW228731   0.511   3.585  12.690  0.5551 -0.0185 -1.9223
 5699SOL     OW28732   1.064   3.468  12.122 -0.5717  0.1078 -0.1824
 5699SOL    HW128733   1.080   3.469  12.216  0.7663 -1.7669 -0.3795
 5699SOL    HW228734   0.995   3.533  12.115 -0.7751  0.0650  1.4389
 5700SOL     OW28735   2.360   2.965   5.998  0.1808  0.2131 -0.0558
 5700SOL    HW128736   2.442   2.984   5.952 -1.2428  1.0815 -2.1744
 5700SOL    HW228737   2.390   2.905   6.067  0.4892  0.5595  0.1118
 5701SOL     OW28738   1.441   2.602   4.501  0.3129 -0.2595 -0.4153
 5701SOL    HW128739   1.424   2.520   4.455  0.4780 -0.3289 -0.3514
 5701SOL    HW228740   1.357   2.643   4.478  0.4695  0.2288 -0.1069
 5702SOL     OW28741   0.427   1.355   2.853 -0.0055  0.1011  0.2504
 5702SOL    HW128742   0.431   1.260   2.848  1.0564  0.2041 -0.7200
 5702SOL    HW228743   0.507   1.365   2.905  0.8101  0.0214 -0.9970
 5703SOL     OW28744   4.002   2.730   5.347  0.2070  0.3384  0.2920
 5703SOL    HW128745   4.018   2.721   5.441 -0.6143  2.0804  0.5889
 5703SOL    HW228746   4.062   2.675   5.297  0.6523  1.2270 -0.1389
 5704SOL     OW28747   0.853   3.027  16.973 -0.0845 -0.3841  0.1691
 5704SOL    HW128748   0.856   3.050  16.881  1.2713  4.6321  1.4852
 5704SOL    HW228749   0.864   2.932  16.977  1.6653 -0.1290  1.5797
 5705SOL     OW28750   3.367   0.709  16.270 -0.4853 -0.1602  0.2091
 5705SOL    HW128751   3.367   0.689  16.176  3.0513  1.6880 -0.2073
 5705SOL    HW228752   3.461   0.722  16.285 -0.5847  1.6912 -0.7513
 5706SOL     OW28753   3.454   3.379   2.560 -0.5164 -0.3042 -0.0197
 5706SOL    HW128754   3.433   3.293   2.595  1.6679 -0.5799  0.5573
 5706SOL    HW228755   3.494   3.421   2.636  0.3508 -1.7980  0.3303
 5707SOL     OW28756   0.544   2.825   2.961  0.2626  0.2425  0.2156
 5707SOL    HW128757   0.461   2.819   2.913 -0.7787  2.5165  1.7440
 5707SOL    HW228758   0.545   2.921   2.969  0.2793  0.1919  0.7799
 5708SOL     OW28759   0.822   0.182   7.325  0.8001 -0.6424 -0.2901
 5708SOL    HW128760   0.834   0.103   7.273 -0.7626 -1.5460  0.7200
 5708SOL    HW228761   0.912   0.200   7.352  1.9091 -1.1738 -3.7153
 5709SOL     OW28762   1.888   4.264   8.710 -0.1859 -0.9394  0.0259
 5709SOL    HW128763   1.839   4.270   8.792  1.2023  2.5345  0.5783
 5709SOL    HW228764   1.925   4.177   8.725  1.3246 -0.3902 -0.5755
 5710SOL     OW28765   4.728   0.969   4.805  0.6449 -0.2330  0.0873
 5710SOL    HW128766   0.020   0.886   4.765  0.2817 -1.0884  1.6311
 5710SOL    HW228767   0.073   1.018   4.806 -1.1488  2.8284 -2.0075
 5711SOL     OW28768   2.488   3.132  16.535  0.4719  0.4372 -0.3590
 5711SOL    HW128769   2.577   3.136  16.570 -0.1252  1.3341  1.0470
 5711SOL    HW228770   2.435   3.173  16.604  0.9081  0.3460  0.0244
 5712SOL     OW28771   4.660   3.307   2.588 -0.2856  0.7115 -0.2071
 5712SOL    HW128772   4.709   3.370   2.641  3.2001 -0.2890 -2.2660
 5712SOL    HW228773   4.600   3.270   2.652  2.9136 -2.0517  1.1764
 5713SOL     OW28774   2.756   3.028   7.981 -0.9683 -0.5715 -0.1344
 5713SOL    HW128775   2.737   2.997   7.893  3.3253 -2.0900 -0.4876
 5713SOL    HW228776   2.721   3.117   7.977 -0.6724 -0.4737 -0.4973
 5714SOL     OW28777   2.810   2.669   9.984  0.1131 -0.4952 -0.1980
 5714SOL    HW128778   2.903   2.689   9.980 -0.0776  0.5835  0.5324
 5714SOL    HW228779   2.787   2.632   9.899 -1.0849  0.5434 -0.3295
 5715SOL     OW28780   4.038   1.745   3.178  0.2489  0.6333 -0.2391
 5715SOL    HW128781   3.946   1.721   3.179  0.6085 -0.7293  0.4183
 5715SOL    HW228782   4.080   1.667   3.142  0.6765 -0.5833  2.8759
 5716SOL     OW28783   3.541   3.740   0.946  0.7745 -0.2706  0.3182
 5716SOL    HW128784   3.509   3.727   1.035 -0.5918 -0.9204 -0.2740
 5716SOL    HW228785   3.472   3.694   0.897 -1.2972  3.6906 -0.4363
 5717SOL     OW28786   3.195   3.394  17.686 -0.0309 -0.3373  0.3662
 5717SOL    HW128787   3.272   3.405  17.741  0.0864 -2.3548  0.6054
 5717SOL    HW228788   3.177   3.301  17.696  0.0607 -0.0185  3.5444
 5718SOL     OW28789   2.624   0.988   5.990  0.8933  0.1790  1.1415
 5718SOL    HW128790   2.582   0.902   5.998 -0.1613  0.4239 -1.7632
 5718SOL    HW228791   2.602   1.003   5.898 -0.4833 -0.6145  1.3319
 5719SOL     OW28792   4.712   3.012   2.275 -0.0521 -0.4842 -0.7127
 5719SOL    HW128793   0.038   3.048   2.338 -1.1973 -1.6238  1.1022
 5719SOL    HW228794   4.625   3.010   2.317  1.1791  1.8157  1.9136
 5720SOL     OW28795   3.928   3.620   7.761 -0.3741 -0.4057  0.7828
 5720SOL    HW128796   3.898   3.705   7.729 -1.6395 -0.9002  0.6690
 5720SOL    HW228797   3.844   3.575   7.757 -0.2270 -0.5176 -0.9393
 5721SOL     OW28798   1.507   4.081   5.146  0.6190 -0.0465  0.1369
 5721SOL    HW128799   1.473   4.009   5.093 -1.8763  2.3905 -1.6208
 5721SOL    HW228800   1.492   4.048   5.234  0.6056 -2.1656 -0.6705
 5722SOL     OW28801   1.040   1.457  11.974 -0.5388 -0.0024  0.4279
 5722SOL    HW128802   0.979   1.385  11.993 -1.9779  1.2023  0.4360
 5722SOL    HW228803   1.071   1.456  12.065 -0.2066 -0.0034  0.3118
 5723SOL     OW28804   0.044   4.173   7.201 -0.9614  0.0445 -0.0409
 5723SOL    HW128805   0.115   4.232   7.228 -0.3613 -1.2539  1.2269
 5723SOL    HW228806   0.083   4.087   7.215 -0.0837  0.5361  0.5956
 5724SOL     OW28807   4.228   1.509   1.467  0.0764  0.5242 -0.1011
 5724SOL    HW128808   4.274   1.589   1.493 -1.2627  1.7375 -1.4679
 5724SOL    HW228809   4.285   1.461   1.406  1.1338 -0.1845  1.4660
 5725SOL     OW28810   4.690   4.278  15.672 -0.0123 -0.0580  0.3086
 5725SOL    HW128811   4.691   4.355  15.614 -0.5132  0.1243  0.5437
 5725SOL    HW228812   4.626   4.229  15.620  0.9185 -1.1061  0.1529
 5726SOL     OW28813   4.292   3.108   0.167 -0.0620  0.0512 -0.2448
 5726SOL    HW128814   4.275   3.046   0.237 -0.4925  0.3770 -0.0561
 5726SOL    HW228815   4.338   3.059   0.099  1.0877  1.3045 -0.3739
 5727SOL     OW28816   0.946   4.275   8.091  0.0413 -0.1235  0.1953
 5727SOL    HW128817   1.019   4.274   8.029  0.7855  0.8364  1.0605
 5727SOL    HW228818   0.868   4.279   8.035  1.4786 -3.6173 -2.0878
 5728SOL     OW28819   2.659   1.346   5.211  0.0797 -0.0018  0.6929
 5728SOL    HW128820   2.623   1.268   5.254 -0.4162 -0.0118  0.2653
 5728SOL    HW228821   2.597   1.414   5.237 -2.2396 -0.6182 -3.2878
 5729SOL     OW28822   0.549   2.652   9.165  0.1447  0.5797  0.6236
 5729SOL    HW128823   0.474   2.707   9.190 -0.8157 -0.7271  0.6096
 5729SOL    HW228824   0.581   2.634   9.253  0.2450  2.7090  1.0446
 5730SOL     OW28825   3.168   3.521   2.832 -0.2761  0.6493  0.3087
 5730SOL    HW128826   3.073   3.515   2.846 -0.5424  3.0537 -0.5722
 5730SOL    HW228827   3.178   3.449   2.769  2.0306  0.2661  1.0978
 5731SOL     OW28828   0.704   2.637   1.842 -0.1863 -0.1667 -0.6227
 5731SOL    HW128829   0.708   2.700   1.913  0.6663 -0.1165 -0.7203
 5731SOL    HW228830   0.658   2.678   1.768  2.4685  1.1965 -1.4938
 5732SOL     OW28831   1.546   3.837  12.015  0.2827 -0.3622  0.3555
 5732SOL    HW128832   1.603   3.913  12.020  2.0593 -1.7168  0.5358
 5732SOL    HW228833   1.588   3.785  12.083  0.3457 -0.3530  0.3233
 5733SOL     OW28834   2.175   1.160  15.099 -0.2994 -0.4129 -0.2589
 5733SOL    HW128835   2.174   1.206  15.015 -2.6631  1.6031  0.8594
 5733SOL    HW228836   2.258   1.116  15.082  0.5821  0.0651  2.8318
 5734SOL     OW28837   2.964   1.196  11.624 -0.6162 -0.0896 -0.6195
 5734SOL    HW128838   2.976   1.253  11.548 -2.2359  0.7350 -0.2425
 5734SOL    HW228839   3.037   1.225  11.679  0.4129 -0.0511 -1.9914
 5735SOL     OW28840   1.659   0.015   5.253 -0.3118  0.3807  0.9020
 5735SOL    HW128841   1.676   4.690   5.324  0.0818 -1.1397 -0.5078
 5735SOL    HW228842   1.566   0.036   5.258 -0.9526 -2.3335  0.2890
 5736SOL     OW28843   1.784   2.901   9.439 -0.4038 -0.0243 -0.0230
 5736SOL    HW128844   1.786   2.956   9.361 -3.0098 -1.5637 -1.1879
 5736SOL    HW228845   1.853   2.935   9.496 -1.0863 -1.5703  1.7319
 5737SOL     OW28846   2.330   2.193   0.955 -0.1112  1.3330 -0.3320
 5737SOL    HW128847   2.271   2.263   0.928 -0.3372  1.3357  0.1765
 5737SOL    HW228848   2.292   2.185   1.042 -1.3029 -0.0521 -0.9906
 5738SOL     OW28849   2.851   4.529  12.422  0.1975 -0.6173 -0.0904
 5738SOL    HW128850   2.901   4.592  12.370  0.0024  0.6026  1.1696
 5738SOL    HW228851   2.822   4.479  12.346 -1.3357 -0.8946  0.6722
 5739SOL     OW28852   0.534   0.728   5.134 -0.3340 -0.7951 -0.1033
 5739SOL    HW128853   0.561   0.814   5.167 -0.4916 -1.4479  1.7416
 5739SOL    HW228854   0.454   0.751   5.087 -0.1722  0.7472  0.3730
 5740SOL     OW28855   2.704   0.675   3.685  0.2269 -0.1917 -0.2792
 5740SOL    HW128856   2.649   0.681   3.607  1.4553  0.9746 -1.0452
 5740SOL    HW228857   2.652   0.716   3.753 -1.1087 -0.9219 -0.8717
 5741SOL     OW28858   4.233   0.455   7.233 -0.1537  0.5582 -0.0522
 5741SOL    HW128859   4.157   0.439   7.178 -0.8452 -1.3658  1.4364
 5741SOL    HW228860   4.240   0.550   7.238 -2.0706  0.6720  0.4332
 5742SOL     OW28861   4.724   1.633   4.359 -0.4492  0.3090  0.0024
 5742SOL    HW128862   0.061   1.576   4.379 -1.0127 -1.1243 -1.9746
 5742SOL    HW228863   4.644   1.585   4.381  0.1324 -0.9725 -0.7047
 5743SOL     OW28864   0.009   2.118   0.649  0.2494 -0.2272  0.0782
 5743SOL    HW128865   4.727   2.194   0.704  1.6491  0.5298 -0.5140
 5743SOL    HW228866   0.103   2.126   0.635  0.5984 -2.8318  0.9023
 5744SOL     OW28867   0.469   0.272  15.017 -0.2415 -0.5559 -0.0281
 5744SOL    HW128868   0.395   0.327  15.043 -2.3259 -3.1673 -0.4289
 5744SOL    HW228869   0.496   0.226  15.097 -0.2138 -2.5999 -1.2181
 5745SOL     OW28870   0.286   4.178   2.856  0.6649  0.1024  0.0905
 5745SOL    HW128871   0.226   4.204   2.787  1.1542  2.3230  0.4996
 5745SOL    HW228872   0.356   4.231   2.819  0.6535  0.4269  0.5288
 5746SOL     OW28873   4.573   2.801   6.460  0.3545  0.0309  0.8964
 5746SOL    HW128874   4.571   2.707   6.443  4.4740 -0.0289  0.6956
 5746SOL    HW228875   4.500   2.815   6.520 -2.1356 -1.3430 -1.7987
 5747SOL     OW28876   2.468   3.304   2.962 -0.2654  0.1167 -0.1382
 5747SOL    HW128877   2.518   3.223   2.969  1.1888  1.0500  0.1337
 5747SOL    HW228878   2.379   3.271   2.953 -0.7874  1.6318 -0.5851
 5748SOL     OW28879   1.282   1.589   4.726  0.2588 -0.2978 -0.3433
 5748SOL    HW128880   1.192   1.562   4.708 -0.0780  0.9743 -0.5766
 5748SOL    HW228881   1.331   1.509   4.744  0.3800 -0.0967  0.2339
 5749SOL     OW28882   4.474   1.904   3.332 -0.1390  0.6061 -0.4473
 5749SOL    HW128883   4.475   1.817   3.292 -1.3310 -0.3383  1.5700
 5749SOL    HW228884   4.567   1.917   3.348 -0.0164  1.0880 -1.5335
 5750SOL     OW28885   1.973   1.564   7.782  0.0475  0.4919  0.3193
 5750SOL    HW128886   1.879   1.560   7.797 -0.5369 -1.3115 -3.8336
 5750SOL    HW228887   2.008   1.587   7.869 -1.2755 -0.6092  1.1408
 5751SOL     OW28888   1.042   0.913   3.210 -0.2420  0.1428  1.0689
 5751SOL    HW128889   1.041   0.905   3.115  0.4825  0.8198  1.0128
 5751SOL    HW228890   1.130   0.876   3.219  0.4412  1.5931  0.3319
 5752SOL     OW28891   4.392   0.580  15.739 -0.1387 -0.0263 -0.1868
 5752SOL    HW128892   4.450   0.595  15.814 -2.1281  2.4090  0.8394
 5752SOL    HW228893   4.315   0.534  15.773  0.3256 -1.7678 -1.5109
 5753SOL     OW28894   3.602   2.289   3.972  0.4954  0.6397 -0.4369
 5753SOL    HW128895   3.658   2.218   3.941  1.8396  1.8801 -0.8492
 5753SOL    HW228896   3.570   2.338   3.896  0.4890  1.4524  0.0908
 5754SOL     OW28897   4.170   0.983   2.974 -0.0764  0.8782  0.4587
 5754SOL    HW128898   4.125   0.967   2.891 -0.7473  1.0751  0.7842
 5754SOL    HW228899   4.141   0.901   3.015  1.0762  0.9818  1.4902
 5755SOL     OW28900   3.437   2.820   3.514 -0.4791  0.4088  0.1562
 5755SOL    HW128901   3.460   2.842   3.423 -1.3471 -0.6684 -0.3203
 5755SOL    HW228902   3.513   2.861   3.557 -0.1107  0.5787 -0.6491
 5756SOL     OW28903   3.491   2.444   9.902 -0.1312  0.6039 -1.0169
 5756SOL    HW128904   3.465   2.459   9.993  0.2031 -2.0844 -0.4621
 5756SOL    HW228905   3.532   2.358   9.904 -0.7318  0.3914  2.0678
 5757SOL     OW28906   2.604   3.757   4.310 -0.8342 -0.0375  0.5978
 5757SOL    HW128907   2.606   3.691   4.241  0.5824  0.5686  0.0518
 5757SOL    HW228908   2.558   3.715   4.382  0.4567 -0.9764  0.8753
 5758SOL     OW28909   1.986   3.177  12.234  0.0480 -0.8581 -0.7330
 5758SOL    HW128910   1.969   3.251  12.175  1.2809 -2.3720 -3.0110
 5758SOL    HW228911   2.044   3.224  12.294 -1.2143  3.2084 -2.6904
 5759SOL     OW28912   3.519   1.333  16.042  0.0352 -0.1059 -0.0920
 5759SOL    HW128913   3.600   1.323  16.091 -1.0507 -0.0376  1.6902
 5759SOL    HW228914   3.449   1.361  16.101 -0.9810  0.8312 -1.7329
 5760SOL     OW28915   3.679   0.384   5.843  0.6846 -0.1228 -0.3968
 5760SOL    HW128916   3.730   0.434   5.780  1.4609  0.9508  1.0726
 5760SOL    HW228917   3.682   0.294   5.810  0.9130  0.2508 -1.3850
 5761SOL     OW28918   4.661   0.459   2.801 -0.3062  0.7622  0.3646
 5761SOL    HW128919   4.661   0.485   2.709  4.1979  0.6434  0.3281
 5761SOL    HW228920   4.596   0.390   2.790  0.0550  0.4553  0.1634
 5762SOL     OW28921   0.782   2.299   4.022 -0.1109 -0.0371 -0.2193
 5762SOL    HW128922   0.765   2.268   3.933  0.1346 -0.5695 -0.0840
 5762SOL    HW228923   0.873   2.271   4.023 -1.0825 -3.1363  3.2302
 5763SOL     OW28924   0.735   2.805   0.223 -0.6649  0.1733  0.5746
 5763SOL    HW128925   0.742   2.859   0.302 -2.2312  0.9642  0.1775
 5763SOL    HW228926   0.695   2.731   0.269  1.1359  0.6954  2.9883
 5764SOL     OW28927   2.707   4.453   6.753 -0.5821 -0.4824  0.5152
 5764SOL    HW128928   2.755   4.395   6.812  1.3779  0.6556  0.0171
 5764SOL    HW228929   2.661   4.393   6.694  0.0983  1.2745 -1.7994
 5765SOL     OW28930   4.357   4.722  16.011 -0.6433  0.3354 -0.3634
 5765SOL    HW128931   4.277   0.036  15.992 -1.1077 -0.6899 -1.1401
 5765SOL    HW228932   4.420   0.057  16.003 -0.9398  0.6359 -0.0096
 5766SOL     OW28933   3.410   1.262   8.729 -0.4292 -0.2839  0.7611
 5766SOL    HW128934   3.405   1.309   8.812 -0.5767  0.4113  0.3492
 5766SOL    HW228935   3.504   1.267   8.712 -0.6050 -1.0414 -0.4574
 5767SOL     OW28936   4.553   4.305   4.619 -0.4840 -0.2895  0.3600
 5767SOL    HW128937   4.560   4.224   4.670 -1.2509 -0.4245  0.2434
 5767SOL    HW228938   4.645   4.326   4.602 -0.6975 -0.5480 -1.0721
 5768SOL     OW28939   4.148   1.887  15.803 -0.0810  0.0457  0.1331
 5768SOL    HW128940   4.128   1.860  15.713 -2.2040 -0.0112  0.6168
 5768SOL    HW228941   4.064   1.895  15.849  1.3530 -0.7979  2.8919
 5769SOL     OW28942   4.322   3.297   0.494  0.4860 -0.1869  0.0805
 5769SOL    HW128943   4.373   3.217   0.491  0.8905  0.0994 -0.7201
 5769SOL    HW228944   4.396   3.358   0.491  0.1813  0.2065  0.4474
 5770SOL     OW28945   2.873   2.478   5.078  0.0011 -0.1209 -0.1152
 5770SOL    HW128946   2.796   2.448   5.126 -0.3521  0.4627 -0.3222
 5770SOL    HW228947   2.923   2.396   5.076  1.9741  1.0807 -0.1909
 5771SOL     OW28948   4.116   3.193  10.371  0.3658 -0.1281  0.2782
 5771SOL    HW128949   4.206   3.224  10.386 -0.0990  1.2431  0.2280
 5771SOL    HW228950   4.070   3.205  10.454  1.5252 -1.5271  1.1241
 5772SOL     OW28951   1.574   2.492   5.831 -0.1308  0.1029  0.4036
 5772SOL    HW128952   1.517   2.432   5.783  0.5336  0.9514 -1.4186
 5772SOL    HW228953   1.613   2.433   5.896  3.0024  0.0541 -1.5172
 5773SOL     OW28954   0.039   3.517   3.216 -0.0427  0.0084 -0.2282
 5773SOL    HW128955   0.027   3.464   3.294 -1.2927 -1.0870 -1.1594
 5773SOL    HW228956   4.687   3.543   3.192 -0.4902  0.2859  1.7498
 5774SOL     OW28957   4.682   2.019   6.018 -0.0662  0.4421  0.0786
 5774SOL    HW128958   4.718   2.037   6.104  0.8137 -0.0679 -0.1806
 5774SOL    HW228959   0.028   2.017   5.969 -0.0909 -0.4625  0.0835
 5775SOL     OW28960   0.817   4.635   8.441 -0.3587 -0.3137  0.2771
 5775SOL    HW128961   0.818   4.550   8.396 -1.1986 -0.0393 -0.2540
 5775SOL    HW228962   0.744   4.678   8.396  1.0079  1.5868 -0.1102
 5776SOL     OW28963   0.328   1.322   1.787  0.0930 -0.5716  0.7039
 5776SOL    HW128964   0.356   1.233   1.811 -2.0034 -0.5332  3.2238
 5776SOL    HW228965   0.286   1.357   1.865  0.6256  0.1362  0.6779
 5777SOL     OW28966   0.461   2.524   7.718 -0.4061 -0.6349  0.2224
 5777SOL    HW128967   0.533   2.488   7.770  1.0281 -0.8755 -1.9044
 5777SOL    HW228968   0.464   2.617   7.739  0.4838 -0.6521  0.1865
 5778SOL     OW28969   1.190   4.351   3.348 -0.3975 -0.0333 -0.6392
 5778SOL    HW128970   1.156   4.335   3.260 -0.0043  1.4023 -1.0428
 5778SOL    HW228971   1.121   4.307   3.398 -0.8896  1.5465  0.0696
 5779SOL     OW28972   0.130   0.396   2.952 -0.4343  0.4535 -0.1635
 5779SOL    HW128973   0.064   0.445   2.903  0.3624  0.8982 -0.7650
 5779SOL    HW228974   0.107   0.304   2.936  1.4052  0.2227 -1.4397
 5780SOL     OW28975   0.081   3.741   8.908 -0.1110  0.4480 -0.4792
 5780SOL    HW128976   0.030   3.699   8.978 -2.1326  2.2805 -0.8451
 5780SOL    HW228977   0.142   3.800   8.952  1.3051 -1.7825  0.5999
 5781SOL     OW28978   3.602   0.821   4.176 -0.2200 -0.3997  0.4813
 5781SOL    HW128979   3.622   0.748   4.117  2.8309 -0.3809  1.4752
 5781SOL    HW228980   3.508   0.832   4.162  0.1540  2.2263 -0.0377
 5782SOL     OW28981   3.246   3.041   8.674  0.2479 -0.6989 -0.0491
 5782SOL    HW128982   3.259   3.136   8.676  0.5632 -0.7500  0.3859
 5782SOL    HW228983   3.152   3.035   8.691  0.1528 -2.0823 -1.0970
 5783SOL     OW28984   0.049   0.710   4.773 -0.5419 -0.3407  0.1258
 5783SOL    HW128985   0.108   0.639   4.797  0.3996 -0.6045 -3.0026
 5783SOL    HW228986   4.700   0.678   4.801  0.4183 -1.1709  2.1617
 5784SOL     OW28987   3.447   1.140   7.745 -0.0109  0.1368  0.3036
 5784SOL    HW128988   3.485   1.053   7.754  2.3942  1.2079  0.5311
 5784SOL    HW228989   3.458   1.169   7.654 -0.5577  0.9034  0.4757
 5785SOL     OW28990   4.698   0.580   7.606  0.2182 -0.2134  0.0973
 5785SOL    HW128991   0.026   0.639   7.566 -0.1372 -0.1437 -0.3637
 5785SOL    HW228992   0.008   0.506   7.645 -2.1519 -0.9999  1.4139
 5786SOL     OW28993   3.139   0.794   6.119 -0.2140  0.7713  0.3325
 5786SOL    HW128994   3.228   0.808   6.152 -0.3793  0.7275  0.8003
 5786SOL    HW228995   3.103   0.876   6.153 -2.1037  1.3303 -2.9901
 5787SOL     OW28996   1.733   0.938   6.269  0.0079  0.1668  0.3677
 5787SOL    HW128997   1.721   0.966   6.178 -0.0942  1.0659  0.6599
 5787SOL    HW228998   1.656   0.973   6.312 -1.1198 -1.6606 -0.1601
 5788SOL     OW28999   4.656   1.880   6.469 -0.7255 -0.0880 -0.4982
 5788SOL    HW129000   4.658   1.976   6.464 -0.0533 -0.1395 -1.1918
 5788SOL    HW229001   4.672   1.865   6.562  1.1624 -1.7688 -1.1074
 5789SOL     OW29002   4.382   0.802   1.756 -0.1412  0.8958  0.4292
 5789SOL    HW129003   4.473   0.830   1.767  0.7502 -0.5745 -3.2086
 5789SOL    HW229004   4.382   0.768   1.666  1.5717  0.8676  0.4366
 5790SOL     OW29005   4.256   0.012   3.200 -0.3531 -0.1789 -0.1307
 5790SOL    HW129006   4.256   4.658   3.168 -0.2248 -0.3816  0.4338
 5790SOL    HW229007   4.327   0.004   3.263  0.0787 -0.6831 -0.6899
 5791SOL     OW29008   1.742   1.892   1.786 -0.5517 -0.1122 -0.8116
 5791SOL    HW129009   1.717   1.974   1.829 -2.2525 -1.1318  0.1209
 5791SOL    HW229010   1.671   1.830   1.802 -0.0767  0.2067  2.5261
 5792SOL     OW29011   1.021   0.657   9.731 -0.1209  0.3606  0.2474
 5792SOL    HW129012   0.952   0.696   9.785  1.4186  2.4609  0.6898
 5792SOL    HW229013   0.987   0.654   9.641  4.0878 -1.3746 -1.2864
 5793SOL     OW29014   3.387   3.342   1.156  0.4979 -0.0569  0.0327
 5793SOL    HW129015   3.318   3.279   1.175 -0.3012  0.8976  0.3116
 5793SOL    HW229016   3.407   3.312   1.068 -0.1237  1.3526 -0.6000
 5794SOL     OW29017   4.693   3.435   8.299  0.1117  1.0727 -0.0939
 5794SOL    HW129018   0.049   3.451   8.316  0.9694 -2.5361 -1.3662
 5794SOL    HW229019   4.654   3.433   8.387  0.8467  0.7974  0.2311
 5795SOL     OW29020   4.564   2.571   3.718  0.3327 -0.4446  0.2679
 5795SOL    HW129021   4.542   2.572   3.625 -0.5348  1.9515  0.5024
 5795SOL    HW229022   4.660   2.574   3.713  0.2236 -0.5214 -1.7043
 5796SOL     OW29023   0.217   2.042   3.874  0.1538 -0.4545 -0.1145
 5796SOL    HW129024   0.168   2.027   3.793 -0.2946 -0.6330  0.1934
 5796SOL    HW229025   0.179   1.982   3.938  1.7640  0.2886  1.5148
 5797SOL     OW29026   1.749   2.050   1.500 -0.2373  0.1245 -0.1480
 5797SOL    HW129027   1.772   1.975   1.445  1.5542 -0.3306  1.2716
 5797SOL    HW229028   1.707   1.997   1.567  0.6888 -0.2770  0.0976
 5798SOL     OW29029   3.309   3.721   9.625  0.3110 -0.2877  0.2571
 5798SOL    HW129030   3.303   3.732   9.530 -0.3782  1.1253  0.4779
 5798SOL    HW229031   3.223   3.753   9.651  1.2951  0.0960  3.0542
 5799SOL     OW29032   3.156   2.082   0.545 -0.0997  0.3914  0.8017
 5799SOL    HW129033   3.192   2.102   0.631 -0.7137  2.2692  0.6168
 5799SOL    HW229034   3.117   1.995   0.550  0.1669  0.2533  0.5404
 5800SOL     OW29035   2.523   0.244   9.820  0.7324 -0.3853  0.0230
 5800SOL    HW129036   2.541   0.327   9.776  2.4453 -0.3985  0.7263
 5800SOL    HW229037   2.592   0.246   9.886  1.1747 -1.4462 -0.4237
 5801SOL     OW29038   0.801   1.074   3.289  0.1210 -0.3795 -0.3313
 5801SOL    HW129039   0.815   1.139   3.220  0.8470  0.3951  0.5424
 5801SOL    HW229040   0.883   1.027   3.274 -0.5999 -1.3764 -1.1370
 5802SOL     OW29041   0.330   0.342   7.029 -0.9851 -0.1810 -0.1365
 5802SOL    HW129042   0.349   0.300   7.113  0.8863  0.5505 -0.1956
 5802SOL    HW229043   0.269   0.411   7.056 -1.5300 -0.6150 -0.2586
 5803SOL     OW29044   2.230   0.815   1.724  0.2418  0.0922  0.1009
 5803SOL    HW129045   2.205   0.821   1.816  0.2382 -0.9214  0.1630
 5803SOL    HW229046   2.152   0.834   1.671  0.7074 -1.3082 -1.0996
 5804SOL     OW29047   1.856   3.377   7.187 -0.1695  0.4182 -0.5208
 5804SOL    HW129048   1.857   3.330   7.271 -1.3648 -2.3337 -2.0624
 5804SOL    HW229049   1.946   3.410   7.183 -0.4618  1.1498 -1.1665
 5805SOL     OW29050   2.497   0.683  12.945 -0.2609 -0.5824 -1.1208
 5805SOL    HW129051   2.480   0.633  12.865  0.2912 -1.4853 -0.6773
 5805SOL    HW229052   2.514   0.773  12.919  0.7623 -0.6852 -0.8189
 5806SOL     OW29053   2.164   0.030   5.581  0.7415 -0.1452  0.8665
 5806SOL    HW129054   2.229   0.097   5.601 -0.6022  1.1762  0.7890
 5806SOL    HW229055   2.220   4.696   5.548  1.0685  0.2851  0.5010
 5807SOL     OW29056   3.059   3.217   1.636  0.2399  0.1749  0.0015
 5807SOL    HW129057   3.017   3.294   1.598 -2.3824 -0.4973  1.5452
 5807SOL    HW229058   3.012   3.149   1.588  0.1685 -0.6329  1.2243
 5808SOL     OW29059   3.778   4.705   4.049  0.1958  0.0929  0.0920
 5808SOL    HW129060   3.782   4.645   4.124 -4.7822 -0.0780  0.2348
 5808SOL    HW229061   3.686   4.729   4.044 -0.0199 -1.2753 -2.3655
 5809SOL     OW29062   3.361   3.708   5.899  0.3230 -0.8732  0.5048
 5809SOL    HW129063   3.329   3.637   5.954 -1.6219  0.7472  1.4709
 5809SOL    HW229064   3.438   3.743   5.946  1.2421 -2.4645  0.1914
 5810SOL     OW29065   2.668   0.696  14.832 -0.3261 -0.3178  0.0026
 5810SOL    HW129066   2.671   0.632  14.761 -3.0378  0.0606 -0.4595
 5810SOL    HW229067   2.658   0.636  14.906 -0.9171 -1.9151 -1.3766
 5811SOL     OW29068   0.757   1.378  13.236  0.1538  0.5496  0.3715
 5811SOL    HW129069   0.749   1.366  13.331  0.7077  1.8929  0.5953
 5811SOL    HW229070   0.787   1.292  13.207 -1.6213 -0.4449  1.4902
 5812SOL     OW29071   3.784   1.250   8.403  0.0720  0.1209  0.6862
 5812SOL    HW129072   3.832   1.319   8.449 -0.6341  0.4274  0.9629
 5812SOL    HW229073   3.725   1.298   8.344  1.4610  0.2720 -0.5984
 5813SOL     OW29074   0.161   1.533   5.945 -0.2063  0.4897  0.5418
 5813SOL    HW129075   0.081   1.486   5.972  0.1920 -0.3255  0.2986
 5813SOL    HW229076   0.150   1.620   5.983 -0.6357  0.4253  0.5748
 5814SOL     OW29077   1.967   1.746   2.814 -0.2000 -0.2394  0.1491
 5814SOL    HW129078   2.013   1.737   2.731 -1.8957 -1.0183 -0.7043
 5814SOL    HW229079   1.886   1.794   2.796 -0.8149 -0.1045  3.2348
 5815SOL     OW29080   2.449   4.507   4.973  0.4249 -0.1686  0.2956
 5815SOL    HW129081   2.540   4.479   4.974  0.5609  0.1977 -2.1213
 5815SOL    HW229082   2.445   4.562   4.895 -0.7894 -1.2171 -0.3845
 5816SOL     OW29083   3.311   3.989   7.731 -0.2956 -0.2572  0.2163
 5816SOL    HW129084   3.255   3.912   7.729  0.3750 -0.7299 -0.0472
 5816SOL    HW229085   3.287   4.033   7.813  0.3084  1.5993 -0.5934
 5817SOL     OW29086   2.883   1.802   3.184  0.0802 -0.2977  0.3085
 5817SOL    HW129087   2.900   1.792   3.277  0.6887  1.8293  0.4236
 5817SOL    HW229088   2.970   1.796   3.143 -1.1808 -2.9257 -2.0365
 5818SOL     OW29089   2.999   1.062   9.198  0.8027  0.0271 -0.2624
 5818SOL    HW129090   2.936   1.030   9.263 -0.4564  0.3593 -1.3173
 5818SOL    HW229091   2.969   1.148   9.168  0.8463  0.0330 -0.2890
 5819SOL     OW29092   2.282   4.473   2.838  0.0586  0.2106  0.6595
 5819SOL    HW129093   2.282   4.562   2.872 -0.7004  1.3220 -2.1853
 5819SOL    HW229094   2.324   4.483   2.752 -1.3576  2.0076  0.1705
 5820SOL     OW29095   0.445   3.010  16.161 -0.1588 -0.3241 -0.6135
 5820SOL    HW129096   0.513   3.025  16.095 -1.3874 -1.3113 -2.1141
 5820SOL    HW229097   0.447   3.100  16.191  1.2397  0.5586 -3.3917
 5821SOL     OW29098   4.495   3.386   5.111 -0.1720  0.3348 -0.7381
 5821SOL    HW129099   4.553   3.404   5.185  2.6254 -2.7865 -2.1772
 5821SOL    HW229100   4.411   3.388   5.157  0.0915 -2.8034 -0.1005
 5822SOL     OW29101   2.927   3.662   4.284 -0.2798  0.6408  0.0505
 5822SOL    HW129102   2.962   3.680   4.197 -2.6297  1.0979 -0.8008
 5822SOL    HW229103   2.841   3.697   4.264  0.6414  1.9046 -1.7190
 5823SOL     OW29104   2.433   2.249   1.395  1.0718 -0.6586  0.8336
 5823SOL    HW129105   2.499   2.229   1.329 -0.3612 -0.7214 -0.5895
 5823SOL    HW229106   2.434   2.345   1.402  0.3185 -0.5381 -0.6705
 5824SOL     OW29107   1.925   1.445  10.327 -0.0963 -0.6652 -0.6400
 5824SOL    HW129108   2.016   1.435  10.301  0.0585 -1.2265  0.1317
 5824SOL    HW229109   1.885   1.490  10.253 -2.3472 -1.6907 -0.0395
 5825SOL     OW29110   1.528   3.104   6.043  0.6863  0.2738  0.6672
 5825SOL    HW129111   1.524   3.157   6.122 -2.0732  0.3988  0.4609
 5825SOL    HW229112   1.436   3.078   6.038  1.2602 -1.2066 -2.6289
 5826SOL     OW29113   0.964   2.171  13.713 -0.0674 -0.3450 -0.1995
 5826SOL    HW129114   0.917   2.227  13.651  0.3413 -1.3622 -1.4289
 5826SOL    HW229115   1.058   2.178  13.694 -0.1978 -0.0881 -0.7659
 5827SOL     OW29116   3.128   1.010  12.411 -0.3895 -0.3154 -0.0406
 5827SOL    HW129117   3.155   0.979  12.497 -1.5962 -0.8216  0.1500
 5827SOL    HW229118   3.158   1.101  12.422 -0.4828 -0.0385 -2.1782
 5828SOL     OW29119   4.674   2.552   5.437 -1.0248  0.1623 -0.4943
 5828SOL    HW129120   4.624   2.533   5.516  1.2731 -0.8652  0.6819
 5828SOL    HW229121   0.026   2.523   5.459 -0.5039  1.0106 -1.4637
 5829SOL     OW29122   4.400   2.515  14.389 -0.7713  0.1755 -0.2827
 5829SOL    HW129123   4.308   2.511  14.363 -0.3776  0.0810 -1.6750
 5829SOL    HW229124   4.408   2.593  14.444 -1.2819 -0.8144  1.1998
 5830SOL     OW29125   1.977   0.428  13.592 -0.2881  0.9545 -0.5301
 5830SOL    HW129126   2.042   0.358  13.588 -0.6879  0.6719 -1.9692
 5830SOL    HW229127   1.993   0.474  13.510  0.7679  0.8904 -0.3545
 5831SOL     OW29128   2.098   4.672   4.986  0.0443  0.0512  0.0156
 5831SOL    HW129129   2.177   4.720   5.008 -1.6483  3.2220 -0.8441
 5831SOL    HW229130   2.025   4.725   5.017 -1.1411 -1.8529  0.4847
 5832SOL     OW29131   0.134   1.003   6.958 -0.1767  0.3296  0.2704
 5832SOL    HW129132   0.124   1.007   6.863 -1.9270 -1.3854  0.3870
 5832SOL    HW229133   0.087   1.082   6.984  1.1452  1.6354 -1.3163
 5833SOL     OW29134   3.109   3.095   7.558 -0.1150 -0.2682  0.0595
 5833SOL    HW129135   3.021   3.060   7.570  0.1581 -1.3310 -1.0856
 5833SOL    HW229136   3.147   3.036   7.493  1.9876 -0.8530  1.8236
 5834SOL     OW29137   0.662   1.091   8.419 -0.1543  0.3030 -0.1202
 5834SOL    HW129138   0.751   1.077   8.453 -0.0348  0.8243 -0.2199
 5834SOL    HW229139   0.623   1.138   8.493  0.4601 -1.5634  1.4178
 5835SOL     OW29140   0.743   0.369  12.108 -0.4848 -0.3798  0.5096
 5835SOL    HW129141   0.759   0.413  12.191  1.8605 -0.8897  0.3245
 5835SOL    HW229142   0.750   0.279  12.139  0.7184 -0.4721  0.0033
 5836SOL     OW29143   1.631   3.520   2.911  0.3507  0.2442  0.1621
 5836SOL    HW129144   1.638   3.467   2.831  0.5081 -2.2110  1.8049
 5836SOL    HW229145   1.539   3.546   2.906  0.4392  0.4900 -0.1708
 5837SOL     OW29146   1.235   2.386   4.109  0.2490  0.3161 -0.3016
 5837SOL    HW129147   1.205   2.476   4.092 -1.1125 -0.2532 -0.8948
 5837SOL    HW229148   1.153   2.336   4.104  1.6013 -1.7698 -1.4141
 5838SOL     OW29149   0.137   0.932   2.391  0.4757 -0.3171 -0.5187
 5838SOL    HW129150   0.169   0.842   2.402  3.8028  1.1096  1.3834
 5838SOL    HW229151   0.198   0.959   2.323  1.1953  1.2420  0.7483
 5839SOL     OW29152   3.907   4.361  13.797  0.0993  1.1473  0.4625
 5839SOL    HW129153   3.966   4.336  13.725 -1.6479  2.4976 -1.4014
 5839SOL    HW229154   3.936   4.316  13.877  0.7378  3.4167  1.5008
 5840SOL     OW29155   2.082   3.737   6.604  0.0807  0.0360  0.0121
 5840SOL    HW129156   2.108   3.695   6.686  0.6030 -1.4963 -0.9491
 5840SOL    HW229157   2.101   3.669   6.540 -2.8254 -1.9939  1.2992
 5841SOL     OW29158   0.446   0.659   1.413 -0.2683  0.1321  0.6664
 5841SOL    HW129159   0.521   0.685   1.467 -1.2207  2.7886  0.7085
 5841SOL    HW229160   0.436   0.731   1.351 -0.2264  0.1054  0.6287
 5842SOL     OW29161   2.815   1.619   5.751  0.6641  0.2027  0.3021
 5842SOL    HW129162   2.862   1.702   5.761 -0.1778  0.9557 -1.9080
 5842SOL    HW229163   2.740   1.633   5.809  2.4269  0.0881  2.5711
 5843SOL     OW29164   3.293   2.129   9.858 -0.7205 -0.1273 -0.0396
 5843SOL    HW129165   3.262   2.138   9.948 -1.1058  0.0484 -0.1873
 5843SOL    HW229166   3.373   2.082   9.881 -0.9440  0.0142  1.0319
 5844SOL     OW29167   2.128   1.788   7.590 -0.0009  0.0118 -0.7271
 5844SOL    HW129168   2.100   1.696   7.594 -1.0054  0.3013 -0.9996
 5844SOL    HW229169   2.194   1.779   7.660 -0.4591  1.9276 -0.0736
 5845SOL     OW29170   0.975   1.836  15.536  0.4054  0.2728 -0.6795
 5845SOL    HW129171   0.921   1.764  15.503 -0.1064 -1.7720  4.5466
 5845SOL    HW229172   1.049   1.820  15.478  0.3697  0.2392 -0.7154
 5846SOL     OW29173   3.623   0.904   5.869 -0.2596  0.3063 -0.2670
 5846SOL    HW129174   3.650   0.959   5.943  1.0528 -0.5375 -0.1332
 5846SOL    HW229175   3.708   0.906   5.827 -0.3128  2.9517 -0.2803
 5847SOL     OW29176   3.533   4.577  12.857  0.0757 -0.6536  0.1110
 5847SOL    HW129177   3.623   4.583  12.824 -0.5535  1.8503 -1.2091
 5847SOL    HW229178   3.519   4.670  12.876  2.5198 -0.1446 -0.6817
 5848SOL     OW29179   4.657   0.714   5.645  0.1325  0.4192  0.5223
 5848SOL    HW129180   4.694   0.797   5.675 -2.1326  1.0091  1.6741
 5848SOL    HW229181   4.649   0.670   5.729  0.0474  0.7580  0.6910
 5849SOL     OW29182   1.094   4.485   6.696  0.2117  0.1013 -0.0318
 5849SOL    HW129183   1.016   4.478   6.642  1.7655 -2.1763 -1.9526
 5849SOL    HW229184   1.061   4.438   6.773  0.8246 -1.1399 -0.5434
 5850SOL     OW29185   3.680   3.326   2.050  0.2676  0.8325  0.6151
 5850SOL    HW129186   3.753   3.368   2.005  2.4240 -3.4073  0.1465
 5850SOL    HW229187   3.691   3.368   2.135  1.2809 -0.7980  1.2740
 5851SOL     OW29188   2.591   2.760  11.196  0.6641 -0.2603  0.1563
 5851SOL    HW129189   2.575   2.787  11.286 -1.6291  1.0969 -0.6618
 5851SOL    HW229190   2.508   2.779  11.152  2.0886  0.9913 -1.9739
 5852SOL     OW29191   0.892   2.510  11.623  0.2733 -0.1071 -0.0374
 5852SOL    HW129192   0.877   2.478  11.534 -1.9016  0.1724  0.2214
 5852SOL    HW229193   0.955   2.577  11.598 -1.1416  0.1185 -3.0475
 5853SOL     OW29194   3.881   2.496   2.166 -0.5642  0.4304 -0.2148
 5853SOL    HW129195   3.953   2.496   2.103 -0.4903  0.5022 -0.1307
 5853SOL    HW229196   3.921   2.504   2.253  0.5454 -0.5780 -0.6211
 5854SOL     OW29197   4.546   0.575   5.874 -0.4652  0.0086 -0.2546
 5854SOL    HW129198   4.602   0.547   5.948  0.3034  0.0987 -0.8030
 5854SOL    HW229199   4.485   0.628   5.924 -0.6201 -0.4368  0.0351
 5855SOL     OW29200   0.338   0.453   8.179 -0.0654 -0.0919 -0.3098
 5855SOL    HW129201   0.286   0.383   8.139 -1.3715 -0.3694  1.9083
 5855SOL    HW229202   0.313   0.522   8.117  0.3836  1.1418  0.9010
 5856SOL     OW29203   4.184   3.889   4.517  0.1329  0.1687  0.2943
 5856SOL    HW129204   4.150   3.800   4.519 -2.3165  1.0351 -2.5566
 5856SOL    HW229205   4.255   3.895   4.455  2.8171 -2.3541  3.1498
 5857SOL     OW29206   4.682   2.795   4.062  0.0755  0.9796 -0.3722
 5857SOL    HW129207   4.664   2.881   4.023  2.8048  2.0556  0.7263
 5857SOL    HW229208   0.033   2.822   4.090  0.4764 -0.7669  0.0537
 5858SOL     OW29209   4.401   2.381   4.435 -0.5222  0.4183  0.7951
 5858SOL    HW129210   4.497   2.378   4.432 -0.5360  1.3461 -0.4856
 5858SOL    HW229211   4.382   2.318   4.365  1.8524 -0.4450  0.9350
 5859SOL     OW29212   4.320   3.268   6.812  0.1168 -0.2916  0.2702
 5859SOL    HW129213   4.270   3.349   6.822 -0.3370 -0.5175 -0.1778
 5859SOL    HW229214   4.410   3.289   6.838  0.4376  0.7651 -1.6213
 5860SOL     OW29215   0.784   4.545   1.878  0.1744 -0.2342  0.1768
 5860SOL    HW129216   0.762   4.480   1.811  1.6779  1.6487 -2.1533
 5860SOL    HW229217   0.872   4.512   1.893  0.4580  0.8839  0.9019
 5861SOL     OW29218   1.773   2.809  13.181  0.4990 -0.1194  0.2722
 5861SOL    HW129219   1.802   2.851  13.100  1.1325 -0.6676  0.2199
 5861SOL    HW229220   1.837   2.738  13.182  0.6692  0.0048 -1.7861
 5862SOL     OW29221   3.698   3.491  12.226 -0.7443 -0.0338 -0.3583
 5862SOL    HW129222   3.763   3.422  12.231 -1.7397 -0.8728  0.9782
 5862SOL    HW229223   3.726   3.523  12.140 -0.6945  0.1091 -0.2881
 5863SOL     OW29224   3.314   3.131   4.997 -0.5138  0.4053  0.0011
 5863SOL    HW129225   3.342   3.042   4.977 -0.8603  0.1265  0.7353
 5863SOL    HW229226   3.321   3.135   5.092 -0.4168 -0.4898  0.0295
 5864SOL     OW29227   0.948   4.431   7.354 -0.1648 -0.3874 -0.7758
 5864SOL    HW129228   0.884   4.379   7.306 -0.5559  0.2295 -0.9241
 5864SOL    HW229229   1.021   4.374   7.378  1.2450  1.7051 -0.1430
 5865SOL     OW29230   0.214   0.894   7.228 -0.4889 -0.2191  0.6080
 5865SOL    HW129231   0.149   0.890   7.158  0.0122 -0.9656  0.1887
 5865SOL    HW229232   0.183   0.959   7.291 -3.0137  0.1331 -1.0338
 5866SOL     OW29233   4.569   3.282   4.866  0.1889 -0.3374 -0.0367
 5866SOL    HW129234   4.546   3.311   4.955 -2.2281  0.7134 -1.0105
 5866SOL    HW229235   4.661   3.258   4.878  0.0960 -0.6863 -0.0281
 5867SOL     OW29236   1.869   0.592   6.594 -0.4618 -0.1166  0.3230
 5867SOL    HW129237   1.791   0.604   6.649  0.7578  1.0003  1.8132
 5867SOL    HW229238   1.876   0.675   6.546  2.2784 -1.9765 -2.5225
 5868SOL     OW29239   3.500   3.814   5.456 -0.0651 -0.3454 -0.1878
 5868SOL    HW129240   3.493   3.812   5.361 -0.6041 -0.6096 -0.1455
 5868SOL    HW229241   3.554   3.893   5.459  1.1709 -1.2826  2.0486
 5869SOL     OW29242   4.265   0.387   8.527 -0.0930  0.6824  0.1258
 5869SOL    HW129243   4.313   0.365   8.447 -1.2690 -1.2512 -0.0482
 5869SOL    HW229244   4.334   0.374   8.592  1.4417  1.3632 -1.3546
 5870SOL     OW29245   3.322   3.631   0.818  0.7249 -0.8610 -0.0325
 5870SOL    HW129246   3.279   3.712   0.790  2.8981  0.1863 -0.3042
 5870SOL    HW229247   3.319   3.575   0.741  0.7338  0.1700 -0.7699
 5871SOL     OW29248   4.623   1.492   0.725  0.2761  0.5335 -0.5543
 5871SOL    HW129249   4.637   1.568   0.781  0.5830 -0.8197  1.1613
 5871SOL    HW229250   4.693   1.438   0.760  0.1689  0.7759  0.0225
 5872SOL     OW29251   1.925   0.174   5.613 -0.5499  0.1519 -0.6271
 5872SOL    HW129252   2.010   0.131   5.612 -2.3064 -3.3870 -1.6224
 5872SOL    HW229253   1.875   0.118   5.672  1.0956  0.2709  0.8587
 5873SOL     OW29254   2.420   2.927  16.315 -0.3675 -0.3976  0.1524
 5873SOL    HW129255   2.479   3.002  16.304 -1.3139  0.3445  0.0512
 5873SOL    HW229256   2.338   2.968  16.285 -2.6237 -4.5700  0.5656
 5874SOL     OW29257   1.403   0.387  11.409  0.0515 -0.4834  1.0031
 5874SOL    HW129258   1.381   0.327  11.480 -0.5606 -0.3093  0.9594
 5874SOL    HW229259   1.321   0.427  11.382 -0.8502 -0.8910  3.1073
 5875SOL     OW29260   3.057   4.245   4.558  0.5664 -0.1716 -0.1263
 5875SOL    HW129261   3.111   4.286   4.490 -1.3806  0.0575 -1.5376
 5875SOL    HW229262   3.053   4.151   4.538 -1.7781  0.0997 -0.9246
 5876SOL     OW29263   1.827   1.935   4.053 -0.1339 -0.3250 -0.0818
 5876SOL    HW129264   1.850   2.027   4.071  0.1157 -0.6574  1.3235
 5876SOL    HW229265   1.844   1.923   3.959 -0.2066  1.2472 -0.3021
 5877SOL     OW29266   0.193   3.239  15.827 -0.1149 -0.3607  0.3032
 5877SOL    HW129267   0.239   3.244  15.911 -1.1791 -2.3056  0.9946
 5877SOL    HW229268   0.197   3.332  15.805 -1.5549  0.3941  3.1604
 5878SOL     OW29269   0.095   1.773   8.133  0.1920  0.1064  0.7754
 5878SOL    HW129270   0.074   1.862   8.161 -1.2011 -0.1644  0.5701
 5878SOL    HW229271   0.051   1.723   8.202 -1.1650 -1.2092 -1.0573
 5879SOL     OW29272   2.584   1.310   2.693  0.0857  0.0745  0.0652
 5879SOL    HW129273   2.610   1.378   2.632 -0.2658 -0.9520 -1.2327
 5879SOL    HW229274   2.648   1.325   2.762 -0.5151  3.9314 -0.2585
 5880SOL     OW29275   0.329   4.046   6.178 -0.4602  0.5963  0.3938
 5880SOL    HW129276   0.309   4.114   6.243  1.9316 -2.0235  3.8535
 5880SOL    HW229277   0.300   4.089   6.097  1.5637  2.0474  0.4408
 5881SOL     OW29278   0.256   1.047   4.309  0.7570  0.1518  0.0485
 5881SOL    HW129279   0.343   1.031   4.345  0.6961  1.3120  0.7388
 5881SOL    HW229280   0.209   1.075   4.388  0.2283  0.4571 -0.3733
 5882SOL     OW29281   3.839   1.590   4.352  0.0855  0.6337  0.0099
 5882SOL    HW129282   3.896   1.649   4.302 -1.2146  0.9375 -1.1128
 5882SOL    HW229283   3.908   1.531   4.380 -1.1754 -1.6468 -1.6901
 5883SOL     OW29284   3.615   2.058  15.074  0.0822  0.3077  0.5467
 5883SOL    HW129285   3.560   1.989  15.036  1.2333 -0.9182  1.1007
 5883SOL    HW229286   3.609   2.126  15.007  2.4359  1.6403  1.7160
 5884SOL     OW29287   2.553   0.022  13.628 -0.0524  0.4752  0.1696
 5884SOL    HW129288   2.569   4.706  13.707  1.6758  0.9658  0.1378
 5884SOL    HW229289   2.540   0.104  13.675 -0.0311  1.2799 -1.2201
 5885SOL     OW29290   0.783   0.600   7.725  0.1680  0.6169  0.1887
 5885SOL    HW129291   0.760   0.683   7.684 -4.2817  0.4589  2.4286
 5885SOL    HW229292   0.807   0.627   7.814  0.2512  0.7808  0.1160
 5886SOL     OW29293   1.472   3.265   5.794 -0.2681 -0.0445  0.6334
 5886SOL    HW129294   1.495   3.347   5.838  2.0715  0.7774 -2.0979
 5886SOL    HW229295   1.501   3.208   5.865  0.0469  1.9583  2.0969
 5887SOL     OW29296   3.661   2.731   1.515  0.4592 -0.0524  0.0783
 5887SOL    HW129297   3.720   2.746   1.589 -0.4376  0.6192  0.6526
 5887SOL    HW229298   3.623   2.819   1.509 -0.0505 -0.2272  0.7007
 5888SOL     OW29299   1.850   0.073   8.181 -0.8222 -0.0241 -0.8854
 5888SOL    HW129300   1.892   0.065   8.095  0.2013  1.2205 -0.4975
 5888SOL    HW229301   1.788   0.145   8.175 -0.3996  0.3573 -0.6805
 5889SOL     OW29302   3.949   0.715   9.113 -0.2956 -1.1133 -0.3083
 5889SOL    HW129303   3.899   0.748   9.037  4.2309 -1.7745 -3.5848
 5889SOL    HW229304   4.005   0.792   9.126 -0.2405 -1.3199  0.6186
 5890SOL     OW29305   1.176   4.016   6.813 -0.6668 -0.0757  0.4537
 5890SOL    HW129306   1.224   4.073   6.873  0.5284  0.4730 -1.0236
 5890SOL    HW229307   1.119   4.075   6.764 -0.0030  0.9868  0.9593
 5891SOL     OW29308   4.533   3.443   4.385 -0.3839  0.2747  0.4718
 5891SOL    HW129309   4.615   3.411   4.349 -2.5912 -3.6787 -1.0570
 5891SOL    HW229310   4.536   3.410   4.474  0.1679  1.3321  0.8492
 5892SOL     OW29311   3.815   4.017   5.405  0.6498 -0.4545 -0.1980
 5892SOL    HW129312   3.879   4.032   5.335 -0.4908  3.1803 -0.4472
 5892SOL    HW229313   3.869   3.954   5.453 -0.0515 -0.1031  1.0459
 5893SOL     OW29314   3.697   2.212   3.153 -0.0094  0.0716  0.2338
 5893SOL    HW129315   3.725   2.184   3.065  3.2992  1.5805  0.8058
 5893SOL    HW229316   3.777   2.234   3.202  1.1490 -1.6324 -0.8947
 5894SOL     OW29317   4.594   1.780   2.139 -0.5408  0.2535 -0.6016
 5894SOL    HW129318   4.664   1.786   2.074 -1.5313  2.5401 -1.4906
 5894SOL    HW229319   4.593   1.686   2.153 -1.6243  0.5085  1.0509
 5895SOL     OW29320   0.836   3.251   9.232 -0.3014 -0.3006  0.4165
 5895SOL    HW129321   0.860   3.265   9.140  0.1161  0.0953  0.5847
 5895SOL    HW229322   0.840   3.339   9.270 -0.4042  0.1461 -0.6145
 5896SOL     OW29323   0.861   3.380   7.013 -0.3624  0.0932  0.3448
 5896SOL    HW129324   0.846   3.286   7.003  2.2416 -0.4856  1.7366
 5896SOL    HW229325   0.921   3.390   6.939  0.0868 -0.6691  0.5973
 5897SOL     OW29326   1.700   3.894   8.100 -0.1467  0.7230  0.0571
 5897SOL    HW129327   1.657   3.835   8.163 -0.6443 -0.5779 -1.5168
 5897SOL    HW229328   1.744   3.951   8.164  0.1685  0.7651 -0.1977
 5898SOL     OW29329   3.665   0.937   6.958 -0.4072  0.3949 -0.4262
 5898SOL    HW129330   3.625   0.853   6.935 -1.1155  0.6867 -0.2454
 5898SOL    HW229331   3.590   0.975   7.003 -0.2548  0.0581  0.1080
 5899SOL     OW29332   1.385   4.613  16.537  0.3666  0.1579  0.6525
 5899SOL    HW129333   1.308   4.608  16.595 -0.6279  1.6161 -0.5411
 5899SOL    HW229334   1.404   4.705  16.520  0.0579  0.0257 -0.4227
 5900SOL     OW29335   3.864   3.704  17.193  0.4735 -0.0749  0.4916
 5900SOL    HW129336   3.886   3.656  17.273  0.4253 -1.4358 -0.3058
 5900SOL    HW229337   3.850   3.621  17.147  3.0029  0.5661 -1.4028
 5901SOL     OW29338   3.842   0.386   7.497 -0.0743 -0.8984  0.3112
 5901SOL    HW129339   3.923   0.436   7.502 -1.3065  0.9849  1.3879
 5901SOL    HW229340   3.781   0.455   7.524 -1.5779 -1.0229 -2.8495
 5902SOL     OW29341   3.770   2.149   2.810  0.0159  0.5455  0.4022
 5902SOL    HW129342   3.744   2.058   2.824  0.9573  0.1230 -0.6638
 5902SOL    HW229343   3.730   2.169   2.725 -1.3112  1.2388  1.1781
 5903SOL     OW29344   3.883   0.170   5.960 -0.3136 -0.1550  0.2190
 5903SOL    HW129345   3.900   0.085   6.000  1.8797 -0.0118 -0.4548
 5903SOL    HW229346   3.821   0.138   5.894 -1.6343 -0.3606  1.5590
 5904SOL     OW29347   4.472   0.116   0.794  0.3425 -0.4195  0.1473
 5904SOL    HW129348   4.443   0.201   0.826 -1.6197 -0.6631 -0.9686
 5904SOL    HW229349   4.402   0.102   0.730  0.9851 -0.2739 -0.5826
 5905SOL     OW29350   2.497   2.342  14.460 -0.2222 -0.3184 -0.1341
 5905SOL    HW129351   2.450   2.421  14.433 -0.1970 -0.9123 -1.9048
 5905SOL    HW229352   2.581   2.348  14.413 -0.9193  1.2297 -1.2055
 5906SOL     OW29353   2.394   3.230   2.241  0.4917 -0.4508  0.1901
 5906SOL    HW129354   2.470   3.172   2.243  0.8919  0.0473 -0.5129
 5906SOL    HW229355   2.408   3.277   2.323 -0.6475 -0.5614  0.4417
 5907SOL     OW29356   1.902   0.622   4.255 -0.1879  0.0614  0.1553
 5907SOL    HW129357   1.815   0.633   4.293 -0.7037 -1.4565 -0.5795
 5907SOL    HW229358   1.875   0.587   4.170  1.0604 -0.2407 -0.1207
 5908SOL     OW29359   1.391   0.616   8.046  0.0613  0.6616 -0.1110
 5908SOL    HW129360   1.385   0.680   7.975 -1.4992  1.2770  0.5708
 5908SOL    HW229361   1.297   0.602   8.045  0.3920 -1.6529  1.0458
 5909SOL     OW29362   4.219   3.926   7.111  0.1017 -0.4790  0.5890
 5909SOL    HW129363   4.223   3.855   7.175  2.3942 -0.0679  0.8903
 5909SOL    HW229364   4.149   3.897   7.053  2.8420 -0.8294 -2.5569
 5910SOL     OW29365   0.154   3.894   0.755  0.4585 -0.8841  0.6845
 5910SOL    HW129366   0.125   3.980   0.726 -1.1267 -1.8999 -0.7202
 5910SOL    HW229367   0.179   3.851   0.673  0.2561 -0.7235  0.5397
 5911SOL     OW29368   3.814   3.390   0.340  0.0867  0.3823  0.0530
 5911SOL    HW129369   3.899   3.374   0.382 -0.1100  0.5092  0.4965
 5911SOL    HW229370   3.795   3.301   0.311 -0.7625  0.5819 -0.0119
 5912SOL     OW29371   4.451   0.830  14.338 -0.0581  0.0294 -0.3618
 5912SOL    HW129372   4.478   0.752  14.387 -1.3613  0.0840  0.4559
 5912SOL    HW229373   4.416   0.791  14.258 -1.6886  2.8673 -1.0190
 5913SOL     OW29374   4.320   3.578   4.823 -0.3298  0.1860 -0.7602
 5913SOL    HW129375   4.372   3.643   4.870 -1.7280  0.1575  0.8095
 5913SOL    HW229376   4.382   3.539   4.761  0.1200 -0.1595 -0.0872
 5914SOL     OW29377   0.070   0.847  10.527 -0.0007 -0.6866 -0.0902
 5914SOL    HW129378   0.130   0.842  10.453 -2.3124  3.5069 -2.2076
 5914SOL    HW229379   0.136   0.824  10.593 -0.9588 -0.6649  0.8913
 5915SOL     OW29380   3.478   4.075   2.382 -0.1359  0.8551  0.0552
 5915SOL    HW129381   3.509   4.105   2.297  2.1993  1.1619  1.0033
 5915SOL    HW229382   3.393   4.040   2.355 -0.1273  0.3267  0.7108
 5916SOL     OW29383   1.817   0.883  14.599  0.2901  0.1572 -0.0178
 5916SOL    HW129384   1.896   0.839  14.569 -0.0464 -0.4554  0.0037
 5916SOL    HW229385   1.810   0.846  14.687  1.8950 -1.2640 -0.4896
 5917SOL     OW29386   2.653   1.842   0.919 -0.8609  0.3386  0.5143
 5917SOL    HW129387   2.695   1.851   1.005  0.7235 -1.7078 -0.0542
 5917SOL    HW229388   2.634   1.933   0.895 -1.5346  0.4699  1.5066
 5918SOL     OW29389   2.279   1.724   7.879  0.1866  0.5817 -0.1943
 5918SOL    HW129390   2.336   1.648   7.865  1.9379  1.3089  2.9137
 5918SOL    HW229391   2.226   1.685   7.949  0.5842 -1.0876 -0.8229
 5919SOL     OW29392   1.075   1.143  13.417 -0.0539 -0.1208  0.8753
 5919SOL    HW129393   0.981   1.128  13.429 -0.3531 -1.1211 -2.6697
 5919SOL    HW229394   1.090   1.233  13.446  1.4250  0.0399 -0.4193
 5920SOL     OW29395   3.998   2.252  14.741  0.0497  0.2631 -0.3111
 5920SOL    HW129396   3.926   2.253  14.803 -0.4004  1.3766 -0.8624
 5920SOL    HW229397   4.047   2.330  14.765  0.3874 -0.2570  0.7020
 5921SOL     OW29398   0.963   3.322   7.693 -0.2751 -0.0510  0.1062
 5921SOL    HW129399   1.032   3.334   7.759  1.0711 -0.3984 -1.2521
 5921SOL    HW229400   0.964   3.227   7.683 -2.7380  0.4028 -4.3993
 5922SOL     OW29401   3.069   1.011   6.292  0.1327 -0.2646 -0.5007
 5922SOL    HW129402   3.022   0.947   6.345  0.7678 -0.3733 -0.0737
 5922SOL    HW229403   3.017   1.090   6.303 -0.9255 -0.9907 -0.2901
 5923SOL     OW29404   0.071   1.967   3.641 -0.1940  0.3091 -0.0787
 5923SOL    HW129405   0.015   1.912   3.696  0.3260 -0.6183 -0.4804
 5923SOL    HW229406   0.115   1.906   3.582 -2.4381 -0.5181 -0.9130
 5924SOL     OW29407   0.490   2.532   9.617 -0.2887  0.0618 -0.2350
 5924SOL    HW129408   0.484   2.537   9.712  0.9229  0.0925 -0.1619
 5924SOL    HW229409   0.425   2.464   9.598  1.9267 -1.9308 -0.6880
 5925SOL     OW29410   1.081   1.604  13.399  0.0216 -0.2593 -0.0971
 5925SOL    HW129411   1.119   1.520  13.424 -0.1782 -0.2255  0.3225
 5925SOL    HW229412   1.122   1.668  13.457 -3.2815  1.2529  0.5917
 5926SOL     OW29413   2.339   3.875   6.587  0.6650 -0.2422  0.3332
 5926SOL    HW129414   2.276   3.824   6.638 -0.1879  0.9910  0.5144
 5926SOL    HW229415   2.341   3.946   6.651  0.3405  0.1407 -0.0891
 5927SOL     OW29416   0.215   2.269   2.600  0.6097  0.3556  0.2536
 5927SOL    HW129417   0.151   2.254   2.531  0.2376  1.3741  0.3786
 5927SOL    HW229418   0.286   2.318   2.557  0.2336  0.2137 -0.5344
 5928SOL     OW29419   1.846   0.569   1.610 -0.1242 -0.0699  0.3646
 5928SOL    HW129420   1.766   0.543   1.655 -0.7968 -0.8202 -1.2550
 5928SOL    HW229421   1.895   0.607   1.683  1.5083  1.7570 -1.6791
 5929SOL     OW29422   3.887   0.853  16.157  0.5414  0.8580  0.7355
 5929SOL    HW129423   3.871   0.780  16.096  1.5653  1.3088 -0.0857
 5929SOL    HW229424   3.958   0.814  16.209  0.3604  0.6809  0.8503
 5930SOL     OW29425   0.860   3.741   6.690  0.2178  0.0105  0.6026
 5930SOL    HW129426   0.815   3.822   6.716  3.5844  2.1143 -0.1617
 5930SOL    HW229427   0.853   3.685   6.768 -0.1742  0.6620  1.0417
 5931SOL     OW29428   1.285   2.443   2.338  0.4286  0.3473  0.2400
 5931SOL    HW129429   1.249   2.433   2.426  0.5982 -0.9392  0.1640
 5931SOL    HW229430   1.319   2.354   2.327  1.3211  0.5693  1.2736
 5932SOL     OW29431   1.191   2.359   5.809 -0.8260 -0.0986  0.0713
 5932SOL    HW129432   1.256   2.416   5.767 -0.2076 -0.7769  0.1252
 5932SOL    HW229433   1.213   2.361   5.901 -0.8651 -1.3665  0.1003
 5933SOL     OW29434   1.826   2.018   8.755 -0.0338 -0.2308  0.2795
 5933SOL    HW129435   1.837   1.990   8.664  1.4806  1.6900 -0.1254
 5933SOL    HW229436   1.733   1.998   8.765  0.1232 -1.9811 -1.7919
 5934SOL     OW29437   1.854   4.197   6.244 -0.2917 -0.0913  0.5948
 5934SOL    HW129438   1.782   4.260   6.253 -0.5200 -0.0931 -1.1448
 5934SOL    HW229439   1.833   4.149   6.324 -2.2169  2.6758  1.7798
 5935SOL     OW29440   0.688   3.308   7.659 -0.3130 -0.0460 -0.6061
 5935SOL    HW129441   0.783   3.310   7.672 -0.3128  1.4571 -0.8427
 5935SOL    HW229442   0.676   3.337   7.569 -0.7729  0.5463 -0.3560
 5936SOL     OW29443   3.858   1.002   9.369 -0.0306 -0.1001  0.2068
 5936SOL    HW129444   3.821   1.089   9.386 -0.3693 -0.1990 -0.0385
 5936SOL    HW229445   3.781   0.956   9.335  0.4194  0.4793 -1.6166
 5937SOL     OW29446   3.156   0.534   8.969 -0.2254 -0.1233 -0.4745
 5937SOL    HW129447   3.209   0.532   9.048 -1.6563 -0.1246  0.4801
 5937SOL    HW229448   3.084   0.587   9.003 -1.4400 -2.0017 -0.0932
 5938SOL     OW29449   0.739   3.437  10.811 -0.6367 -0.3187 -0.1360
 5938SOL    HW129450   0.833   3.447  10.797 -0.9856  1.4840 -1.2817
 5938SOL    HW229451   0.721   3.344  10.801  0.1900 -0.3280 -1.4386
 5939SOL     OW29452   1.076   4.555  13.484  0.0502  0.2545 -0.2777
 5939SOL    HW129453   1.170   4.565  13.499 -0.1114  0.3400  0.6804
 5939SOL    HW229454   1.044   4.585  13.569  0.3578 -0.9906  0.2877
 5940SOL     OW29455   1.185   2.566   6.825  0.1141  0.3984 -0.2046
 5940SOL    HW129456   1.100   2.603   6.846  0.5463  1.0300  0.4183
 5940SOL    HW229457   1.212   2.631   6.759 -0.9031  2.3645  1.3401
 5941SOL     OW29458   1.992   0.331   6.085  0.4285  0.6120 -0.1686
 5941SOL    HW129459   1.943   0.344   6.004  0.7491  0.9007 -0.3138
 5941SOL    HW229460   1.992   0.417   6.127 -2.6166  1.0295 -1.0421
 5942SOL     OW29461   2.181   0.694   5.069 -0.3280 -0.1069 -0.3463
 5942SOL    HW129462   2.262   0.673   5.023  0.7371 -1.0349  1.9786
 5942SOL    HW229463   2.180   0.635   5.144 -1.5747  2.2438  1.4707
 5943SOL     OW29464   2.292   0.858   7.989 -0.0293 -0.0538  0.4693
 5943SOL    HW129465   2.279   0.936   8.043  0.7294 -0.8811  1.8392
 5943SOL    HW229466   2.366   0.890   7.938 -0.0971  2.2075  1.7471
 5944SOL     OW29467   1.295   0.532   3.142 -0.0965  0.1525  0.4078
 5944SOL    HW129468   1.280   0.531   3.237 -0.4331 -1.8227  0.3175
 5944SOL    HW229469   1.387   0.554   3.128 -0.8926  2.5092 -1.0905
 5945SOL     OW29470   0.594   4.415   5.864  0.1197  0.0659 -0.4556
 5945SOL    HW129471   0.582   4.321   5.876  0.9898 -0.0286 -0.2830
 5945SOL    HW229472   0.688   4.432   5.871  0.1212  0.0422 -0.4182
 5946SOL     OW29473   4.573   0.289  15.698 -0.3058 -0.2993 -0.2399
 5946SOL    HW129474   4.508   0.351  15.664  0.1176  0.1263 -0.2596
 5946SOL    HW229475   4.606   0.250  15.617  1.4807  1.3280 -0.2874
 5947SOL     OW29476   0.411   3.259  16.991 -0.2664  0.4699 -0.4487
 5947SOL    HW129477   0.506   3.268  16.998 -0.4688  1.3595  1.1010
 5947SOL    HW229478   0.379   3.303  17.070  1.8983  0.9893  0.1191
 5948SOL     OW29479   1.748   2.931   2.361  0.0537 -0.0970  0.1161
 5948SOL    HW129480   1.821   2.906   2.304  0.3354 -3.0628  1.8045
 5948SOL    HW229481   1.703   2.850   2.383  0.3049 -0.5799 -1.1179
 5949SOL     OW29482   0.403   0.140   1.861  0.2917  0.0763 -0.6829
 5949SOL    HW129483   0.497   0.133   1.874  0.5753  0.5086 -2.5289
 5949SOL    HW229484   0.370   0.088   1.934  1.2187  1.6929  0.8920
 5950SOL     OW29485   3.421   2.314   8.047 -0.3392  0.2873 -0.3559
 5950SOL    HW129486   3.501   2.298   7.996  1.3530  0.8388  2.1619
 5950SOL    HW229487   3.432   2.253   8.120  1.8363  0.3911 -0.5881
 5951SOL     OW29488   3.538   2.963   7.209 -0.2721  0.0200  0.4762
 5951SOL    HW129489   3.535   2.932   7.300  0.3253  0.9693  0.8159
 5951SOL    HW229490   3.462   3.022   7.211 -0.9675 -0.8422 -0.8297
 5952SOL     OW29491   0.486   3.569   5.966 -0.5318 -0.2056  0.0416
 5952SOL    HW129492   0.555   3.606   6.022 -1.0798  1.8333 -0.6401
 5952SOL    HW229493   0.470   3.483   6.005 -1.8436  0.6315  1.3570
 5953SOL     OW29494   0.860   2.470  15.418  0.2674  0.0515  0.2362
 5953SOL    HW129495   0.808   2.505  15.490  1.3553 -1.8160  1.9446
 5953SOL    HW229496   0.795   2.469  15.348  0.3315 -1.7052  0.1940
 5954SOL     OW29497   0.941   3.471   8.234  0.5582 -0.1760  0.3923
 5954SOL    HW129498   0.851   3.444   8.254  0.8016 -1.2919 -0.0150
 5954SOL    HW229499   0.980   3.460   8.321 -2.0374  1.3289  1.7340
 5955SOL     OW29500   4.162   4.576   5.363  0.5810  1.0934  0.3117
 5955SOL    HW129501   4.132   4.522   5.436  0.9514  0.2548 -0.1515
 5955SOL    HW229502   4.093   4.642   5.359 -0.5388  0.0421  2.2763
 5956SOL     OW29503   1.680   3.252   7.689 -0.3508  0.3788 -0.2977
 5956SOL    HW129504   1.761   3.263   7.740 -0.9009  2.3850  0.1216
 5956SOL    HW229505   1.636   3.334   7.711 -1.2584 -0.2951  0.3827
 5957SOL     OW29506   2.523   4.184   3.733 -0.1516  0.1003  1.1179
 5957SOL    HW129507   2.557   4.095   3.727  1.1062  0.7259 -1.1605
 5957SOL    HW229508   2.485   4.187   3.645  2.0179 -0.0807  0.1797
 5958SOL     OW29509   3.069   3.294   6.577  0.4705  0.1445  0.0422
 5958SOL    HW129510   3.053   3.349   6.500  1.1893  1.1439  0.6187
 5958SOL    HW229511   2.999   3.229   6.570  0.6926  0.0151 -0.9269
 5959SOL     OW29512   3.832   0.871   1.682 -0.4692  0.5454 -0.5615
 5959SOL    HW129513   3.865   0.873   1.772 -1.7441  1.9253 -0.1211
 5959SOL    HW229514   3.888   0.806   1.639 -0.7234 -1.1764  1.6909
 5960SOL     OW29515   2.706   2.894   5.264 -0.2375 -0.5129 -0.2832
 5960SOL    HW129516   2.707   2.813   5.315  0.1605 -0.9613 -1.0053
 5960SOL    HW229517   2.723   2.849   5.181 -0.1961 -1.9341  0.4892
 5961SOL     OW29518   3.249   1.072   3.603 -0.1996  0.1021 -0.4061
 5961SOL    HW129519   3.290   1.058   3.518 -1.6081  0.2674 -1.1173
 5961SOL    HW229520   3.308   1.036   3.669  0.1864  1.3265 -0.0849
 5962SOL     OW29521   1.667   0.317  11.440 -0.0318 -0.1010  0.0690
 5962SOL    HW129522   1.653   0.223  11.427 -2.3631  0.2955 -0.3145
 5962SOL    HW229523   1.575   0.343  11.446 -0.1778 -0.8752  1.2398
 5963SOL     OW29524   3.631   2.603   9.738  0.7513 -0.0177 -0.0803
 5963SOL    HW129525   3.574   2.679   9.728  0.9131  0.3939  1.9887
 5963SOL    HW229526   3.566   2.547   9.780  1.1633  0.1233  0.7596
 5964SOL     OW29527   2.380   2.895  16.017 -0.0047 -0.1014 -0.3934
 5964SOL    HW129528   2.462   2.860  15.981  0.4843 -0.2448  0.8533
 5964SOL    HW229529   2.367   2.855  16.103  2.2686 -2.2888 -1.0653
 5965SOL     OW29530   2.552   4.693   1.975  0.2003 -0.2963 -0.3782
 5965SOL    HW129531   2.641   4.716   1.950 -0.2475  1.9108  0.0087
 5965SOL    HW229532   2.510   0.040   1.952 -1.7736 -1.1220  0.2010
 5966SOL     OW29533   3.171   1.726   4.818  0.5145  0.4750  0.2043
 5966SOL    HW129534   3.228   1.650   4.805  0.2105  0.3368 -0.3142
 5966SOL    HW229535   3.204   1.756   4.902 -1.1166 -1.5570  1.5751
 5967SOL     OW29536   0.765   2.944   0.466 -0.2189  0.3768 -0.1753
 5967SOL    HW129537   0.803   3.026   0.434 -0.7890  0.8553  0.3642
 5967SOL    HW229538   0.827   2.937   0.538  1.6754  0.5820 -1.7979
 5968SOL     OW29539   1.456   0.624   9.437 -0.2114  0.7050 -0.2337
 5968SOL    HW129540   1.548   0.648   9.438  1.0022 -3.9164  0.3731
 5968SOL    HW229541   1.429   0.650   9.525 -2.7740  1.8110 -1.3588
 5969SOL     OW29542   0.514   3.028   1.705 -0.2015  0.6049 -0.0651
 5969SOL    HW129543   0.573   2.953   1.697  0.3841  0.5474  4.7900
 5969SOL    HW229544   0.535   3.082   1.629 -0.7795  1.2332  0.2209
 5970SOL     OW29545   0.669   2.114   8.881  0.5543 -0.5513  0.3161
 5970SOL    HW129546   0.709   2.162   8.808  0.1063  0.5143  0.7742
 5970SOL    HW229547   0.683   2.171   8.956  0.8744  0.9275 -0.8818
 5971SOL     OW29548   3.126   0.722   8.272  0.4770  0.1775  0.3000
 5971SOL    HW129549   3.102   0.811   8.245  2.2475  1.1798  2.0323
 5971SOL    HW229550   3.139   0.679   8.187  2.0957 -0.8356  1.0827
 5972SOL     OW29551   4.091   4.126  13.801  0.4696  0.4957  0.4673
 5972SOL    HW129552   4.020   4.070  13.770  2.1169  0.1679 -2.6620
 5972SOL    HW229553   4.138   4.069  13.862 -1.3445 -2.3545 -0.7483
 5973SOL     OW29554   3.225   2.415  14.235  0.3906 -0.2663 -0.2502
 5973SOL    HW129555   3.274   2.353  14.289  0.3363 -0.4312 -0.3887
 5973SOL    HW229556   3.272   2.498  14.241  0.3078 -0.3260  1.1351
 5974SOL     OW29557   4.142   0.537   5.198 -0.2342 -0.7909 -0.4819
 5974SOL    HW129558   4.071   0.527   5.262 -1.5093  0.2083 -1.7332
 5974SOL    HW229559   4.117   0.621   5.158 -0.8768 -1.4355 -1.4291
 5975SOL     OW29560   1.561   0.513   5.875  0.3641  0.0863 -0.4816
 5975SOL    HW129561   1.602   0.587   5.920 -0.0946 -0.2073  0.4331
 5975SOL    HW229562   1.625   0.443   5.886 -0.3907 -0.7951 -1.6639
 5976SOL     OW29563   3.810   2.312  16.452 -0.0457 -0.2053 -0.4387
 5976SOL    HW129564   3.719   2.283  16.452  0.9089 -3.1393 -2.2366
 5976SOL    HW229565   3.827   2.337  16.362 -1.6059 -0.8778 -0.9182
 5977SOL     OW29566   1.061   2.187   2.515 -0.1228 -0.9546  0.1270
 5977SOL    HW129567   1.039   2.133   2.591  1.5934 -0.8055  0.7267
 5977SOL    HW229568   1.127   2.131   2.475  2.5940  2.8112 -0.5936
 5978SOL     OW29569   4.499   0.057  17.167  0.5245  0.4041  0.4956
 5978SOL    HW129570   4.421   0.054  17.113  1.2698 -2.3116 -0.4573
 5978SOL    HW229571   4.533   0.145  17.156  0.4683  0.4162  0.4176
 5979SOL     OW29572   4.608   2.699  16.159 -0.1089 -0.0567 -0.8870
 5979SOL    HW129573   4.572   2.611  16.150  1.0476 -0.7334  0.9895
 5979SOL    HW229574   4.683   2.689  16.218  0.9671  0.1575 -2.2088
 5980SOL     OW29575   3.311   0.777   6.996 -0.2469  0.0644  0.2645
 5980SOL    HW129576   3.269   0.833   6.931  0.5505 -0.0473 -0.3438
 5980SOL    HW229577   3.351   0.832   7.063  1.4082  1.1611 -1.6363
 5981SOL     OW29578   3.294   2.743  11.099  0.2091 -0.0752  0.0188
 5981SOL    HW129579   3.358   2.683  11.137 -0.5873 -0.3242  0.9570
 5981SOL    HW229580   3.353   2.811  11.066  0.1938  0.3980  0.9916
 5982SOL     OW29581   0.948   0.171   3.389 -0.4280  0.6910 -0.4672
 5982SOL    HW129582   0.899   0.238   3.342 -2.2212  0.5057  1.1639
 5982SOL    HW229583   0.901   0.088   3.383 -2.5132  1.6413  2.7636
 5983SOL     OW29584   3.672   1.380   2.263 -0.7041  0.0166 -0.3890
 5983SOL    HW129585   3.601   1.334   2.307 -1.4120  0.2345 -1.3246
 5983SOL    HW229586   3.664   1.470   2.297 -1.9586 -0.3638  0.3264
 5984SOL     OW29587   1.769   0.048   9.286  0.3427  0.1570 -0.1790
 5984SOL    HW129588   1.679   0.080   9.280  0.2593  0.7083  3.9381
 5984SOL    HW229589   1.763   4.690   9.298 -0.5427  0.4141  1.3743
 5985SOL     OW29590   0.227   2.301   5.065 -0.3209  0.4891 -0.1390
 5985SOL    HW129591   0.219   2.390   5.031 -1.8582 -0.2928 -1.7974
 5985SOL    HW229592   0.271   2.247   5.000  0.7334 -0.2628  1.2016
 5986SOL     OW29593   1.609   4.080   4.554  0.1134  0.4278 -0.0710
 5986SOL    HW129594   1.674   4.010   4.559 -0.5737 -0.2756 -0.9305
 5986SOL    HW229595   1.589   4.114   4.641 -2.0570 -0.1508 -0.3254
 5987SOL     OW29596   2.555   0.441   3.373  0.2152  0.8241  0.1705
 5987SOL    HW129597   2.533   0.409   3.285  0.8332 -1.2778  0.7810
 5987SOL    HW229598   2.650   0.434   3.382  0.2431 -1.2654 -1.8281
 5988SOL     OW29599   3.931   1.799   1.595 -0.0065  0.5486  0.3509
 5988SOL    HW129600   3.998   1.847   1.546 -0.0154  1.3479  1.1252
 5988SOL    HW229601   3.921   1.857   1.670  1.5939  1.6709 -0.3066
 5989SOL     OW29602   4.089   1.186   5.054 -0.4504 -0.9608 -0.0165
 5989SOL    HW129603   4.163   1.125   5.057 -0.9160 -1.4694  1.0812
 5989SOL    HW229604   4.031   1.132   5.108  1.2545 -2.3546  0.4370
 5990SOL     OW29605   3.281   3.618   5.029  0.5681 -0.0139 -0.0626
 5990SOL    HW129606   3.209   3.555   5.025  2.1066 -1.5803 -2.6287
 5990SOL    HW229607   3.264   3.677   4.957 -4.0423 -1.0906  0.1667
 5991SOL     OW29608   3.058   4.320  17.432  0.4813  0.2255 -0.4351
 5991SOL    HW129609   3.045   4.410  17.402  1.2220 -0.8149 -3.8880
 5991SOL    HW229610   3.111   4.334  17.511  0.3678  2.1166 -0.7112
 5992SOL     OW29611   0.596   0.130   2.651  0.2310  0.3902 -0.3631
 5992SOL    HW129612   0.634   0.154   2.567  2.1715  2.0281  0.9985
 5992SOL    HW229613   0.652   0.183   2.707 -1.4721  0.3719  1.3529
 5993SOL     OW29614   0.410   1.563  11.346 -0.4423  0.0084 -0.1648
 5993SOL    HW129615   0.445   1.528  11.428 -0.2383  0.4027 -0.0808
 5993SOL    HW229616   0.342   1.499  11.330 -1.0931  0.5697  0.3614
 5994SOL     OW29617   2.213   1.375   2.088  0.2927 -0.1559  0.6316
 5994SOL    HW129618   2.218   1.468   2.108  0.8113 -0.3042  1.1746
 5994SOL    HW229619   2.275   1.367   2.016 -0.3345 -1.3188  0.2268
 5995SOL     OW29620   2.891   1.748   7.060 -0.8148 -0.2054 -0.2480
 5995SOL    HW129621   2.826   1.689   7.098 -0.7569  0.5473  1.0310
 5995SOL    HW229622   2.860   1.832   7.095  1.1821  0.5505 -0.3076
 5996SOL     OW29623   4.054   3.623   0.259  0.4939  0.4031  0.1031
 5996SOL    HW129624   4.025   3.535   0.235  0.9769 -0.1419  1.5257
 5996SOL    HW229625   4.149   3.622   0.270  0.4712 -0.7322  0.2496
 5997SOL     OW29626   2.178   4.641   5.281  0.3516  0.5075 -0.5634
 5997SOL    HW129627   2.101   4.653   5.337  1.6870 -0.3683  1.4562
 5997SOL    HW229628   2.121   4.626   5.206 -0.0872  0.5409 -0.2394
 5998SOL     OW29629   3.798   1.575   7.428 -0.2523 -0.0114 -0.6774
 5998SOL    HW129630   3.806   1.537   7.341  1.3115  0.3763 -0.6993
 5998SOL    HW229631   3.737   1.648   7.421  1.1925  1.3912  1.2675
 5999SOL     OW29632   0.152   3.193   1.938 -0.3349 -0.0516 -0.0517
 5999SOL    HW129633   0.243   3.190   1.909 -0.9374 -0.5715 -1.8816
 5999SOL    HW229634   0.166   3.216   2.030 -1.1331  1.3949 -0.2877
 6000SOL     OW29635   3.869   3.273   0.011 -0.3500  0.1301 -0.6933
 6000SOL    HW129636   3.841   3.181   0.015 -0.5443  0.2361  0.3354
 6000SOL    HW229637   3.920   3.280   0.091  0.1055 -2.9811 -0.6952
 6001SOL     OW29638   4.694   1.509   4.095 -0.2348  0.5358  0.1244
 6001SOL    HW129639   4.728   1.549   4.175 -0.5061 -0.3613  0.6889
 6001SOL    HW229640   4.602   1.503   4.120  0.3250 -0.5658  1.9082
 6002SOL     OW29641   3.026   4.522   6.686  0.0648  0.0026  0.1740
 6002SOL    HW129642   2.958   4.537   6.751  0.1190 -1.3534  0.5420
 6002SOL    HW229643   2.981   4.572   6.617 -0.5636  1.0841  1.3839
 6003SOL     OW29644   1.584   2.084   5.221  0.4023 -0.1187 -0.8425
 6003SOL    HW129645   1.672   2.121   5.214  0.9223 -1.1511  0.1860
 6003SOL    HW229646   1.600   1.989   5.220  1.8011  0.0734  2.2432
 6004SOL     OW29647   1.107   0.567  15.988 -0.0181 -0.2798  0.2748
 6004SOL    HW129648   1.036   0.592  15.929 -0.8125 -0.1826  1.2829
 6004SOL    HW229649   1.160   0.647  15.984  0.7795 -0.8095  0.2433
 6005SOL     OW29650   2.635   0.925  13.157 -0.3522  0.6125  0.4865
 6005SOL    HW129651   2.623   0.835  13.189  0.5240  0.4705  0.4288
 6005SOL    HW229652   2.610   0.908  13.066  1.2768  1.8953 -0.1957
 6006SOL     OW29653   0.126   0.340   7.414 -0.5214 -0.2746  0.5145
 6006SOL    HW129654   0.059   0.298   7.468 -1.5309  1.9666  1.0063
 6006SOL    HW229655   0.070   0.382   7.350  0.6056  0.5805  0.0964
 6007SOL     OW29656   1.294   0.568   5.869 -0.1778  0.5152 -0.3108
 6007SOL    HW129657   1.303   0.662   5.882 -1.1045  0.1091  3.2992
 6007SOL    HW229658   1.386   0.541   5.865  0.0754  1.3804 -0.1294
 6008SOL     OW29659   0.907   2.227   4.905 -0.1504 -0.2405 -0.9691
 6008SOL    HW129660   0.985   2.282   4.892 -0.2355  0.3562  1.0902
 6008SOL    HW229661   0.858   2.273   4.838  0.1015  0.0698 -0.9385
 6009SOL     OW29662   3.810   3.837   7.186  0.2760  0.5033 -0.5042
 6009SOL    HW129663   3.769   3.922   7.194 -1.6908 -0.4657 -0.3095
 6009SOL    HW229664   3.738   3.778   7.209 -1.9188  2.5211 -2.1582
 6010SOL     OW29665   1.850   4.049   7.786 -0.0119  0.1932 -0.1082
 6010SOL    HW129666   1.773   4.035   7.840  0.6571 -1.8706  0.3385
 6010SOL    HW229667   1.909   4.067   7.859 -1.1467  2.0417  0.3264
 6011SOL     OW29668   3.169   1.396  10.111  0.5410  0.0891 -0.1830
 6011SOL    HW129669   3.117   1.468  10.146 -0.3776 -1.1592  1.0365
 6011SOL    HW229670   3.117   1.325  10.149  1.2507 -0.5326 -0.3657
 6012SOL     OW29671   3.407   4.160   3.011 -0.3748 -0.1762 -0.0643
 6012SOL    HW129672   3.341   4.193   3.072  1.5146  0.5246  1.6143
 6012SOL    HW229673   3.451   4.243   2.990 -0.0021 -0.4581 -0.4037
 6013SOL     OW29674   1.324   0.666   7.001  0.2828 -0.2294  0.2342
 6013SOL    HW129675   1.249   0.700   7.050  0.4576 -0.7681  0.8797
 6013SOL    HW229676   1.294   0.577   6.984 -0.1927 -0.7815  3.8906
 6014SOL     OW29677   1.455   3.671   5.724  0.5686  0.2910  0.0800
 6014SOL    HW129678   1.502   3.740   5.771  0.3353  0.8897 -0.5568
 6014SOL    HW229679   1.537   3.631   5.697  1.1797 -0.8682  3.6603
 6015SOL     OW29680   4.023   4.056   9.475  0.1605 -0.4306 -0.5667
 6015SOL    HW129681   4.082   4.064   9.550 -1.3287 -1.6378  0.7252
 6015SOL    HW229682   4.039   3.965   9.451  0.0821  0.0687 -2.5066
 6016SOL     OW29683   0.380   3.019   5.975  0.1618 -0.0319  0.2750
 6016SOL    HW129684   0.374   3.032   5.881 -1.4250  0.0469  0.3802
 6016SOL    HW229685   0.315   3.078   6.014 -0.6834 -2.4345  2.5129
 6017SOL     OW29686   2.653   2.479   4.509  0.4459  0.1062 -0.6348
 6017SOL    HW129687   2.741   2.484   4.472  1.4501 -0.3588  1.7219
 6017SOL    HW229688   2.608   2.459   4.427  0.1718 -0.5005 -0.3382
 6018SOL     OW29689   0.424   3.991  15.336  0.7046  0.0199  0.1995
 6018SOL    HW129690   0.403   3.964  15.425 -0.3996 -0.7109 -0.2738
 6018SOL    HW229691   0.506   4.036  15.357  1.8358  0.3847 -4.8510
 6019SOL     OW29692   0.322   2.252   8.959  0.5275  0.4301  0.7795
 6019SOL    HW129693   0.228   2.253   8.944  0.8281  0.2114 -1.0945
 6019SOL    HW229694   0.349   2.302   8.882 -1.3283 -0.9680 -0.7677
 6020SOL     OW29695   2.340   2.668   9.222 -0.2938  0.2697 -0.3154
 6020SOL    HW129696   2.328   2.644   9.130  1.8578 -0.7694 -0.3341
 6020SOL    HW229697   2.275   2.612   9.265 -3.2728 -0.0980 -5.2537
 6021SOL     OW29698   1.381   2.175   5.375 -0.1993 -0.4814  0.6632
 6021SOL    HW129699   1.452   2.164   5.312  0.8688  0.4538  1.6897
 6021SOL    HW229700   1.328   2.096   5.371 -0.8671  0.0907 -1.6719
 6022SOL     OW29701   4.074   0.601   4.386  0.1652 -0.2990 -0.3862
 6022SOL    HW129702   4.061   0.514   4.423 -0.4728  0.5507  1.4336
 6022SOL    HW229703   3.997   0.641   4.426  0.3801  0.0175 -0.2883
 6023SOL     OW29704   2.288   2.709   1.174  0.4058  0.2385 -0.5974
 6023SOL    HW129705   2.221   2.752   1.120  0.0912 -0.6293 -0.8924
 6023SOL    HW229706   2.264   2.617   1.189 -4.2072  1.3539 -1.0172
 6024SOL     OW29707   0.588   2.061   9.630  0.3818 -0.0922 -0.6331
 6024SOL    HW129708   0.569   2.080   9.538  3.1270  0.3360 -1.1123
 6024SOL    HW229709   0.683   2.048   9.625  0.3535  0.2015 -2.0478
 6025SOL     OW29710   3.734   3.753   2.290  0.1065 -0.6839  0.5470
 6025SOL    HW129711   3.656   3.782   2.243 -0.1969 -1.4784  0.5673
 6025SOL    HW229712   3.787   3.740   2.211 -1.6949  0.8933 -0.9289
 6026SOL     OW29713   2.497   4.029   5.885  0.0571 -0.1189 -0.5557
 6026SOL    HW129714   2.490   3.942   5.924 -1.2153 -0.3318 -1.2433
 6026SOL    HW229715   2.431   4.020   5.815 -1.8184 -4.3383  1.7756
 6027SOL     OW29716   2.755   0.674  12.049  0.5296  0.1831 -0.3193
 6027SOL    HW129717   2.684   0.609  12.046  2.2411 -1.5900 -2.3628
 6027SOL    HW229718   2.761   0.715  11.963  0.4337 -1.1969 -0.9974
 6028SOL     OW29719   1.792   3.442   1.349 -0.6333 -0.1551  0.2767
 6028SOL    HW129720   1.736   3.473   1.278  0.4659  2.0046  0.3519
 6028SOL    HW229721   1.876   3.442   1.302  0.6220 -3.2664  2.5381
 6029SOL     OW29722   2.988   0.873  15.699  0.0375  0.6286  0.7206
 6029SOL    HW129723   2.904   0.827  15.697  0.4037  0.0290 -1.2035
 6029SOL    HW229724   3.005   0.880  15.793 -1.3769  3.5308  0.7727
 6030SOL     OW29725   4.027   1.407   9.693  0.0731  0.4441 -0.1422
 6030SOL    HW129726   4.089   1.472   9.660 -1.0373  1.3483 -0.4850
 6030SOL    HW229727   4.074   1.327   9.671 -0.6182  0.7653 -2.8263
 6031SOL     OW29728   0.699   1.220  15.562 -0.4411  0.2698  0.2803
 6031SOL    HW129729   0.716   1.288  15.628 -0.1111 -0.6354  1.1344
 6031SOL    HW229730   0.749   1.147  15.599  1.4516  0.7915 -1.2138
 6032SOL     OW29731   1.388   2.850   7.423  0.4217 -0.1108 -0.6887
 6032SOL    HW129732   1.351   2.922   7.473  0.9644 -0.6116  0.4295
 6032SOL    HW229733   1.479   2.880   7.421  0.1091  0.8791 -0.0639
 6033SOL     OW29734   1.912   0.407  10.784 -0.6443 -0.1454 -0.0328
 6033SOL    HW129735   1.970   0.451  10.722 -0.2450 -0.7701 -0.0974
 6033SOL    HW229736   1.901   0.471  10.855  2.8777  1.0513 -0.5610
 6034SOL     OW29737   4.339   1.110   9.171  0.2864  0.0756  0.4492
 6034SOL    HW129738   4.323   1.197   9.132  1.1555 -0.6084 -1.4257
 6034SOL    HW229739   4.359   1.126   9.263  0.7078 -1.3015  0.5880
 6035SOL     OW29740   3.702   2.248   7.426 -0.0282  0.7716  0.0081
 6035SOL    HW129741   3.645   2.319   7.397  1.6135  1.5268 -1.3865
 6035SOL    HW229742   3.778   2.266   7.370  0.5708  0.4257  0.7149
 6036SOL     OW29743   3.447   0.069   2.787 -0.0321  0.0452  0.5740
 6036SOL    HW129744   3.352   0.072   2.779 -0.0763 -0.6920  0.8605
 6036SOL    HW229745   3.451   4.711   2.804 -1.9801 -0.4005 -1.4442
 6037SOL     OW29746   3.117   1.503  15.001 -0.2260 -0.1397  0.0710
 6037SOL    HW129747   3.094   1.555  14.925 -0.7816 -0.1866  0.2104
 6037SOL    HW229748   3.057   1.546  15.062  1.2436 -1.1419  2.2489
 6038SOL     OW29749   4.675   2.422   4.464 -0.1449 -0.3375  0.2862
 6038SOL    HW129750   0.012   2.376   4.506 -1.2352 -1.2008  1.2483
 6038SOL    HW229751   4.723   2.478   4.402 -0.4175 -1.2048 -0.7226
 6039SOL     OW29752   0.385   1.034   6.683 -0.1221  0.0232 -0.2350
 6039SOL    HW129753   0.403   1.068   6.595  0.8572 -0.8113 -0.3417
 6039SOL    HW229754   0.293   1.050   6.703 -0.8455 -1.3251 -2.4187
 6040SOL     OW29755   0.536   2.970  17.179  0.1867 -0.4683 -1.1025
 6040SOL    HW129756   0.444   2.984  17.202 -0.2067  1.6130 -3.9290
 6040SOL    HW229757   0.562   3.062  17.171 -1.1506 -0.0180 -0.2425
 6041SOL     OW29758   3.236   2.003   9.113 -0.3099  0.3948  0.0144
 6041SOL    HW129759   3.206   2.076   9.167  0.5889  1.0735 -0.3916
 6041SOL    HW229760   3.221   1.924   9.166 -0.3520  1.8490  2.1976
 6042SOL     OW29761   1.111   1.244   7.488 -0.0272 -0.8175 -0.1670
 6042SOL    HW129762   1.134   1.305   7.558  1.8242 -1.1903 -0.4379
 6042SOL    HW229763   1.193   1.200   7.467  1.8420  2.9532 -0.9025
 6043SOL     OW29764   2.919   1.657   7.405 -1.1837 -0.8272 -0.5143
 6043SOL    HW129765   2.862   1.582   7.422 -0.1355 -1.1390  1.6167
 6043SOL    HW229766   2.859   1.732   7.398 -1.3185 -0.9829 -1.0105
 6044SOL     OW29767   4.295   3.118   4.268  0.3311 -0.8816  0.1416
 6044SOL    HW129768   4.250   3.165   4.198  0.9181 -1.0004 -0.3132
 6044SOL    HW229769   4.259   3.146   4.352  3.0553 -0.3050  1.1233
 6045SOL     OW29770   1.612   4.539   4.571 -0.4169  0.0801  0.0368
 6045SOL    HW129771   1.689   4.595   4.569  1.5669 -2.6867 -0.5530
 6045SOL    HW229772   1.651   4.456   4.599  1.2321 -0.3347 -3.5166
 6046SOL     OW29773   4.427   0.575   4.367 -0.0506  0.1231 -0.1819
 6046SOL    HW129774   4.514   0.597   4.400  0.9612 -0.5902 -2.3993
 6046SOL    HW229775   4.388   0.661   4.351 -0.7715 -0.1502  0.0908
 6047SOL     OW29776   2.287   0.745   5.406 -0.4119  0.2986  0.0292
 6047SOL    HW129777   2.281   0.710   5.495  0.5687 -0.3238 -0.1575
 6047SOL    HW229778   2.231   0.682   5.360  0.1465  0.3032 -0.6520
 6048SOL     OW29779   1.058   1.030  13.726 -0.1956 -0.2776 -0.5036
 6048SOL    HW129780   1.048   0.936  13.709 -2.1314  0.3019 -2.5793
 6048SOL    HW229781   0.994   1.074  13.669  0.7333 -1.6344 -2.6138
 6049SOL     OW29782   4.126   2.961   0.841 -0.2528  0.2211  0.3132
 6049SOL    HW129783   4.064   3.002   0.781  0.0651  0.2684  0.0197
 6049SOL    HW229784   4.084   2.965   0.927  2.4095 -1.6501  1.7063
 6050SOL     OW29785   0.686   2.120   8.222  0.3233 -0.4180  0.5160
 6050SOL    HW129786   0.715   2.185   8.158 -1.9113  2.1269  2.0991
 6050SOL    HW229787   0.759   2.058   8.227  0.0416 -0.5416  2.8593
 6051SOL     OW29788   2.195   3.014   7.436 -0.3595  0.2080  1.0601
 6051SOL    HW129789   2.188   2.935   7.382  0.1998 -0.1899  1.5531
 6051SOL    HW229790   2.189   3.081   7.368  2.9115 -1.1606 -0.6126
 6052SOL     OW29791   3.389   0.610   4.467  0.5421 -0.5770 -0.7009
 6052SOL    HW129792   3.309   0.660   4.454  0.8532  0.0693 -0.0874
 6052SOL    HW229793   3.450   0.678   4.495 -1.5346  1.0335 -0.0412
 6053SOL     OW29794   2.956   2.034   5.992 -0.5993  0.8893 -0.1539
 6053SOL    HW129795   2.986   1.972   6.058  1.5170 -0.3692 -2.3028
 6053SOL    HW229796   2.983   1.992   5.911 -1.0148  0.1244  0.1002
 6054SOL     OW29797   2.001   2.913   8.202 -0.1594 -0.1738  0.5932
 6054SOL    HW129798   2.002   2.823   8.234  2.7480  0.5755  2.6486
 6054SOL    HW229799   1.996   2.886   8.110  3.0046  1.1033  0.0306
 6055SOL     OW29800   2.445   1.592   4.163 -0.4591 -0.1740 -0.1040
 6055SOL    HW129801   2.355   1.624   4.153  0.9118  3.6300 -0.2801
 6055SOL    HW229802   2.425   1.510   4.207  0.3928  0.2912  1.1611
 6056SOL     OW29803   4.164   4.151   1.548  0.4577 -0.0209 -0.2071
 6056SOL    HW129804   4.223   4.081   1.577  0.1496 -0.1570  0.0868
 6056SOL    HW229805   4.206   4.176   1.466 -1.4375  0.1707 -1.0989
 6057SOL     OW29806   1.208   3.275   6.533 -0.2964 -0.4419 -0.0724
 6057SOL    HW129807   1.278   3.334   6.561  1.0051 -1.2947 -1.5366
 6057SOL    HW229808   1.238   3.261   6.443 -1.6249 -0.8310 -0.4528
 6058SOL     OW29809   1.055   2.106   8.385 -0.2479 -0.5532  0.0215
 6058SOL    HW129810   1.075   2.197   8.404  2.2386 -0.8648 -1.1840
 6058SOL    HW229811   1.128   2.062   8.430  1.1172  0.0403 -1.6370
 6059SOL     OW29812   3.466   1.106   9.770 -0.0223  0.7541 -0.2771
 6059SOL    HW129813   3.481   1.129   9.678 -0.3077 -0.0988 -0.5300
 6059SOL    HW229814   3.556   1.121   9.800  0.4828 -2.2380 -0.3735
 6060SOL     OW29815   3.613   3.268  14.439 -0.1561  0.2652 -0.2442
 6060SOL    HW129816   3.613   3.351  14.486  2.1688 -0.2027  0.5665
 6060SOL    HW229817   3.593   3.302  14.352 -3.1095 -0.9264 -0.0416
 6061SOL     OW29818   3.138   1.074  16.367  0.0857  0.0955 -0.2208
 6061SOL    HW129819   3.112   1.157  16.327 -0.0168  0.6061  0.9251
 6061SOL    HW229820   3.075   1.074  16.438 -0.8931  0.5965 -1.0945
 6062SOL     OW29821   0.923   0.161   8.857  0.6602  0.4750 -0.3471
 6062SOL    HW129822   0.839   0.136   8.818 -0.2251 -0.0887  1.8990
 6062SOL    HW229823   0.971   0.089   8.816  3.0224  2.1864 -0.5684
 6063SOL     OW29824   4.532   2.141   7.295 -0.0108  0.2563  0.1504
 6063SOL    HW129825   4.533   2.232   7.326  2.0813 -0.1048  1.1215
 6063SOL    HW229826   4.612   2.113   7.339  0.6572 -2.5513 -2.8151
 6064SOL     OW29827   4.285   2.534   6.739 -0.5940 -0.0218 -0.1029
 6064SOL    HW129828   4.211   2.481   6.769 -0.6806  0.4112  0.4795
 6064SOL    HW229829   4.264   2.544   6.647  2.2664 -2.8579 -1.0551
 6065SOL     OW29830   4.616   0.229  17.528  0.4139  0.1554  0.1541
 6065SOL    HW129831   4.556   0.269  17.466  1.1816 -1.3229 -1.5350
 6065SOL    HW229832   4.700   0.267  17.500  0.7504  0.7019  1.8772
 6066SOL     OW29833   1.764   3.729   6.998  0.0438 -0.1814 -0.1085
 6066SOL    HW129834   1.779   3.822   6.983 -1.7875 -0.1288 -1.4996
 6066SOL    HW229835   1.854   3.697   6.987 -0.0279 -0.7886  1.0430
 6067SOL     OW29836   1.149   4.560   1.784 -0.8719 -0.4914  1.0139
 6067SOL    HW129837   1.101   4.632   1.825  2.0943  1.7181  0.6366
 6067SOL    HW229838   1.228   4.611   1.768  0.1237 -2.9676 -2.0368
 6068SOL     OW29839   3.054   0.224   5.579 -0.0336  0.0196 -0.4372
 6068SOL    HW129840   3.035   0.167   5.654  0.0531 -0.0471 -0.4658
 6068SOL    HW229841   3.088   0.302   5.623 -0.0042 -1.3530  1.9304
 6069SOL     OW29842   1.001   3.860   3.661 -0.0520 -0.0892  0.0401
 6069SOL    HW129843   0.995   3.765   3.646 -2.2125  0.0895 -0.1311
 6069SOL    HW229844   1.096   3.873   3.663 -0.1556  0.5151  0.7859
 6070SOL     OW29845   3.795   4.026   2.764 -0.0538  0.5252  0.0870
 6070SOL    HW129846   3.721   3.968   2.748 -1.2188  2.1995 -0.6295
 6070SOL    HW229847   3.837   3.974   2.832  4.5995  1.6694 -1.9544
 6071SOL     OW29848   4.506   0.852   2.063 -0.2162  0.0073 -0.2397
 6071SOL    HW129849   4.593   0.816   2.046  0.5216  1.0225  1.4193
 6071SOL    HW229850   4.453   0.773   2.058 -0.6138 -0.0653  4.6572
 6072SOL     OW29851   0.288   4.339   5.604 -0.3305  0.5255 -0.1781
 6072SOL    HW129852   0.343   4.414   5.581 -0.4545 -0.1430 -2.6461
 6072SOL    HW229853   0.276   4.305   5.516 -1.9620  0.3518  0.1245
 6073SOL     OW29854   2.627   4.168  12.817  0.3097  0.3867  0.3919
 6073SOL    HW129855   2.694   4.127  12.763 -3.8123 -1.1804 -3.5340
 6073SOL    HW229856   2.664   4.256  12.814 -0.9578  0.9180  0.6001
 6074SOL     OW29857   0.670   3.393  17.572 -0.4955  0.3307 -0.0709
 6074SOL    HW129858   0.580   3.416  17.594  0.1194  0.3364  2.3897
 6074SOL    HW229859   0.674   3.416  17.479 -0.1044 -1.2863 -0.4563
 6075SOL     OW29860   1.500   1.418   4.154  0.3384  0.3916  0.1673
 6075SOL    HW129861   1.429   1.368   4.195  1.6417 -1.3034  0.3454
 6075SOL    HW229862   1.579   1.383   4.195 -0.3502 -1.3419  0.0455
 6076SOL     OW29863   4.063   3.568   0.890 -0.6862  0.5676  0.9719
 6076SOL    HW129864   4.040   3.512   0.964  0.1431 -0.5960  0.3452
 6076SOL    HW229865   4.132   3.520   0.845 -3.1050  0.2226 -2.4112
 6077SOL     OW29866   2.208   2.330   7.973 -0.3382 -0.3360  0.8262
 6077SOL    HW129867   2.220   2.343   8.067 -1.6605 -0.9219  1.0761
 6077SOL    HW229868   2.219   2.235   7.979 -1.0754 -0.4389  0.4577
 6078SOL     OW29869   0.102   0.615   8.819  1.0964 -0.4583  0.1467
 6078SOL    HW129870   0.184   0.640   8.860  0.1869  1.3470  0.8732
 6078SOL    HW229871   0.089   0.530   8.860 -0.7555 -0.1112  0.3092
 6079SOL     OW29872   4.147   4.229   5.527 -0.3326  0.0949  0.6987
 6079SOL    HW129873   4.070   4.256   5.478  1.1747 -0.5824 -2.0615
 6079SOL    HW229874   4.115   4.177   5.601 -3.6330  1.5335  0.2731
 6080SOL     OW29875   1.819   0.161  17.462 -0.1957 -0.3264 -0.3120
 6080SOL    HW129876   1.818   0.137  17.555 -1.2403 -2.3746 -0.8548
 6080SOL    HW229877   1.757   0.094  17.434  0.7067 -1.7616  1.0891
 6081SOL     OW29878   3.797   1.140   4.422  0.7092  0.4070 -0.1916
 6081SOL    HW129879   3.719   1.125   4.368  0.8993  0.6301 -0.5263
 6081SOL    HW229880   3.860   1.158   4.353  0.1405  0.0234 -0.8144
 6082SOL     OW29881   3.701   4.221  13.687 -0.1901 -0.2858 -0.2128
 6082SOL    HW129882   3.738   4.140  13.723  1.8544 -0.2943 -2.3475
 6082SOL    HW229883   3.759   4.277  13.738 -0.7940 -0.8562  1.1087
 6083SOL     OW29884   1.337   2.807   3.998  0.4764  0.0041  0.2235
 6083SOL    HW129885   1.385   2.889   3.988 -1.6484  1.3991  1.5193
 6083SOL    HW229886   1.408   2.762   4.043 -0.8029 -1.8134  0.4155
 6084SOL     OW29887   0.470   1.705   3.990 -0.0276 -0.1019 -0.5444
 6084SOL    HW129888   0.429   1.763   3.927  1.8658 -1.4894 -3.0552
 6084SOL    HW229889   0.407   1.633   3.992  1.4152 -1.3646 -0.3340
 6085SOL     OW29890   4.650   3.323  11.138 -0.0372 -0.1995  0.9332
 6085SOL    HW129891   4.706   3.398  11.117  0.0968 -1.1276 -1.9721
 6085SOL    HW229892   4.675   3.316  11.230 -2.3057 -1.2714  1.4679
 6086SOL     OW29893   2.424   0.123   5.619 -0.3690 -0.3733 -0.6478
 6086SOL    HW129894   2.443   0.169   5.537 -0.6392 -0.9080 -1.0051
 6086SOL    HW229895   2.512   0.093   5.642  0.0219  1.1924 -0.0513
 6087SOL     OW29896   3.781   4.579  12.772 -0.3917  0.0516  0.0807
 6087SOL    HW129897   3.860   4.629  12.793 -0.4718  0.6607 -1.0508
 6087SOL    HW229898   3.799   4.547  12.684  1.3192  0.9020  0.1310
 6088SOL     OW29899   2.199   1.354   7.782 -0.3088 -1.1395  0.4540
 6088SOL    HW129900   2.172   1.282   7.724  0.1804 -0.5961 -0.4304
 6088SOL    HW229901   2.108   1.383   7.788 -0.7768 -2.3214 -0.8961
 6089SOL     OW29902   0.499   0.601   2.367  0.5731  0.1710  0.4852
 6089SOL    HW129903   0.520   0.513   2.336 -2.7557 -0.5350  0.2174
 6089SOL    HW229904   0.552   0.653   2.307 -0.2362 -0.7188 -0.9945
 6090SOL     OW29905   3.037   1.036  17.678  0.6790 -0.2497 -0.4303
 6090SOL    HW129906   3.057   1.103   0.000 -2.6917  0.5876 -0.2590
 6090SOL    HW229907   2.951   1.007  17.710  1.4543 -2.8512 -0.6811
 6091SOL     OW29908   3.424   4.366   3.713 -0.0463 -0.0479  0.1387
 6091SOL    HW129909   3.432   4.280   3.754  1.8862  0.6597  1.2377
 6091SOL    HW229910   3.416   4.421   3.791  0.2597  1.8105 -1.1517
 6092SOL     OW29911   0.889   2.549   4.076  0.1773  0.3083 -0.2671
 6092SOL    HW129912   0.840   2.467   4.070  1.5224 -0.2570 -3.5916
 6092SOL    HW229913   0.953   2.534   4.007 -0.0279  2.2673 -0.8955
 6093SOL     OW29914   4.492   2.135   2.352  0.3641  0.1214 -0.1478
 6093SOL    HW129915   4.561   2.110   2.290  2.5527  0.7040  2.0920
 6093SOL    HW229916   4.527   2.092   2.429 -0.7082 -0.0472  0.2512
 6094SOL     OW29917   2.007   2.157  13.123  0.1566 -0.0679 -0.5326
 6094SOL    HW129918   1.958   2.231  13.087  1.8292  0.8027 -1.0024
 6094SOL    HW229919   2.025   2.189  13.212 -0.5837  1.0391 -0.7907
 6095SOL     OW29920   3.735   4.111   5.642 -0.1873 -0.0096  0.4386
 6095SOL    HW129921   3.736   4.097   5.548  3.4233 -1.3191  0.6745
 6095SOL    HW229922   3.820   4.154   5.645  0.5171 -1.4669  1.4169
 6096SOL     OW29923   0.482   2.320   6.065  0.3315  0.3358 -0.2503
 6096SOL    HW129924   0.483   2.332   6.160 -0.2789 -2.3555  0.1063
 6096SOL    HW229925   0.543   2.392   6.046  0.6012 -0.3208 -1.8394
 6097SOL     OW29926   2.065   1.448   1.389  0.2265  0.2063 -0.2253
 6097SOL    HW129927   2.058   1.372   1.332  2.8508  0.5839 -1.0498
 6097SOL    HW229928   2.157   1.451   1.415 -0.1537  2.6379  0.8806
 6098SOL     OW29929   0.111   3.619  10.828 -0.0119  0.2281 -0.1742
 6098SOL    HW129930   0.143   3.531  10.807 -1.2459  0.6276 -3.8051
 6098SOL    HW229931   0.159   3.667  10.761  2.4084 -4.0801 -1.5403
 6099SOL     OW29932   1.079   1.054  17.531 -0.8360  0.2250 -0.3131
 6099SOL    HW129933   1.165   1.014  17.517  0.3813  2.9155 -0.4717
 6099SOL    HW229934   1.106   1.140  17.564 -0.6658  0.9298 -2.2565
 6100SOL     OW29935   3.481   4.271  13.818 -0.3077 -0.7301  0.5677
 6100SOL    HW129936   3.553   4.252  13.758  0.4522 -1.3755  1.6932
 6100SOL    HW229937   3.422   4.327  13.768  1.7299 -1.2863 -2.4763
 6101SOL     OW29938   2.903   1.712   4.190  0.4283 -0.3080 -0.6849
 6101SOL    HW129939   2.814   1.719   4.155 -0.2237  1.7855  1.3857
 6101SOL    HW229940   2.900   1.771   4.265  0.2304 -1.3211  0.1009
 6102SOL     OW29941   0.334   0.181   2.529  0.0811 -0.4408 -0.4561
 6102SOL    HW129942   0.409   0.147   2.578 -1.9349 -1.2122  2.0791
 6102SOL    HW229943   0.278   0.213   2.600 -0.1309 -0.2390 -0.7154
 6103SOL     OW29944   3.801   3.651   3.881 -0.6224 -0.0845 -0.6446
 6103SOL    HW129945   3.824   3.621   3.792  1.0658  0.1584 -0.3019
 6103SOL    HW229946   3.766   3.569   3.914 -1.0214  0.5414  0.4519
 6104SOL     OW29947   2.610   4.472   6.437 -0.6694 -0.1282 -0.0641
 6104SOL    HW129948   2.584   4.384   6.463 -1.1504 -0.9916 -3.4229
 6104SOL    HW229949   2.585   4.484   6.345  0.8444  1.7161 -0.2377
 6105SOL     OW29950   1.690   2.753   2.057 -0.0925 -0.4045 -0.4150
 6105SOL    HW129951   1.703   2.658   2.064 -1.9483 -0.6466 -0.0143
 6105SOL    HW229952   1.774   2.787   2.089 -0.8028 -1.7914  2.9973
 6106SOL     OW29953   2.533   3.782   8.623 -0.3487 -0.3419 -0.4389
 6106SOL    HW129954   2.530   3.802   8.716 -1.3658  1.2230 -0.8159
 6106SOL    HW229955   2.573   3.863   8.590 -0.8722 -0.4010 -1.2281
 6107SOL     OW29956   4.453   2.462   8.356  0.3413  0.0145 -0.5278
 6107SOL    HW129957   4.499   2.386   8.320  3.3507  1.0323  1.1789
 6107SOL    HW229958   4.368   2.452   8.313  1.2469 -1.5155 -1.9668
 6108SOL     OW29959   2.121   0.546   5.290 -0.0527 -0.1574  0.2936
 6108SOL    HW129960   2.056   0.546   5.361  0.8064  0.3630  1.0805
 6108SOL    HW229961   2.136   0.454   5.267  0.5020  0.2726 -1.0404
 6109SOL     OW29962   4.498   2.557  17.603  0.6510 -0.1726  0.5098
 6109SOL    HW129963   4.424   2.533  17.548  0.8201  0.0899  0.1656
 6109SOL    HW229964   4.458   2.561  17.690 -1.3302 -2.6582 -0.3156
 6110SOL     OW29965   3.159   2.621   0.936  0.5173  0.8685 -0.0827
 6110SOL    HW129966   3.117   2.551   0.986  1.9260 -0.9230 -1.4476
 6110SOL    HW229967   3.122   2.603   0.850  1.8515 -1.5687 -0.1522
 6111SOL     OW29968   1.068   3.770   2.403  0.1146 -0.0285  0.2415
 6111SOL    HW129969   1.049   3.751   2.495 -0.8127  0.5641  0.1632
 6111SOL    HW229970   1.038   3.860   2.401 -0.4179 -0.1952  0.6408
 6112SOL     OW29971   2.070   1.149   0.616 -0.5591  0.0710 -0.0583
 6112SOL    HW129972   1.985   1.127   0.580 -0.6730 -1.8040  1.3358
 6112SOL    HW229973   2.072   1.091   0.693 -0.2310  2.1134  1.4611
 6113SOL     OW29974   3.199   1.377   3.803 -0.0156 -0.2026 -0.0186
 6113SOL    HW129975   3.202   1.343   3.714  0.5675 -0.8997  0.2605
 6113SOL    HW229976   3.288   1.412   3.815 -0.5168  1.8163 -2.2787
 6114SOL     OW29977   2.011   1.425   2.635 -0.4672 -0.2925 -0.4827
 6114SOL    HW129978   1.946   1.485   2.672 -0.9534 -1.0482 -0.1182
 6114SOL    HW229979   2.095   1.471   2.629 -1.2045  1.3355  1.5153
 6115SOL     OW29980   2.323   1.355   6.139 -0.2899 -0.3785  0.4665
 6115SOL    HW129981   2.357   1.266   6.125  1.1851  0.2615 -0.0110
 6115SOL    HW229982   2.230   1.333   6.132 -0.5003 -0.0490  2.1790
 6116SOL     OW29983   4.175   0.278  12.387 -0.2724  0.0606  0.5169
 6116SOL    HW129984   4.226   0.339  12.333 -0.6511  0.3218  0.4551
 6116SOL    HW229985   4.133   0.337  12.449 -0.4112  2.4447 -1.8319
 6117SOL     OW29986   4.381   0.737   1.475  0.0486 -0.5941 -0.3602
 6117SOL    HW129987   4.410   0.715   1.387 -1.9164 -0.0071 -1.1597
 6117SOL    HW229988   4.370   0.830   1.459  0.6555 -0.3167  0.8105
 6118SOL     OW29989   0.434   1.988   2.634 -0.4964 -0.0388  0.1686
 6118SOL    HW129990   0.464   2.078   2.646 -0.0886 -0.5009  2.6193
 6118SOL    HW229991   0.496   1.935   2.685 -1.7706 -2.6445 -0.9954
 6119SOL     OW29992   2.981   4.567   7.417  0.6291 -0.2425 -0.3908
 6119SOL    HW129993   2.893   4.603   7.402 -0.6420 -2.5883  1.4471
 6119SOL    HW229994   2.969   4.486   7.368 -2.0957  0.7345 -1.3898
 6120SOL     OW29995   1.102   1.146  13.956 -0.3984 -0.4834 -0.4902
 6120SOL    HW129996   1.093   1.083  13.885 -0.9705 -0.2454 -0.6226
 6120SOL    HW229997   1.016   1.136  13.996  0.2497  2.4175  1.6412
 6121SOL     OW29998   3.877   1.234   3.566 -0.2553  0.4407 -0.7759
 6121SOL    HW129999   3.832   1.151   3.581  1.1682 -0.4137 -1.2888
 6121SOL    HW230000   3.958   1.199   3.529  0.3795  0.5146  0.5180
 6122SOL     OW30001   2.033   1.504  11.498 -0.6075 -0.6095  0.5037
 6122SOL    HW130002   2.031   1.592  11.461 -1.4392  0.5382  3.2840
 6122SOL    HW230003   2.070   1.457  11.423 -0.1047  0.0317  0.3484
 6123SOL     OW30004   0.356   4.608   5.160  0.0556 -0.5595 -0.2838
 6123SOL    HW130005   0.390   4.677   5.217 -1.6429 -0.5438  0.7226
 6123SOL    HW230006   0.334   4.658   5.082  0.9719  1.0160  0.4717
 6124SOL     OW30007   4.180   3.866   5.645  0.0168  0.0634  0.0376
 6124SOL    HW130008   4.183   3.776   5.613  0.7792 -0.3146  1.1530
 6124SOL    HW230009   4.255   3.898   5.594 -0.6709  0.9735 -0.3981
 6125SOL     OW30010   1.921   2.648  10.186  0.4176  0.1620  0.1966
 6125SOL    HW130011   1.956   2.737  10.192  1.0713  0.0470 -1.6861
 6125SOL    HW230012   1.895   2.638  10.278  2.9473 -0.1987  0.8747
 6126SOL     OW30013   3.461   3.432  12.139  0.2836 -0.6889  0.1717
 6126SOL    HW130014   3.536   3.457  12.192  0.2792  1.5965 -0.8951
 6126SOL    HW230015   3.474   3.354  12.084 -0.1470 -1.1242  0.6885
 6127SOL     OW30016   1.063   1.274  16.401 -0.0931 -0.8439  0.4959
 6127SOL    HW130017   1.140   1.240  16.447  0.2697 -1.5098 -0.6175
 6127SOL    HW230018   1.052   1.210  16.330  0.8921 -2.3264  1.6751
 6128SOL     OW30019   3.344   1.772  16.914 -0.8731  0.3622 -0.3923
 6128SOL    HW130020   3.271   1.717  16.886  1.2825 -2.4605 -0.4860
 6128SOL    HW230021   3.364   1.741  17.002 -1.3958  0.4736 -0.2393
 6129SOL     OW30022   3.578   0.061   7.472 -0.3276  0.2452 -0.7203
 6129SOL    HW130023   3.560   0.155   7.484  2.8941  0.6001  1.3841
 6129SOL    HW230024   3.610   0.070   7.383 -0.3332 -2.2644 -0.9657
 6130SOL     OW30025   1.334   4.427   5.954  0.0536  0.0043 -0.2837
 6130SOL    HW130026   1.386   4.499   5.920 -0.9004 -0.3909 -2.5923
 6130SOL    HW230027   1.246   4.461   5.962 -0.6595 -1.7271 -0.6782
 6131SOL     OW30028   0.194   3.665   7.915 -0.3881  0.0233  0.5486
 6131SOL    HW130029   0.199   3.704   8.002  1.2220  0.4419  0.2714
 6131SOL    HW230030   0.205   3.750   7.872  0.2299 -0.0422  0.5792
 6132SOL     OW30031   1.783   3.080   4.292  0.4870  0.7871  0.2704
 6132SOL    HW130032   1.808   3.117   4.207  0.2752  0.1538 -0.0656
 6132SOL    HW230033   1.860   3.056   4.343 -0.3749  1.6646  1.9787
 6133SOL     OW30034   0.448   3.879   5.599  0.0630  0.7579  0.0457
 6133SOL    HW130035   0.499   3.798   5.599 -1.3036 -0.1064 -0.9397
 6133SOL    HW230036   0.376   3.867   5.537 -1.6230 -2.2589  2.5959
 6134SOL     OW30037   3.112   2.906   1.014 -0.3125  0.3150 -0.6871
 6134SOL    HW130038   3.116   2.812   0.994  1.6567  0.5143 -1.2526
 6134SOL    HW230039   3.180   2.936   0.953  0.5014  2.4283  1.2584
 6135SOL     OW30040   4.397   2.167   4.293 -0.0579  0.9165 -0.2640
 6135SOL    HW130041   4.470   2.123   4.250 -1.5244 -1.9797  0.1828
 6135SOL    HW230042   4.353   2.093   4.336 -0.2793  0.5344 -1.1356
 6136SOL     OW30043   0.723   0.581   8.863 -0.0175 -0.0358 -0.6589
 6136SOL    HW130044   0.812   0.595   8.830  0.7964  2.3888  2.5811
 6136SOL    HW230045   0.673   0.659   8.840  1.0248  0.9828  0.5225
 6137SOL     OW30046   0.811   1.589   3.488  0.0970  0.3668 -0.7426
 6137SOL    HW130047   0.780   1.644   3.416 -1.3085  1.4529  0.7271
 6137SOL    HW230048   0.889   1.544   3.454  1.7590  0.8988  2.4092
 6138SOL     OW30049   3.702   1.697   6.714  0.0784 -0.6979  0.3016
 6138SOL    HW130050   3.724   1.640   6.641  0.5483  1.4512 -1.2273
 6138SOL    HW230051   3.731   1.646   6.790 -0.6981 -0.5358  0.7116
 6139SOL     OW30052   0.464   1.939   4.360  0.4115 -0.3637 -0.0628
 6139SOL    HW130053   0.437   1.857   4.401  1.4392  0.3119  1.9574
 6139SOL    HW230054   0.541   1.905   4.314  1.8961  0.4067  1.8836
 6140SOL     OW30055   2.983   2.131  10.226 -0.1740  0.5520 -0.1646
 6140SOL    HW130056   2.985   2.092  10.314 -1.5504  0.3165 -0.2281
 6140SOL    HW230057   2.921   2.203  10.242 -0.5341  0.4490 -1.0975
 6141SOL     OW30058   2.961   0.243   6.360  0.0526  0.2108  0.2776
 6141SOL    HW130059   3.030   0.297   6.399  1.8865 -2.7837  1.1760
 6141SOL    HW230060   2.918   0.227   6.444  0.7547 -0.5497  0.4985
 6142SOL     OW30061   4.093   1.902   5.700 -0.1806 -0.2457  0.1964
 6142SOL    HW130062   4.045   1.845   5.760  0.1060  0.2947  0.9275
 6142SOL    HW230063   4.062   1.981   5.743 -2.1180 -0.4378 -0.8572
 6143SOL     OW30064   2.395   1.424   7.944  0.1865 -0.6623 -0.0408
 6143SOL    HW130065   2.354   1.371   8.012  0.4421 -0.8776 -0.0595
 6143SOL    HW230066   2.337   1.414   7.868 -1.3014  0.0002  0.9943
 6144SOL     OW30067   2.944   3.714   6.900  0.6110  0.0707  1.0383
 6144SOL    HW130068   2.860   3.698   6.858  2.0529 -2.5907 -0.8189
 6144SOL    HW230069   2.945   3.806   6.872  3.5540  0.2516  1.6646
 6145SOL     OW30070   1.226   0.312   8.785 -0.0862  0.8667 -0.0069
 6145SOL    HW130071   1.147   0.284   8.832  1.1697 -1.2363  0.8164
 6145SOL    HW230072   1.213   0.266   8.703  0.3476 -1.2890  1.1342
 6146SOL     OW30073   3.139   1.158   1.870 -0.2988 -0.0484  0.3929
 6146SOL    HW130074   3.139   1.219   1.944  2.1787 -0.7687  0.9736
 6146SOL    HW230075   3.217   1.190   1.825 -1.9053  2.4027 -0.6841
 6147SOL     OW30076   3.395   3.252  10.234  0.5210  0.0763 -0.2899
 6147SOL    HW130077   3.466   3.195  10.262 -0.0723 -1.4326 -1.8477
 6147SOL    HW230078   3.383   3.311  10.309  2.4657 -0.2260  0.2655
 6148SOL     OW30079   2.828   2.428  16.078  0.0995  0.6164  0.0830
 6148SOL    HW130080   2.847   2.522  16.071  1.7756  0.4063  1.9097
 6148SOL    HW230081   2.874   2.395  16.000 -2.3486 -3.2571  0.2991
 6149SOL     OW30082   1.955   0.868  13.733  0.1702  0.3123  0.2615
 6149SOL    HW130083   1.888   0.908  13.678  1.0819 -1.8369 -2.3607
 6149SOL    HW230084   1.927   0.777  13.723  1.7863 -0.2231  0.6392
 6150SOL     OW30085   0.626   3.821   4.881 -0.1966 -0.1460 -0.1722
 6150SOL    HW130086   0.669   3.758   4.938  1.6544  0.1931 -1.1841
 6150SOL    HW230087   0.532   3.804   4.889 -0.5382 -0.0491 -3.8117
 6151SOL     OW30088   4.167   0.155  10.935 -0.1474 -0.1902 -0.1054
 6151SOL    HW130089   4.145   0.104  10.857 -0.0429  0.9054 -0.8479
 6151SOL    HW230090   4.257   0.126  10.945 -0.0217  0.5817  1.1323
 6152SOL     OW30091   3.865   0.676  15.943 -0.2578  0.6679 -0.0583
 6152SOL    HW130092   3.944   0.711  15.901 -0.2404 -0.1259 -0.7124
 6152SOL    HW230093   3.799   0.689  15.875 -0.1172 -2.5803 -0.8577
 6153SOL     OW30094   0.703   4.386  12.250 -0.0897 -1.0472 -0.3127
 6153SOL    HW130095   0.670   4.311  12.298  3.7408 -1.4495  1.6863
 6153SOL    HW230096   0.619   4.406  12.209  0.1205 -0.5826 -0.5160
 6154SOL     OW30097   0.635   3.630  12.850  0.4033 -0.0223  0.2780
 6154SOL    HW130098   0.591   3.574  12.913 -0.8338  1.8802  1.1315
 6154SOL    HW230099   0.607   3.714  12.886 -1.2633  0.2913 -1.7111
 6155SOL     OW30100   3.260   0.063   6.574  0.0631 -0.2096 -0.4136
 6155SOL    HW130101   3.230   0.028   6.658  0.5654 -0.9884 -0.5541
 6155SOL    HW230102   3.233   0.152   6.592 -0.7752 -0.5186 -0.1561
 6156SOL     OW30103   1.011   3.711  13.282  0.4090 -0.0842  0.2993
 6156SOL    HW130104   1.054   3.795  13.267  1.3034 -0.5145  0.4345
 6156SOL    HW230105   0.917   3.729  13.273  0.0242 -2.2300 -0.0278
 6157SOL     OW30106   3.947   0.393   3.259  0.3039 -1.2693  0.0802
 6157SOL    HW130107   3.944   0.298   3.259  1.4624 -1.3028  0.1583
 6157SOL    HW230108   3.857   0.395   3.226 -0.2005 -0.4824  1.4993
 6158SOL     OW30109   0.417   3.480  17.638 -0.8015 -0.4410  0.1887
 6158SOL    HW130110   0.454   3.560  17.601 -2.2371 -0.5512 -1.5093
 6158SOL    HW230111   0.331   3.506  17.670 -0.1007  1.7301  0.2497
 6159SOL     OW30112   4.736   2.659  13.298 -0.8463  0.2537 -0.1206
 6159SOL    HW130113   0.053   2.714  13.241 -1.5289 -0.7808 -1.7611
 6159SOL    HW230114   0.058   2.647  13.373  0.4455  0.9266 -1.0319
 6160SOL     OW30115   0.036   2.921  17.406 -0.1019  0.2990  0.4711
 6160SOL    HW130116   4.694   2.907  17.353  1.6119  2.1194 -2.5274
 6160SOL    HW230117   0.019   2.854  17.472  1.0844 -2.6058 -2.1699
 6161SOL     OW30118   2.433   0.556   9.337  0.0742  0.1827 -0.2476
 6161SOL    HW130119   2.418   0.522   9.249  1.0915 -0.1454 -0.2910
 6161SOL    HW230120   2.363   0.521   9.392 -0.0120  2.5421  1.1922
 6162SOL     OW30121   3.141   1.113   4.427  0.6618 -0.2577  0.1693
 6162SOL    HW130122   3.055   1.127   4.388  1.1533  0.1779 -0.7471
 6162SOL    HW230123   3.113   1.069   4.507  3.2220 -0.6306  0.8847
 6163SOL     OW30124   2.318   2.111   8.128 -0.2727 -0.0005 -0.2014
 6163SOL    HW130125   2.282   2.097   8.216 -1.7047  0.5252 -0.7098
 6163SOL    HW230126   2.396   2.164   8.145 -1.1991  1.1292  0.5663
 6164SOL     OW30127   3.532   3.303   5.639 -0.2375 -0.1439 -0.2230
 6164SOL    HW130128   3.581   3.295   5.721 -0.8098 -0.9141  0.0487
 6164SOL    HW230129   3.501   3.393   5.628 -1.0593 -0.5590 -1.3457
 6165SOL     OW30130   3.562   0.516   9.963 -0.4166  0.4755 -0.4699
 6165SOL    HW130131   3.602   0.509   9.876 -1.4546  0.1824 -0.9252
 6165SOL    HW230132   3.548   0.425   9.990  1.2248  0.0819 -0.9363
 6166SOL     OW30133   1.360   2.963   9.347  0.0021  0.1315 -0.0506
 6166SOL    HW130134   1.301   2.947   9.274 -0.4877  0.9961  0.1619
 6166SOL    HW230135   1.384   2.873   9.372 -0.2023  0.3726  1.0350
 6167SOL     OW30136   4.290   1.011   8.737  0.4484 -0.8627 -0.2441
 6167SOL    HW130137   4.210   0.994   8.785  1.3125 -0.6534  1.2631
 6167SOL    HW230138   4.361   1.011   8.801 -0.4899 -1.0218  0.7727
 6168SOL     OW30139   1.733   4.451   8.526  0.1153  0.2582 -0.1090
 6168SOL    HW130140   1.778   4.479   8.446 -0.2245 -1.0748 -0.7801
 6168SOL    HW230141   1.808   4.408   8.569 -1.5022  1.3900  3.7695
 6169SOL     OW30142   1.885   1.510   6.933  0.5117 -0.0810 -0.2624
 6169SOL    HW130143   1.923   1.559   7.006 -0.6435  2.0153 -1.0535
 6169SOL    HW230144   1.793   1.521   6.958  0.0601 -1.0093 -1.5122
 6170SOL     OW30145   2.747   3.911   5.107 -0.4448 -0.1353 -0.2964
 6170SOL    HW130146   2.770   3.906   5.014  0.0510 -0.2394 -0.1679
 6170SOL    HW230147   2.804   3.983   5.135  0.9711 -1.0650 -0.7879
 6171SOL     OW30148   4.099   0.760   6.507  0.2179  0.3080  0.5287
 6171SOL    HW130149   4.194   0.751   6.519 -0.0488  0.4813  2.6850
 6171SOL    HW230150   4.089   0.837   6.562  0.0564  2.0318 -1.9194
 6172SOL     OW30151   1.685   0.661   6.802  0.4472 -0.4506  0.1436
 6172SOL    HW130152   1.599   0.703   6.805  0.5540 -0.1628 -0.7711
 6172SOL    HW230153   1.744   0.736   6.792 -1.1307  0.6961 -0.4712
 6173SOL     OW30154   3.376   3.089   1.401 -0.2741 -0.2439  0.2722
 6173SOL    HW130155   3.305   3.115   1.342  0.1028  1.8615  0.7516
 6173SOL    HW230156   3.452   3.120   1.352 -0.2601  0.5641  0.7998
 6174SOL     OW30157   0.029   3.122  14.386  0.3090  0.8090 -0.6616
 6174SOL    HW130158   4.713   3.078  14.319  0.8767 -3.5396  1.7526
 6174SOL    HW230159   0.115   3.098  14.352  0.0877  0.0399 -0.6659
 6175SOL     OW30160   4.099   2.107  16.219 -0.0953 -0.2532 -0.3398
 6175SOL    HW130161   4.167   2.044  16.241 -1.1862 -1.4119 -0.2858
 6175SOL    HW230162   4.030   2.041  16.224 -0.8236  0.5589  0.2831
 6176SOL     OW30163   3.493   1.224   0.487  0.3297  0.1830 -0.0439
 6176SOL    HW130164   3.554   1.151   0.495  0.3333  0.2620  0.7209
 6176SOL    HW230165   3.552   1.299   0.489  0.4227  0.1067  0.0973
 6177SOL     OW30166   3.034   0.712  16.255 -0.0694  0.3902 -0.0840
 6177SOL    HW130167   2.959   0.763  16.286 -0.2552 -0.6715  1.2101
 6177SOL    HW230168   3.080   0.789  16.221 -0.4050  0.8084  0.4006
 6178SOL     OW30169   1.268   3.615   3.576 -0.4533 -0.0635 -0.0514
 6178SOL    HW130170   1.313   3.699   3.583  0.0200 -0.5526  2.5063
 6178SOL    HW230171   1.261   3.606   3.671  0.0795  2.2506  0.2143
 6179SOL     OW30172   3.324   2.376   1.307 -0.5144  0.7140  0.1155
 6179SOL    HW130173   3.266   2.420   1.368  0.8714  0.9206  1.2943
 6179SOL    HW230174   3.395   2.440   1.313 -1.0699  1.2023  1.4244
 6180SOL     OW30175   1.707   0.867   3.420 -0.0771  0.5190  0.7279
 6180SOL    HW130176   1.676   0.896   3.334  0.6947 -0.7155  0.0467
 6180SOL    HW230177   1.792   0.826   3.406 -0.2769  0.9194 -1.6304
 6181SOL     OW30178   1.206   4.369   4.197 -0.2220 -0.3018  0.4839
 6181SOL    HW130179   1.212   4.457   4.233 -0.3896 -0.3410  0.6081
 6181SOL    HW230180   1.257   4.318   4.259 -0.5601  0.2818  1.2361
 6182SOL     OW30181   3.148   0.515   9.403 -0.6909  0.6716  0.2807
 6182SOL    HW130182   3.092   0.438   9.411  0.5345 -0.0674  1.8857
 6182SOL    HW230183   3.176   0.525   9.494 -1.2764  0.2874  0.5042
 6183SOL     OW30184   3.546   3.941  15.040 -0.3148 -0.0551  0.2872
 6183SOL    HW130185   3.501   3.858  15.028  0.6344 -0.1824 -2.4309
 6183SOL    HW230186   3.562   3.962  14.948  0.5262  0.2024  0.4881
 6184SOL     OW30187   1.347   0.871   8.511  0.5645  0.5131  0.0370
 6184SOL    HW130188   1.426   0.855   8.459  2.1851  0.0963  2.6485
 6184SOL    HW230189   1.390   0.877   8.596 -2.9724  1.6984  1.7382
 6185SOL     OW30190   3.460   4.380   0.163  0.3532  0.0289  0.6190
 6185SOL    HW130191   3.509   4.327   0.226 -0.3878 -0.2899  0.9333
 6185SOL    HW230192   3.369   4.355   0.181 -0.7216  3.5911  0.1885
 6186SOL     OW30193   3.687   4.593   4.378 -0.5225  0.1916  0.1195
 6186SOL    HW130194   3.726   4.580   4.465 -0.5934  0.4004  0.1828
 6186SOL    HW230195   3.683   4.688   4.367  0.7911  0.1421 -0.8653
 6187SOL     OW30196   2.053   0.176   4.334  0.2468 -0.3518 -0.1803
 6187SOL    HW130197   2.104   0.125   4.397  0.3625 -0.2196 -0.1663
 6187SOL    HW230198   2.084   0.126   4.259 -1.4482  0.7731 -1.6406
 6188SOL     OW30199   1.207   2.893   4.965 -0.1316 -0.0178  0.6618
 6188SOL    HW130200   1.230   2.882   5.057  0.7640  1.0190  0.5583
 6188SOL    HW230201   1.115   2.868   4.954 -0.1404  1.2133 -2.2591
 6189SOL     OW30202   3.272   1.466  15.706 -0.3895  0.0259  0.8389
 6189SOL    HW130203   3.222   1.391  15.736 -0.8750  0.8082  1.9796
 6189SOL    HW230204   3.294   1.432  15.619 -0.2909 -2.6692  1.9393
 6190SOL     OW30205   3.497   0.808  13.768  0.2044 -0.4594  0.1335
 6190SOL    HW130206   3.438   0.805  13.843 -1.8015 -1.9522 -1.4845
 6190SOL    HW230207   3.443   0.841  13.695 -1.2791 -1.9596  0.5389
 6191SOL     OW30208   4.508   0.679   7.065 -0.0607  0.5484 -0.1861
 6191SOL    HW130209   4.503   0.698   7.158 -0.6894  0.5128 -0.2128
 6191SOL    HW230210   4.527   0.766   7.030 -0.5564  0.1401 -1.4953
 6192SOL     OW30211   0.618   3.516  13.153  0.0646 -0.5233 -0.7064
 6192SOL    HW130212   0.713   3.527  13.145 -0.1070  1.4623 -0.0228
 6192SOL    HW230213   0.608   3.428  13.117  0.7443 -1.5893  1.7338
 6193SOL     OW30214   2.909   2.780   6.900 -0.7139  0.2532 -0.4198
 6193SOL    HW130215   2.846   2.726   6.852 -1.4588  1.6958 -1.0868
 6193SOL    HW230216   2.955   2.814   6.824 -1.9703  1.0782 -0.8207
 6194SOL     OW30217   0.696   3.039   7.853 -0.0469  0.6847  0.0713
 6194SOL    HW130218   0.601   3.047   7.853 -0.2284 -1.7064  0.3445
 6194SOL    HW230219   0.717   3.077   7.767 -2.6414  3.1172  0.5234
 6195SOL     OW30220   4.051   1.320  13.332 -0.1876  0.3230 -0.2976
 6195SOL    HW130221   4.055   1.388  13.265  0.5717 -0.2106 -0.7948
 6195SOL    HW230222   4.079   1.246  13.278 -0.4936 -0.4677  0.6270
 6196SOL     OW30223   3.559   1.349   4.652 -0.2078 -0.0281 -0.2451
 6196SOL    HW130224   3.468   1.323   4.637  0.6700 -2.1376 -1.8389
 6196SOL    HW230225   3.588   1.347   4.561 -0.0949  1.2093 -0.2343
 6197SOL     OW30226   3.839   2.700   8.815 -0.0145  0.2850  0.1120
 6197SOL    HW130227   3.925   2.694   8.857 -0.1752  1.0281  0.5625
 6197SOL    HW230228   3.786   2.662   8.885  2.1727  0.6255  1.9515
 6198SOL     OW30229   1.743   1.486   2.821  0.0077  0.1208 -0.0231
 6198SOL    HW130230   1.668   1.527   2.779  0.8945 -0.5233 -2.2360
 6198SOL    HW230231   1.776   1.559   2.873 -1.0393  1.1375 -0.7974
 6199SOL     OW30232   2.537   4.355  10.385  0.4280  0.3801 -0.4164
 6199SOL    HW130233   2.508   4.266  10.406  0.3973  0.7895  1.2795
 6199SOL    HW230234   2.620   4.363  10.432 -0.2027  1.0098  0.5820
 6200SOL     OW30235   2.681   3.780   7.485  0.4310  0.1978  0.1440
 6200SOL    HW130236   2.667   3.864   7.440  0.0813  0.2397  0.3331
 6200SOL    HW230237   2.607   3.725   7.457  1.1371  0.0202 -1.3552
 6201SOL     OW30238   3.704   3.278  16.905 -0.0207  0.5165 -0.2511
 6201SOL    HW130239   3.615   3.244  16.893 -1.2771  3.4703  0.6382
 6201SOL    HW230240   3.751   3.201  16.873 -0.0653 -0.1656  1.3424
 6202SOL     OW30241   2.977   2.476   1.171 -0.0007 -0.2161 -0.1375
 6202SOL    HW130242   2.906   2.540   1.175 -0.3889 -0.6957  0.8754
 6202SOL    HW230243   3.036   2.517   1.235 -1.0297 -2.2436  2.1292
 6203SOL     OW30244   3.729   4.254   1.722  0.0099  0.0262 -0.2728
 6203SOL    HW130245   3.742   4.349   1.721 -2.3516  0.3503 -0.3102
 6203SOL    HW230246   3.640   4.250   1.689 -0.2006  3.9772 -0.1878
 6204SOL     OW30247   2.609   3.133   7.389 -0.3541 -0.0488 -0.2920
 6204SOL    HW130248   2.657   3.074   7.447 -0.3470  1.7228  1.4926
 6204SOL    HW230249   2.521   3.115   7.421  0.4074 -0.2945  1.6985
 6205SOL     OW30250   0.692   1.461   3.698 -0.0816 -0.5477  0.1959
 6205SOL    HW130251   0.730   1.502   3.620  1.2238 -4.5094 -1.2870
 6205SOL    HW230252   0.609   1.428   3.665 -0.2059 -0.7096  0.6749
 6206SOL     OW30253   1.787   3.187  16.081  0.5912 -0.3348  0.4085
 6206SOL    HW130254   1.744   3.135  16.013  0.6662  1.1553 -0.7684
 6206SOL    HW230255   1.720   3.233  16.132  1.1132  0.2629  0.5608
 6207SOL     OW30256   3.027   0.196   3.681 -0.2348  0.0294 -0.0081
 6207SOL    HW130257   3.015   0.167   3.771  1.6739  1.7191  0.7935
 6207SOL    HW230258   2.943   0.167   3.645  1.0444 -1.6583 -1.5976
 6208SOL     OW30259   0.554   3.063   5.146  0.6906 -0.1681  0.3285
 6208SOL    HW130260   0.601   3.013   5.212  1.9294 -0.6972 -0.9530
 6208SOL    HW230261   0.613   3.062   5.070  0.2872  3.6490 -0.0376
 6209SOL     OW30262   3.012   3.953   6.804 -0.1593 -0.5832 -0.1085
 6209SOL    HW130263   2.961   4.014   6.751 -0.8933 -1.4830 -0.4381
 6209SOL    HW230264   3.026   3.997   6.888  0.4882  0.2324 -0.6378
 6210SOL     OW30265   3.790   0.545   8.297 -0.1931 -0.3543 -0.1455
 6210SOL    HW130266   3.771   0.514   8.385 -0.4628  0.8846  0.2333
 6210SOL    HW230267   3.855   0.611   8.321  0.1638 -1.4921  1.9603
 6211SOL     OW30268   2.390   1.451  13.716 -0.1564 -0.3858 -0.6807
 6211SOL    HW130269   2.432   1.502  13.785 -0.9386  2.0397 -2.0118
 6211SOL    HW230270   2.419   1.361  13.732 -0.7850 -0.5993 -0.7576
 6212SOL     OW30271   2.704   0.670   7.490  0.4788  0.0593  0.1283
 6212SOL    HW130272   2.609   0.672   7.482  0.6330  4.3155 -0.3507
 6212SOL    HW230273   2.728   0.582   7.460  0.1166 -0.1294  0.3970
 6213SOL     OW30274   2.555   0.740   6.103 -0.5444  0.2145  0.2306
 6213SOL    HW130275   2.508   0.700   6.029 -2.2312 -0.7713  1.8265
 6213SOL    HW230276   2.504   0.720   6.182 -0.2155  1.6307  0.8035
 6214SOL     OW30277   3.250   2.185   8.290  0.2484  0.2064 -0.7422
 6214SOL    HW130278   3.163   2.209   8.259 -0.0697 -0.8229 -0.6370
 6214SOL    HW230279   3.254   2.101   8.336 -2.6188  0.5077  0.0637
 6215SOL     OW30280   3.485   3.836   5.169 -0.3891 -0.5019  0.4308
 6215SOL    HW130281   3.426   3.910   5.161 -1.0202 -1.0921 -0.4287
 6215SOL    HW230282   3.417   3.777   5.200  0.2554 -0.9583  0.9847
 6216SOL     OW30283   4.407   2.369  10.369 -0.3186  0.1924  0.2808
 6216SOL    HW130284   4.447   2.374  10.282 -2.2946  1.1739 -0.5547
 6216SOL    HW230285   4.483   2.411  10.409 -0.0001  0.3235 -0.4544
 6217SOL     OW30286   4.130   2.580   8.786  0.3700  0.0322 -0.5032
 6217SOL    HW130287   4.170   2.628   8.713 -1.2091  2.0573 -0.0197
 6217SOL    HW230288   4.141   2.647   8.853 -0.2455  0.6529 -1.0145
 6218SOL     OW30289   0.853   1.173   3.032  0.2473 -0.1018 -0.0043
 6218SOL    HW130290   0.891   1.093   2.996 -0.1935 -0.8040  1.1000
 6218SOL    HW230291   0.771   1.171   2.983  0.0517 -2.1637  0.4236
 6219SOL     OW30292   1.828   0.220   6.781 -0.2515  0.1194  0.3801
 6219SOL    HW130293   1.901   0.282   6.780 -0.7513  0.6881 -0.8375
 6219SOL    HW230294   1.756   0.283   6.778  0.3118  0.7954  0.9789
 6220SOL     OW30295   2.472   4.564   2.628  1.0798  0.2386 -0.9569
 6220SOL    HW130296   2.544   4.542   2.686 -0.6282 -2.3913  0.1214
 6220SOL    HW230297   2.493   4.656   2.611 -2.4896  1.3854  0.8886
 6221SOL     OW30298   1.482   1.123   9.002 -0.1235  0.3335 -0.5979
 6221SOL    HW130299   1.392   1.102   8.979 -0.1425 -0.7632  0.4723
 6221SOL    HW230300   1.495   1.180   8.926  1.0783  0.6512 -0.1595
 6222SOL     OW30301   2.080   4.110   5.832 -0.2245 -0.2443  0.3895
 6222SOL    HW130302   2.118   4.195   5.855  0.0898 -0.0811 -0.7436
 6222SOL    HW230303   2.006   4.102   5.892 -0.6616  1.0864  0.0469
 6223SOL     OW30304   3.764   3.514  17.023  0.5711 -0.6031 -0.3521
 6223SOL    HW130305   3.788   3.441  16.966 -0.7229  0.2298 -1.9315
 6223SOL    HW230306   3.669   3.511  17.020  0.5212 -0.4913  1.0500
 6224SOL     OW30307   3.847   3.398  14.236 -0.1314  0.3438  0.5862
 6224SOL    HW130308   3.882   3.358  14.316  1.4603 -1.4908 -1.0328
 6224SOL    HW230309   3.918   3.425  14.178 -1.6019  0.9106 -0.9612
 6225SOL     OW30310   2.725   3.182  15.999  0.0178 -0.6379 -0.4363
 6225SOL    HW130311   2.638   3.194  15.961 -1.1986 -1.9272  1.9737
 6225SOL    HW230312   2.751   3.273  16.016  0.2761 -0.7057 -0.4734
 6226SOL     OW30313   2.378   2.115  13.826  0.0907  0.0348  0.0634
 6226SOL    HW130314   2.350   2.189  13.880  1.8222 -0.4836  1.6722
 6226SOL    HW230315   2.375   2.039  13.884 -2.8787 -0.5055 -0.8149
 6227SOL     OW30316   2.713   2.153  11.741  0.6465 -0.0664  0.1300
 6227SOL    HW130317   2.658   2.170  11.663  1.0151  0.7144  0.0344
 6227SOL    HW230318   2.685   2.064  11.761  0.0847  0.2054  0.5739
 6228SOL     OW30319   1.415   2.161   9.750  0.3838 -0.2287 -0.1198
 6228SOL    HW130320   1.322   2.156   9.775  0.0944  0.4437 -1.0735
 6228SOL    HW230321   1.441   2.227   9.814  0.9924  2.6435 -3.3657
 6229SOL     OW30322   1.356   1.183   6.316  0.2420  0.0532 -0.0412
 6229SOL    HW130323   1.372   1.199   6.223 -2.1429 -2.0204 -0.8124
 6229SOL    HW230324   1.320   1.268   6.343  0.1130  0.2135 -0.7048
 6230SOL     OW30325   2.876   3.199   2.649  0.0685  0.3369  0.4848
 6230SOL    HW130326   2.948   3.262   2.649 -0.8660  1.4300  0.0140
 6230SOL    HW230327   2.928   3.122   2.627 -0.3227  0.5624 -1.2993
 6231SOL     OW30328   2.545   1.584   5.294 -0.2727 -0.6897 -0.7741
 6231SOL    HW130329   2.627   1.574   5.343 -0.3095 -0.4044 -0.6490
 6231SOL    HW230330   2.485   1.552   5.361  0.0100 -1.1061 -0.7235
 6232SOL     OW30331   0.548   4.136   3.171 -0.0581  0.2267 -0.6874
 6232SOL    HW130332   0.537   4.045   3.200 -1.3468  0.8942  0.8791
 6232SOL    HW230333   0.599   4.168   3.245 -0.0775  0.7344 -0.8994
 6233SOL     OW30334   1.546   3.250  10.421  0.8340  0.5503 -0.0358
 6233SOL    HW130335   1.497   3.169  10.434  0.8262  0.9204  2.3002
 6233SOL    HW230336   1.632   3.206  10.424 -0.4322 -1.8694  0.7611
 6234SOL     OW30337   0.605   1.344   6.503  0.4941 -0.0027 -0.0953
 6234SOL    HW130338   0.598   1.296   6.421  0.0231 -1.0090  0.5431
 6234SOL    HW230339   0.583   1.430   6.467 -0.3299 -0.2313 -0.1347
 6235SOL     OW30340   2.744   1.998   5.649  0.0219 -0.2811  0.3657
 6235SOL    HW130341   2.778   1.998   5.560 -0.6301 -2.7415  0.1209
 6235SOL    HW230342   2.652   2.026   5.648 -0.6838 -2.5246  1.6134
 6236SOL     OW30343   3.577   3.990  14.363 -0.3067  0.4394  0.3890
 6236SOL    HW130344   3.643   4.050  14.397 -0.9460  0.8561  0.8957
 6236SOL    HW230345   3.521   3.980  14.440 -1.2811  0.1403 -0.3489
 6237SOL     OW30346   4.253   3.788  15.746 -0.9498 -0.2713  0.3820
 6237SOL    HW130347   4.325   3.730  15.772 -1.1403 -0.8854 -0.4379
 6237SOL    HW230348   4.279   3.868  15.791 -0.0933  0.0405 -0.6523
 6238SOL     OW30349   2.396   0.513   2.788  0.5768 -0.2858 -0.5034
 6238SOL    HW130350   2.323   0.452   2.785  0.5194 -0.2904  0.8597
 6238SOL    HW230351   2.440   0.490   2.870  0.0242  2.2954  0.5322
 6239SOL     OW30352   0.830   3.987   2.842 -0.4968 -0.4570  0.4946
 6239SOL    HW130353   0.737   3.992   2.819 -0.0746  1.2151 -0.8399
 6239SOL    HW230354   0.851   4.074   2.809  0.8479 -1.1171 -0.3810
 6240SOL     OW30355   2.821   3.928   4.831  0.1063  1.1609 -0.0952
 6240SOL    HW130356   2.807   3.834   4.823 -0.8989  1.3193 -0.2307
 6240SOL    HW230357   2.783   3.959   4.748  0.5082  0.8923 -0.3848
 6241SOL     OW30358   1.375   1.442  17.489  0.0997 -0.0977 -0.3628
 6241SOL    HW130359   1.427   1.463  17.567  0.1308 -0.2115 -0.3518
 6241SOL    HW230360   1.396   1.516  17.433 -0.6730 -0.2726 -0.8745
 6242SOL     OW30361   1.925   3.841   7.608 -0.0229  0.1695 -0.0385
 6242SOL    HW130362   1.877   3.916   7.640  0.6583  0.1836  0.9774
 6242SOL    HW230363   1.913   3.780   7.681 -0.2368  0.2456 -0.0115
 6243SOL     OW30364   3.915   4.458   4.243  0.0130 -0.5966 -0.2240
 6243SOL    HW130365   3.976   4.501   4.303  0.9887 -1.2575 -0.7599
 6243SOL    HW230366   3.838   4.443   4.298  0.1659 -0.9698 -0.1119
 6244SOL     OW30367   1.358   1.137   7.406 -0.0522  0.0550 -0.4728
 6244SOL    HW130368   1.322   1.149   7.318 -4.5274 -2.1112  1.0486
 6244SOL    HW230369   1.448   1.120   7.380  0.2392  2.5994 -1.1447
 6245SOL     OW30370   2.190   2.907  16.965 -0.7386  0.6265  0.0437
 6245SOL    HW130371   2.266   2.885  16.910 -1.0245  0.6647 -0.3669
 6245SOL    HW230372   2.148   2.821  16.965 -0.5284  0.5269  0.6429
 6246SOL     OW30373   1.567   3.942   1.910 -0.0276 -0.5396 -0.1418
 6246SOL    HW130374   1.585   4.032   1.882 -2.6613  0.1001  0.2268
 6246SOL    HW230375   1.643   3.895   1.876 -0.8638 -1.3071 -0.9516
 6247SOL     OW30376   4.097   3.841   0.525  0.1295 -0.4933 -0.0768
 6247SOL    HW130377   4.049   3.872   0.448  1.2904  0.4745 -0.4092
 6247SOL    HW230378   4.188   3.863   0.503 -0.5113  0.2542 -1.9853
 6248SOL     OW30379   3.993   3.036   1.078  0.1801 -0.1423 -0.1233
 6248SOL    HW130380   4.028   3.035   1.167  2.8390 -3.2418 -1.1814
 6248SOL    HW230381   3.908   2.995   1.089  0.3474 -0.7032 -0.8475
 6249SOL     OW30382   2.400   4.173   8.557  0.4643  0.1831  0.4830
 6249SOL    HW130383   2.344   4.190   8.482 -2.2907  1.5173  2.8288
 6249SOL    HW230384   2.471   4.116   8.528 -1.6636 -2.4006  0.4056
 6250SOL     OW30385   4.517   1.706   3.147 -0.3471  0.2985 -0.2790
 6250SOL    HW130386   4.541   1.625   3.191 -1.3665  0.3922  0.4482
 6250SOL    HW230387   4.552   1.685   3.060  0.5742  0.8133 -0.0321
 6251SOL     OW30388   2.046   3.910   5.325 -0.3989 -0.4948  0.0770
 6251SOL    HW130389   1.982   3.952   5.383 -1.4663 -0.9785 -0.7622
 6251SOL    HW230390   2.105   3.979   5.295  0.5687 -0.5970  1.6948
 6252SOL     OW30391   1.963   0.861   3.691  0.1064  0.4009 -0.0517
 6252SOL    HW130392   2.033   0.796   3.690  0.8564  1.2495 -2.2421
 6252SOL    HW230393   1.966   0.869   3.786  0.0261 -0.2364  0.0083
 6253SOL     OW30394   1.712   3.469   3.264 -0.4404 -0.4473  0.7816
 6253SOL    HW130395   1.679   3.381   3.246  0.9126 -0.5378 -1.1719
 6253SOL    HW230396   1.720   3.516   3.182 -1.5270 -1.2748  0.1935
 6254SOL     OW30397   0.639   1.939   5.386 -0.0343 -0.1966 -0.0578
 6254SOL    HW130398   0.634   2.032   5.363  0.5492 -0.0892  0.2379
 6254SOL    HW230399   0.693   1.953   5.464 -1.0079  1.1453  0.3572
 6255SOL     OW30400   0.556   0.859   9.173  0.0551  0.2789 -0.1469
 6255SOL    HW130401   0.546   0.854   9.078 -1.2145  1.0536 -0.0562
 6255SOL    HW230402   0.473   0.902   9.196  1.0006  1.6718  0.7339
 6256SOL     OW30403   3.212   4.321   0.286 -0.0076  0.3020  1.1256
 6256SOL    HW130404   3.274   4.302   0.357  0.8380  0.9332  0.5570
 6256SOL    HW230405   3.190   4.411   0.307  1.4510  1.0833 -0.7181
 6257SOL     OW30406   2.160   0.926   6.919  0.7352 -0.4892  0.0194
 6257SOL    HW130407   2.093   0.989   6.946  3.4966  2.1393  0.7986
 6257SOL    HW230408   2.151   0.933   6.823  1.3375  1.1375  0.0832
 6258SOL     OW30409   1.647   4.488   3.977 -0.0040  0.0035 -0.0655
 6258SOL    HW130410   1.619   4.464   4.066  1.7765  0.2700  0.5784
 6258SOL    HW230411   1.589   4.442   3.917  0.4896 -0.2061 -0.3813
 6259SOL     OW30412   1.082   4.332  10.298  0.1425  0.4003 -0.8355
 6259SOL    HW130413   1.145   4.399  10.324  0.5584 -0.5649  0.5874
 6259SOL    HW230414   1.022   4.388  10.248  0.2210  1.1960 -0.0249
 6260SOL     OW30415   4.584   3.497   3.792 -0.5225 -0.2563  0.0709
 6260SOL    HW130416   4.567   3.546   3.873  1.5813  2.4231 -1.0837
 6260SOL    HW230417   4.496   3.493   3.756 -0.4424 -0.7056 -0.0705
 6261SOL     OW30418   3.298   2.803  10.075  0.0228 -0.2897 -0.6265
 6261SOL    HW130419   3.390   2.812  10.099  0.1820  2.2034 -2.1282
 6261SOL    HW230420   3.292   2.874  10.011  3.0417  0.8032  0.3263
 6262SOL     OW30421   1.026   2.624   9.224  0.7860 -0.2077  0.6659
 6262SOL    HW130422   1.106   2.624   9.172 -0.2478 -0.6087 -0.9524
 6262SOL    HW230423   1.055   2.675   9.299  2.4293 -0.8657  0.4728
 6263SOL     OW30424   4.093   3.228   4.126  0.3155 -0.2591 -0.3780
 6263SOL    HW130425   4.031   3.296   4.152  0.9147 -0.3366  1.2183
 6263SOL    HW230426   4.079   3.234   4.031 -1.0497  2.3595 -0.0182
 6264SOL     OW30427   2.349   0.654   9.016 -0.2755 -0.1141 -0.4931
 6264SOL    HW130428   2.265   0.622   8.983 -0.7731  0.9928 -0.2819
 6264SOL    HW230429   2.411   0.587   8.986  0.5810 -0.4845  2.0877
 6265SOL     OW30430   3.556   3.765   8.605 -0.3517 -0.0957  0.3459
 6265SOL    HW130431   3.631   3.778   8.547 -1.0099  0.2273 -0.4287
 6265SOL    HW230432   3.492   3.815   8.555  0.3118  0.1815 -0.2295
 6266SOL     OW30433   3.305   2.804   1.463 -0.5314  0.0750  0.3992
 6266SOL    HW130434   3.384   2.776   1.416  0.0428  0.0973  1.3598
 6266SOL    HW230435   3.287   2.889   1.422  1.5118  1.1214  1.6577
 6267SOL     OW30436   1.334   1.796   5.966 -0.2681 -0.2739 -0.3971
 6267SOL    HW130437   1.261   1.855   5.946  0.2747  0.5900  0.1482
 6267SOL    HW230438   1.400   1.813   5.898  2.5349 -2.1007  1.8797
 6268SOL     OW30439   3.938   1.847   0.783  0.0842  0.5647 -0.5205
 6268SOL    HW130440   4.013   1.789   0.781  0.6282  1.1988  1.5113
 6268SOL    HW230441   3.960   1.914   0.718 -0.5958 -0.7808 -2.1288
 6269SOL     OW30442   3.293   2.506  15.439 -0.1182 -0.1645 -0.5655
 6269SOL    HW130443   3.306   2.542  15.526 -0.1729  0.2203 -0.7145
 6269SOL    HW230444   3.225   2.569  15.413 -0.0822  0.4328  0.8235
 6270SOL     OW30445   1.582   1.646   9.856 -0.0393 -0.0899 -0.3144
 6270SOL    HW130446   1.670   1.683   9.854  0.0156 -0.2319 -0.4922
 6270SOL    HW230447   1.584   1.583   9.784 -0.8784  0.2448 -0.6343
 6271SOL     OW30448   2.223   3.832  16.241  0.0815  0.2504  0.5178
 6271SOL    HW130449   2.135   3.794  16.246  0.4879 -0.7351  0.2675
 6271SOL    HW230450   2.205   3.915  16.284 -0.7058  0.7651 -0.8142
 6272SOL     OW30451   0.824   1.945   9.528 -0.7747 -0.0798  0.5286
 6272SOL    HW130452   0.893   1.882   9.547  0.1812  0.7444 -0.2058
 6272SOL    HW230453   0.778   1.898   9.458  0.5204 -0.3838 -0.1181
 6273SOL     OW30454   3.162   3.620   2.564 -0.0263 -0.4311  0.0562
 6273SOL    HW130455   3.117   3.537   2.577 -0.0571 -0.5066 -0.5041
 6273SOL    HW230456   3.130   3.679   2.632 -3.1032 -0.7791 -1.1047
 6274SOL     OW30457   3.286   0.758   3.964  0.1088  0.0792  0.2513
 6274SOL    HW130458   3.296   0.799   4.050  0.5309  1.6523 -0.5495
 6274SOL    HW230459   3.192   0.768   3.949  0.8085  1.2987 -3.2937
 6275SOL     OW30460   4.670   0.608   7.972 -0.1525 -0.2541  0.0194
 6275SOL    HW130461   4.625   0.546   7.915  1.6559 -1.4168 -0.1429
 6275SOL    HW230462   4.633   0.692   7.947  1.3854  0.7580  1.1320
 6276SOL     OW30463   1.645   4.214   2.836  0.2652 -0.1790  0.4511
 6276SOL    HW130464   1.639   4.179   2.925  0.7740 -0.9756  0.1693
 6276SOL    HW230465   1.668   4.304   2.861 -1.2713  0.5404 -0.7065
 6277SOL     OW30466   2.381   4.331  11.291 -0.1010 -0.1229  0.4576
 6277SOL    HW130467   2.468   4.370  11.300  0.3495 -1.2327  0.8864
 6277SOL    HW230468   2.379   4.283  11.374  2.4733  1.0448  1.2356
 6278SOL     OW30469   2.240   1.239   5.254  0.1879  0.0096 -0.3593
 6278SOL    HW130470   2.282   1.289   5.184  2.0213 -0.8664  0.1105
 6278SOL    HW230471   2.191   1.172   5.206 -1.1470  0.2599  0.6397
 6279SOL     OW30472   1.348   1.689  12.663  0.4187 -0.2949  0.0020
 6279SOL    HW130473   1.292   1.765  12.651 -0.8118 -1.1829  0.0803
 6279SOL    HW230474   1.341   1.669  12.757  0.7597  0.2109  0.1351
 6280SOL     OW30475   4.250   1.731   8.478 -0.1709  0.2143  0.0508
 6280SOL    HW130476   4.206   1.814   8.459 -0.0852  0.1448 -0.4651
 6280SOL    HW230477   4.341   1.760   8.473 -1.1946  2.9553 -2.6475
 6281SOL     OW30478   1.658   2.969   6.833  0.6360 -0.1113  0.1631
 6281SOL    HW130479   1.603   2.992   6.758 -0.0973 -0.6649  0.5239
 6281SOL    HW230480   1.651   2.873   6.829 -0.3966  0.0366 -1.6216
 6282SOL     OW30481   3.960   1.368  12.997  0.0075  0.7092  0.3252
 6282SOL    HW130482   3.984   1.291  13.050 -0.8155  0.8452  0.9081
 6282SOL    HW230483   4.021   1.435  13.027  1.1698 -1.2147  2.2869
 6283SOL     OW30484   1.562   4.440   5.624  0.1924  0.6003  0.0831
 6283SOL    HW130485   1.475   4.405   5.640  1.7805 -1.8565  3.5880
 6283SOL    HW230486   1.549   4.500   5.551  0.7837  0.5626 -0.0565
 6284SOL     OW30487   1.984   0.470   9.955  0.0528  0.2697 -0.0104
 6284SOL    HW130488   1.969   0.444  10.046  0.8750 -2.3533 -0.6118
 6284SOL    HW230489   2.066   0.517   9.966  0.3521 -0.5775  1.4641
 6285SOL     OW30490   2.591   3.108   4.110  0.0943  0.0783 -0.3439
 6285SOL    HW130491   2.662   3.172   4.103  0.1012  0.1448  0.3335
 6285SOL    HW230492   2.541   3.143   4.184 -0.3803 -0.1086 -0.5715
 6286SOL     OW30493   0.724   3.453   3.638  0.3300 -0.2681 -0.6998
 6286SOL    HW130494   0.695   3.465   3.728  1.0925 -0.5206 -0.4213
 6286SOL    HW230495   0.658   3.501   3.589  0.9584  1.1757 -0.1451
 6287SOL     OW30496   3.037   2.595  14.735 -0.1264 -0.7534  0.1655
 6287SOL    HW130497   3.019   2.644  14.655 -0.7939 -2.2525 -0.6067
 6287SOL    HW230498   2.960   2.619  14.787  0.4378  2.1198 -0.3426
 6288SOL     OW30499   0.803   3.921   3.859  0.8068  0.1353  0.0466
 6288SOL    HW130500   0.853   3.914   3.778  0.6718  1.8465 -0.1882
 6288SOL    HW230501   0.860   3.874   3.920  1.5622  1.3767  0.3050
 6289SOL     OW30502   0.864   3.142   2.042 -0.2938 -0.0160 -0.5202
 6289SOL    HW130503   0.855   3.147   1.947 -0.3406  0.5881 -0.4835
 6289SOL    HW230504   0.941   3.085   2.050  0.0619  0.4596 -0.6102
 6290SOL     OW30505   3.576   0.629   2.704  0.3982 -0.3917  0.2366
 6290SOL    HW130506   3.576   0.535   2.721  1.5338 -0.1000  1.8853
 6290SOL    HW230507   3.670   0.647   2.697 -0.3465  3.2441 -0.2739
 6291SOL     OW30508   0.702   3.533  15.854 -0.0645 -0.2469  0.3983
 6291SOL    HW130509   0.742   3.619  15.851 -0.9499  0.1466  0.0566
 6291SOL    HW230510   0.727   3.484  15.776 -2.4932  0.5853 -0.8845
 6292SOL     OW30511   0.374   2.154   5.473  0.1946  0.0974  0.0352
 6292SOL    HW130512   0.299   2.212   5.460 -0.7647 -0.5149  2.9613
 6292SOL    HW230513   0.410   2.167   5.385  0.0431 -0.1171 -0.0559
 6293SOL     OW30514   0.753   0.662   3.626 -0.2462 -0.0206  0.5742
 6293SOL    HW130515   0.671   0.674   3.578 -0.1062 -0.5548  0.2111
 6293SOL    HW230516   0.815   0.687   3.557  1.1354 -0.2004  1.7423
 6294SOL     OW30517   3.287   4.544   2.652  0.2506 -0.0575 -0.6960
 6294SOL    HW130518   3.224   4.481   2.687  1.0290 -0.5607 -0.1966
 6294SOL    HW230519   3.355   4.529   2.717  2.0631 -0.1849 -2.6372
 6295SOL     OW30520   3.800   1.493   7.167  0.1535  0.0159  0.3002
 6295SOL    HW130521   3.715   1.501   7.122  0.1069 -0.6782  0.2702
 6295SOL    HW230522   3.836   1.412   7.132  1.6248  1.4013 -1.3612
 6296SOL     OW30523   0.959   1.476   6.252 -0.1097 -0.0350 -0.2940
 6296SOL    HW130524   0.889   1.536   6.275 -0.4362 -0.6967  0.4279
 6296SOL    HW230525   0.965   1.489   6.158  0.4303  2.6120  0.1199
 6297SOL     OW30526   2.585   4.634   3.885  0.2658  0.0813 -0.1015
 6297SOL    HW130527   2.527   4.709   3.900  1.7846  0.8801  1.7382
 6297SOL    HW230528   2.525   4.559   3.879  0.4227  0.0467 -1.2455
 6298SOL     OW30529   3.055   0.569   7.927  0.2457  0.3445  0.2029
 6298SOL    HW130530   2.976   0.601   7.971  0.6830 -0.7728  1.7989
 6298SOL    HW230531   3.114   0.643   7.942 -1.1981  1.0937  2.2315
 6299SOL     OW30532   0.126   2.133   3.244 -0.2381 -0.5549 -0.1000
 6299SOL    HW130533   0.148   2.138   3.151  1.4588 -1.8667  0.2377
 6299SOL    HW230534   0.173   2.211   3.272  2.0793 -2.2263  0.6713
 6300SOL     OW30535   1.765   3.719   7.870  0.1363  0.7172 -1.0832
 6300SOL    HW130536   1.724   3.757   7.948 -1.5863  0.4252 -1.8525
 6300SOL    HW230537   1.702   3.654   7.840  0.4329 -0.8713  1.7114
 6301SOL     OW30538   3.233   4.431   4.420  0.0036 -0.2873  0.0986
 6301SOL    HW130539   3.225   4.517   4.460  0.0161  0.4233 -1.4270
 6301SOL    HW230540   3.188   4.447   4.337  0.2893 -0.6452 -0.1252
 6302SOL     OW30541   2.903   1.223  10.642  0.6659 -0.7174 -0.9641
 6302SOL    HW130542   2.883   1.315  10.658  0.0330 -1.1032  0.4503
 6302SOL    HW230543   2.995   1.227  10.617  0.8140 -2.5155 -0.7090
 6303SOL     OW30544   1.552   1.278   5.851  0.3138 -0.2673  0.6699
 6303SOL    HW130545   1.559   1.342   5.781  0.8716  1.5545  2.3881
 6303SOL    HW230546   1.646   1.273   5.869  0.1281 -2.2821  1.1406
 6304SOL     OW30547   0.727   0.735   5.560  0.9284  0.6171 -0.1092
 6304SOL    HW130548   0.716   0.687   5.642 -0.1226 -1.7538 -1.6466
 6304SOL    HW230549   0.797   0.795   5.587  0.4129  0.0453  2.4946
 6305SOL     OW30550   0.764   2.460   2.871  0.4225  0.0263 -0.2585
 6305SOL    HW130551   0.777   2.536   2.928 -1.3930 -1.5463  2.2217
 6305SOL    HW230552   0.852   2.441   2.840 -0.3028 -1.9837 -1.0720
 6306SOL     OW30553   0.833   1.753   6.109 -0.1711 -0.3962 -0.4766
 6306SOL    HW130554   0.758   1.773   6.053 -0.7091 -0.5581  0.1878
 6306SOL    HW230555   0.802   1.786   6.193  0.8930  1.5981 -0.8704
 6307SOL     OW30556   2.799   3.530   9.047 -0.3677  0.1661  0.1201
 6307SOL    HW130557   2.711   3.494   9.056 -0.4248  0.4394  0.7043
 6307SOL    HW230558   2.783   3.616   9.008  0.2283  0.6220  0.8806
 6308SOL     OW30559   2.410   3.190   9.509  0.2984  0.6695  0.0015
 6308SOL    HW130560   2.429   3.138   9.586  1.2863  1.2023  0.1216
 6308SOL    HW230561   2.448   3.274   9.536 -1.0957  0.9884  0.9724
 6309SOL     OW30562   0.568   4.055   4.714 -0.5569 -0.3142 -0.3098
 6309SOL    HW130563   0.573   3.974   4.766 -0.3218  0.3516  0.7055
 6309SOL    HW230564   0.487   4.090   4.751 -0.1528  0.6943 -0.3892
 6310SOL     OW30565   1.905   2.180   2.226 -0.4926 -0.5786  0.1045
 6310SOL    HW130566   1.952   2.180   2.309  1.1625  1.6847 -0.8268
 6310SOL    HW230567   1.819   2.211   2.255 -1.2128 -1.4309 -1.1437
 6311SOL     OW30568   2.908   4.313   5.553  0.2645  0.0451 -0.0088
 6311SOL    HW130569   2.815   4.304   5.532  0.8780 -0.3792 -2.4838
 6311SOL    HW230570   2.904   4.357   5.638  1.8282 -1.7747  0.9868
 6312SOL     OW30571   3.555   4.127  16.579  0.2250 -0.0097  0.0258
 6312SOL    HW130572   3.598   4.064  16.637  0.8184  0.0157 -0.3862
 6312SOL    HW230573   3.533   4.201  16.636  1.3263  1.1979 -1.1312
 6313SOL     OW30574   4.242   2.392  14.140 -0.2636 -0.0140  0.5595
 6313SOL    HW130575   4.211   2.425  14.224  0.5031  3.1142 -0.3756
 6313SOL    HW230576   4.166   2.415  14.086 -0.0632 -1.3618 -0.3027
 6314SOL     OW30577   4.419   3.312   3.113  0.0402  0.6018  0.3030
 6314SOL    HW130578   4.454   3.398   3.135  0.9699  0.6239 -1.2877
 6314SOL    HW230579   4.347   3.313   3.177 -0.7534 -1.7752 -0.5567
 6315SOL     OW30580   0.259   1.579   5.675 -0.2339 -0.0081 -0.4080
 6315SOL    HW130581   0.192   1.520   5.709  0.1892  0.4479  1.2101
 6315SOL    HW230582   0.318   1.514   5.637 -0.6311 -1.0789  0.8283
 6316SOL     OW30583   2.850   1.368   9.042  0.1502 -0.2361 -0.1654
 6316SOL    HW130584   2.778   1.310   9.015  2.0259 -1.9090 -1.5688
 6316SOL    HW230585   2.831   1.446   8.991 -3.7804 -1.7277 -0.9775
 6317SOL     OW30586   4.606   0.749   6.714 -0.2775 -0.5368  0.5007
 6317SOL    HW130587   4.610   0.658   6.683 -1.4997 -0.2735 -0.4300
 6317SOL    HW230588   4.662   0.744   6.792  1.7731 -1.3266 -1.0245
 6318SOL     OW30589   3.873   3.278  10.210 -0.2225  0.6233 -0.4948
 6318SOL    HW130590   3.928   3.231  10.273  0.8605  1.5575 -0.7498
 6318SOL    HW230591   3.908   3.235  10.131  0.6178 -1.2706  0.8931
 6319SOL     OW30592   3.804   4.335   2.160  0.1273 -0.4964  0.2577
 6319SOL    HW130593   3.796   4.258   2.103  1.7502 -1.2794  1.0625
 6319SOL    HW230594   3.846   4.397   2.101  1.8342 -0.6442  1.2964
 6320SOL     OW30595   2.978   4.078   7.037 -1.0405  0.2050  0.4022
 6320SOL    HW130596   3.013   4.073   7.126  1.0119  0.5531 -0.3942
 6320SOL    HW230597   2.899   4.026   7.051 -0.5921 -0.2906  1.0958
 6321SOL     OW30598   3.410   3.514   7.135 -0.3845  0.3911  0.8348
 6321SOL    HW130599   3.476   3.447   7.117 -0.1954  0.7110  0.3456
 6321SOL    HW230600   3.470   3.578   7.172  1.3190  0.4452 -2.0034
 6322SOL     OW30601   3.909   0.545  13.312 -0.8316 -0.3048 -0.2517
 6322SOL    HW130602   3.954   0.460  13.308  0.8932  0.5392  1.8460
 6322SOL    HW230603   3.979   0.585  13.362  1.3635 -1.9531 -1.9897
 6323SOL     OW30604   3.602   2.011   7.510  0.0511 -0.0058 -0.3371
 6323SOL    HW130605   3.642   2.079   7.456 -2.3440  0.5230 -1.4324
 6323SOL    HW230606   3.677   1.951   7.506  0.9032  1.0068  0.7278
 6324SOL     OW30607   2.099   0.629   2.303 -0.1233  0.0395 -0.1612
 6324SOL    HW130608   2.186   0.669   2.296  0.5558 -1.8636 -2.3759
 6324SOL    HW230609   2.095   0.585   2.218  0.0913  0.3574 -0.3360
 6325SOL     OW30610   1.504   4.068   7.282 -0.1137  0.6131 -0.3093
 6325SOL    HW130611   1.547   4.154   7.280 -2.5092  1.7950 -1.1005
 6325SOL    HW230612   1.540   4.029   7.361 -1.1683 -2.2609 -1.2669
 6326SOL     OW30613   2.754   0.083   1.308  0.0402 -0.8595 -0.0024
 6326SOL    HW130614   2.749   4.727   1.284 -0.0020 -0.4193 -1.6578
 6326SOL    HW230615   2.727   0.084   1.400  0.7679 -3.2183  0.2308
 6327SOL     OW30616   2.620   4.305   8.181 -0.1720  0.1246 -0.2193
 6327SOL    HW130617   2.663   4.324   8.264 -0.6865 -0.4899  0.1952
 6327SOL    HW230618   2.690   4.288   8.117 -0.4684 -0.0115 -0.5092
 6328SOL     OW30619   1.784   3.827   8.670  0.0958 -0.2014  0.2065
 6328SOL    HW130620   1.766   3.896   8.606 -0.5930  0.9570  1.6633
 6328SOL    HW230621   1.781   3.885   8.746 -2.8629  0.3776 -0.3173
 6329SOL     OW30622   1.531   1.466   9.321 -0.3792  0.3283  0.0274
 6329SOL    HW130623   1.497   1.550   9.351  0.2850  0.4345  0.4789
 6329SOL    HW230624   1.452   1.416   9.342  0.7358 -0.9584  1.1359
 6330SOL     OW30625   3.573   0.639  10.758  0.4272  0.0217  0.2660
 6330SOL    HW130626   3.522   0.674  10.831  0.1936  0.3010 -0.0338
 6330SOL    HW230627   3.565   0.721  10.709  0.3376 -0.6500 -0.8442
 6331SOL     OW30628   2.548   2.633  15.694 -0.0391 -0.3789  0.5940
 6331SOL    HW130629   2.600   2.684  15.755  0.4524 -1.9799  1.5089
 6331SOL    HW230630   2.460   2.664  15.715 -0.0078 -1.0333  1.7171
 6332SOL     OW30631   2.153   3.413   8.186 -0.7796 -0.3255  0.3106
 6332SOL    HW130632   2.104   3.404   8.104 -1.0250 -1.9705  0.6261
 6332SOL    HW230633   2.165   3.323   8.216  1.9933  0.0626  0.3205
 6333SOL     OW30634   3.612   4.044  14.799 -0.2870  0.1954 -0.2906
 6333SOL    HW130635   3.667   4.108  14.842  0.4771 -0.5070 -0.2186
 6333SOL    HW230636   3.623   4.070  14.708 -1.5857  3.0037  0.3755
 6334SOL     OW30637   3.199   1.574   9.353 -0.1447 -0.1925  0.1220
 6334SOL    HW130638   3.196   1.519   9.431  0.2585 -1.8397 -1.0378
 6334SOL    HW230639   3.214   1.508   9.285 -1.1723 -1.6600  1.3211
 6335SOL     OW30640   0.116   4.370   3.621 -0.1791  0.1932 -0.1629
 6335SOL    HW130641   0.137   4.331   3.536  0.1868 -4.5777  2.0943
 6335SOL    HW230642   0.195   4.346   3.669  0.0088  0.7891 -0.1723
 6336SOL     OW30643   2.432   2.245   4.378  0.2723  0.0909  0.3520
 6336SOL    HW130644   2.337   2.244   4.368  0.6046 -1.3856 -2.4196
 6336SOL    HW230645   2.462   2.282   4.295  0.3969  1.4733  0.9997
 6337SOL     OW30646   2.264   4.337   6.544  0.1420  0.3402  0.2457
 6337SOL    HW130647   2.185   4.297   6.509  0.2418  0.1086  0.2896
 6337SOL    HW230648   2.298   4.254   6.576  0.7866  0.9374  1.1050
 6338SOL     OW30649   4.518   3.062   5.123 -0.2574  0.2683  0.0519
 6338SOL    HW130650   4.448   3.125   5.139  0.4981  1.5594 -1.6052
 6338SOL    HW230651   4.586   3.117   5.083 -0.5974  0.7138  0.0871
 6339SOL     OW30652   1.295   3.870   3.769  0.2968  0.0932 -0.5440
 6339SOL    HW130653   1.353   3.939   3.800 -0.7551  0.3873  0.7593
 6339SOL    HW230654   1.359   3.800   3.777  1.7729  1.6529  1.3200
 6340SOL     OW30655   4.162   1.372  11.664 -1.1329 -0.2577  0.0902
 6340SOL    HW130656   4.168   1.465  11.685 -0.0282 -0.7051  1.8331
 6340SOL    HW230657   4.130   1.379  11.574  0.0419  0.9438 -0.2325
 6341SOL     OW30658   3.766   3.552   4.676  0.1251  0.5853 -0.0028
 6341SOL    HW130659   3.822   3.596   4.741 -1.1953  2.3017 -0.0221
 6341SOL    HW230660   3.833   3.526   4.613 -1.2338  0.7281 -1.4923
 6342SOL     OW30661   2.458   1.843   7.312 -0.0480  0.1305  0.1284
 6342SOL    HW130662   2.399   1.767   7.313  0.4392 -0.2651 -1.0283
 6342SOL    HW230663   2.402   1.920   7.306 -0.2129 -0.1806 -2.2007
 6343SOL     OW30664   3.422   0.016  10.205 -0.5858  0.3697  0.0620
 6343SOL    HW130665   3.389   0.105  10.211 -0.6375  0.3100  0.6574
 6343SOL    HW230666   3.508   0.035  10.244 -1.2794  0.3086  1.6382
 6344SOL     OW30667   4.419   0.142   6.985 -0.1140  0.0844  0.0765
 6344SOL    HW130668   4.450   0.052   6.975  0.6431  0.1617  1.7266
 6344SOL    HW230669   4.395   0.146   7.078  0.2750 -4.1051  0.3630
 6345SOL     OW30670   0.657   0.778   6.048 -0.6283 -0.2449  0.4763
 6345SOL    HW130671   0.664   0.873   6.039 -0.5542 -0.0567  2.6116
 6345SOL    HW230672   0.648   0.771   6.143  0.5944 -0.8941  0.5433
 6346SOL     OW30673   0.733   3.461   4.868  0.1457 -0.5144 -0.0597
 6346SOL    HW130674   0.721   3.513   4.788 -1.4730 -2.1433 -0.8655
 6346SOL    HW230675   0.719   3.533   4.929  0.8905 -0.5971  0.1990
 6347SOL     OW30676   0.234   4.572   6.083 -0.0587 -0.3617  0.5827
 6347SOL    HW130677   0.144   4.543   6.074 -0.3694  0.3095  1.4358
 6347SOL    HW230678   0.277   4.520   6.016  1.3016  1.2672  0.1716
 6348SOL     OW30679   0.863   2.169   5.202  0.3806 -0.4585 -0.1938
 6348SOL    HW130680   0.787   2.226   5.199  1.0542  0.3195 -2.1032
 6348SOL    HW230681   0.907   2.192   5.120  0.6377  0.3137  0.1557
 6349SOL     OW30682   4.587   0.141   3.384 -0.3248  0.5271 -0.6238
 6349SOL    HW130683   4.612   0.094   3.304 -1.4085 -0.3578 -0.4378
 6349SOL    HW230684   4.617   0.086   3.457 -2.6181  1.7040  1.1543
 6350SOL     OW30685   0.578   3.325   8.586  0.0748 -0.2759  0.2254
 6350SOL    HW130686   0.488   3.331   8.555  0.5169 -0.5976 -1.1415
 6350SOL    HW230687   0.577   3.256   8.652 -1.4065 -0.3469  0.1221
 6351SOL     OW30688   3.244   4.704   6.851  0.0098 -0.7291 -0.4195
 6351SOL    HW130689   3.195   4.636   6.898  0.5809  0.3063  1.7105
 6351SOL    HW230690   3.331   4.693   6.890 -0.0963  0.1957  0.0737
 6352SOL     OW30691   1.467   1.499   3.729  0.3952  0.1514  0.3179
 6352SOL    HW130692   1.400   1.443   3.769  3.2815 -1.7453  2.4935
 6352SOL    HW230693   1.508   1.533   3.808  1.1424 -2.5540  1.0895
 6353SOL     OW30694   0.225   2.835   3.213 -0.1528  0.0786 -0.5708
 6353SOL    HW130695   0.214   2.871   3.301 -1.4686  0.6651 -0.9724
 6353SOL    HW230696   0.193   2.910   3.163  1.0486  0.4939 -0.7002
 6354SOL     OW30697   3.233   0.758   7.974  0.2540 -0.0288  0.5717
 6354SOL    HW130698   3.255   0.851   7.978  0.7409 -0.1642  1.1000
 6354SOL    HW230699   3.301   0.721   7.917 -1.9397 -0.8827 -1.4672
 6355SOL     OW30700   2.986   3.638   9.867  0.3242 -0.7464  0.0090
 6355SOL    HW130701   3.045   3.614   9.939 -0.3475 -0.3000  0.7185
 6355SOL    HW230702   3.027   3.717   9.832  1.1100 -2.0266 -1.9053
 6356SOL     OW30703   0.034   4.301   8.742  0.2059 -0.1722  0.1167
 6356SOL    HW130704   0.086   4.377   8.717  0.0958 -0.1388 -0.0104
 6356SOL    HW230705   4.696   4.356   8.768  2.0628  1.3255  2.2418
 6357SOL     OW30706   0.459   2.544   4.322  0.0748 -0.6108  0.3940
 6357SOL    HW130707   0.490   2.456   4.303  0.3427 -0.3942 -0.1471
 6357SOL    HW230708   0.375   2.541   4.276  1.8584 -1.2528 -2.7615
 6358SOL     OW30709   1.619   1.345  12.745 -0.2718 -0.1312  0.0346
 6358SOL    HW130710   1.636   1.379  12.833 -0.6291 -3.8586  1.5080
 6358SOL    HW230711   1.528   1.318  12.754 -0.4172  0.7677  1.3417
 6359SOL     OW30712   4.641   3.336   2.004 -0.2793  0.0358 -0.3880
 6359SOL    HW130713   4.646   3.425   1.971 -0.5096 -0.7369 -2.4800
 6359SOL    HW230714   4.703   3.283   1.954  0.5015 -2.4105  3.1067
 6360SOL     OW30715   3.937   2.175   6.088  0.3600 -0.2432  0.0344
 6360SOL    HW130716   3.867   2.113   6.110 -0.1115  0.1253 -0.4124
 6360SOL    HW230717   3.922   2.249   6.146 -2.0925 -1.7821  1.3860
 6361SOL     OW30718   0.401   0.391   2.896  0.1065 -0.2206 -0.2048
 6361SOL    HW130719   0.311   0.377   2.927 -0.7128 -0.3231 -2.6177
 6361SOL    HW230720   0.443   0.307   2.914  0.9464  0.7443  2.2533
 6362SOL     OW30721   1.969   3.884   6.205  0.1191 -0.0578  0.4491
 6362SOL    HW130722   1.969   3.837   6.121 -0.6871  0.5913  0.0851
 6362SOL    HW230723   2.059   3.917   6.198  0.1520 -0.3965 -0.8147
 6363SOL     OW30724   2.289   1.427   2.394  0.2220 -0.3871  0.5850
 6363SOL    HW130725   2.350   1.380   2.451  0.8042 -0.3699 -0.0243
 6363SOL    HW230726   2.222   1.360   2.383  1.2214 -0.8066 -2.8204
 6364SOL     OW30727   4.172   0.446   1.905 -0.0552  0.0139  0.4827
 6364SOL    HW130728   4.140   0.374   1.851  0.2220  0.9093 -0.8772
 6364SOL    HW230729   4.193   0.402   1.988  1.2226  1.3068  0.8678
 6365SOL     OW30730   1.892   0.442   5.019  0.3094 -0.1743 -0.1003
 6365SOL    HW130731   1.864   0.361   4.978 -2.3508  0.2882  0.7928
 6365SOL    HW230732   1.987   0.439   5.010  0.4389  0.0433  1.1057
 6366SOL     OW30733   2.546   4.574   8.244  0.8325  0.0437  0.5449
 6366SOL    HW130734   2.586   4.500   8.197 -1.9984 -0.7811 -0.5579
 6366SOL    HW230735   2.454   4.551   8.254  1.1811 -1.7213 -0.1667
 6367SOL     OW30736   4.319   4.363  13.406 -0.2236  0.3365  0.2125
 6367SOL    HW130737   4.397   4.333  13.358  0.3696  2.2215  0.0097
 6367SOL    HW230738   4.251   4.354  13.340 -0.7762  1.6155  0.6115
 6368SOL     OW30739   3.608   1.398   8.234  0.1789 -0.6037  0.9057
 6368SOL    HW130740   3.601   1.365   8.145  0.7800  1.6554  0.0224
 6368SOL    HW230741   3.541   1.345   8.278  0.2695  0.3380  2.1875
 6369SOL     OW30742   1.820   2.872   8.805  0.2654  0.3398  0.4778
 6369SOL    HW130743   1.778   2.945   8.850  1.7278  2.1992 -1.2038
 6369SOL    HW230744   1.746   2.826   8.764  0.2420  1.6245 -0.9161
 6370SOL     OW30745   1.588   3.624   8.118 -0.4271  0.1723  0.4058
 6370SOL    HW130746   1.541   3.702   8.086 -1.3059 -0.5481 -0.0606
 6370SOL    HW230747   1.530   3.597   8.190 -1.6061  1.4124 -0.0646
 6371SOL     OW30748   3.386   0.948   7.176  0.5616 -0.5567  0.0095
 6371SOL    HW130749   3.369   1.041   7.169  1.4643 -0.5322 -1.7795
 6371SOL    HW230750   3.430   0.947   7.261  0.2272  0.2878  0.1876
 6372SOL     OW30751   0.659   4.366   4.580 -0.2375 -0.3625 -0.0020
 6372SOL    HW130752   0.698   4.441   4.533  0.5753 -2.3292 -2.4687
 6372SOL    HW230753   0.670   4.412   4.663 -1.1492 -0.2085  0.0230
 6373SOL     OW30754   2.046   4.173  14.285 -0.5839  0.2521  0.2447
 6373SOL    HW130755   2.009   4.207  14.203 -2.6475 -1.3392  0.5160
 6373SOL    HW230756   1.991   4.206  14.356 -0.5486 -3.2203  1.8676
 6374SOL     OW30757   0.653   2.844   8.913 -0.0352 -0.2954 -0.0882
 6374SOL    HW130758   0.710   2.813   8.984 -0.8247 -1.0973  0.1912
 6374SOL    HW230759   0.617   2.914   8.968  3.3255  0.3260  1.3493
 6375SOL     OW30760   2.565   4.080   6.259  0.2901  0.0845  0.0699
 6375SOL    HW130761   2.562   4.126   6.175 -3.3533  0.7962  0.5836
 6375SOL    HW230762   2.659   4.077   6.278  0.4084 -3.2226 -0.9215
 6376SOL     OW30763   1.968   3.415   2.295 -0.1963 -0.1344  0.0615
 6376SOL    HW130764   2.032   3.407   2.223  0.6929 -3.5055  1.2470
 6376SOL    HW230765   1.894   3.362   2.266 -1.9707  1.3743  1.8492
 6377SOL     OW30766   2.255   1.273   6.896  0.6514  0.4112  0.7737
 6377SOL    HW130767   2.214   1.250   6.980 -0.9142 -1.5495 -0.5199
 6377SOL    HW230768   2.234   1.366   6.890  0.1518  0.2830  0.5394
 6378SOL     OW30769   0.731   3.127   2.269 -0.1505  0.5482 -0.4950
 6378SOL    HW130770   0.794   3.066   2.308 -1.6783 -0.2377  0.7563
 6378SOL    HW230771   0.771   3.129   2.182  1.2491  3.4913  0.2185
 6379SOL     OW30772   3.193   4.715   3.400 -0.3575  0.1266  0.4264
 6379SOL    HW130773   3.141   4.649   3.356  2.3667 -1.8859  0.2536
 6379SOL    HW230774   3.277   4.672   3.415 -0.9158 -1.8801 -2.3223
 6380SOL     OW30775   3.530   3.074   5.499 -0.0658  0.3222 -0.6351
 6380SOL    HW130776   3.612   3.035   5.471 -0.5623 -2.7793  2.1723
 6380SOL    HW230777   3.561   3.144   5.557  0.9393 -1.2255  0.6892
 6381SOL     OW30778   2.985   0.227   4.460 -0.6426 -0.5942  0.4039
 6381SOL    HW130779   3.063   0.194   4.503 -1.2538 -2.1540  0.2944
 6381SOL    HW230780   2.949   0.153   4.412 -0.1937 -0.1810 -0.5755
 6382SOL     OW30781   1.770   1.489   3.119  0.5254 -0.3798 -0.2784
 6382SOL    HW130782   1.727   1.491   3.033 -1.0845 -1.9536  0.4752
 6382SOL    HW230783   1.727   1.559   3.169  1.9965 -0.0647  0.5326
 6383SOL     OW30784   1.293   1.396  13.783 -0.6915 -0.0869  0.0623
 6383SOL    HW130785   1.381   1.433  13.789 -1.2458  1.1996  0.0970
 6383SOL    HW230786   1.282   1.380  13.877  0.6945  0.9491  0.3944
 6384SOL     OW30787   0.647   1.081   2.892 -0.2625 -0.0967  0.3813
 6384SOL    HW130788   0.629   1.092   2.799 -3.3917  0.8867  1.0731
 6384SOL    HW230789   0.591   1.006   2.907 -0.3281 -0.2948 -0.8352
 6385SOL     OW30790   3.641   2.180  17.138  0.0225 -0.1263  0.1124
 6385SOL    HW130791   3.728   2.178  17.096 -0.7013  1.1357 -1.4709
 6385SOL    HW230792   3.582   2.194  17.064 -0.4731  1.6193  0.8315
 6386SOL     OW30793   0.038   0.824  13.980  0.0446 -0.1700  0.6090
 6386SOL    HW130794   0.115   0.828  14.037 -0.0643 -0.3466  0.7688
 6386SOL    HW230795   0.083   0.828  13.896 -0.6316 -3.6223  0.0598
 6387SOL     OW30796   3.351   2.750  15.718  0.0300 -0.5381 -0.2900
 6387SOL    HW130797   3.328   2.657  15.716 -0.2712 -0.4732  0.1320
 6387SOL    HW230798   3.398   2.767  15.799  0.6852  0.2271 -0.8310
 6388SOL     OW30799   0.035   4.365   6.717  0.4159 -0.1968 -0.2429
 6388SOL    HW130800   4.700   4.398   6.662 -1.8211 -1.4113  1.9296
 6388SOL    HW230801   4.733   4.336   6.800  1.9230 -0.3302  0.4041
 6389SOL     OW30802   3.224   3.651   3.692 -0.1092 -0.3806  0.3226
 6389SOL    HW130803   3.281   3.636   3.767  1.1083  2.8589  0.0647
 6389SOL    HW230804   3.270   3.734   3.675 -0.3578 -0.6719 -1.8417
 6390SOL     OW30805   1.640   1.500   5.703  0.0243  0.1023  0.0200
 6390SOL    HW130806   1.669   1.524   5.791 -0.4423  1.8005 -0.2820
 6390SOL    HW230807   1.630   1.582   5.654  0.4963  0.1889  0.0679
 6391SOL     OW30808   0.978   2.981   9.879  0.0319  0.3813 -0.5464
 6391SOL    HW130809   1.025   3.007   9.800  0.7858 -0.1663 -0.2774
 6391SOL    HW230810   1.019   3.032   9.948 -0.6153 -0.8789  0.7652
 6392SOL     OW30811   2.258   3.241   8.772 -0.0615  0.3463  0.0107
 6392SOL    HW130812   2.222   3.196   8.848 -0.8850 -0.6820 -0.9792
 6392SOL    HW230813   2.215   3.196   8.699  0.0934 -0.4728  0.4317
 6393SOL     OW30814   0.565   4.545   6.219  0.2857  0.2682 -0.4128
 6393SOL    HW130815   0.613   4.626   6.238 -1.8388  1.4550 -0.1627
 6393SOL    HW230816   0.475   4.568   6.241  0.3885 -1.6916  2.0291
 6394SOL     OW30817   0.346   0.041   5.624  0.6851  0.3724 -0.7284
 6394SOL    HW130818   0.435   0.030   5.657  0.3781 -0.0864 -0.0348
 6394SOL    HW230819   0.333   4.693   5.581  0.2946 -0.7746  1.5976
 6395SOL     OW30820   3.425   4.460   6.093 -0.1467 -0.5215 -0.5218
 6395SOL    HW130821   3.459   4.465   6.183 -2.1911 -0.6322  0.2688
 6395SOL    HW230822   3.466   4.375   6.077 -3.1312 -2.2740  1.1849
 6396SOL     OW30823   1.631   4.072   2.455  0.1470  0.3321 -0.8158
 6396SOL    HW130824   1.658   4.001   2.397 -2.2319 -1.1824 -0.0540
 6396SOL    HW230825   1.541   4.080   2.422 -0.0920 -0.0324 -0.2460
 6397SOL     OW30826   0.112   1.660   7.883  0.4013 -0.1573 -0.6861
 6397SOL    HW130827   0.029   1.676   7.837  0.3641  1.9529  0.1643
 6397SOL    HW230828   0.073   1.670   7.970 -4.1721 -0.4823 -2.6706
 6398SOL     OW30829   2.162   2.612   5.750  0.9192 -0.2033  0.1792
 6398SOL    HW130830   2.237   2.661   5.716  0.1256 -1.2230 -3.0487
 6398SOL    HW230831   2.140   2.565   5.670  0.4176  2.0602 -1.0330
 6399SOL     OW30832   2.958   1.865   5.749 -0.6747 -0.2069  0.0230
 6399SOL    HW130833   3.010   1.871   5.669 -1.9932 -1.6394 -0.9368
 6399SOL    HW230834   2.876   1.911   5.728 -0.7445 -0.2603  0.1782
 6400SOL     OW30835   0.812   2.085   1.207 -0.1837 -0.0633  0.1358
 6400SOL    HW130836   0.784   2.035   1.131 -1.4775 -2.6051  2.2545
 6400SOL    HW230837   0.792   2.028   1.282 -1.9182 -0.2793 -0.5073
 6401SOL     OW30838   3.414   1.307   8.458 -0.1527  0.3925 -0.6323
 6401SOL    HW130839   3.379   1.307   8.546  2.6073 -0.2047  0.4723
 6401SOL    HW230840   3.425   1.214   8.434 -0.8313  0.2295 -0.2955
 6402SOL     OW30841   3.065   3.640   9.198  0.1625 -0.2162 -0.0773
 6402SOL    HW130842   3.010   3.583   9.145  2.2455 -1.6205 -0.7243
 6402SOL    HW230843   3.102   3.567   9.247  2.5713  0.0711 -1.4864
 6403SOL     OW30844   4.604   2.525   9.261 -0.1592 -0.4442 -0.0478
 6403SOL    HW130845   4.682   2.484   9.299 -0.7083 -1.9547 -0.5452
 6403SOL    HW230846   4.596   2.596   9.324 -0.3218 -1.0530  0.6175
 6404SOL     OW30847   0.077   1.666   3.567 -0.1447  0.4620  0.2906
 6404SOL    HW130848   4.723   1.648   3.594 -1.2463  0.4176 -3.4280
 6404SOL    HW230849   0.090   1.597   3.502  1.9242  1.4738 -0.3616
 6405SOL     OW30850   1.751   1.114   3.902 -0.3791 -0.8215 -0.4675
 6405SOL    HW130851   1.801   1.099   3.982  0.6567  1.3086 -0.7209
 6405SOL    HW230852   1.671   1.064   3.918 -0.4343 -0.6953 -0.3500
 6406SOL     OW30853   1.072   0.013   4.580 -0.2375  0.1985  0.1553
 6406SOL    HW130854   0.997   0.069   4.597 -0.1472 -0.0608  1.3883
 6406SOL    HW230855   1.109   0.008   4.668  1.2534  0.3138 -0.4535
 6407SOL     OW30856   3.121   2.892   3.167  0.7820  0.8788  0.3496
 6407SOL    HW130857   3.082   2.889   3.080 -0.3251  0.8260  0.8477
 6407SOL    HW230858   3.049   2.937   3.209 -0.4969 -0.2980 -0.5732
 6408SOL     OW30859   3.586   0.986   2.175  0.4919 -0.1906  0.3966
 6408SOL    HW130860   3.507   1.040   2.175  0.0710 -0.8340 -1.3861
 6408SOL    HW230861   3.660   1.037   2.142  1.4970 -1.3480  0.8417
 6409SOL     OW30862   2.992   3.642  11.569 -0.4405  0.1266 -0.3205
 6409SOL    HW130863   3.019   3.699  11.641 -0.9502 -0.6031  0.4517
 6409SOL    HW230864   2.917   3.589  11.598 -0.3531 -0.8608 -1.9037
 6410SOL     OW30865   1.654   0.523  13.167 -0.2539  0.1016  0.2543
 6410SOL    HW130866   1.638   0.618  13.164 -3.0523 -0.4252 -1.2050
 6410SOL    HW230867   1.682   0.522  13.258 -0.1599  0.7484  0.2335
 6411SOL     OW30868   1.391   4.711   1.819  0.0084  0.1851  0.0849
 6411SOL    HW130869   1.355   0.059   1.792 -0.4569  0.6473  2.1778
 6411SOL    HW230870   1.480   0.004   1.841  0.0827  0.3042 -0.3750
 6412SOL     OW30871   3.473   4.736   4.641 -0.2460  0.5330 -1.1394
 6412SOL    HW130872   3.522   4.664   4.681 -0.2566  1.4174  0.4805
 6412SOL    HW230873   3.460   0.048   4.723 -0.8834 -0.4705 -0.6477
 6413SOL     OW30874   4.100   3.127   6.872  0.3950  0.0259 -0.2343
 6413SOL    HW130875   4.148   3.199   6.830  2.6012  0.5987  3.3039
 6413SOL    HW230876   4.164   3.057   6.863  1.6094  0.8314  2.3375
 6414SOL     OW30877   2.511   0.238   2.584  0.1902 -0.2065  0.0129
 6414SOL    HW130878   2.504   0.317   2.531 -0.4017  0.9200  1.7613
 6414SOL    HW230879   2.446   0.176   2.551  1.9369 -2.1827  0.3281
 6415SOL     OW30880   1.400   3.681   9.336  0.4171  0.4594  0.2903
 6415SOL    HW130881   1.479   3.628   9.341 -0.4445 -0.6758  1.7958
 6415SOL    HW230882   1.393   3.703   9.243 -1.0900 -0.7280  0.1293
 6416SOL     OW30883   1.919   3.597   4.101 -0.9103 -0.4368  0.3479
 6416SOL    HW130884   1.940   3.651   4.177 -1.4960 -2.1866  1.7619
 6416SOL    HW230885   1.918   3.659   4.029  1.6282 -0.7426  0.0339
 6417SOL     OW30886   2.985   1.525   8.404 -0.3320  0.2378  0.0158
 6417SOL    HW130887   2.926   1.496   8.334 -0.7866 -0.3017  0.6159
 6417SOL    HW230888   2.986   1.619   8.390  2.0838 -0.4851 -4.6315
 6418SOL     OW30889   0.354   0.678   2.105  0.2751  0.3385 -0.2417
 6418SOL    HW130890   0.313   0.711   2.186  0.2306  0.8831 -0.4845
 6418SOL    HW230891   0.432   0.630   2.131 -0.1383  0.1922  0.7447
 6419SOL     OW30892   2.484   0.679   3.487  0.6762  0.5863 -0.0597
 6419SOL    HW130893   2.390   0.693   3.473  0.7170 -1.8356 -2.6030
 6419SOL    HW230894   2.494   0.591   3.452  0.6083 -1.5071  5.2272
 6420SOL     OW30895   4.713   4.589   2.646 -0.5557  0.1615 -0.6195
 6420SOL    HW130896   4.641   4.532   2.620 -1.0332  0.3265  0.3562
 6420SOL    HW230897   4.724   4.618   2.555 -1.7351  3.2622  0.2250
 6421SOL     OW30898   4.216   4.498   7.172 -0.0343 -0.3457  0.2447
 6421SOL    HW130899   4.311   4.488   7.177  0.1440  1.7574  0.7748
 6421SOL    HW230900   4.189   4.449   7.250 -0.0009  0.9440  1.0536
 6422SOL     OW30901   0.478   1.300   2.068 -0.2476  0.0608  0.1531
 6422SOL    HW130902   0.475   1.231   2.001  0.3707 -0.9983  1.2242
 6422SOL    HW230903   0.570   1.328   2.071  0.1729 -1.4746  1.3677
 6423SOL     OW30904   0.619   1.494   6.073 -0.6223  0.2471  0.7361
 6423SOL    HW130905   0.542   1.442   6.094 -1.6824  1.0134 -1.3603
 6423SOL    HW230906   0.608   1.519   5.982 -2.5138  0.1575  0.9531
 6424SOL     OW30907   4.484   0.879   3.705  0.2104 -0.6444 -0.3073
 6424SOL    HW130908   4.519   0.965   3.680 -0.2940  0.3736  2.5294
 6424SOL    HW230909   4.391   0.891   3.685 -0.5093 -6.0893 -0.1730
 6425SOL     OW30910   0.588   0.127  13.146  0.6236  0.6684  0.8520
 6425SOL    HW130911   0.564   0.213  13.111 -2.6411 -0.5673  0.0265
 6425SOL    HW230912   0.538   0.082  13.078  0.9588  1.0345  0.3591
 6426SOL     OW30913   1.247   1.980   2.795  0.3735  0.0546  0.6878
 6426SOL    HW130914   1.278   1.956   2.883 -0.8183 -2.3603  0.4305
 6426SOL    HW230915   1.303   1.927   2.738  0.4237 -0.5440  1.2914
 6427SOL     OW30916   0.280   1.200   0.747  0.5405 -0.1726 -0.3318
 6427SOL    HW130917   0.275   1.208   0.652  0.3834 -1.6554 -0.4500
 6427SOL    HW230918   0.283   1.295   0.759 -0.5216 -0.1541 -0.2189
 6428SOL     OW30919   0.284   2.396  11.776  0.2763 -0.1250  0.6460
 6428SOL    HW130920   0.343   2.333  11.734 -2.0782  1.2639 -4.7162
 6428SOL    HW230921   0.211   2.338  11.799 -1.3017  0.0209 -3.9628
 6429SOL     OW30922   3.370   4.352   4.053  0.1773  0.2035  0.1944
 6429SOL    HW130923   3.403   4.426   4.004 -1.4453  0.8255  0.0462
 6429SOL    HW230924   3.425   4.365   4.131 -0.7878 -0.6435  1.0293
 6430SOL     OW30925   4.385   1.380   6.533  0.1906 -0.1765  0.0658
 6430SOL    HW130926   4.395   1.467   6.495 -1.0858 -0.0860 -0.0769
 6430SOL    HW230927   4.470   1.347   6.506  0.1859  1.1793 -1.6098
 6431SOL     OW30928   3.466   0.546   3.311 -0.2428 -0.3210  0.0159
 6431SOL    HW130929   3.373   0.533   3.327 -0.4666  0.5902 -0.5658
 6431SOL    HW230930   3.463   0.613   3.243 -0.2822 -0.0179  0.3145
 6432SOL     OW30931   0.257   3.099   9.175  0.6844  0.0169  0.4563
 6432SOL    HW130932   0.257   3.195   9.167 -0.4874 -0.1130 -0.9230
 6432SOL    HW230933   0.235   3.090   9.268 -1.4415  2.3183  0.1660
 6433SOL     OW30934   1.545   1.882  12.966 -0.4047  0.1291  0.0487
 6433SOL    HW130935   1.523   1.955  13.023 -0.1123 -0.9320  1.5244
 6433SOL    HW230936   1.460   1.846  12.941 -0.1167 -0.9525  0.6259
 6434SOL     OW30937   1.595   3.324   7.054 -0.1561 -0.7143 -0.1629
 6434SOL    HW130938   1.666   3.350   7.112  0.3068 -1.3640 -0.4330
 6434SOL    HW230939   1.630   3.245   7.011  0.4180 -0.6508  0.1877
 6435SOL     OW30940   2.606   0.339   6.282  0.9222 -0.4239 -0.8099
 6435SOL    HW130941   2.517   0.376   6.288  0.6217 -1.3475  0.4388
 6435SOL    HW230942   2.588   0.261   6.335  0.5024  0.2985  0.0973
 6436SOL     OW30943   1.258   4.647   7.799 -0.0192  0.2762  0.8646
 6436SOL    HW130944   1.339   4.684   7.764 -0.6032 -1.7345 -2.6983
 6436SOL    HW230945   1.285   4.556   7.809  1.7627  0.5353 -1.5712
 6437SOL     OW30946   1.336   0.283   7.799  0.1693 -0.3148 -0.0532
 6437SOL    HW130947   1.321   0.275   7.894  0.2832 -1.5979 -0.1407
 6437SOL    HW230948   1.263   0.230   7.767 -1.8048  1.2937  1.7975
 6438SOL     OW30949   1.776   0.612   7.747  0.0661  0.1898 -0.1291
 6438SOL    HW130950   1.810   0.670   7.815 -3.1755 -1.1163  2.6130
 6438SOL    HW230951   1.684   0.621   7.771  0.8545  0.5584  2.6974
 6439SOL     OW30952   2.294   0.199  10.100  0.2949  0.0844  0.4965
 6439SOL    HW130953   2.371   0.143  10.108 -0.3626 -0.8471  0.4022
 6439SOL    HW230954   2.262   0.165  10.016 -1.0052 -1.2804  1.5302
 6440SOL     OW30955   0.849   0.931   7.522 -0.8284 -0.3896  0.0441
 6440SOL    HW130956   0.901   0.896   7.450  1.6800  0.2584  1.5467
 6440SOL    HW230957   0.812   1.004   7.472  0.0598  1.5871  2.2956
 6441SOL     OW30958   2.582   0.961  12.866  0.0641 -0.0694  0.4530
 6441SOL    HW130959   2.598   1.049  12.901 -1.7973  0.6676 -0.5198
 6441SOL    HW230960   2.525   0.977  12.791  0.8293 -0.0790 -0.1316
 6442SOL     OW30961   3.149   4.617   4.962  0.1714  0.3983  0.0255
 6442SOL    HW130962   3.217   4.679   4.936  0.4071  0.4352  0.7367
 6442SOL    HW230963   3.123   4.579   4.878 -0.3742 -0.5228  0.6066
 6443SOL     OW30964   1.342   3.618   3.076 -0.0626 -0.5312  0.3325
 6443SOL    HW130965   1.376   3.661   2.997 -1.1030 -1.0936 -0.4190
 6443SOL    HW230966   1.401   3.661   3.138 -1.1074  0.1382  0.8635
 6444SOL     OW30967   2.741   0.562   2.598  0.4204  0.2164  0.2690
 6444SOL    HW130968   2.653   0.531   2.576  0.5237  0.7950 -0.9812
 6444SOL    HW230969   2.765   0.496   2.662 -0.3064 -1.6082 -1.3341
 6445SOL     OW30970   4.650   4.067   5.738 -0.0088  0.0712 -0.2864
 6445SOL    HW130971   4.599   4.148   5.733 -2.9899 -1.7794  0.0865
 6445SOL    HW230972   4.644   4.043   5.645  0.4266  1.0948 -0.5847
 6446SOL     OW30973   1.717   1.639  13.051 -0.5997 -0.2528 -0.4456
 6446SOL    HW130974   1.740   1.547  13.040 -1.5266 -0.4668 -0.5835
 6446SOL    HW230975   1.674   1.669  12.971 -0.6677  0.8084 -0.0117
 6447SOL     OW30976   1.472   0.745   6.134 -0.3231  0.1148 -0.2599
 6447SOL    HW130977   1.449   0.793   6.054  0.2803  1.3441  0.3080
 6447SOL    HW230978   1.555   0.700   6.115 -1.1639 -0.8731 -1.6069
 6448SOL     OW30979   3.177   4.033   5.313 -0.1670 -0.0503  0.4560
 6448SOL    HW130980   3.255   4.082   5.338  0.8342 -0.7236 -1.3001
 6448SOL    HW230981   3.198   4.019   5.220 -0.5624  1.0672  0.1991
 6449SOL     OW30982   2.552   0.099   6.426 -0.1001  0.3786 -0.0553
 6449SOL    HW130983   2.530   0.015   6.466 -0.3576  0.1195 -0.7423
 6449SOL    HW230984   2.640   0.116   6.460 -0.7899  1.9719  0.9055
 6450SOL     OW30985   2.705   1.158   8.237  0.4488  0.2744 -0.1522
 6450SOL    HW130986   2.666   1.107   8.165  0.5865  3.0689 -2.2050
 6450SOL    HW230987   2.739   1.095   8.300 -0.4029 -0.0671 -0.0351
 6451SOL     OW30988   0.877   4.487   3.537 -0.1021 -0.2256  0.2317
 6451SOL    HW130989   0.889   4.520   3.448  1.0713  0.2984  0.5867
 6451SOL    HW230990   0.878   4.567   3.589 -0.9032  0.0766 -0.2200
 6452SOL     OW30991   4.278   3.620   6.187 -0.0006 -0.4035  0.2214
 6452SOL    HW130992   4.314   3.708   6.184 -0.6583 -0.1120  1.0331
 6452SOL    HW230993   4.248   3.624   6.278  1.1273  1.0584  0.5194
 6453SOL     OW30994   2.630   0.153   5.796 -0.2414  0.4861  0.0484
 6453SOL    HW130995   2.614   0.146   5.890  0.1929 -1.1753 -0.0075
 6453SOL    HW230996   2.725   0.166   5.799 -0.6342  3.1773  1.3562
 6454SOL     OW30997   3.938   3.614   8.250 -0.3168  0.8561  0.3224
 6454SOL    HW130998   3.959   3.528   8.213 -2.2342 -1.0183  3.6331
 6454SOL    HW230999   3.941   3.671   8.173 -0.0462  1.8341  1.0610
 6455SOL     OW31000   0.109   0.833   5.092  0.1094  0.7484  0.0113
 6455SOL    HW131001   0.066   0.825   5.007  3.6123 -0.2732 -1.6552
 6455SOL    HW231002   0.068   0.913   5.123 -0.9320 -0.2950  1.3723
 6456SOL     OW31003   3.271   3.724  14.665 -0.6859  0.4654 -0.0267
 6456SOL    HW131004   3.290   3.640  14.623  0.7135 -0.3357  2.2116
 6456SOL    HW231005   3.176   3.727  14.657 -0.6338  1.4850 -0.3598
 6457SOL     OW31006   0.146   4.264   5.023  0.3784 -1.0192 -0.3262
 6457SOL    HW131007   0.061   4.218   5.022 -1.3246  2.1396  0.5223
 6457SOL    HW231008   0.138   4.303   5.110 -1.1465  0.9262 -1.3612
 6458SOL     OW31009   2.414   2.154   8.687 -0.2758 -0.0248 -0.0097
 6458SOL    HW131010   2.420   2.172   8.780  0.7249 -0.8987  0.0835
 6458SOL    HW231011   2.381   2.238   8.654 -0.8051 -0.1785  0.1229
 6459SOL     OW31012   1.088   1.547   6.736 -0.9043 -0.1312 -0.4242
 6459SOL    HW131013   1.099   1.609   6.664  0.8355 -0.2509 -0.2580
 6459SOL    HW231014   0.992   1.540   6.742 -0.8261 -0.4803  0.4473
 6460SOL     OW31015   1.344   0.162   3.871  0.3064  0.1663 -0.4568
 6460SOL    HW131016   1.289   0.106   3.815 -0.1119  0.2290 -0.1137
 6460SOL    HW231017   1.281   0.215   3.920 -1.3507 -0.6073 -1.7064
 6461SOL     OW31018   2.097   4.237  12.813 -0.4359  0.4052 -0.1177
 6461SOL    HW131019   2.185   4.221  12.846 -0.8308  2.9487  2.1890
 6461SOL    HW231020   2.041   4.186  12.872  0.3223 -0.2358  0.0360
 6462SOL     OW31021   0.403   3.726   4.451 -0.4827 -0.5853  0.2549
 6462SOL    HW131022   0.440   3.649   4.408  1.6079  0.0797  0.8837
 6462SOL    HW231023   0.442   3.803   4.409 -1.0173 -0.9275 -0.8787
 6463SOL     OW31024   0.854   3.798  12.999 -0.4901  0.1684  0.5270
 6463SOL    HW131025   0.806   3.876  12.972 -2.5756 -1.0917  0.6418
 6463SOL    HW231026   0.834   3.798  13.093 -1.1150  0.7479  0.3963
 6464SOL     OW31027   4.536   4.694  11.750 -0.4344 -0.0413  0.0061
 6464SOL    HW131028   4.474   4.663  11.816  0.3797 -0.8431  0.4027
 6464SOL    HW231029   4.614   4.716  11.800 -2.0993  0.5021  2.3398
 6465SOL     OW31030   1.387   3.785   5.133  0.1913  0.6333 -0.2952
 6465SOL    HW131031   1.474   3.756   5.160  0.7102  0.9414 -1.6216
 6465SOL    HW231032   1.346   3.818   5.213 -1.9270 -2.2989 -0.1363
 6466SOL     OW31033   3.070   4.044   7.290 -0.3826  0.0903 -0.3473
 6466SOL    HW131034   3.043   3.960   7.326 -0.5452  1.3370  2.4106
 6466SOL    HW231035   3.164   4.030   7.305 -0.1451  3.6221  1.3932
 6467SOL     OW31036   2.695   3.341   8.318 -0.2249  0.3721 -0.2677
 6467SOL    HW131037   2.640   3.406   8.274 -0.2081  0.1839 -0.5650
 6467SOL    HW231038   2.664   3.351   8.408  0.4221 -0.4263  0.0452
 6468SOL     OW31039   2.312   0.098   8.856 -0.7668  0.0467 -0.2932
 6468SOL    HW131040   2.321   0.003   8.847  0.3035  0.0253  0.9561
 6468SOL    HW231041   2.391   0.128   8.810 -0.9888  0.2489 -0.5414
 6469SOL     OW31042   3.674   2.519  12.592  0.4978  0.1309  0.2112
 6469SOL    HW131043   3.712   2.472  12.518 -1.1984 -0.8789 -0.0004
 6469SOL    HW231044   3.725   2.600  12.583 -1.5213  1.4320  0.5019
 6470SOL     OW31045   2.097   4.555   5.796 -0.2127 -0.1720 -0.1042
 6470SOL    HW131046   2.009   4.589   5.777 -0.1758 -0.5529 -0.9759
 6470SOL    HW231047   2.153   4.597   5.730  0.6020  0.1133  0.7625
 6471SOL     OW31048   4.016   0.057   5.475  0.9110 -0.0789 -0.0139
 6471SOL    HW131049   3.978   4.732   5.538  0.7862  0.1660  0.1476
 6471SOL    HW231050   3.971   0.137   5.501  0.6820 -0.7114  1.5449
 6472SOL     OW31051   4.163   1.909   1.508 -0.1127 -0.3338  0.1093
 6472SOL    HW131052   4.197   1.881   1.593 -0.2671 -0.8101  0.0183
 6472SOL    HW231053   4.220   1.860   1.448  0.3483 -0.9204  1.0280
 6473SOL     OW31054   3.576   3.216   3.990  0.8979  0.9367  0.2754
 6473SOL    HW131055   3.644   3.157   3.957 -0.6993 -0.7432 -0.0089
 6473SOL    HW231056   3.514   3.210   3.918  1.4363  1.5808 -0.2471
 6474SOL     OW31057   1.943   4.656   5.412 -0.4765 -0.4637  0.2622
 6474SOL    HW131058   1.912   4.655   5.502  0.4270  1.9804  0.6044
 6474SOL    HW231059   1.875   4.604   5.369 -1.2250  0.8719 -0.1828
 6475SOL     OW31060   3.627   4.543  14.007 -0.5690  0.0284  0.1114
 6475SOL    HW131061   3.662   4.581  13.927  2.2748 -1.9543  0.3993
 6475SOL    HW231062   3.671   4.594  14.076  0.2123 -0.1601 -0.2478
 6476SOL     OW31063   3.659   0.100  16.510 -0.6769 -0.1693  0.3957
 6476SOL    HW131064   3.588   0.052  16.468 -0.8687  1.0562 -0.6611
 6476SOL    HW231065   3.635   0.113  16.602 -1.1894  0.8847  0.1118
 6477SOL     OW31066   4.507   0.863   6.363 -0.1517 -0.4922  0.1166
 6477SOL    HW131067   4.432   0.919   6.383  1.3831  1.4179  0.5041
 6477SOL    HW231068   4.461   0.782   6.385  1.3162 -1.6395 -1.0627
 6478SOL     OW31069   3.246   0.967   9.153 -0.4028  0.5174  0.3759
 6478SOL    HW131070   3.257   0.874   9.174  0.1322  0.6562  0.7213
 6478SOL    HW231071   3.152   0.974   9.135 -0.4085  1.9269  0.9568
 6479SOL     OW31072   2.895   0.615   2.295  0.1896  0.0310 -0.0062
 6479SOL    HW131073   2.851   0.531   2.285 -0.5536  0.3046  0.9140
 6479SOL    HW231074   2.945   0.608   2.214  0.3302  1.9108 -0.0910
 6480SOL     OW31075   4.073   3.999  12.336 -0.2228 -0.4807  0.3378
 6480SOL    HW131076   4.036   4.086  12.345  1.7786  0.5600 -1.4460
 6480SOL    HW231077   4.039   3.951  12.411 -0.1270  1.8894  1.8800
 6481SOL     OW31078   1.426   2.809   8.495 -0.1060  0.4995  0.7232
 6481SOL    HW131079   1.331   2.801   8.493 -0.0262 -0.4006  0.5031
 6481SOL    HW231080   1.437   2.868   8.420  0.1169 -0.4194  0.0323
 6482SOL     OW31081   0.441   2.941   0.266  0.2053  0.0405  0.2106
 6482SOL    HW131082   0.467   2.874   0.201  2.2360  1.2540 -0.2401
 6482SOL    HW231083   0.363   2.973   0.221 -0.4376 -1.8795 -0.0524
 6483SOL     OW31084   2.122   3.439   3.642  0.1151 -0.2175  0.0622
 6483SOL    HW131085   2.197   3.385   3.668 -0.7395  0.0684  3.1849
 6483SOL    HW231086   2.087   3.379   3.577  0.3027  1.0851 -1.2406
 6484SOL     OW31087   0.555   2.434  15.498 -0.2738  0.1082  0.4507
 6484SOL    HW131088   0.572   2.340  15.490 -0.0048  0.1094  0.9847
 6484SOL    HW231089   0.459   2.429  15.499 -0.3141  1.0568  1.5725
 6485SOL     OW31090   0.646   1.812   4.188  0.1808 -0.0385  0.9579
 6485SOL    HW131091   0.573   1.768   4.144  2.0302 -1.7483 -0.3444
 6485SOL    HW231092   0.665   1.735   4.241  2.9295  0.2222  0.3239
 6486SOL     OW31093   3.682   0.676   8.093  0.3184  0.2081  0.0046
 6486SOL    HW131094   3.722   0.610   8.150 -2.1779 -0.2540  1.1849
 6486SOL    HW231095   3.715   0.752   8.142  0.5588  0.0028  0.1633
 6487SOL     OW31096   2.688   2.269   2.436  0.0044  0.0338  0.1186
 6487SOL    HW131097   2.641   2.223   2.366 -1.1863  0.3686  0.7053
 6487SOL    HW231098   2.610   2.287   2.489  0.5787  0.4558  0.8128
 6488SOL     OW31099   0.079   2.980  13.599  0.0883  0.4758 -0.0068
 6488SOL    HW131100   0.023   3.037  13.547  0.1736 -1.6014 -2.3941
 6488SOL    HW231101   0.074   3.026  13.682 -0.4751  1.5160 -0.6252
 6489SOL     OW31102   3.178   1.820  15.120 -0.2755 -0.6205 -0.4033
 6489SOL    HW131103   3.091   1.798  15.154  0.3221 -1.9422  0.2797
 6489SOL    HW231104   3.162   1.810  15.026 -1.7228 -0.9067 -0.1223
 6490SOL     OW31105   2.152   1.912  17.571  0.1161  0.0098  0.0518
 6490SOL    HW131106   2.063   1.880  17.579  0.5710 -1.4968 -0.8857
 6490SOL    HW231107   2.162   1.929  17.477  0.1030 -3.9500 -0.6998
 6491SOL     OW31108   0.240   2.243   8.259  0.2401 -0.2790 -0.2823
 6491SOL    HW131109   0.170   2.216   8.318 -2.2774  1.7854 -2.3213
 6491SOL    HW231110   0.288   2.160   8.255  2.7411  1.2664 -2.0663
 6492SOL     OW31111   0.922   1.794  11.151  0.3228  0.1314 -0.8859
 6492SOL    HW131112   0.947   1.884  11.169 -0.7398  0.1326  0.5837
 6492SOL    HW231113   0.953   1.797  11.060  1.4471  0.2703 -0.5018
 6493SOL     OW31114   4.360   2.645   1.882 -0.0456  0.2308 -0.0984
 6493SOL    HW131115   4.427   2.592   1.838  0.7133 -0.2730  1.6621
 6493SOL    HW231116   4.329   2.599   1.960 -1.6073  0.3612 -0.6574
 6494SOL     OW31117   1.970   3.405   0.064 -0.2400  0.0863  0.6223
 6494SOL    HW131118   1.943   3.313   0.064  0.8269 -0.2177  0.2838
 6494SOL    HW231119   1.900   3.453   0.109  0.2467 -0.0001  1.4613
 6495SOL     OW31120   2.604   2.965   8.227 -0.3826  0.2927  0.4286
 6495SOL    HW131121   2.539   3.014   8.179  0.2899  1.5408  0.7946
 6495SOL    HW231122   2.678   3.026   8.222  0.1795 -0.4308 -0.1542
 6496SOL     OW31123   2.694   3.027   7.164  0.2313 -0.1176 -0.4540
 6496SOL    HW131124   2.677   3.078   7.243  0.9266 -2.6040  1.2945
 6496SOL    HW231125   2.635   2.952   7.172 -0.8593  0.5294 -2.5389
 6497SOL     OW31126   1.445   0.039   8.506 -0.0570  0.1525  0.2553
 6497SOL    HW131127   1.429   4.694   8.553 -0.1007 -0.3649 -0.6429
 6497SOL    HW231128   1.361   0.083   8.510  0.6156  1.8568 -4.0646
 6498SOL     OW31129   1.328   3.233   3.299 -0.3070 -0.5839 -0.2270
 6498SOL    HW131130   1.269   3.188   3.359  0.3874 -0.8547  0.2525
 6498SOL    HW231131   1.365   3.298   3.358 -0.4207  1.5272 -2.4363
 6499SOL     OW31132   4.503   2.905   3.098  0.8063 -0.1596 -0.3876
 6499SOL    HW131133   4.524   2.837   3.034  1.4430  1.9448 -2.4086
 6499SOL    HW231134   4.517   2.861   3.182  1.6900 -0.6142 -0.7787
 6500SOL     OW31135   3.304   1.057   9.429 -0.3818 -0.3749  0.2792
 6500SOL    HW131136   3.255   0.985   9.469 -1.3734  1.4693  2.4463
 6500SOL    HW231137   3.301   1.038   9.335 -0.4806 -1.2470  0.4630
 6501SOL     OW31138   0.101   1.641   2.579  0.1970 -0.4041  0.0425
 6501SOL    HW131139   0.084   1.681   2.665 -1.6301 -2.5029  0.6846
 6501SOL    HW231140   0.174   1.587   2.609  1.5239  2.2896  1.6834
 6502SOL     OW31141   0.268   2.106   0.573  0.4756 -0.0816  0.9318
 6502SOL    HW131142   0.354   2.128   0.609  0.0776 -1.6850  2.8462
 6502SOL    HW231143   0.274   2.012   0.556  0.3567  0.3408 -1.4795
 6503SOL     OW31144   3.219   0.601  11.802 -0.3995  0.2564 -0.0842
 6503SOL    HW131145   3.156   0.656  11.755  0.4898 -0.9391 -2.6364
 6503SOL    HW231146   3.286   0.578  11.738  0.2362  3.9462 -0.7711
 6504SOL     OW31147   0.484   1.351  17.307  0.5014 -0.0162 -0.4273
 6504SOL    HW131148   0.540   1.429  17.315  0.6620 -0.2966  1.2264
 6504SOL    HW231149   0.427   1.380  17.236 -1.0564 -0.8666  0.4821
 6505SOL     OW31150   3.285   2.539   5.168 -0.0816  0.6335 -0.5956
 6505SOL    HW131151   3.273   2.454   5.211  1.5770  1.4669  1.5101
 6505SOL    HW231152   3.232   2.594   5.227 -0.7840  0.3128 -0.9258
 6506SOL     OW31153   0.295   3.785  12.672 -0.1060 -0.3145 -0.3308
 6506SOL    HW131154   0.217   3.827  12.710 -0.7579 -1.4459 -0.4011
 6506SOL    HW231155   0.354   3.800  12.745  0.0282 -0.9424 -0.3076
 6507SOL     OW31156   1.396   4.324  13.354  0.1087 -0.3220 -0.2364
 6507SOL    HW131157   1.453   4.346  13.428  0.6710  0.4168 -0.8937
 6507SOL    HW231158   1.375   4.406  13.311  1.9064 -0.0873 -0.6701
 6508SOL     OW31159   1.505   1.149   1.376 -0.0424 -0.1964  0.9379
 6508SOL    HW131160   1.414   1.172   1.354  1.0956  2.4438 -1.0733
 6508SOL    HW231161   1.513   1.063   1.335  0.1911  0.5358 -0.5400
 6509SOL     OW31162   2.305   0.268   3.673  0.0485  0.0367  0.1359
 6509SOL    HW131163   2.299   0.341   3.611  1.1445  0.7787  0.9142
 6509SOL    HW231164   2.357   0.310   3.741  1.5746 -1.9531  0.2235
 6510SOL     OW31165   3.802   2.111   5.373  0.3914  0.3918  0.0149
 6510SOL    HW131166   3.882   2.060   5.358 -0.1190  0.4761 -2.9542
 6510SOL    HW231167   3.809   2.179   5.306  0.3080 -0.0936 -0.4874
 6511SOL     OW31168   1.249   4.646   6.302 -0.1470 -0.2178 -0.1366
 6511SOL    HW131169   1.182   4.689   6.248 -0.5376  0.4286  0.8731
 6511SOL    HW231170   1.241   4.696   6.382 -1.0307 -1.7753  0.7434
 6512SOL     OW31171   4.178   2.943   2.741 -0.3139 -0.2181  0.1055
 6512SOL    HW131172   4.270   2.965   2.733 -0.2631 -0.2291  0.6698
 6512SOL    HW231173   4.152   2.959   2.650  0.9144  0.8888 -0.0486
 6513SOL     OW31174   2.028   0.762  12.977 -0.0112  0.2369  0.0494
 6513SOL    HW131175   1.992   0.749  12.889  0.6849 -0.5293 -0.1263
 6513SOL    HW231176   2.003   0.678  13.017 -0.4073  0.9926  1.3609
 6514SOL     OW31177   2.761   4.263   7.546 -0.2388 -0.4328  0.4121
 6514SOL    HW131178   2.758   4.289   7.638 -2.5391  0.9987 -0.0808
 6514SOL    HW231179   2.778   4.169   7.557  0.2220 -0.5435 -1.2319
 6515SOL     OW31180   3.835   0.826   9.851 -0.2017 -0.4905  0.0599
 6515SOL    HW131181   3.853   0.908   9.897 -0.4909 -0.1327 -0.4675
 6515SOL    HW231182   3.903   0.772   9.891  0.2476  0.7793  1.0268
 6516SOL     OW31183   3.352   0.242  11.087 -0.5518  0.1223  0.4855
 6516SOL    HW131184   3.298   0.291  11.025  1.1648  0.6170 -0.6297
 6516SOL    HW231185   3.428   0.297  11.106  0.7996 -1.0937 -1.5302
 6517SOL     OW31186   2.013   2.530   2.588  0.2109  0.6659  0.1276
 6517SOL    HW131187   2.058   2.606   2.551  0.3797  0.4995 -0.0094
 6517SOL    HW231188   1.940   2.529   2.527 -0.7791  1.0865  1.3112
 6518SOL     OW31189   4.475   3.964  10.026 -0.2193 -0.4709  0.1297
 6518SOL    HW131190   4.513   4.037   9.976 -0.3041 -0.4946  0.0307
 6518SOL    HW231191   4.531   3.891   9.998  2.6105  1.5152  0.6538
 6519SOL     OW31192   0.343   2.604   3.147  0.0729  0.3997 -0.5294
 6519SOL    HW131193   0.434   2.626   3.165  0.2010 -2.4006  2.2158
 6519SOL    HW231194   0.293   2.679   3.177 -2.1814 -0.5054 -2.0067
 6520SOL     OW31195   0.940   1.386   9.434 -0.7662  0.2081 -0.4157
 6520SOL    HW131196   0.867   1.386   9.372  0.8419  1.0594 -2.2960
 6520SOL    HW231197   0.934   1.292   9.449 -0.0858  0.4709  1.5829
 6521SOL     OW31198   1.698   0.593  16.373  0.1844 -0.7994 -0.3086
 6521SOL    HW131199   1.775   0.551  16.334  0.3953 -1.0364  0.3643
 6521SOL    HW231200   1.652   0.514  16.401  0.7195 -1.1567 -0.4330
 6522SOL     OW31201   1.633   2.945   2.963  0.5365  0.2190  0.1842
 6522SOL    HW131202   1.587   2.911   3.040 -1.6539  0.1835 -1.1226
 6522SOL    HW231203   1.566   2.939   2.894 -2.0039  0.6321  2.5948
 6523SOL     OW31204   3.858   4.060  12.744 -0.0458 -0.6099  0.1783
 6523SOL    HW131205   3.832   3.972  12.772  1.1920 -0.9654  0.2125
 6523SOL    HW231206   3.945   4.042  12.708  1.1074  0.0876  2.5870
 6524SOL     OW31207   0.624   0.501   6.601 -0.2926  0.0838  0.5523
 6524SOL    HW131208   0.554   0.560   6.631  0.0728  0.4319  0.7100
 6524SOL    HW231209   0.578   0.466   6.525  1.2563 -0.5707 -0.0790
 6525SOL     OW31210   0.110   1.478  17.342 -0.0186  0.3645 -0.0897
 6525SOL    HW131211   0.162   1.477  17.261 -1.1813 -1.2988 -0.8191
 6525SOL    HW231212   0.025   1.513  17.317 -0.2196  1.4928  2.2548
 6526SOL     OW31213   2.501   1.260   8.398  0.0224 -0.5844 -0.0973
 6526SOL    HW131214   2.540   1.267   8.485 -0.1311 -1.4217  0.0376
 6526SOL    HW231215   2.579   1.262   8.343  0.2468 -1.4405  0.1881
 6527SOL     OW31216   1.485   1.034   3.496 -0.5166 -0.1822 -0.6972
 6527SOL    HW131217   1.435   1.056   3.575 -0.4050 -0.2946 -0.5961
 6527SOL    HW231218   1.541   0.965   3.529 -0.7083  0.6105  1.3326
 6528SOL     OW31219   3.062   4.591  12.268  0.6432  0.4358  0.5658
 6528SOL    HW131220   3.014   4.508  12.268 -1.9560  1.9594  2.1919
 6528SOL    HW231221   3.078   4.608  12.175 -2.4253  1.2468  0.1654
 6529SOL     OW31222   1.710   0.295   0.054  0.3842 -0.1072 -1.0409
 6529SOL    HW131223   1.793   0.339   0.035  0.0094  1.7299  1.5930
 6529SOL    HW231224   1.756   0.224   0.100  0.3076  0.5576  0.0748
 6530SOL     OW31225   1.361   1.975   1.994  0.2221 -0.4098 -0.0448
 6530SOL    HW131226   1.353   1.949   1.902  2.8893  0.0692 -0.4107
 6530SOL    HW231227   1.403   1.897   2.029 -1.8472 -1.2577  0.5593
 6531SOL     OW31228   4.484   2.327   5.085  0.2843 -0.5724 -0.2076
 6531SOL    HW131229   4.475   2.359   4.996  1.0684 -1.9632 -0.7848
 6531SOL    HW231230   4.478   2.406   5.140  1.7375 -1.5966  1.4589
 6532SOL     OW31231   3.567   4.344  16.427 -0.2447  0.3569  0.3552
 6532SOL    HW131232   3.616   4.327  16.347 -1.7447 -0.7796 -0.3297
 6532SOL    HW231233   3.568   4.257  16.467 -0.7662 -0.1403 -0.7425
 6533SOL     OW31234   4.059   1.804   2.274 -0.0828  0.0466 -0.0602
 6533SOL    HW131235   4.114   1.881   2.285 -1.4929  1.1539 -0.8209
 6533SOL    HW231236   4.088   1.753   2.350 -0.3347 -1.7196 -1.1416
 6534SOL     OW31237   1.948   3.311   0.540  0.3330 -0.4625 -0.2844
 6534SOL    HW131238   1.935   3.391   0.592  0.1640 -0.4028 -0.4198
 6534SOL    HW231239   1.874   3.313   0.480  0.8615 -1.9293 -0.9738
 6535SOL     OW31240   0.416   3.864   2.942  0.6039  0.1341  0.3668
 6535SOL    HW131241   0.404   3.770   2.936 -0.7529  0.4996 -2.9357
 6535SOL    HW231242   0.480   3.875   3.013 -0.9974  0.8503  1.7012
 6536SOL     OW31243   0.978   3.770  12.751 -0.0565 -0.0778 -0.0783
 6536SOL    HW131244   0.908   3.764  12.816  1.0020  0.0504  1.0798
 6536SOL    HW231245   0.937   3.841  12.702  1.8541 -0.7448 -2.6160
 6537SOL     OW31246   3.316   3.325   0.681  0.4344  0.4907 -0.5368
 6537SOL    HW131247   3.298   3.391   0.615 -0.6203 -2.3307 -3.0739
 6537SOL    HW231248   3.306   3.242   0.634  0.6170  1.0686 -1.5941
 6538SOL     OW31249   1.781   4.301   6.594 -0.2019 -0.5833  0.9265
 6538SOL    HW131250   1.751   4.366   6.530 -0.6521  0.9103  2.6548
 6538SOL    HW231251   1.700   4.255   6.615 -1.5658  1.2695 -0.2392
 6539SOL     OW31252   1.529   0.371  16.446  0.0424 -0.0118  0.2259
 6539SOL    HW131253   1.511   0.311  16.374 -0.8002 -1.7093  1.8337
 6539SOL    HW231254   1.446   0.361  16.493 -0.0366 -1.5014 -0.2336
 6540SOL     OW31255   1.885   1.801  12.434  0.1795 -0.2281 -0.8692
 6540SOL    HW131256   1.854   1.712  12.416  0.1404 -0.1931 -0.9753
 6540SOL    HW231257   1.911   1.798  12.526 -1.5633  1.0183 -0.3346
 6541SOL     OW31258   1.973   1.263  16.993 -0.1311  0.7984 -0.1377
 6541SOL    HW131259   1.975   1.348  16.948  2.9148  0.8789  0.1412
 6541SOL    HW231260   1.892   1.229  16.954 -0.1863  1.4465 -0.5869
 6542SOL     OW31261   3.207   4.041   5.999  0.1100  0.3447 -0.1455
 6542SOL    HW131262   3.237   4.004   6.082 -0.1779 -0.7809 -0.5403
 6542SOL    HW231263   3.183   3.956   5.961 -2.1068  1.2851 -0.8398
 6543SOL     OW31264   4.654   4.012   0.594 -0.6909 -0.4668 -0.3531
 6543SOL    HW131265   4.633   4.067   0.669  2.6823  1.1341 -0.5603
 6543SOL    HW231266   4.569   3.973   0.573 -1.6039  0.6199  1.3189
 6544SOL     OW31267   2.968   3.782   7.416  0.6915 -0.5806  0.0456
 6544SOL    HW131268   2.942   3.727   7.342  1.0563  0.5386 -0.9152
 6544SOL    HW231269   2.882   3.812   7.444  0.1343 -2.1979  0.0638
 6545SOL     OW31270   0.183   4.167  12.392 -0.2657 -0.3270  0.9903
 6545SOL    HW131271   0.250   4.107  12.426 -0.6946 -1.2389  0.2261
 6545SOL    HW231272   0.125   4.189  12.464 -0.5918 -0.7148  0.8419
 6546SOL     OW31273   3.431   4.224   8.325 -0.2822 -0.3999  0.0086
 6546SOL    HW131274   3.343   4.244   8.294 -0.4017  0.6380  0.9876
 6546SOL    HW231275   3.468   4.310   8.347  0.9992 -0.9408  0.0002
 6547SOL     OW31276   1.142   2.456   4.947 -0.1839 -0.2530 -0.4028
 6547SOL    HW131277   1.224   2.484   4.989 -0.6228 -0.5189  0.6309
 6547SOL    HW231278   1.139   2.511   4.869  0.5061 -0.6952 -0.7409
 6548SOL     OW31279   3.159   0.078  12.416 -0.5525 -0.1721  0.0137
 6548SOL    HW131280   3.118   0.017  12.353  0.2515 -1.4251  0.7020
 6548SOL    HW231281   3.087   0.096  12.476 -0.3998 -0.5051  0.2993
 6549SOL     OW31282   4.434   0.764  11.124  0.3614  0.0384  0.1583
 6549SOL    HW131283   4.506   0.825  11.111 -1.0447  1.4862 -0.8896
 6549SOL    HW231284   4.442   0.750  11.218 -2.7096  0.0363  0.4194
 6550SOL     OW31285   2.880   0.358   4.654 -0.2344 -0.1602 -0.4459
 6550SOL    HW131286   2.858   0.449   4.634  0.6852  0.2578  0.3799
 6550SOL    HW231287   2.916   0.328   4.571 -1.4939 -1.5109 -0.5011
 6551SOL     OW31288   2.437   0.488   4.881 -0.3768  0.0468 -0.4746
 6551SOL    HW131289   2.503   0.515   4.817 -1.3481  0.3662 -1.3561
 6551SOL    HW231290   2.464   0.547   4.951 -2.5651 -0.1327  0.5328
 6552SOL     OW31291   0.224   2.189   6.701 -0.4434  0.1339 -0.0431
 6552SOL    HW131292   0.208   2.264   6.759 -3.3425 -0.2626 -0.3347
 6552SOL    HW231293   0.241   2.121   6.766 -0.7900  0.5720  0.5070
 6553SOL     OW31294   0.874   2.958   8.766 -0.3609 -0.2360  0.4315
 6553SOL    HW131295   0.809   2.984   8.701  0.8013  1.9420  0.1340
 6553SOL    HW231296   0.841   2.872   8.791 -1.3853 -0.3180 -1.2073
 6554SOL     OW31297   1.928   0.125   6.266 -0.3474  0.0546  0.2520
 6554SOL    HW131298   1.966   0.203   6.227  1.7594 -1.3780 -0.5750
 6554SOL    HW231299   1.854   0.089   6.216 -0.2659 -1.5355  1.2592
 6555SOL     OW31300   4.059   2.977   5.320 -0.2755 -0.3268  0.4053
 6555SOL    HW131301   4.094   2.971   5.231  0.3626  0.8474  0.5704
 6555SOL    HW231302   4.041   2.885   5.336 -0.5353 -0.4674 -0.7479
 6556SOL     OW31303   3.598   2.124   0.900  0.2191 -0.5884 -0.3862
 6556SOL    HW131304   3.591   2.083   0.986 -1.1702  1.1286  0.3167
 6556SOL    HW231305   3.691   2.143   0.888 -0.0976  1.9583  1.2807
 6557SOL     OW31306   0.000   1.180   2.401  0.1155  0.6446 -0.3797
 6557SOL    HW131307   0.033   1.092   2.421 -1.6179 -0.1237 -0.9039
 6557SOL    HW231308   4.657   1.148   2.359  0.2490  1.1368 -1.0079
 6558SOL     OW31309   3.795   1.835   2.166 -0.2946 -0.3816 -0.1461
 6558SOL    HW131310   3.882   1.813   2.201  0.8654  2.5254 -1.1599
 6558SOL    HW231311   3.792   1.930   2.178  0.4539 -0.3819  0.0717
 6559SOL     OW31312   4.166   3.241   4.493  0.4761 -0.0821 -0.9590
 6559SOL    HW131313   4.129   3.165   4.538  0.4505 -0.6394 -1.9028
 6559SOL    HW231314   4.090   3.299   4.502  0.1435 -0.7547  0.5446
 6560SOL     OW31315   2.263   2.786   8.785  0.1294 -0.9044 -0.1178
 6560SOL    HW131316   2.306   2.866   8.814 -2.1247  0.7115 -1.2396
 6560SOL    HW231317   2.328   2.754   8.722  0.1301 -0.5818 -0.2801
 6561SOL     OW31318   3.408   1.717  17.189 -0.2498 -0.2125 -0.2265
 6561SOL    HW131319   3.326   1.710  17.237  0.5567 -1.5094  0.9903
 6561SOL    HW231320   3.457   1.788  17.231  1.0205 -1.7484  0.8870
 6562SOL     OW31321   1.933   1.446   2.159 -0.1333 -0.2667  0.5513
 6562SOL    HW131322   1.876   1.374   2.131  0.3150 -0.5716  0.4311
 6562SOL    HW231323   2.016   1.400   2.148  0.4988  0.3975  2.5729
 6563SOL     OW31324   2.447   0.315  10.302  0.3842  0.1151  0.9646
 6563SOL    HW131325   2.414   0.241  10.252  0.0332  0.9258 -0.0128
 6563SOL    HW231326   2.480   0.380  10.240 -0.4654  0.2305  0.6358
 6564SOL     OW31327   1.076   3.838  16.386 -0.2963  0.6894 -0.3289
 6564SOL    HW131328   1.037   3.751  16.385 -0.6217  0.8330 -0.2550
 6564SOL    HW231329   1.120   3.849  16.302  1.7689 -1.3078  0.4991
 6565SOL     OW31330   3.797   1.795   8.360  1.0319  0.0755  0.2943
 6565SOL    HW131331   3.818   1.786   8.453 -0.8923  0.0728  0.7311
 6565SOL    HW231332   3.815   1.702   8.342  0.6378 -0.1446  1.0088
 6566SOL     OW31333   2.761   0.397   8.010  0.0317 -0.6386 -0.1847
 6566SOL    HW131334   2.682   0.360   8.050 -0.4681 -0.6444 -1.1908
 6566SOL    HW231335   2.740   0.421   7.920 -1.0237 -1.8169 -0.2592
 6567SOL     OW31336   4.419   3.990   6.919 -0.2338  0.4331  0.6316
 6567SOL    HW131337   4.339   3.961   6.962 -1.4844 -1.6133 -3.0264
 6567SOL    HW231338   4.428   4.079   6.952  1.6243  0.4716 -0.0180
 6568SOL     OW31339   3.067   1.303   1.486 -0.0265 -0.1418 -0.2539
 6568SOL    HW131340   3.061   1.340   1.398 -1.5214  1.9887  0.7735
 6568SOL    HW231341   2.994   1.338   1.536  1.1234  0.4641  0.9953
 6569SOL     OW31342   0.956   0.628   8.709 -0.0696  0.6029  0.1855
 6569SOL    HW131343   1.035   0.675   8.735  0.1811  1.3846 -1.9564
 6569SOL    HW231344   0.987   0.576   8.634 -1.3398 -1.3716  1.0302
 6570SOL     OW31345   2.039   2.429  17.451  0.4808  0.8746  0.2147
 6570SOL    HW131346   1.988   2.432  17.532 -1.4564  0.7912 -0.9808
 6570SOL    HW231347   2.125   2.456  17.484  2.0471  2.3406 -4.9774
 6571SOL     OW31348   2.568   0.088  15.396  0.3467 -0.7988 -0.3173
 6571SOL    HW131349   2.541   0.100  15.487  0.1935 -0.9947 -0.3370
 6571SOL    HW231350   2.511   0.017  15.366  0.3503 -0.5679 -0.8690
 6572SOL     OW31351   4.381   3.697  14.936  0.1643 -0.3560 -0.1472
 6572SOL    HW131352   4.298   3.656  14.911  0.3565 -0.4687 -0.5967
 6572SOL    HW231353   4.371   3.779  14.888  0.5489 -1.2663 -1.7797
 6573SOL     OW31354   0.287   3.359   7.078 -0.0638 -0.4162 -0.0834
 6573SOL    HW131355   0.236   3.399   7.149  2.5827  1.1811  0.9362
 6573SOL    HW231356   0.305   3.272   7.113 -3.0108 -1.5015 -1.3674
 6574SOL     OW31357   3.193   3.036   3.614 -0.5282  0.2013 -0.5211
 6574SOL    HW131358   3.229   3.071   3.533  1.0015  0.3027  0.1939
 6574SOL    HW231359   3.136   3.109   3.637 -0.4904  0.0357  0.1076
 6575SOL     OW31360   1.748   0.970   6.780  0.6750  0.1476  0.2977
 6575SOL    HW131361   1.661   0.983   6.817  0.4784 -1.3037  0.3607
 6575SOL    HW231362   1.810   0.965   6.853  0.3856  1.5248  0.6456
 6576SOL     OW31363   2.970   3.862   2.857  0.2656 -0.1863 -0.4321
 6576SOL    HW131364   3.053   3.910   2.862  0.1810  0.0347 -1.1678
 6576SOL    HW231365   2.959   3.857   2.762 -0.3216 -1.9142 -0.2782
 6577SOL     OW31366   2.165   4.338   6.870 -0.3273 -0.0228 -0.5211
 6577SOL    HW131367   2.255   4.367   6.854 -0.4540 -0.2018 -1.5451
 6577SOL    HW231368   2.142   4.406   6.933  0.9026  1.1460 -1.3238
 6578SOL     OW31369   2.126   4.371  15.490 -0.8319 -0.2643 -0.3453
 6578SOL    HW131370   2.082   4.414  15.563 -0.2842 -0.5710  0.1647
 6578SOL    HW231371   2.103   4.278  15.496 -1.1969 -0.1631 -0.1810
 6579SOL     OW31372   0.291   3.995  16.362 -0.5629  0.1141  0.0243
 6579SOL    HW131373   0.342   4.043  16.298  1.9382 -0.3798  1.6452
 6579SOL    HW231374   0.312   3.906  16.334  0.3511  0.2386  0.3368
 6580SOL     OW31375   1.737   2.598   4.433 -0.8370  0.1205  0.2103
 6580SOL    HW131376   1.787   2.678   4.452  1.0532 -0.6725 -1.4484
 6580SOL    HW231377   1.648   2.625   4.453 -0.6209  1.0143 -0.0397
 6581SOL     OW31378   3.368   3.894  16.172  0.2211  0.0195 -0.3284
 6581SOL    HW131379   3.313   3.900  16.249  0.3877  1.1671 -0.3114
 6581SOL    HW231380   3.454   3.876  16.211 -0.2777  1.3865  1.3514
 6582SOL     OW31381   2.756   0.573   6.408 -0.1160  0.3330  0.1780
 6582SOL    HW131382   2.814   0.576   6.331 -1.5778  0.7530 -0.9209
 6582SOL    HW231383   2.683   0.524   6.369  0.7805 -2.5950  2.1972
 6583SOL     OW31384   4.036   0.270   6.807 -0.1990 -0.0194  0.1749
 6583SOL    HW131385   3.980   0.305   6.737  0.7706  1.4883  0.1619
 6583SOL    HW231386   4.117   0.260   6.758 -0.5247  1.7504 -0.7262
 6584SOL     OW31387   3.385   1.684   1.859  0.1857 -0.5739 -0.3252
 6584SOL    HW131388   3.432   1.615   1.906  0.1679 -1.5469 -1.7555
 6584SOL    HW231389   3.448   1.756   1.864  1.3683 -1.3680 -3.4165
 6585SOL     OW31390   4.700   3.529   7.858 -0.4329  0.5971 -0.2204
 6585SOL    HW131391   0.055   3.556   7.856 -0.3706  0.3284 -0.8380
 6585SOL    HW231392   4.666   3.570   7.778 -0.0954  0.0419 -0.6480
 6586SOL     OW31393   1.800   3.483   6.487 -0.1968 -1.0180  0.0552
 6586SOL    HW131394   1.755   3.553   6.534  0.9670 -0.8596  0.9291
 6586SOL    HW231395   1.895   3.498   6.490 -0.2940 -0.0533 -1.4659
 6587SOL     OW31396   3.430   3.243   0.918  0.3494 -0.0269 -0.6688
 6587SOL    HW131397   3.400   3.294   0.843 -0.5074 -2.0154 -1.6872
 6587SOL    HW231398   3.422   3.155   0.880 -2.0695 -0.5552  1.0439
 6588SOL     OW31399   1.090   2.850  11.517 -0.0363 -0.0178 -0.2255
 6588SOL    HW131400   1.119   2.897  11.439 -1.8565  0.8143 -0.4077
 6588SOL    HW231401   1.010   2.806  11.488 -2.1468  4.0271 -0.6166
 6589SOL     OW31402   2.113   1.345   8.244 -0.4733 -0.1801 -0.0995
 6589SOL    HW131403   2.060   1.350   8.323 -1.1536  1.4990 -0.6600
 6589SOL    HW231404   2.189   1.288   8.257 -0.0034  0.4231 -0.1768
 6590SOL     OW31405   4.473   4.370   9.622 -0.4035  0.5902 -0.5949
 6590SOL    HW131406   4.547   4.414   9.662  0.7920 -1.2430 -0.7837
 6590SOL    HW231407   4.397   4.412   9.662  0.0462  2.2039 -1.4641
 6591SOL     OW31408   1.192   2.619   7.939  0.1674  0.5094 -0.2452
 6591SOL    HW131409   1.262   2.675   7.972  0.3090  0.2116 -0.0416
 6591SOL    HW231410   1.213   2.537   7.983 -1.5739  2.3035  3.8499
 6592SOL     OW31411   0.050   3.124   3.766 -0.0414  0.4015 -0.1499
 6592SOL    HW131412   0.100   3.204   3.751 -0.9426  0.9429 -0.2148
 6592SOL    HW231413   4.714   3.145   3.708 -0.9528 -0.1853  0.7827
 6593SOL     OW31414   2.585   1.379   1.568 -0.1095 -0.7143 -0.2709
 6593SOL    HW131415   2.601   1.298   1.519 -3.8151 -1.2155 -0.6326
 6593SOL    HW231416   2.490   1.377   1.573 -0.0852  1.0523  0.7340
 6594SOL     OW31417   0.521   3.270   4.915 -0.1314 -0.6677 -0.2420
 6594SOL    HW131418   0.590   3.336   4.917 -0.6517 -0.2006  2.0833
 6594SOL    HW231419   0.566   3.187   4.929  1.1376 -0.0009 -0.3969
 6595SOL     OW31420   2.847   0.086  12.117  0.0092  0.7360 -0.1170
 6595SOL    HW131421   2.907   0.158  12.096  1.1962 -0.5882 -1.2103
 6595SOL    HW231422   2.885   0.015  12.066  0.5073  1.4731 -0.7566
 6596SOL     OW31423   1.382   1.971  14.490  0.1659  0.2700 -0.2911
 6596SOL    HW131424   1.397   2.021  14.410  2.6222 -1.5729 -0.9977
 6596SOL    HW231425   1.406   2.027  14.563 -0.9158  1.8481 -1.1525
 6597SOL     OW31426   3.652   0.761   3.812  0.4261  0.1530  0.2642
 6597SOL    HW131427   3.661   0.716   3.897  2.6357  0.9631  0.4753
 6597SOL    HW231428   3.649   0.685   3.753  0.1167 -0.4244  1.0150
 6598SOL     OW31429   1.245   0.618   2.216  0.0966  0.3788 -0.1298
 6598SOL    HW131430   1.213   0.548   2.271  0.7465  0.4247  0.3046
 6598SOL    HW231431   1.167   0.672   2.224 -0.3246 -0.0162 -1.5839
 6599SOL     OW31432   1.431   2.497  12.940 -0.1408 -0.0756 -0.8975
 6599SOL    HW131433   1.354   2.440  12.941 -0.5522  0.4899 -0.9304
 6599SOL    HW231434   1.502   2.436  12.962 -0.9363 -1.0672 -1.0567
 6600SOL     OW31435   3.842   1.095   5.747 -0.1054 -0.4024 -0.3929
 6600SOL    HW131436   3.822   1.188   5.746  1.0521 -0.1260  1.5967
 6600SOL    HW231437   3.919   1.100   5.804 -1.6498  1.2909  1.5478
 6601SOL     OW31438   0.077   3.192  15.159 -0.0948  0.3567 -0.0146
 6601SOL    HW131439   0.077   3.156  15.248  0.3042  0.5777  0.0744
 6601SOL    HW231440   0.140   3.130  15.125  2.2305  3.3660 -1.2305
 6602SOL     OW31441   2.552   0.888   6.778 -0.3125 -0.0397  0.4172
 6602SOL    HW131442   2.514   0.972   6.805 -0.4952 -0.5404  1.7400
 6602SOL    HW231443   2.574   0.842   6.859 -0.5418 -1.1914 -0.1771
 6603SOL     OW31444   0.077   1.897  11.992 -0.7906 -0.1940 -0.1727
 6603SOL    HW131445   0.152   1.956  11.984 -0.5580 -0.4447  0.1341
 6603SOL    HW231446   0.095   1.824  11.933 -3.8499 -1.8768  0.9620
 6604SOL     OW31447   1.729   2.613  16.007  0.5442 -0.2302 -0.2411
 6604SOL    HW131448   1.755   2.698  16.040  0.9382 -0.0912 -0.9049
 6604SOL    HW231449   1.636   2.630  15.990  0.3644 -1.2313 -0.2867
 6605SOL     OW31450   3.357   3.391  13.848  0.1559  0.4129  0.8589
 6605SOL    HW131451   3.366   3.296  13.857  0.6181  0.4014  0.2541
 6605SOL    HW231452   3.394   3.417  13.932 -1.2473  2.5915  0.7849
 6606SOL     OW31453   0.708   4.151   2.040  0.1331 -0.5744  0.6705
 6606SOL    HW131454   0.787   4.100   2.055  0.9792  0.2366 -0.9319
 6606SOL    HW231455   0.734   4.239   2.068  1.1851 -1.1540  1.5189
 6607SOL     OW31456   3.390   2.881   4.739  0.0949 -0.0948  0.1700
 6607SOL    HW131457   3.462   2.819   4.732 -0.9952 -0.8410 -3.9861
 6607SOL    HW231458   3.396   2.903   4.832 -0.6166 -2.8487  0.8853
 6608SOL     OW31459   2.264   0.313  14.221  0.0604  0.7071  0.5032
 6608SOL    HW131460   2.187   0.331  14.275  0.8725  2.8484  0.9512
 6608SOL    HW231461   2.227   0.273  14.142 -0.6328 -0.5535  1.4585
 6609SOL     OW31462   2.355   4.214  12.895 -0.1213  0.3827 -0.0871
 6609SOL    HW131463   2.345   4.308  12.908 -2.7463  0.6066 -3.6133
 6609SOL    HW231464   2.444   4.207  12.862 -0.1796 -0.9745  0.0407
 6610SOL     OW31465   4.458   0.037   2.496  0.5485 -0.0864  0.4995
 6610SOL    HW131466   4.509   4.694   2.477 -1.7264 -1.9032  2.0252
 6610SOL    HW231467   4.387   0.019   2.435  1.2567 -0.1209 -0.3266
 6611SOL     OW31468   4.423   1.665   4.410 -0.1724 -0.4101  0.5948
 6611SOL    HW131469   4.502   1.712   4.433  0.6619 -1.3617 -0.3363
 6611SOL    HW231470   4.378   1.661   4.495 -0.6857  2.2806  0.4429
 6612SOL     OW31471   3.268   0.193   7.357 -0.4422 -0.1730  0.3449
 6612SOL    HW131472   3.266   0.116   7.414  0.8451 -0.4993 -0.0450
 6612SOL    HW231473   3.250   0.153   7.273 -1.7732  0.6351  0.2460
 6613SOL     OW31474   3.353   3.289   6.951 -0.3697 -0.2889 -0.4500
 6613SOL    HW131475   3.312   3.368   6.913 -1.0524  0.4589  1.8648
 6613SOL    HW231476   3.301   3.221   6.909  1.9131 -2.7663  0.7893
 6614SOL     OW31477   2.885   2.026   9.694  0.0696  0.5193  1.0966
 6614SOL    HW131478   2.947   1.964   9.732  0.3300  0.1880  0.1180
 6614SOL    HW231479   2.897   1.996   9.604 -1.2061  1.6825  0.5367
 6615SOL     OW31480   2.780   2.576   4.238  0.9211 -0.5289  0.1251
 6615SOL    HW131481   2.828   2.592   4.319 -0.6319  1.3755  0.6871
 6615SOL    HW231482   2.764   2.666   4.209 -2.0658  0.1300  3.7244
 6616SOL     OW31483   0.354   3.105   2.498 -0.2573  0.3274 -0.6148
 6616SOL    HW131484   0.371   3.013   2.514  1.4157  0.9632  1.2798
 6616SOL    HW231485   0.397   3.119   2.413  1.1149 -3.9049 -0.6076
 6617SOL     OW31486   3.941   3.870   6.575  0.1162  0.1778 -0.2388
 6617SOL    HW131487   3.886   3.818   6.516  2.0003  0.3075 -2.1259
 6617SOL    HW231488   3.954   3.810   6.648  0.3396 -1.9298 -2.0137
 6618SOL     OW31489   1.759   0.126   7.511  0.8538 -0.6722 -0.2731
 6618SOL    HW131490   1.724   0.186   7.578 -0.3467 -1.4822 -0.1673
 6618SOL    HW231491   1.721   0.170   7.435  0.8265  0.5328  0.4465
 6619SOL     OW31492   1.356   0.555   6.313  0.2761  0.0336 -0.3979
 6619SOL    HW131493   1.285   0.555   6.249 -0.0051 -5.3950 -0.0938
 6619SOL    HW231494   1.407   0.624   6.271  0.7288 -0.3432 -0.4680
 6620SOL     OW31495   0.965   2.003   3.162  0.0749  0.2481  0.0863
 6620SOL    HW131496   1.021   1.980   3.236 -0.9805 -0.5670  0.6234
 6620SOL    HW231497   0.888   2.025   3.215 -0.5643  0.3460 -0.8853
 6621SOL     OW31498   3.438   2.256   2.296 -0.4472  0.0900 -0.4589
 6621SOL    HW131499   3.531   2.231   2.303 -0.5972  0.3346  2.2006
 6621SOL    HW231500   3.446   2.349   2.278 -0.4773  0.1545 -0.1364
 6622SOL     OW31501   2.269   2.046   7.856 -0.2644 -0.2904 -0.1189
 6622SOL    HW131502   2.282   2.063   7.950 -0.1198  0.8751 -0.3495
 6622SOL    HW231503   2.347   1.996   7.832  0.1395 -0.9239  2.4661
 6623SOL     OW31504   0.787   2.282   9.781 -0.4672 -0.6208 -0.0644
 6623SOL    HW131505   0.827   2.195   9.783 -0.8656 -0.9081 -3.5574
 6623SOL    HW231506   0.711   2.276   9.839  0.4811 -1.5529  1.0736
 6624SOL     OW31507   0.516   3.193   4.005  0.4913 -0.1966  0.0057
 6624SOL    HW131508   0.581   3.126   3.983 -1.3352 -2.0482  0.1951
 6624SOL    HW231509   0.447   3.136   4.041  0.6218 -0.9584 -0.9292
 6625SOL     OW31510   4.138   3.492  17.568 -0.4787 -0.2881  0.0362
 6625SOL    HW131511   4.182   3.577  17.564  0.4681 -0.7934 -0.2446
 6625SOL    HW231512   4.213   3.434  17.556  1.6789  2.4094  0.5338
 6626SOL     OW31513   1.615   1.675   1.466  0.2580  0.5808  0.2616
 6626SOL    HW131514   1.563   1.595   1.466  0.0449  0.7227 -1.7495
 6626SOL    HW231515   1.603   1.696   1.559  0.3316 -0.2073  0.4445
 6627SOL     OW31516   3.207   3.572  14.933 -0.5303  0.0558 -0.1236
 6627SOL    HW131517   3.188   3.480  14.952  4.4180 -0.5083  2.1776
 6627SOL    HW231518   3.130   3.601  14.885 -0.2715  0.9949  0.0356
 6628SOL     OW31519   3.753   3.292   5.857 -0.0554  0.0319 -0.2192
 6628SOL    HW131520   3.776   3.200   5.842  2.3207  0.6357 -0.1790
 6628SOL    HW231521   3.845   3.315   5.860  0.3136 -1.3102 -1.1862
 6629SOL     OW31522   0.574   4.522  16.184  0.3613  0.3743 -0.1514
 6629SOL    HW131523   0.612   4.607  16.206  0.4199  0.4420 -0.5015
 6629SOL    HW231524   0.570   4.484  16.272 -0.2630  1.1973  0.1689
 6630SOL     OW31525   2.302   4.065  14.118  0.0897  0.1826  0.3274
 6630SOL    HW131526   2.222   4.104  14.152 -0.2218 -0.1929  0.0226
 6630SOL    HW231527   2.264   4.005  14.054  2.0814  0.6983 -1.3723
 6631SOL     OW31528   3.825   1.383  16.515  0.2168  0.0523  0.1843
 6631SOL    HW131529   3.894   1.386  16.449 -0.0736  1.8607 -0.0506
 6631SOL    HW231530   3.806   1.473  16.543  1.1724  0.3116 -0.0177
 6632SOL     OW31531   1.668   2.650   5.599  0.3076  0.4330 -0.2531
 6632SOL    HW131532   1.709   2.728   5.562  1.1926  0.1985  0.2315
 6632SOL    HW231533   1.731   2.617   5.663 -1.5373 -1.3609  0.6422
 6633SOL     OW31534   2.386   2.784   2.398 -0.2775 -0.0225 -0.0973
 6633SOL    HW131535   2.397   2.694   2.366  2.2056 -0.6396  2.5141
 6633SOL    HW231536   2.411   2.837   2.322  0.8835  1.7895  1.5691
 6634SOL     OW31537   1.669   4.629   6.068  0.4643  0.2814  0.1471
 6634SOL    HW131538   1.758   4.597   6.079  0.6760  0.0379 -2.1454
 6634SOL    HW231539   1.639   4.643   6.158 -2.1733 -1.0495 -0.5140
 6635SOL     OW31540   3.872   1.616   4.934 -0.3037  0.0093  1.0997
 6635SOL    HW131541   3.958   1.582   4.959  0.1273  0.0297 -0.3217
 6635SOL    HW231542   3.839   1.546   4.877  2.8039  0.1206 -0.8684
 6636SOL     OW31543   3.242   4.690   7.493  0.1723  0.1993  0.1984
 6636SOL    HW131544   3.180   4.719   7.560 -0.3530 -0.0428 -0.1827
 6636SOL    HW231545   3.302   4.636   7.544  0.0283  0.9911  1.1918
 6637SOL     OW31546   0.111   1.581   2.239  0.9981 -0.0973  0.6216
 6637SOL    HW131547   0.107   1.583   2.335 -1.9392 -1.1400  0.5196
 6637SOL    HW231548   0.147   1.669   2.229  1.0144 -0.2061 -0.2656
 6638SOL     OW31549   3.840   0.244  11.565  0.3942 -0.4496 -0.3977
 6638SOL    HW131550   3.880   0.331  11.570  0.3613 -0.5953  2.3631
 6638SOL    HW231551   3.816   0.242  11.472 -2.7360 -2.2372  0.4734
 6639SOL     OW31552   4.478   0.737   5.350 -0.5494  0.0614 -0.0348
 6639SOL    HW131553   4.455   0.648   5.376 -1.3451  0.3070  0.1096
 6639SOL    HW231554   4.423   0.788   5.410 -0.7577 -1.4650  1.0790
 6640SOL     OW31555   2.355   2.486  11.170  0.2385  0.5121 -0.4012
 6640SOL    HW131556   2.351   2.390  11.169  0.0285  0.5188  0.6469
 6640SOL    HW231557   2.439   2.494  11.123  0.2322  0.1966 -0.4657
 6641SOL     OW31558   3.976   0.031   6.920 -0.2972 -0.0032 -0.0111
 6641SOL    HW131559   3.988   0.124   6.902  0.5457 -0.0095  0.5112
 6641SOL    HW231560   3.923   0.023   6.841 -0.7486 -2.5071  0.5306
 6642SOL     OW31561   1.989   4.428   4.847 -0.0345 -0.5933  0.2832
 6642SOL    HW131562   2.009   4.503   4.903 -0.0069 -0.5410  0.2044
 6642SOL    HW231563   2.015   4.352   4.899  0.7100 -0.2006  0.4875
 6643SOL     OW31564   1.017   3.269  16.355  0.6386 -0.2681  0.1670
 6643SOL    HW131565   0.964   3.281  16.434  1.3176 -2.2778  0.9320
 6643SOL    HW231566   0.980   3.335  16.297  0.0814  0.3679  1.2533
 6644SOL     OW31567   3.762   3.815  10.068 -0.6645 -0.6546  0.3774
 6644SOL    HW131568   3.669   3.820  10.047 -0.8195 -2.5887  0.6196
 6644SOL    HW231569   3.757   3.827  10.162  1.1767 -0.3851  0.4578
 6645SOL     OW31570   2.482   1.860  17.496  0.2992  0.3183  0.2569
 6645SOL    HW131571   2.413   1.819  17.444 -0.8501 -0.9675  2.7990
 6645SOL    HW231572   2.439   1.859  17.582 -1.8038  3.0380 -0.7504
 6646SOL     OW31573   0.049   4.595   3.831  0.0830 -0.1757 -0.1027
 6646SOL    HW131574   4.724   4.662   3.802 -0.2486  0.3311  1.8170
 6646SOL    HW231575   0.118   4.605   3.765  1.4141  0.8623  1.4575
 6647SOL     OW31576   4.200   0.934   3.666  0.4702  0.0689 -0.0641
 6647SOL    HW131577   4.189   0.964   3.576  1.3372 -1.7474 -0.7656
 6647SOL    HW231578   4.162   1.006   3.717  0.8491  0.5861 -0.5027
 6648SOL     OW31579   3.805   3.729   4.880  0.0292 -0.3585 -0.5938
 6648SOL    HW131580   3.895   3.703   4.903 -0.9578 -0.8091  2.7430
 6648SOL    HW231581   3.758   3.746   4.961 -1.5613  1.9062 -2.0106
 6649SOL     OW31582   1.493   0.760  12.071  0.2202 -0.3519 -0.4965
 6649SOL    HW131583   1.402   0.739  12.051  0.7519 -0.7372 -2.4926
 6649SOL    HW231584   1.549   0.685  12.051 -0.5828 -1.1319  0.1780
 6650SOL     OW31585   0.649   0.508   2.943 -0.2434 -0.1597  0.1204
 6650SOL    HW131586   0.611   0.527   3.029  0.4398 -0.4869  0.4948
 6650SOL    HW231587   0.570   0.476   2.900  0.3546 -0.0517 -1.0418
 6651SOL     OW31588   2.889   3.254   0.257 -0.1181 -0.3233 -0.6236
 6651SOL    HW131589   2.943   3.206   0.195  0.6542 -2.1107  1.4142
 6651SOL    HW231590   2.805   3.210   0.247  0.7429 -1.5194 -2.5406
 6652SOL     OW31591   0.684   3.756   3.543  0.1156  0.2621  0.0063
 6652SOL    HW131592   0.669   3.759   3.449  0.2499  0.3364 -0.0128
 6652SOL    HW231593   0.780   3.757   3.537  0.0752  1.3552 -0.4866
 6653SOL     OW31594   1.099   1.755   9.280 -0.0155  0.0909  0.1243
 6653SOL    HW131595   1.103   1.850   9.267  0.2583  0.0993  0.2826
 6653SOL    HW231596   1.043   1.740   9.356 -0.2291  1.3042  0.2043
 6654SOL     OW31597   3.663   3.539   9.074  0.0371  0.1410  0.6350
 6654SOL    HW131598   3.663   3.608   9.140  1.1247 -0.2278  1.0174
 6654SOL    HW231599   3.605   3.573   9.005  0.9523 -0.0921 -0.2423
 6655SOL     OW31600   0.608   0.127   7.090 -0.4329 -0.2193 -0.0728
 6655SOL    HW131601   0.637   0.040   7.116 -0.2106 -0.9372 -2.7460
 6655SOL    HW231602   0.521   0.106   7.056 -0.3431  1.2754 -1.2373
 6656SOL     OW31603   4.615   2.186   3.026  0.0755  0.1758  1.0353
 6656SOL    HW131604   4.574   2.271   3.021 -1.6510 -0.6705  0.9067
 6656SOL    HW231605   4.672   2.192   2.949 -0.6816  1.9191  0.6240
 6657SOL     OW31606   1.842   1.948   8.500 -0.0136 -0.1507  0.0249
 6657SOL    HW131607   1.787   2.003   8.444 -0.9276  0.6804  1.7355
 6657SOL    HW231608   1.911   1.926   8.437 -2.7764 -1.8168 -2.4659
 6658SOL     OW31609   2.706   4.294  13.457  0.8564  0.1109 -0.3301
 6658SOL    HW131610   2.710   4.384  13.489 -1.0326  0.0954 -0.0505
 6658SOL    HW231611   2.776   4.262  13.515 -0.0495  2.1921  1.9273
 6659SOL     OW31612   3.604   4.282  14.055 -0.1899 -0.3966  0.8159
 6659SOL    HW131613   3.563   4.286  13.969 -0.6749  1.6015  1.1392
 6659SOL    HW231614   3.646   4.367  14.044 -2.5482  0.4091 -1.8606
 6660SOL     OW31615   3.457   4.573   3.918  0.1007 -0.1521  0.6123
 6660SOL    HW131616   3.497   4.569   3.831  0.9995 -0.9118  1.0713
 6660SOL    HW231617   3.481   4.660   3.950  0.2838 -0.4329  1.2332
 6661SOL     OW31618   0.479   3.043   3.635  0.1913 -0.1210  0.0004
 6661SOL    HW131619   0.431   2.989   3.698 -0.2567 -0.2675 -0.4709
 6661SOL    HW231620   0.561   3.050   3.685  1.5398 -0.5462 -2.1486
 6662SOL     OW31621   2.116   3.299   5.576  0.6840 -0.1854  0.3427
 6662SOL    HW131622   2.184   3.235   5.597 -1.7957 -3.2298 -0.9188
 6662SOL    HW231623   2.144   3.370   5.634 -1.8050  0.5175  0.7081
 6663SOL     OW31624   2.676   1.939   3.117  0.4899 -0.4919  0.2472
 6663SOL    HW131625   2.755   1.896   3.148  1.0727  0.0653 -0.4872
 6663SOL    HW231626   2.659   1.883   3.040  2.7240 -2.6797  1.3570
 6664SOL     OW31627   0.044   3.192   8.208  0.3622 -0.3788 -0.5087
 6664SOL    HW131628   0.014   3.281   8.226  1.3406 -0.5109  1.8988
 6664SOL    HW231629   4.708   3.134   8.231 -0.2457  0.4032 -0.4587
 6665SOL     OW31630   4.403   4.491  17.270 -0.2408  0.0359  0.0899
 6665SOL    HW131631   4.459   4.561  17.304  0.5710 -0.2988 -0.5734
 6665SOL    HW231632   4.390   4.512  17.178  0.1385 -4.0812 -0.8709
 6666SOL     OW31633   3.154   4.066   6.303 -0.2631 -0.2153  0.0469
 6666SOL    HW131634   3.240   4.085   6.266 -1.1005 -1.2103 -2.4510
 6666SOL    HW231635   3.178   3.979   6.336  0.4891  0.6324  1.7210
 6667SOL     OW31636   0.084   3.012   4.706 -0.2344 -0.0948 -0.1580
 6667SOL    HW131637   0.003   2.974   4.739  0.0739 -1.4048 -0.9049
 6667SOL    HW231638   0.143   2.937   4.707  0.4009  0.3978 -0.1652
 6668SOL     OW31639   4.344   0.023  11.957  0.1372  0.1813 -0.6027
 6668SOL    HW131640   4.251   0.019  11.934 -0.3068  1.2739  1.0173
 6668SOL    HW231641   4.337   0.108  11.999 -0.6780 -0.5396  0.7157
 6669SOL     OW31642   1.886   1.031   4.112 -0.3321  0.0303  0.4518
 6669SOL    HW131643   1.887   0.939   4.086  1.7304  0.2107 -0.1083
 6669SOL    HW231644   1.902   1.026   4.207 -0.7654 -0.8594  0.4803
 6670SOL     OW31645   4.607   3.153  17.184 -0.1668 -0.2617 -0.3614
 6670SOL    HW131646   4.600   3.097  17.107  0.4650  1.9708 -2.0220
 6670SOL    HW231647   4.702   3.162  17.185  0.0594 -2.6101  0.9695
 6671SOL     OW31648   1.542   4.503  12.203 -0.2741  0.1661 -0.1449
 6671SOL    HW131649   1.521   4.425  12.152  0.5530 -1.7617  2.4569
 6671SOL    HW231650   1.618   4.473  12.253 -0.3756 -0.2121 -0.2164
 6672SOL     OW31651   0.688   4.066  15.366 -0.3079 -0.4438 -0.3751
 6672SOL    HW131652   0.683   4.133  15.433  1.1493 -0.0082 -0.6967
 6672SOL    HW231653   0.714   4.115  15.287  0.7162 -4.0902 -2.3119
 6673SOL     OW31654   2.307   1.387   3.439  0.4489  0.1895  0.0802
 6673SOL    HW131655   2.260   1.364   3.519 -0.1908 -1.3706 -0.7377
 6673SOL    HW231656   2.391   1.409   3.481  0.3471 -0.8324  0.8154
 6674SOL     OW31657   2.714   0.144   7.149  0.4797  0.5284  0.3884
 6674SOL    HW131658   2.736   0.052   7.164  0.7569  0.9643  2.6054
 6674SOL    HW231659   2.661   0.151   7.228 -1.9316  1.3762 -1.2891
 6675SOL     OW31660   3.761   3.665  16.771  0.7453  0.8314 -0.1473
 6675SOL    HW131661   3.759   3.617  16.853  0.7834  0.2425 -0.4941
 6675SOL    HW231662   3.851   3.662  16.740  1.0010  2.8117  0.4124
 6676SOL     OW31663   3.387   2.899   0.208 -0.2104  0.4948  0.0353
 6676SOL    HW131664   3.402   2.805   0.209  1.6778  0.8406  2.3487
 6676SOL    HW231665   3.356   2.919   0.119  2.2375 -1.4178 -1.2410
 6677SOL     OW31666   1.926   0.525  13.120  0.8737 -0.2848  0.3662
 6677SOL    HW131667   1.868   0.451  13.098  1.0949 -0.2977 -0.1855
 6677SOL    HW231668   1.881   0.564  13.195  1.5712  2.6370 -0.7334
 6678SOL     OW31669   2.007   2.963   9.605  0.1813  0.2378 -0.3951
 6678SOL    HW131670   2.093   2.927   9.587  0.4289  0.9621 -0.6602
 6678SOL    HW231671   2.029   3.056   9.604  0.3167  0.1979 -0.8638
 6679SOL     OW31672   2.421   0.283  16.115 -0.2182  0.2311  0.1717
 6679SOL    HW131673   2.499   0.332  16.141  2.6316 -4.4442  0.4523
 6679SOL    HW231674   2.412   0.237  16.198  0.9633 -1.6048 -0.7121
 6680SOL     OW31675   2.839   1.897   1.112 -0.1119  0.3333 -0.0190
 6680SOL    HW131676   2.882   1.844   1.179  2.0658  1.2171 -0.7392
 6680SOL    HW231677   2.869   1.983   1.142 -2.6368  1.3522 -0.3446
 6681SOL     OW31678   0.851   4.045   4.180  0.2255  0.6819 -0.1374
 6681SOL    HW131679   0.905   4.076   4.108 -1.6980  1.0725 -1.3974
 6681SOL    HW231680   0.861   4.104   4.254 -0.9447  0.1763  0.4272
 6682SOL     OW31681   3.115   4.344   2.723  0.1479 -0.0408 -0.0885
 6682SOL    HW131682   3.142   4.342   2.815  1.1648  1.1138 -0.3637
 6682SOL    HW231683   3.163   4.272   2.683  3.3448  2.1347 -0.1844
 6683SOL     OW31684   3.548   1.419   9.672 -0.0744 -0.2910 -0.4563
 6683SOL    HW131685   3.565   1.341   9.619 -1.7130  0.4495 -2.0676
 6683SOL    HW231686   3.576   1.384   9.757  0.0085 -0.0346 -0.3778
 6684SOL     OW31687   4.307   1.465   4.627  0.4559 -0.2547  0.0405
 6684SOL    HW131688   4.259   1.393   4.668  0.2896 -1.5972 -2.5309
 6684SOL    HW231689   4.320   1.514   4.708  0.0549  2.1439 -1.3653
 6685SOL     OW31690   4.388   3.262   3.917 -0.0294  0.4045  0.5362
 6685SOL    HW131691   4.295   3.268   3.896 -0.0142  1.5047  0.8040
 6685SOL    HW231692   4.412   3.354   3.920  2.5525 -0.2048 -1.0267
 6686SOL     OW31693   2.440   0.418   5.661  0.0512  1.1054  0.1289
 6686SOL    HW131694   2.352   0.453   5.649 -0.8390 -0.9864  0.5552
 6686SOL    HW231695   2.419   0.326   5.678 -0.8645  1.2114 -0.4263
 6687SOL     OW31696   4.721   4.436  14.500 -0.2867 -0.2661 -0.0094
 6687SOL    HW131697   4.685   4.382  14.430 -0.7568  0.3965 -0.2868
 6687SOL    HW231698   0.077   4.425  14.479 -0.0116 -1.1035  1.7058
 6688SOL     OW31699   2.522   2.644  16.472 -0.4651  0.1645  0.3840
 6688SOL    HW131700   2.574   2.575  16.430 -1.5254 -1.5838  1.9667
 6688SOL    HW231701   2.471   2.683  16.401  1.5796  2.6901  0.2887
 6689SOL     OW31702   0.726   2.765   3.960 -0.2743  0.1247  0.4335
 6689SOL    HW131703   0.648   2.709   3.956  1.0082 -1.5889 -0.3835
 6689SOL    HW231704   0.792   2.706   3.996 -1.0461 -0.9219  0.1270
 6690SOL     OW31705   2.902   1.699   7.986  0.1776  0.0957  0.1389
 6690SOL    HW131706   2.924   1.788   8.012 -0.7724  0.0379  1.1621
 6690SOL    HW231707   2.810   1.707   7.958 -0.5117  1.0535  2.6835
 6691SOL     OW31708   3.954   0.971   5.218  0.7105  0.8009  0.0097
 6691SOL    HW131709   3.986   0.926   5.139 -0.0081 -1.5635  1.0575
 6691SOL    HW231710   3.911   0.897   5.260 -0.4250  0.0390 -2.5125
 6692SOL     OW31711   0.224   2.523   4.913 -0.2728 -0.0925  0.2287
 6692SOL    HW131712   0.252   2.606   4.875 -3.7461 -0.1452 -2.4908
 6692SOL    HW231713   0.130   2.529   4.934 -0.6084 -0.5616 -1.1530
 6693SOL     OW31714   2.788   2.414   2.827 -0.3499  0.3114  0.0779
 6693SOL    HW131715   2.867   2.383   2.872 -1.2305  0.2473  1.5751
 6693SOL    HW231716   2.724   2.346   2.851 -0.4329  0.1377 -0.6213
 6694SOL     OW31717   1.056   4.426   8.461 -0.4559 -0.3747  0.3232
 6694SOL    HW131718   0.988   4.388   8.404 -0.6560 -1.2381  1.1403
 6694SOL    HW231719   1.111   4.458   8.389 -0.5353  0.9624  0.8531
 6695SOL     OW31720   3.573   1.842   8.178  0.2139  0.3979  0.3868
 6695SOL    HW131721   3.597   1.854   8.270 -1.4439 -2.1878  1.1697
 6695SOL    HW231722   3.662   1.833   8.143 -0.3556 -2.1112 -0.4502
 6696SOL     OW31723   4.331   3.585   1.797 -0.2340 -0.9298 -0.3425
 6696SOL    HW131724   4.377   3.591   1.713 -1.3853 -3.8104 -1.1688
 6696SOL    HW231725   4.294   3.673   1.798 -1.2247 -1.3150 -2.4638
 6697SOL     OW31726   0.445   1.664   8.529 -0.1802  0.3368  0.3615
 6697SOL    HW131727   0.429   1.708   8.612 -4.0208  1.9533 -1.2169
 6697SOL    HW231728   0.540   1.672   8.519 -0.1895 -0.4557 -0.4218
 6698SOL     OW31729   2.843   1.420   1.661  0.3740 -0.5356 -0.4560
 6698SOL    HW131730   2.766   1.408   1.606 -0.9400  1.4696  0.9508
 6698SOL    HW231731   2.829   1.511   1.688  1.2882 -1.0883  1.9031
 6699SOL     OW31732   0.859   1.921   8.068  0.0683 -0.0039 -0.0700
 6699SOL    HW131733   0.768   1.909   8.038 -0.1726  1.0878  0.2591
 6699SOL    HW231734   0.885   1.839   8.111 -1.6216 -0.7597 -0.4870
 6700SOL     OW31735   1.145   3.078  16.713  0.0154 -0.1680 -0.1766
 6700SOL    HW131736   1.140   3.000  16.768 -0.6874  0.6810  0.9721
 6700SOL    HW231737   1.064   3.124  16.735 -0.6534 -1.3913 -0.0929
 6701SOL     OW31738   2.367   0.820   2.564  0.4027  0.2246  0.5715
 6701SOL    HW131739   2.302   0.864   2.508  1.1941  1.2548  0.4462
 6701SOL    HW231740   2.376   0.890   2.628 -0.6091 -1.0616  2.0940
 6702SOL     OW31741   3.534   0.330   1.665 -0.1056 -0.5518 -0.1008
 6702SOL    HW131742   3.490   0.385   1.600 -1.4437  0.2904  1.5215
 6702SOL    HW231743   3.476   0.333   1.741 -1.5161 -3.4954 -1.0848
 6703SOL     OW31744   3.395   1.237   3.106 -0.4750 -0.7068  0.1780
 6703SOL    HW131745   3.449   1.238   3.185 -1.1394  1.9349  0.6148
 6703SOL    HW231746   3.326   1.184   3.147  0.0771 -1.2633  0.3833
 6704SOL     OW31747   1.777   1.540   1.801  0.1597 -0.3430 -0.3703
 6704SOL    HW131748   1.723   1.473   1.842  0.9210 -0.6801  0.0949
 6704SOL    HW231749   1.711   1.608   1.813  0.1127 -0.6746  1.2028
 6705SOL     OW31750   3.178   1.102   5.935 -0.0051  0.5166 -0.3668
 6705SOL    HW131751   3.132   1.035   5.885 -0.6232  0.5425  0.1782
 6705SOL    HW231752   3.263   1.080   5.896  0.6816  0.3304  1.2306
 6706SOL     OW31753   2.411   1.306   9.624 -0.1197  0.2774  0.0811
 6706SOL    HW131754   2.505   1.304   9.605 -0.0775  1.0795  0.2133
 6706SOL    HW231755   2.370   1.354   9.553  0.0239 -1.0527 -0.9079
 6707SOL     OW31756   4.104   1.456   9.355  0.0974 -0.4067  0.4079
 6707SOL    HW131757   4.106   1.539   9.403 -1.9244 -0.8090  1.2173
 6707SOL    HW231758   4.182   1.411   9.386  0.5338 -1.0014 -1.5771
 6708SOL     OW31759   1.194   3.556   3.828  0.1243 -0.0058  0.2058
 6708SOL    HW131760   1.143   3.477   3.814 -0.6226  0.1991  1.8043
 6708SOL    HW231761   1.200   3.563   3.923  0.8732 -1.7927  0.2728
 6709SOL     OW31762   1.984   2.950  10.574 -0.3989 -0.1878 -0.1759
 6709SOL    HW131763   1.941   2.869  10.545 -0.4934 -0.1797 -0.0586
 6709SOL    HW231764   1.911   3.013  10.572 -0.4430 -0.3204 -2.9151
 6710SOL     OW31765   0.304   1.712   3.743  0.0368 -0.5583  0.1538
 6710SOL    HW131766   0.290   1.619   3.727 -0.6754 -0.4070 -0.1278
 6710SOL    HW231767   0.220   1.744   3.709 -0.1574 -0.9851  0.2324
 6711SOL     OW31768   3.256   1.852   4.244 -0.1545 -0.2262  0.1874
 6711SOL    HW131769   3.241   1.801   4.165 -1.1348 -1.8952  1.4432
 6711SOL    HW231770   3.244   1.934   4.195  0.6098 -0.5290 -0.5074
 6712SOL     OW31771   1.437   1.414   0.743 -0.1574 -0.1408  0.0594
 6712SOL    HW131772   1.423   1.416   0.837  1.3952 -0.9673  0.3065
 6712SOL    HW231773   1.360   1.367   0.711 -1.4183  2.5095 -0.8287
 6713SOL     OW31774   0.761   0.457   8.339 -0.1243  0.2354  0.5434
 6713SOL    HW131775   0.856   0.465   8.327 -0.5113  0.5350 -2.2402
 6713SOL    HW231776   0.749   0.531   8.399  0.1155  0.3141  0.4941
 6714SOL     OW31777   1.610   4.542   1.138  0.4898 -0.7970 -0.1902
 6714SOL    HW131778   1.669   4.524   1.065  0.7562  0.6277 -0.3155
 6714SOL    HW231779   1.622   4.637   1.145  0.2470 -0.8683  1.2333
 6715SOL     OW31780   3.809   3.024  16.838 -0.1184  0.3109 -0.5415
 6715SOL    HW131781   3.895   3.012  16.799  0.8662  0.1873  1.7322
 6715SOL    HW231782   3.762   3.028  16.754 -2.3402  1.8188  0.7481
 6716SOL     OW31783   2.132   3.610   0.027  0.1950 -0.3758  0.3433
 6716SOL    HW131784   2.063   3.553  17.736 -1.1679  1.0551  0.6913
 6716SOL    HW231785   2.213   3.569  17.740  0.4075 -1.6241  2.5777
 6717SOL     OW31786   1.270   0.249   2.305 -0.2306 -0.4391 -0.1535
 6717SOL    HW131787   1.354   0.291   2.322  0.1405 -1.8577  1.5141
 6717SOL    HW231788   1.276   0.240   2.210 -0.8832 -3.2015  0.0652
 6718SOL     OW31789   0.678   3.205  17.136  0.4813 -0.4228  0.4206
 6718SOL    HW131790   0.739   3.273  17.165  0.0595  1.0482 -2.1210
 6718SOL    HW231791   0.732   3.146  17.084  1.0104 -0.1457  0.6571
 6719SOL     OW31792   2.000   4.110   2.962  0.4371  0.0435 -0.4252
 6719SOL    HW131793   2.026   4.052   3.033 -1.3647  1.0186  1.0177
 6719SOL    HW231794   1.924   4.156   2.996 -0.3355 -0.4084 -1.5273
 6720SOL     OW31795   3.016   1.768   2.700 -0.1714  0.2686  0.1100
 6720SOL    HW131796   2.926   1.799   2.699  0.4325  2.0891  1.7585
 6720SOL    HW231797   3.042   1.770   2.792 -1.9653  1.1854  0.5857
 6721SOL     OW31798   0.666   4.710  11.679 -0.6090  0.1636 -0.4155
 6721SOL    HW131799   0.593   4.701  11.618  1.1295  0.9693 -2.6117
 6721SOL    HW231800   0.636   4.649  11.746 -2.5754  0.7555 -0.7643
 6722SOL     OW31801   0.780   3.642  16.141  0.4489  0.1606 -0.7228
 6722SOL    HW131802   0.791   3.670  16.050  0.7080 -1.0570 -1.0708
 6722SOL    HW231803   0.799   3.548  16.135 -1.2263 -0.1960 -0.6620
 6723SOL     OW31804   4.449   4.010   8.169 -0.5768  0.0536 -0.0579
 6723SOL    HW131805   4.368   3.964   8.150  0.1970 -1.6162  0.7274
 6723SOL    HW231806   4.501   3.939   8.133 -0.2870  0.0539  0.3565
 6724SOL     OW31807   1.261   2.294   3.633  0.4928  0.0300 -0.2590
 6724SOL    HW131808   1.308   2.365   3.589  0.2573 -0.0244 -0.5963
 6724SOL    HW231809   1.298   2.283   3.721 -1.8642  0.3323  0.7827
 6725SOL     OW31810   3.447   3.648   1.187 -0.5806 -0.1965  0.5976
 6725SOL    HW131811   3.480   3.560   1.171  1.1746  1.1401 -3.0654
 6725SOL    HW231812   3.492   3.672   1.268 -0.6934 -1.0068  0.9034
 6726SOL     OW31813   2.858   0.961   3.120 -0.5130 -0.6329 -0.1388
 6726SOL    HW131814   2.787   1.004   3.073 -0.5967 -0.2553  0.3363
 6726SOL    HW231815   2.890   1.031   3.177 -0.3240 -0.5470 -0.3530
 6727SOL     OW31816   2.173   0.786   0.544  0.2562 -0.5440  0.4823
 6727SOL    HW131817   2.197   0.835   0.623  0.5534 -0.3376  0.2657
 6727SOL    HW231818   2.218   0.701   0.546  1.8016  0.2235 -1.5104
 6728SOL     OW31819   3.512   0.703   9.378 -0.1483 -0.0285 -0.3373
 6728SOL    HW131820   3.545   0.652   9.452  2.2862  1.6509 -0.2846
 6728SOL    HW231821   3.419   0.720   9.394 -0.0856 -0.2537  0.2645
 6729SOL     OW31822   0.377   4.327   7.003 -0.2657 -0.5665 -0.3595
 6729SOL    HW131823   0.353   4.265   6.935 -1.8005  1.7054 -1.8761
 6729SOL    HW231824   0.319   4.394   6.966  1.4288  1.5800  0.8886
 6730SOL     OW31825   3.087   3.900   2.182 -0.5138  0.3898  0.0315
 6730SOL    HW131826   3.035   3.954   2.242  2.2965  1.4272  1.5347
 6730SOL    HW231827   3.132   3.845   2.245  0.2829  0.4310 -0.5034
 6731SOL     OW31828   2.266   4.612   8.155  0.4135  0.6675  0.2407
 6731SOL    HW131829   2.310   4.686   8.114 -0.5595  2.3991  2.3099
 6731SOL    HW231830   2.269   4.643   8.246 -2.3049 -2.5326  1.4117
 6732SOL     OW31831   1.918   3.943   6.488  0.0011 -0.2207  0.4956
 6732SOL    HW131832   1.923   3.936   6.393 -0.6135  1.5089  0.3471
 6732SOL    HW231833   1.966   3.866   6.521 -1.7467 -2.0622 -1.2242
 6733SOL     OW31834   2.976   2.887  10.147 -0.3858 -0.3336 -0.1858
 6733SOL    HW131835   2.976   2.973  10.190  1.3462  0.0608 -0.9955
 6733SOL    HW231836   2.890   2.895  10.104 -1.1861  1.4359  1.7360
 6734SOL     OW31837   4.697   0.211   1.502  0.0342 -0.5041 -0.5227
 6734SOL    HW131838   4.703   0.120   1.533 -0.4921  0.0979  1.3076
 6734SOL    HW231839   4.607   0.212   1.467  0.1034  0.3025 -0.6810
 6735SOL     OW31840   0.522   0.526  12.893  1.0807 -0.3293  0.6045
 6735SOL    HW131841   0.569   0.444  12.906 -0.3303 -1.5405 -1.9043
 6735SOL    HW231842   0.464   0.529  12.968  2.3342 -2.2120  1.6584
 6736SOL     OW31843   0.223   1.468   7.704  0.4293 -0.0703 -0.0890
 6736SOL    HW131844   0.200   1.526   7.777 -0.8991 -0.3524 -0.2827
 6736SOL    HW231845   0.305   1.428   7.731  0.0131 -1.0250 -0.2346
 6737SOL     OW31846   1.271   0.062  10.084  0.2069  0.3184  0.5213
 6737SOL    HW131847   1.290   0.151  10.054 -1.1049  0.9317  1.4857
 6737SOL    HW231848   1.281   0.067  10.179 -1.5105  1.6493  0.6417
 6738SOL     OW31849   4.095   1.432   4.432  0.0535 -0.4734  0.5211
 6738SOL    HW131850   4.168   1.436   4.494  1.2824  3.8080 -1.1760
 6738SOL    HW231851   4.138   1.375   4.368 -1.0153 -3.4237  2.4427
 6739SOL     OW31852   0.667   3.470  17.312 -0.7767  0.2746  0.4410
 6739SOL    HW131853   0.669   3.558  17.275 -0.3298 -0.0125 -0.2176
 6739SOL    HW231854   0.749   3.439  17.273 -0.6567  1.2232 -0.0645
 6740SOL     OW31855   0.858   1.045   2.128  0.3431  0.4970  0.3749
 6740SOL    HW131856   0.899   1.124   2.093 -0.5891  0.5563 -0.5971
 6740SOL    HW231857   0.837   1.085   2.212  0.0290 -1.1807  1.0955
 6741SOL     OW31858   2.052   3.092   6.534  0.2639 -0.1904  0.2482
 6741SOL    HW131859   1.978   3.116   6.589 -0.2228  0.3409 -0.6441
 6741SOL    HW231860   2.125   3.139   6.574  0.4448  1.5552 -2.1266
 6742SOL     OW31861   2.012   2.085  17.084 -0.2233 -0.4726 -0.0189
 6742SOL    HW131862   1.968   2.125  17.009 -0.5522  0.3467  0.6210
 6742SOL    HW231863   1.984   2.145  17.153 -1.5958 -3.3290  1.9095
 6743SOL     OW31864   0.670   3.330   3.051  0.0209  0.4516  0.1074
 6743SOL    HW131865   0.747   3.327   3.107  0.1178  1.4687  0.0297
 6743SOL    HW231866   0.662   3.408   2.996 -1.9569  0.3145  0.1735
 6744SOL     OW31867   1.122   4.482  16.949  0.1340  0.1018  0.7743
 6744SOL    HW131868   1.037   4.460  16.911  0.2634  1.4763 -0.3234
 6744SOL    HW231869   1.170   4.479  16.866 -1.0571  1.5398  0.0484
 6745SOL     OW31870   1.999   1.705  15.438  0.0746 -0.1254  0.3176
 6745SOL    HW131871   1.980   1.789  15.395  1.2690 -1.6886 -3.2261
 6745SOL    HW231872   1.922   1.700  15.496 -0.5172 -1.8416 -0.6365
 6746SOL     OW31873   0.695   0.082   1.848  0.1631  0.3462  0.2904
 6746SOL    HW131874   0.783   0.120   1.853  0.5253 -0.4380 -0.2229
 6746SOL    HW231875   0.713   4.725   1.841  2.0823  0.8666 -1.7816
 6747SOL     OW31876   2.656   3.827   6.320 -0.0558  0.5083  0.7987
 6747SOL    HW131877   2.592   3.756   6.317  0.7567 -0.2153  0.6681
 6747SOL    HW231878   2.603   3.894   6.277 -1.0812 -1.7405 -1.4153
 6748SOL     OW31879   3.982   3.085   0.628  0.2570  0.2657  0.2489
 6748SOL    HW131880   3.944   3.042   0.551  3.0773  0.3767 -1.2074
 6748SOL    HW231881   4.022   3.160   0.583  0.0680 -0.1661 -0.6449
 6749SOL     OW31882   3.281   1.651   6.605  0.0059  0.1659 -0.1975
 6749SOL    HW131883   3.224   1.685   6.536  0.7840 -0.0354 -0.9420
 6749SOL    HW231884   3.218   1.607   6.663  1.1718 -0.5138  0.5553
 6750SOL     OW31885   2.385   2.115  16.451 -0.3033  0.2354  0.1057
 6750SOL    HW131886   2.439   2.036  16.459 -1.1062 -0.4174 -0.8696
 6750SOL    HW231887   2.312   2.080  16.503  0.7520 -0.3067  1.2175
 6751SOL     OW31888   1.527   1.225   4.995 -0.7656 -0.2994 -0.1281
 6751SOL    HW131889   1.552   1.137   4.969  0.0542  0.0637 -0.5716
 6751SOL    HW231890   1.471   1.195   5.066 -1.4185 -1.0365 -0.9655
 6752SOL     OW31891   3.835   2.340  14.960  0.1144 -0.3297 -0.1414
 6752SOL    HW131892   3.788   2.337  15.044  0.9278  1.8545  0.3745
 6752SOL    HW231893   3.896   2.412  14.948  1.2152 -1.4003 -1.0036
 6753SOL     OW31894   2.209   4.003   3.433  0.4545  0.1368  0.3083
 6753SOL    HW131895   2.168   4.085   3.459 -1.4558 -0.6661 -0.1576
 6753SOL    HW231896   2.156   3.940   3.481  1.3184 -1.6790 -1.1255
 6754SOL     OW31897   3.943   1.867   6.897 -0.0519  0.0342  0.5153
 6754SOL    HW131898   3.876   1.856   6.830  0.6641 -1.6562  0.0822
 6754SOL    HW231899   3.892   1.840   6.973  1.0798  0.0634  1.2875
 6755SOL     OW31900   2.471   4.388   3.903 -0.4960 -0.3672 -0.2864
 6755SOL    HW131901   2.463   4.322   3.834 -1.1907 -1.3894  0.7767
 6755SOL    HW231902   2.411   4.359   3.971 -0.2516  1.7922  0.8512
 6756SOL     OW31903   2.642   3.363  14.261  0.2231 -0.1328 -0.0236
 6756SOL    HW131904   2.595   3.361  14.178 -2.5045  1.7596  1.4981
 6756SOL    HW231905   2.565   3.390  14.311 -1.2436 -0.4974 -2.0711
 6757SOL     OW31906   0.609   1.510   8.314  0.0208  0.0722  0.4722
 6757SOL    HW131907   0.539   1.470   8.365 -1.7683  1.0356 -1.2236
 6757SOL    HW231908   0.684   1.468   8.356 -0.5772 -0.8035  0.6648
 6758SOL     OW31909   3.603   1.916   4.344 -0.2031 -0.0825  0.0060
 6758SOL    HW131910   3.620   1.971   4.420 -1.5098 -1.3923  1.2611
 6758SOL    HW231911   3.677   1.914   4.283  0.0679  2.5831  0.2634
 6759SOL     OW31912   2.945   0.742   2.534  0.8019 -0.0459 -0.1719
 6759SOL    HW131913   2.896   0.675   2.580  0.9432 -0.1779 -0.2157
 6759SOL    HW231914   2.940   0.698   2.449  3.2398 -1.5894  0.4592
 6760SOL     OW31915   0.124   1.085   6.693  0.0319  0.3259  0.3084
 6760SOL    HW131916   0.115   1.180   6.691 -0.7196  0.2277 -0.8397
 6760SOL    HW231917   0.048   1.054   6.645  2.0277 -0.9297 -2.0852
 6761SOL     OW31918   1.677   0.482   3.886  0.4964 -0.1082  0.1317
 6761SOL    HW131919   1.744   0.484   3.818  0.3546  0.0953 -0.0032
 6761SOL    HW231920   1.638   0.566   3.863 -0.6729 -0.6488  0.1080
 6762SOL     OW31921   3.477   0.191  15.737  0.2828 -0.3767 -0.4169
 6762SOL    HW131922   3.454   0.234  15.654  1.1321 -0.0540 -0.4818
 6762SOL    HW231923   3.387   0.173  15.764  0.4729 -1.5655 -0.5780
 6763SOL     OW31924   4.159   4.554   2.693 -0.4773 -0.0558  0.0785
 6763SOL    HW131925   4.109   4.536   2.614 -1.5092  0.4376  0.6178
 6763SOL    HW231926   4.210   4.473   2.693 -1.5594 -0.7439 -0.2720
 6764SOL     OW31927   2.331   4.214  17.595  0.0089  0.3288  0.1227
 6764SOL    HW131928   2.390   4.202  17.520  1.9698  1.2947  1.5236
 6764SOL    HW231929   2.270   4.140  17.591  0.2574  0.0620  1.3850
 6765SOL     OW31930   2.385   1.106   9.356  0.3327 -0.2332 -0.1905
 6765SOL    HW131931   2.453   1.092   9.290 -0.5400  1.6312 -1.4921
 6765SOL    HW231932   2.372   1.016   9.384 -0.4219  0.1778  0.7775
 6766SOL     OW31933   2.099   4.065   6.799 -0.2070 -0.0653 -0.1937
 6766SOL    HW131934   2.173   4.092   6.746  1.0921 -2.2001  0.5590
 6766SOL    HW231935   2.089   4.136   6.863  2.4890 -1.1242  1.3865
 6767SOL     OW31936   0.438   3.087  17.446 -0.4291 -0.2091 -0.3339
 6767SOL    HW131937   0.497   3.122  17.379  0.2467  2.6089  1.7698
 6767SOL    HW231938   0.354   3.107  17.405 -0.2185 -1.7075 -1.4965
 6768SOL     OW31939   1.126   0.674  13.718 -0.5883 -0.0550 -0.5691
 6768SOL    HW131940   1.110   0.586  13.683 -0.3630 -0.0231 -0.7497
 6768SOL    HW231941   1.097   0.726  13.643 -0.4953  0.2452 -0.3954
 6769SOL     OW31942   2.267   0.002   2.890 -0.1231 -0.1080 -0.0180
 6769SOL    HW131943   2.302   0.065   2.952  1.2696  0.8501 -1.7691
 6769SOL    HW231944   2.188   0.048   2.859  0.1454 -0.1054 -0.6975
 6770SOL     OW31945   3.447   2.391   3.767  0.2130  0.3629  0.0119
 6770SOL    HW131946   3.370   2.419   3.816 -0.6157 -3.5886  0.9685
 6770SOL    HW231947   3.439   2.435   3.682  2.2222  2.8011  1.0679
 6771SOL     OW31948   2.958   0.794   6.383 -0.5026  0.2493  0.0796
 6771SOL    HW131949   2.869   0.790   6.418 -0.4542 -1.7825 -0.0252
 6771SOL    HW231950   2.934   0.767   6.295  0.6515  1.5655 -0.6390
 6772SOL     OW31951   3.154   2.189   6.888 -0.4673  0.1242 -0.1683
 6772SOL    HW131952   3.204   2.165   6.810 -0.3416 -0.9455  0.2436
 6772SOL    HW231953   3.159   2.284   6.884 -0.3577  0.1873  1.6703
 6773SOL     OW31954   2.502   2.338   5.859  0.1078  0.1380  0.6406
 6773SOL    HW131955   2.592   2.305   5.861  0.0541 -0.2932 -3.9353
 6773SOL    HW231956   2.495   2.341   5.763 -1.1960  2.3727  0.8163
 6774SOL     OW31957   0.259   4.298  12.172  1.5610 -0.0518  0.8136
 6774SOL    HW131958   0.226   4.247  12.099  1.7090  3.1583 -1.4781
 6774SOL    HW231959   0.236   4.246  12.249  0.8069  1.1191  1.3741
 6775SOL     OW31960   3.543   3.974   7.546  0.1239 -0.1902 -0.1854
 6775SOL    HW131961   3.562   4.065   7.522  1.5242 -0.4627 -0.0962
 6775SOL    HW231962   3.469   3.981   7.606  0.5548 -0.4682  0.3718
 6776SOL     OW31963   0.805   4.442   2.628  0.3993  0.3089  0.7604
 6776SOL    HW131964   0.860   4.518   2.644 -1.7851  2.0264  0.0604
 6776SOL    HW231965   0.732   4.456   2.688 -0.2693 -0.0330  0.0370
 6777SOL     OW31966   2.670   2.732  11.945 -0.2540 -0.0831  0.2269
 6777SOL    HW131967   2.589   2.713  11.993 -0.7624  2.9734  0.5925
 6777SOL    HW231968   2.702   2.795  12.009  0.3998  0.2042 -0.3806
 6778SOL     OW31969   4.002   0.555  12.168  0.1631 -0.2911  0.0289
 6778SOL    HW131970   4.077   0.522  12.219  1.1695 -1.7300 -2.3988
 6778SOL    HW231971   3.997   0.642  12.207 -3.0870 -1.5305  2.4416
 6779SOL     OW31972   4.233   0.775   5.786  0.1210  0.2427  0.1136
 6779SOL    HW131973   4.240   0.701   5.725  1.7231  0.3813  0.1289
 6779SOL    HW231974   4.158   0.826   5.755  0.1556 -0.9672 -2.0003
 6780SOL     OW31975   4.275   1.383   7.778  0.0054  0.7428  0.4335
 6780SOL    HW131976   4.253   1.322   7.708 -1.1235  1.4552  0.1763
 6780SOL    HW231977   4.301   1.322   7.847 -1.1595  0.9566  1.0676
 6781SOL     OW31978   3.247   1.668   5.710  0.0659  0.6174  0.0390
 6781SOL    HW131979   3.214   1.693   5.624  1.8482  2.6923 -0.0202
 6781SOL    HW231980   3.176   1.613   5.744  0.3066 -1.3503 -2.6440
 6782SOL     OW31981   1.350   2.273   6.362  0.1692  0.0127 -0.1441
 6782SOL    HW131982   1.422   2.232   6.409  1.1767  2.5003  0.5272
 6782SOL    HW231983   1.393   2.333   6.301 -0.9372  2.9383  1.8928
 6783SOL     OW31984   3.705   4.038   8.543  0.3953 -0.1289 -0.2995
 6783SOL    HW131985   3.623   4.010   8.501  1.8544 -2.6255 -1.4346
 6783SOL    HW231986   3.704   4.134   8.538 -2.0376 -0.1488 -0.2018
 6784SOL     OW31987   3.488   1.825   3.859 -0.2863  0.0801 -0.4306
 6784SOL    HW131988   3.521   1.914   3.873  2.7488 -1.4003  1.8919
 6784SOL    HW231989   3.517   1.809   3.769 -0.4923  3.7625 -1.1762
 6785SOL     OW31990   0.203   3.022   6.286 -0.3200 -0.1626 -0.0518
 6785SOL    HW131991   0.244   2.935   6.281 -0.0511  0.0676 -1.7114
 6785SOL    HW231992   0.273   3.070   6.330 -1.3327  1.2251  0.0059
 6786SOL     OW31993   0.192   4.607   6.695  0.1381 -0.1848  0.3354
 6786SOL    HW131994   0.143   4.526   6.685 -2.1087  1.0774  1.0791
 6786SOL    HW231995   0.187   4.654   6.612 -0.6264 -0.4627  0.2285
 6787SOL     OW31996   1.021   2.933  13.672  0.1356 -0.0831 -0.6358
 6787SOL    HW131997   1.094   2.993  13.655  2.0331 -1.0130  4.1257
 6787SOL    HW231998   1.062   2.850  13.647 -1.2968 -1.2220  0.8084
 6788SOL     OW31999   2.833   4.377   1.714 -0.1794 -0.2535 -0.2880
 6788SOL    HW132000   2.768   4.431   1.760 -0.4505 -0.6006 -0.2696
 6788SOL    HW232001   2.818   4.393   1.621 -2.3100  3.0789  0.6246
 6789SOL     OW32002   1.470   2.083  10.402 -0.5500  0.3115 -0.6195
 6789SOL    HW132003   1.507   1.995  10.416  1.9415  1.3812 -0.4136
 6789SOL    HW232004   1.486   2.099  10.309 -1.4700  0.6962 -0.7052
 6790SOL     OW32005   2.711   0.434  15.023  0.5632 -0.0298 -0.1802
 6790SOL    HW132006   2.622   0.431  14.989  0.3266  1.9775  0.2672
 6790SOL    HW232007   2.694   0.406  15.113 -0.3952  1.8473  0.2135
 6791SOL     OW32008   2.692   0.560   4.816  0.3561 -0.4419 -0.6161
 6791SOL    HW132009   2.744   0.634   4.848 -0.1366 -0.3606  0.0064
 6791SOL    HW232010   2.728   0.479   4.855  0.1316 -0.3039 -0.1215
 6792SOL     OW32011   1.523   4.725   7.728  0.0493 -0.0575  0.2760
 6792SOL    HW132012   1.610   4.700   7.759  0.7013  0.1507 -1.4146
 6792SOL    HW232013   1.530   0.081   7.706 -0.2355 -0.4896 -1.6512
 6793SOL     OW32014   1.824   1.580   7.269  0.2428 -0.5445  0.6112
 6793SOL    HW132015   1.767   1.656   7.275  0.9980  0.1533 -0.8056
 6793SOL    HW232016   1.775   1.525   7.330  0.4811  1.0534  2.2335
 6794SOL     OW32017   4.718   4.159  12.584  0.0678 -0.2536 -0.0479
 6794SOL    HW132018   4.646   4.096  12.582 -1.1253  1.2019 -1.8710
 6794SOL    HW232019   4.672   4.226  12.535  1.9018 -0.2274 -1.7167
 6795SOL     OW32020   4.090   3.139   3.594  0.0537  0.4608  0.8715
 6795SOL    HW132021   4.143   3.065   3.567 -0.1784 -0.0626  1.8651
 6795SOL    HW232022   4.102   3.194   3.516 -0.0383 -0.0913  0.4738
 6796SOL     OW32023   4.220   2.047   6.753 -0.0999 -0.3710  0.3227
 6796SOL    HW132024   4.246   2.111   6.686  0.3898  0.0610  0.9341
 6796SOL    HW232025   4.128   2.074   6.754  1.1539  3.8591  0.7882
 6797SOL     OW32026   4.678   2.499   2.728  0.2166 -0.4752  0.3419
 6797SOL    HW132027   4.733   2.530   2.657 -1.7467 -3.2366 -2.4029
 6797SOL    HW232028   4.592   2.506   2.687  0.7832  0.7077 -0.6410
 6798SOL     OW32029   3.267   0.536   7.609  0.1405 -0.7752  0.1493
 6798SOL    HW132030   3.192   0.477   7.603 -0.1227 -0.4088 -0.1096
 6798SOL    HW232031   3.335   0.471   7.628  1.0510  0.4428  1.0653
 6799SOL     OW32032   2.439   4.134   3.445 -0.0678  0.3260  0.0007
 6799SOL    HW132033   2.384   4.059   3.467  0.9747  0.0363  1.6149
 6799SOL    HW232034   2.470   4.120   3.355 -2.3937 -0.4205 -0.6943
 6800SOL     OW32035   3.476   4.434  16.006  0.3347  0.0569  0.1645
 6800SOL    HW132036   3.500   4.503  15.945 -0.5121 -1.1213 -1.5012
 6800SOL    HW232037   3.391   4.416  15.966  0.4603  0.7928 -0.4113
 6801SOL     OW32038   3.303   0.121   3.665 -0.1455  0.1856  0.1397
 6801SOL    HW132039   3.378   0.167   3.704  3.0834 -2.7607 -2.6194
 6801SOL    HW232040   3.229   0.165   3.707  1.6880  0.9561  2.5422
 6802SOL     OW32041   4.615   3.715   8.725  0.4103  0.1543 -0.1691
 6802SOL    HW132042   4.655   3.704   8.639 -0.2095  0.3785 -0.4912
 6802SOL    HW232043   4.688   3.727   8.786 -0.0060 -0.0483  0.3766
 6803SOL     OW32044   1.772   3.289   2.581  0.3435 -0.4396 -0.0518
 6803SOL    HW132045   1.715   3.267   2.507 -0.6809 -3.2169  1.5535
 6803SOL    HW232046   1.854   3.295   2.532  0.5826  1.6780  0.6245
 6804SOL     OW32047   4.003   3.838   8.605 -0.2222  0.3984 -0.3403
 6804SOL    HW132048   4.094   3.818   8.584  0.1201  1.8679 -0.2375
 6804SOL    HW232049   4.027   3.917   8.654 -0.2331 -1.2916  2.4351
 6805SOL     OW32050   1.245   3.938  16.125  0.1934 -0.5315 -0.1522
 6805SOL    HW132051   1.251   4.023  16.169  1.8188 -0.4104 -0.6112
 6805SOL    HW232052   1.160   3.944  16.080 -0.0128  1.3468  0.5033
 6806SOL     OW32053   4.010   2.830   6.451  0.5943 -0.1762  0.3567
 6806SOL    HW132054   4.102   2.853   6.443  0.8039 -0.9290  0.6208
 6806SOL    HW232055   3.987   2.834   6.544 -1.0274  0.9662 -0.0752
 6807SOL     OW32056   0.297   0.074   9.875 -0.0774  0.1356  0.5341
 6807SOL    HW132057   0.318   0.162   9.843 -0.5175  0.2600  0.5844
 6807SOL    HW232058   0.305   0.095   9.969 -0.9052 -0.5670  0.7581
 6808SOL     OW32059   1.301   2.547   8.830 -0.2817 -0.5736 -0.4343
 6808SOL    HW132060   1.335   2.521   8.744  0.5633 -0.7684 -0.0402
 6808SOL    HW232061   1.226   2.597   8.799 -0.5736 -0.9740 -0.3761
 6809SOL     OW32062   0.768   0.154   4.241  0.8653  0.5689 -0.4474
 6809SOL    HW132063   0.831   0.224   4.222  0.0166  1.3748 -0.3305
 6809SOL    HW232064   0.797   0.134   4.330  1.0764  2.7739 -0.0065
 6810SOL     OW32065   0.394   3.719  10.857  0.1481 -0.1516  0.0680
 6810SOL    HW132066   0.358   3.727  10.945  1.0883 -2.6997  0.6630
 6810SOL    HW232067   0.483   3.710  10.891 -0.3301  0.0585  1.3722
 6811SOL     OW32068   3.183   3.760  14.405  0.0660  0.5162 -0.2096
 6811SOL    HW132069   3.233   3.777  14.485 -0.1746  1.1657 -0.2000
 6811SOL    HW232070   3.094   3.795  14.412 -0.2542 -0.3470  0.1049
 6812SOL     OW32071   4.125   3.203   2.381  0.3248  0.2594 -0.1398
 6812SOL    HW132072   4.059   3.254   2.428  0.1260 -2.4176  2.4699
 6812SOL    HW232073   4.073   3.195   2.301 -0.9029  2.2326  0.4644
 6813SOL     OW32074   4.113   4.040   2.887  0.1299  0.4572 -0.9118
 6813SOL    HW132075   4.025   4.011   2.912  0.3817  0.3923 -0.1226
 6813SOL    HW232076   4.158   3.956   2.890  2.0306  1.4056 -2.4678
 6814SOL     OW32077   2.653   2.572   8.782  0.0763  0.5610 -0.0042
 6814SOL    HW132078   2.748   2.585   8.789  0.2767 -1.1550  0.4480
 6814SOL    HW232079   2.658   2.530   8.696  1.2728  1.9987 -0.6343
 6815SOL     OW32080   2.423   1.229   0.563 -0.3132 -0.7699 -0.3703
 6815SOL    HW132081   2.393   1.139   0.553  0.8239 -0.5821 -5.3934
 6815SOL    HW232082   2.350   1.281   0.529 -0.0106  1.1823  1.9338
 6816SOL     OW32083   4.623   3.852   8.467  0.7727 -0.7570 -0.3240
 6816SOL    HW132084   4.542   3.810   8.438  0.4075 -1.3515  1.5527
 6816SOL    HW232085   4.682   3.785   8.431 -0.0993 -1.8527  0.2679
 6817SOL     OW32086   3.834   0.718   4.517 -0.5146 -0.0006  0.2191
 6817SOL    HW132087   3.852   0.710   4.611  0.1079 -0.3974  0.0610
 6817SOL    HW232088   3.742   0.745   4.521 -0.9070 -1.1951 -0.6376
 6818SOL     OW32089   0.897   2.014   1.911  0.0963 -0.1956 -0.0362
 6818SOL    HW132090   0.932   2.084   1.965 -1.0138  1.4401 -1.4501
 6818SOL    HW232091   0.852   1.976   1.987  0.3646 -0.8140 -0.1901
 6819SOL     OW32092   2.175   3.367   2.112  0.4140  0.6027  0.0566
 6819SOL    HW132093   2.161   3.312   2.036 -2.2794 -0.9713  1.7094
 6819SOL    HW232094   2.256   3.336   2.154  0.1283 -2.3306 -1.5677
 6820SOL     OW32095   2.707   4.273   8.692  0.0989  0.0787  0.2252
 6820SOL    HW132096   2.621   4.306   8.719  0.5707  1.5873 -0.1303
 6820SOL    HW232097   2.706   4.178   8.705  0.2349  0.0262 -0.1478
 6821SOL     OW32098   2.189   1.932  17.296  0.3388  0.0827 -0.1184
 6821SOL    HW132099   2.203   2.024  17.320 -0.4902  0.5182 -1.2846
 6821SOL    HW232100   2.123   1.944  17.228  2.1581 -1.7480 -2.2025
 6822SOL     OW32101   1.945   1.746  11.354 -0.2913  0.0486 -0.2062
 6822SOL    HW132102   1.992   1.707  11.280 -1.3574 -1.9725  0.1869
 6822SOL    HW232103   1.859   1.709  11.335  0.0241 -0.8452  0.1008
 6823SOL     OW32104   0.270   0.758   6.638  0.0419  0.0536 -0.4960
 6823SOL    HW132105   0.315   0.698   6.578  0.1669  1.2432 -1.5918
 6823SOL    HW232106   0.318   0.840   6.630  0.7581 -0.3016  0.1836
 6824SOL     OW32107   1.160   2.608   3.958  0.4750 -0.4641 -0.5348
 6824SOL    HW132108   1.233   2.669   3.958  1.4056 -1.5496  1.0054
 6824SOL    HW232109   1.149   2.595   3.864  3.6211  6.3233 -1.7974
 6825SOL     OW32110   3.845   3.642   6.133 -0.2884  0.2121  0.3870
 6825SOL    HW132111   3.765   3.678   6.096 -2.0926 -0.8305  3.2515
 6825SOL    HW232112   3.915   3.699   6.102 -0.4108  0.0849 -0.1156
 6826SOL     OW32113   4.601   0.061   6.649  0.7282 -0.2213 -0.0621
 6826SOL    HW132114   4.627   0.098   6.564 -2.6790  0.4526 -0.7904
 6826SOL    HW232115   4.567   4.714   6.618  0.8076 -0.3138  0.1025
 6827SOL     OW32116   2.341   0.636   9.673  0.2057  0.5722 -0.4059
 6827SOL    HW132117   2.289   0.598   9.602 -1.0887  0.8550  0.4010
 6827SOL    HW232118   2.385   0.709   9.631  1.3835 -1.4501 -2.7266
 6828SOL     OW32119   2.339   3.279  14.419 -0.0283 -0.0706  0.3389
 6828SOL    HW132120   2.375   3.367  14.408 -1.8951  0.8244  1.2694
 6828SOL    HW232121   2.268   3.284  14.355 -0.1738  0.8569  0.5635
 6829SOL     OW32122   0.882   0.614  15.863 -0.0960 -0.1459  0.2737
 6829SOL    HW132123   0.897   0.654  15.778  1.4890 -0.3695  0.4460
 6829SOL    HW232124   0.830   0.540  15.831  0.2085 -0.2088 -0.0741
 6830SOL     OW32125   0.313   4.022   4.157  0.0233 -0.4651 -0.2013
 6830SOL    HW132126   0.231   4.047   4.199 -1.1933 -3.2886 -0.8746
 6830SOL    HW232127   0.313   4.073   4.076 -0.4148 -1.7366 -1.0069
 6831SOL     OW32128   0.703   1.236   8.896  0.2329  0.8587 -0.4377
 6831SOL    HW132129   0.722   1.324   8.865  0.5487  2.0859  3.2366
 6831SOL    HW232130   0.793   1.201   8.889 -0.6785 -1.9165  1.3542
 6832SOL     OW32131   3.935   3.909  17.030  0.5770 -0.4119 -0.2709
 6832SOL    HW132132   4.025   3.876  17.032  0.7306  0.0581  0.5406
 6832SOL    HW232133   3.891   3.841  17.080  0.8943  0.4953  1.2525
 6833SOL     OW32134   3.249   0.584  11.502 -0.0664  0.0367  0.7963
 6833SOL    HW132135   3.240   0.489  11.514 -2.0313  0.0238 -0.8167
 6833SOL    HW232136   3.329   0.603  11.551 -0.6526  2.1671  0.9179
 6834SOL     OW32137   3.776   2.032  11.912  0.2377  0.1381 -0.1451
 6834SOL    HW132138   3.719   2.099  11.949 -0.2513 -0.2625 -0.1709
 6834SOL    HW232139   3.728   1.951  11.926 -0.0853  0.1414 -1.1897
 6835SOL     OW32140   4.177   0.508   9.123  0.2330  0.7454 -0.2920
 6835SOL    HW132141   4.237   0.554   9.064  1.2867 -0.0373  0.1675
 6835SOL    HW232142   4.100   0.563   9.109  0.3826  1.0992  0.2580
 6836SOL     OW32143   4.012   0.482   3.708 -0.1567 -0.3789  0.0520
 6836SOL    HW132144   4.015   0.575   3.685 -0.7980 -0.2410  0.5509
 6836SOL    HW232145   4.104   0.456   3.702 -0.5548 -1.4783 -1.5131
 6837SOL     OW32146   0.656   1.494  12.914 -0.6519  0.0573 -0.5131
 6837SOL    HW132147   0.645   1.548  12.992 -0.3465  0.6011 -0.8490
 6837SOL    HW232148   0.563   1.481  12.896 -1.0083 -0.9749  1.9977
 6838SOL     OW32149   2.146   3.574   6.822 -0.6584  0.0369  0.4401
 6838SOL    HW132150   2.070   3.516   6.823 -0.5505 -0.0869  1.6342
 6838SOL    HW232151   2.164   3.572   6.916 -1.1103 -0.2928  0.5194
 6839SOL     OW32152   1.631   1.116   3.186  0.1220  0.8933  0.0701
 6839SOL    HW132153   1.568   1.049   3.157  0.1465  0.5574  0.8099
 6839SOL    HW232154   1.667   1.149   3.104  0.7199  1.3151  0.5054
 6840SOL     OW32155   2.910   4.420   4.707 -0.1075  0.3020 -0.2697
 6840SOL    HW132156   2.947   4.373   4.632 -0.1600  0.8527 -0.6381
 6840SOL    HW232157   2.978   4.486   4.723 -0.1472  0.2179  0.2551
 6841SOL     OW32158   4.042   1.722  12.057  0.3150 -0.0462  0.2747
 6841SOL    HW132159   4.119   1.779  12.057 -1.4755  2.3823  2.6715
 6841SOL    HW232160   3.977   1.776  12.012 -0.6116 -0.3444  1.2484
 6842SOL     OW32161   4.631   2.951  15.876  0.2265  0.1222 -0.3325
 6842SOL    HW132162   4.696   2.961  15.806  0.7713 -0.3093  0.1035
 6842SOL    HW232163   4.574   2.883  15.840  0.8118 -0.8595  0.5802
 6843SOL     OW32164   2.580   3.685   9.564 -0.2848 -0.0388  0.3282
 6843SOL    HW132165   2.556   3.763   9.514  3.3688 -0.1970 -1.6112
 6843SOL    HW232166   2.656   3.671   9.508 -0.0515  1.4760  0.2736
 6844SOL     OW32167   4.373   4.674  14.910  0.1505  0.4995  0.0278
 6844SOL    HW132168   4.434   4.645  14.842  3.3509  0.0648  3.0820
 6844SOL    HW232169   4.299   4.709  14.862 -0.3108  2.6583  2.2843
 6845SOL     OW32170   2.067   2.327   5.252 -0.2326  0.6167  0.1367
 6845SOL    HW132171   2.085   2.278   5.172 -1.6238 -0.9408  0.7658
 6845SOL    HW232172   2.079   2.420   5.231  0.4368  0.6099  0.4853
 6846SOL     OW32173   1.717   2.142   1.954  0.1122  0.4309 -0.0304
 6846SOL    HW132174   1.626   2.150   1.985 -0.7654  0.2049 -2.5287
 6846SOL    HW232175   1.771   2.166   2.029  0.2642 -1.2762  0.3876
 6847SOL     OW32176   0.817   3.114   6.587  0.2460 -0.0718 -0.6718
 6847SOL    HW132177   0.771   3.036   6.555 -1.9041  0.5856  0.7440
 6847SOL    HW232178   0.905   3.089   6.613 -0.2668 -1.2508 -0.0262
 6848SOL     OW32179   4.590   4.140   4.000 -0.3660 -0.3655 -0.1413
 6848SOL    HW132180   4.618   4.198   3.930 -1.0916  0.5068  0.3000
 6848SOL    HW232181   4.625   4.060   3.959 -1.4218 -1.1215  0.4518
 6849SOL     OW32182   4.209   4.056   4.963  0.1069  0.4199 -0.4633
 6849SOL    HW132183   4.159   3.996   4.908  0.9353  0.0055 -0.7657
 6849SOL    HW232184   4.189   4.030   5.053  1.6200  0.4307 -0.1178
 6850SOL     OW32185   1.321   4.649   5.640 -0.4752  0.0236 -0.0602
 6850SOL    HW132186   1.237   4.640   5.686 -0.8279  0.8248 -0.5442
 6850SOL    HW232187   1.378   4.689   5.706 -1.1655  2.5226 -0.9586
 6851SOL     OW32188   3.449   1.169  11.249 -0.1230 -0.4581  0.0579
 6851SOL    HW132189   3.408   1.083  11.250 -0.8211 -0.1509 -1.3160
 6851SOL    HW232190   3.501   1.152  11.170 -0.9849  2.3777 -1.1129
 6852SOL     OW32191   2.371   0.086   7.983  0.2937  0.0992 -0.5267
 6852SOL    HW132192   2.439   0.027   7.949  1.9125  1.8521 -0.3491
 6852SOL    HW232193   2.329   0.105   7.899 -2.1631 -0.7395  0.5147
 6853SOL     OW32194   2.987   0.472   4.890  0.0384 -0.6688 -0.0636
 6853SOL    HW132195   2.911   0.445   4.941  0.6013  0.3884  1.3299
 6853SOL    HW232196   2.958   0.443   4.803  2.4847  0.1225 -1.1680
 6854SOL     OW32197   0.173   2.231  10.595  0.0931  0.0339 -0.5722
 6854SOL    HW132198   0.267   2.244  10.586  0.3201 -1.0946  0.0658
 6854SOL    HW232199   0.153   2.158  10.536 -1.5371  1.4053 -1.7131
 6855SOL     OW32200   3.194   2.487  13.128 -0.0826 -0.7244 -0.5382
 6855SOL    HW132201   3.289   2.471  13.124  0.1814  0.6559  0.1043
 6855SOL    HW232202   3.193   2.568  13.076  2.4200 -0.3960 -0.0724
 6856SOL     OW32203   3.519   2.177   6.818  0.3178 -0.3392  0.2402
 6856SOL    HW132204   3.463   2.166   6.741  1.4496 -0.2481 -0.6034
 6856SOL    HW232205   3.454   2.188   6.887  1.4891 -0.7599  1.4015
 6857SOL     OW32206   1.310   3.553   7.849  0.2758 -0.2722 -0.3437
 6857SOL    HW132207   1.340   3.623   7.906 -0.8368  0.5697 -0.7941
 6857SOL    HW232208   1.280   3.610   7.778 -1.1914 -1.4212 -0.6453
 6858SOL     OW32209   4.083   0.231   6.445  0.6764  0.2947 -1.0704
 6858SOL    HW132210   3.991   0.216   6.467  0.7310 -1.3078 -1.9280
 6858SOL    HW232211   4.086   0.327   6.453  1.7491  0.2953 -1.4871
 6859SOL     OW32212   0.336   2.403   5.810  0.6570 -0.5486 -0.3576
 6859SOL    HW132213   0.352   2.324   5.758  0.9252  0.0855 -1.2305
 6859SOL    HW232214   0.411   2.401   5.869 -1.1286  3.6034  2.0479
 6860SOL     OW32215   3.793   0.741  11.349  0.2368 -0.3656 -0.1645
 6860SOL    HW132216   3.758   0.742  11.260 -0.0487 -0.9214 -0.0593
 6860SOL    HW232217   3.757   0.818  11.393  0.9699 -0.6869  0.9861
 6861SOL     OW32218   1.762   4.636   7.819  0.0541  0.3242 -0.1989
 6861SOL    HW132219   1.828   4.614   7.884  1.3652  1.0183 -1.2986
 6861SOL    HW232220   1.802   4.597   7.741  0.7655 -0.8456  0.7485
 6862SOL     OW32221   1.777   2.215   3.775  0.5989 -0.3472  0.5124
 6862SOL    HW132222   1.700   2.159   3.779 -0.4835  1.1112  0.1898
 6862SOL    HW232223   1.820   2.180   3.853  2.1298 -1.1180 -0.6716
 6863SOL     OW32224   0.216   1.478   4.302 -0.1641 -0.0182  0.1053
 6863SOL    HW132225   0.161   1.400   4.303  1.5897 -1.2707 -0.2813
 6863SOL    HW232226   0.301   1.436   4.316 -0.6484 -0.2553  2.2465
 6864SOL     OW32227   4.216   0.364   4.444  0.1330 -0.0107 -0.5275
 6864SOL    HW132228   4.258   0.446   4.421  0.8514 -0.5122 -0.9874
 6864SOL    HW232229   4.282   0.295   4.452 -0.7811 -0.9152 -0.8410
 6865SOL     OW32230   1.311   2.586  17.516  0.2928 -0.3539 -0.7685
 6865SOL    HW132231   1.233   2.640  17.506  2.1917  2.3359 -1.3505
 6865SOL    HW232232   1.356   2.593  17.431  0.5854  2.3226 -0.4171
 6866SOL     OW32233   1.839   2.212   5.347  0.1564  0.0833  0.5296
 6866SOL    HW132234   1.781   2.282   5.374 -0.2838 -0.1663  0.2369
 6866SOL    HW232235   1.920   2.255   5.322 -0.4469  1.2723  0.6386
 6867SOL     OW32236   4.115   4.111   6.202  0.0713  0.2245  0.8242
 6867SOL    HW132237   4.048   4.114   6.134  0.1012 -0.6210  0.7600
 6867SOL    HW232238   4.103   4.203   6.227  0.8140  0.8088 -0.9893
 6868SOL     OW32239   1.212   1.089  10.144  0.3266 -0.9150 -0.5219
 6868SOL    HW132240   1.152   1.090  10.069 -1.8949 -3.9647  1.1931
 6868SOL    HW232241   1.299   1.108  10.109  0.7484 -0.7726  0.6085
 6869SOL     OW32242   2.107   3.375   4.184 -0.5943 -0.4396 -0.2108
 6869SOL    HW132243   2.078   3.289   4.153  1.9751 -1.1125 -0.7026
 6869SOL    HW232244   2.033   3.436   4.174 -1.1515 -0.8843  1.1951
 6870SOL     OW32245   0.176   0.533  11.368  0.1711 -0.0017  0.2251
 6870SOL    HW132246   0.241   0.496  11.309 -1.5289 -1.5039 -0.6829
 6870SOL    HW232247   0.221   0.509  11.449  0.2506  1.4260  0.6174
 6871SOL     OW32248   1.704   1.807   6.938  0.6048 -0.3771 -0.6609
 6871SOL    HW132249   1.645   1.835   6.869  1.0710 -2.0480 -1.7295
 6871SOL    HW232250   1.675   1.718   6.958 -1.1926  0.7430  1.7857
 6872SOL     OW32251   0.093   2.252  16.752 -0.2858 -0.0637  0.2058
 6872SOL    HW132252   0.105   2.302  16.833  2.2137 -1.6841  0.8330
 6872SOL    HW232253   0.045   2.313  16.695 -1.1852 -0.2864  0.7364
 6873SOL     OW32254   1.573   3.774   0.191  0.6353  0.1927  0.5791
 6873SOL    HW132255   1.549   3.704   0.251  1.0191  0.7625  1.3984
 6873SOL    HW232256   1.505   3.762   0.124 -0.4067 -0.3050  1.7267
 6874SOL     OW32257   3.659   0.693  16.688 -0.5463 -0.3134  0.2982
 6874SOL    HW132258   3.721   0.764  16.708  0.7999 -1.3759 -0.1393
 6874SOL    HW232259   3.701   0.664  16.607  2.8722 -0.2326  2.0250
 6875SOL     OW32260   0.664   0.231  10.812 -0.7441 -0.0765 -0.0974
 6875SOL    HW132261   0.749   0.222  10.855 -0.8011  0.0723  0.0480
 6875SOL    HW232262   0.671   0.296  10.742 -0.7179 -1.0853 -1.0169
 6876SOL     OW32263   1.667   1.886   6.477 -0.1082 -0.3275 -0.1839
 6876SOL    HW132264   1.752   1.881   6.520  0.7182  0.5045 -1.7503
 6876SOL    HW232265   1.650   1.792   6.471 -0.0977 -0.2598 -1.2184
 6877SOL     OW32266   2.594   3.824   2.141  0.9808  0.0110  0.8759
 6877SOL    HW132267   2.531   3.851   2.074  2.1394  1.3160  0.2817
 6877SOL    HW232268   2.674   3.850   2.095  0.8271 -0.4657  0.3525
 6878SOL     OW32269   4.047   1.843   8.147  0.0735  0.3901  0.0077
 6878SOL    HW132270   3.997   1.782   8.201 -2.8622  0.4520 -2.6684
 6878SOL    HW232271   3.983   1.855   8.077  0.9075  2.0589 -0.4664
 6879SOL     OW32272   2.684   4.667  12.580 -0.2472 -0.2871 -0.4989
 6879SOL    HW132273   2.605   4.693  12.533 -0.9051 -1.1344  0.1295
 6879SOL    HW232274   2.733   4.610  12.521 -1.5509 -0.8087 -1.0642
 6880SOL     OW32275   2.208   2.956   5.305 -0.4998  0.4762  0.3032
 6880SOL    HW132276   2.136   2.903   5.268  1.7910 -2.8858  0.6751
 6880SOL    HW232277   2.272   2.887   5.322 -0.3374  0.8331  1.1279
 6881SOL     OW32278   1.483   2.522   7.904  0.4770 -0.1894  0.4720
 6881SOL    HW132279   1.435   2.461   7.960  3.3059 -2.2180  0.6951
 6881SOL    HW232280   1.488   2.477   7.820 -1.3712  0.8799 -0.2215
 6882SOL     OW32281   1.671   1.045   2.506 -0.7604 -0.2301  0.0452
 6882SOL    HW132282   1.742   0.987   2.532  0.7267  1.0476 -1.1807
 6882SOL    HW232283   1.686   1.121   2.562 -1.8321  0.9556 -1.2476
 6883SOL     OW32284   0.952   3.355   2.229  0.0655 -0.1497  0.4428
 6883SOL    HW132285   0.969   3.299   2.153  1.3448 -0.3798  0.9027
 6883SOL    HW232286   0.938   3.288   2.295  0.0453 -0.1969  0.3911
 6884SOL     OW32287   2.118   2.395   6.086  0.1213 -0.0738 -0.0674
 6884SOL    HW132288   2.108   2.489   6.097  0.8323  0.1045 -0.9089
 6884SOL    HW232289   2.028   2.371   6.063 -0.3074  1.1606  0.3631
 6885SOL     OW32290   1.648   1.478   3.515 -0.0811 -0.0615  0.6443
 6885SOL    HW132291   1.662   1.392   3.476 -0.4407 -0.2216  0.8607
 6885SOL    HW232292   1.590   1.465   3.590 -1.8001  1.7191 -0.3674
 6886SOL     OW32293   1.143   2.138   5.661 -0.5133  0.6352 -0.1838
 6886SOL    HW132294   1.156   2.207   5.726  1.4074 -1.4063  1.5779
 6886SOL    HW232295   1.093   2.174   5.587 -0.8074  0.6156  0.0056
 6887SOL     OW32296   0.024   4.369   2.260 -0.1988 -0.4455 -0.4798
 6887SOL    HW132297   4.666   4.373   2.246 -0.0353  0.4108 -1.3435
 6887SOL    HW232298   0.031   4.289   2.311  0.1934 -0.4954 -0.6059
 6888SOL     OW32299   0.018   2.215   5.620  0.4867 -0.4249 -0.1220
 6888SOL    HW132300   4.663   2.218   5.594  0.6194 -2.6090 -0.8452
 6888SOL    HW232301   0.023   2.124   5.650 -1.4261 -1.1557 -2.0342
 6889SOL     OW32302   0.234   1.775   4.962  0.6486 -0.4642  0.1718
 6889SOL    HW132303   0.178   1.846   4.932  1.6981  0.4444  0.3347
 6889SOL    HW232304   0.212   1.703   4.903 -1.2515  0.3271 -0.0601
 6890SOL     OW32305   3.107   2.161   4.757 -0.5180  0.1998  0.3015
 6890SOL    HW132306   3.051   2.161   4.680  0.1062  1.5451 -0.1714
 6890SOL    HW232307   3.178   2.107   4.723 -0.2944  0.4065  0.4360
 6891SOL     OW32308   2.286   4.348  16.127 -0.3650  0.1418 -0.6528
 6891SOL    HW132309   2.205   4.361  16.077 -1.0466  0.7029  0.6046
 6891SOL    HW232310   2.347   4.326  16.056  0.2220  2.5337 -0.8847
 6892SOL     OW32311   2.489   2.054   5.636 -0.2390 -0.1410 -0.9931
 6892SOL    HW132312   2.438   2.080   5.713 -1.5753  0.5615 -2.1110
 6892SOL    HW232313   2.426   2.005   5.582  0.0886  0.3825 -1.8579
 6893SOL     OW32314   2.450   0.647   6.357  0.1824  0.0475 -0.6371
 6893SOL    HW132315   2.355   0.650   6.368  0.3371 -0.9545  0.9007
 6893SOL    HW232316   2.481   0.594   6.430 -0.9282  0.9774  0.5180
 6894SOL     OW32317   1.413   2.264   7.728  0.4231 -0.4430 -0.7966
 6894SOL    HW132318   1.480   2.207   7.767  1.7308  0.9979 -0.9582
 6894SOL    HW232319   1.435   2.282   7.637 -1.6567  4.6489 -0.3001
 6895SOL     OW32320   0.250   4.418  14.499  0.1426 -0.1189  0.6064
 6895SOL    HW132321   0.320   4.464  14.547  2.0262 -1.5784 -0.7473
 6895SOL    HW232322   0.270   4.328  14.524 -2.5465 -1.4512 -2.1433
 6896SOL     OW32323   1.272   3.916   6.406 -0.0855 -0.2373  0.2744
 6896SOL    HW132324   1.258   4.011   6.412 -0.8162 -0.3001 -0.4555
 6896SOL    HW232325   1.183   3.881   6.415 -0.0711 -0.0816  1.0404
 6897SOL     OW32326   0.731   4.389   7.695  0.3202 -0.2509  0.2882
 6897SOL    HW132327   0.683   4.323   7.645 -0.8671  0.2557  0.7775
 6897SOL    HW232328   0.661   4.450   7.717 -0.4316 -1.0128  0.0186
 6898SOL     OW32329   3.305   2.810   8.602 -0.1064 -0.3889 -0.5221
 6898SOL    HW132330   3.262   2.892   8.625 -0.3349 -0.4200 -0.8366
 6898SOL    HW232331   3.365   2.842   8.534 -0.9937  1.1765 -0.5631
 6899SOL     OW32332   1.055   4.647   5.320 -0.0593 -0.0831  0.3687
 6899SOL    HW132333   1.120   4.582   5.349 -1.8944 -1.2988  1.8024
 6899SOL    HW232334   0.974   4.596   5.316  0.9871 -1.6833 -0.6441
 6900SOL     OW32335   0.120   2.549   2.538 -0.3930 -0.2918  0.1426
 6900SOL    HW132336   0.159   2.636   2.529  1.2892 -0.9550  0.9306
 6900SOL    HW232337   0.201   2.513   2.574  0.7721  1.8477 -0.3312
 6901SOL     OW32338   4.701   0.727  15.436 -0.1223  0.4114 -0.1354
 6901SOL    HW132339   4.622   0.739  15.382 -0.3944 -1.1724 -0.0803
 6901SOL    HW232340   4.690   0.803  15.493 -2.6602 -0.8489  1.0261
 6902SOL     OW32341   1.130   1.405  13.573 -0.1996  0.2112  0.3274
 6902SOL    HW132342   1.062   1.458  13.614 -2.2949 -0.2854 -2.4997
 6902SOL    HW232343   1.191   1.398  13.647  1.0454  1.1681 -0.6084
 6903SOL     OW32344   1.605   3.127   0.512 -0.6764 -0.5102  0.6939
 6903SOL    HW132345   1.541   3.164   0.572 -1.1478 -0.5330  0.2023
 6903SOL    HW232346   1.576   3.036   0.512  0.6882 -0.9542  1.2125
 6904SOL     OW32347   3.996   1.443   2.212  0.1474  0.1212 -0.2415
 6904SOL    HW132348   3.964   1.399   2.291 -0.4907 -1.8820 -1.5964
 6904SOL    HW232349   3.917   1.482   2.176  0.6080  0.6921 -0.6312
 6905SOL     OW32350   4.316   2.812   1.051 -0.5590  0.0269 -0.5896
 6905SOL    HW132351   4.246   2.797   0.989 -0.1703 -0.7278 -0.8376
 6905SOL    HW232352   4.281   2.784   1.136 -2.0543  1.9809 -0.5589
 6906SOL     OW32353   0.143   0.847   3.235  0.1398 -0.2941  0.1905
 6906SOL    HW132354   0.187   0.768   3.205 -2.3658 -1.5906 -0.0709
 6906SOL    HW232355   0.058   0.804   3.248  0.4216 -1.6149 -2.3042
 6907SOL     OW32356   3.341   1.884   1.070 -0.5751 -0.4654 -0.7154
 6907SOL    HW132357   3.330   1.804   1.121  3.0882  0.8848  2.2556
 6907SOL    HW232358   3.295   1.858   0.991 -0.1562 -2.4983 -0.2976
 6908SOL     OW32359   1.705   3.426   6.817  0.6675 -0.1857 -0.6469
 6908SOL    HW132360   1.664   3.383   6.892  0.6021  2.8810  1.1029
 6908SOL    HW232361   1.655   3.506   6.801 -1.0995 -1.4912 -1.7106
 6909SOL     OW32362   3.761   2.894   2.189  0.7243 -0.4864  0.3063
 6909SOL    HW132363   3.745   2.891   2.094 -1.5093  1.9860  0.6144
 6909SOL    HW232364   3.850   2.926   2.178  0.5021 -0.6012 -1.9281
 6910SOL     OW32365   2.730   1.142   4.192 -0.4973  0.3863 -0.0439
 6910SOL    HW132366   2.768   1.229   4.204  1.7683 -0.9943  3.1171
 6910SOL    HW232367   2.713   1.133   4.098  2.3391  0.9082 -0.6315
 6911SOL     OW32368   1.458   2.454   9.602 -0.7781  0.0231  0.3218
 6911SOL    HW132369   1.488   2.369   9.570 -0.8823 -0.0161  0.3302
 6911SOL    HW232370   1.531   2.483   9.658  0.0125 -2.4033  0.5331
 6912SOL     OW32371   4.262   3.794   8.534 -0.0830  0.1947  0.5798
 6912SOL    HW132372   4.245   3.857   8.464  3.0745  0.7675  0.3348
 6912SOL    HW232373   4.303   3.724   8.483 -0.4642  0.7691 -0.5082
 6913SOL     OW32374   0.517   0.149  15.251 -0.8205 -0.4394  0.1379
 6913SOL    HW132375   0.493   0.195  15.331 -0.1601 -0.9341  0.6239
 6913SOL    HW232376   0.548   0.066  15.289 -0.0674 -0.8036 -1.2698
 6914SOL     OW32377   3.936   4.424   2.951 -0.5725 -0.3068  0.5710
 6914SOL    HW132378   3.938   4.496   2.887  1.9032 -0.3215  0.6159
 6914SOL    HW232379   4.022   4.382   2.945 -1.4907 -2.3769  2.2362
 6915SOL     OW32380   3.696   0.222   8.464  0.4348 -0.1780 -0.1757
 6915SOL    HW132381   3.661   0.182   8.543  1.8153 -0.0036  0.5350
 6915SOL    HW232382   3.753   0.285   8.508 -0.1701 -1.4201  2.3604
 6916SOL     OW32383   2.986   3.026   8.674  0.3909 -0.1514  0.2707
 6916SOL    HW132384   2.914   3.032   8.736  1.2507  0.0339  1.2487
 6916SOL    HW232385   2.938   3.060   8.598  0.5500 -1.9048 -0.6100
 6917SOL     OW32386   2.532   3.093   4.514  0.7730  0.8020 -0.3186
 6917SOL    HW132387   2.598   3.031   4.484 -1.7513 -0.5565 -3.1361
 6917SOL    HW232388   2.589   3.167   4.535  0.5262  0.8077  0.3238
 6918SOL     OW32389   2.109   2.352   2.966 -0.1542 -0.1028  0.2940
 6918SOL    HW132390   2.199   2.325   2.945  0.4283  1.1926  1.0996
 6918SOL    HW232391   2.078   2.289   3.031  0.8628  0.2631  1.1476
 6919SOL     OW32392   1.277   3.143  13.707 -0.2807 -0.2088  0.2912
 6919SOL    HW132393   1.305   3.228  13.672  1.8098 -0.7353  0.6626
 6919SOL    HW232394   1.192   3.172  13.740 -0.2636  2.0488 -1.6079
 6920SOL     OW32395   2.032   0.657   1.413  0.1052 -0.1618  0.0230
 6920SOL    HW132396   1.969   0.645   1.484 -0.9192 -0.1026 -0.8778
 6920SOL    HW232397   2.051   0.750   1.400 -2.6669  0.9899  4.2316
 6921SOL     OW32398   1.856   3.816   3.257  0.5819  0.2316 -0.2772
 6921SOL    HW132399   1.860   3.755   3.183 -0.4717  2.1990 -1.9499
 6921SOL    HW232400   1.918   3.767   3.311 -0.9882 -1.1349  0.2868
 6922SOL     OW32401   0.014   3.837   3.471  0.1629  0.4126 -0.3178
 6922SOL    HW132402   0.086   3.871   3.524 -0.6876 -0.2710  1.2695
 6922SOL    HW232403   4.679   3.836   3.535  0.7079  0.9256  0.2993
 6923SOL     OW32404   3.254   4.336   5.288 -0.4877  0.1016 -0.1278
 6923SOL    HW132405   3.259   4.275   5.215 -0.5475 -0.9040  0.7040
 6923SOL    HW232406   3.346   4.356   5.309 -0.7260  1.3166 -0.1938
 6924SOL     OW32407   0.423   1.914   7.589 -0.2678  0.6306  0.2841
 6924SOL    HW132408   0.479   1.850   7.633  0.9271  1.3717 -0.1364
 6924SOL    HW232409   0.338   1.874   7.603 -0.7658  1.9997  1.1431
 6925SOL     OW32410   2.630   1.547   7.920  0.0662 -0.2404 -0.7439
 6925SOL    HW132411   2.680   1.466   7.924 -0.5273 -0.5643  0.0793
 6925SOL    HW232412   2.543   1.509   7.906  0.0520 -0.7078  0.6143
 6926SOL     OW32413   0.404   4.223   9.314 -0.3153 -0.1776  0.1369
 6926SOL    HW132414   0.335   4.168   9.352 -2.7371  0.6019 -3.1063
 6926SOL    HW232415   0.473   4.207   9.378 -0.7225  3.3672  1.4254
 6927SOL     OW32416   1.727   4.579   4.900 -0.1792 -0.1206  0.0341
 6927SOL    HW132417   1.780   4.610   4.827  2.6685 -0.7847  1.8216
 6927SOL    HW232418   1.667   4.647   4.929 -1.0795 -0.5579 -0.7879
 6928SOL     OW32419   0.155   3.936   2.902  0.1624 -0.8375  0.3689
 6928SOL    HW132420   0.215   4.009   2.884  0.4756 -1.4341 -0.9619
 6928SOL    HW232421   0.222   3.893   2.956  2.5840  1.2871 -0.9538
 6929SOL     OW32422   1.961   3.778   4.322  0.3488  0.1346  0.2242
 6929SOL    HW132423   1.952   3.856   4.377 -0.3583 -0.7630  1.3992
 6929SOL    HW232424   2.051   3.794   4.294 -0.1842 -0.2375 -1.6711
 6930SOL     OW32425   1.464   0.129   0.073 -0.1653  0.5517  0.5092
 6930SOL    HW132426   1.470   0.034   0.084 -0.9732  0.1629 -2.5186
 6930SOL    HW232427   1.558   0.149   0.070 -0.2124  0.6463 -0.4086
 6931SOL     OW32428   1.074   1.823  16.517  0.0116 -0.1859  0.4673
 6931SOL    HW132429   1.085   1.833  16.422 -0.6178 -2.0923  0.1977
 6931SOL    HW232430   1.044   1.732  16.526 -0.0850 -0.1676  0.3356
 6932SOL     OW32431   2.454   3.661   7.686  0.0423  0.0654  0.1429
 6932SOL    HW132432   2.507   3.716   7.743 -0.6169  0.5144  0.3308
 6932SOL    HW232433   2.383   3.721   7.662 -2.4617 -3.2425 -0.6462
 6933SOL     OW32434   2.843   3.667   6.406  0.9116  0.3805 -0.1189
 6933SOL    HW132435   2.797   3.736   6.454  1.1192  0.7495 -0.4597
 6933SOL    HW232436   2.829   3.700   6.317 -0.4913 -1.5138 -0.6068
 6934SOL     OW32437   1.594   3.861   5.860 -0.5287 -0.6234  0.5628
 6934SOL    HW132438   1.672   3.874   5.913  2.6629 -0.4660 -4.1921
 6934SOL    HW232439   1.534   3.912   5.916  2.2873  0.7393  2.3090
 6935SOL     OW32440   3.385   4.407   5.700 -0.2759  0.7789  0.6360
 6935SOL    HW132441   3.446   4.433   5.631  1.0870 -1.7303  0.9011
 6935SOL    HW232442   3.397   4.312   5.707 -2.9147  0.6752  3.6882
 6936SOL     OW32443   0.048   0.907   3.599 -0.3565  0.1004  0.7412
 6936SOL    HW132444   4.722   0.835   3.591  0.4804 -0.8388  2.8037
 6936SOL    HW232445   0.128   0.866   3.632  0.0552  0.0319 -0.3588
 6937SOL     OW32446   0.287   2.148   7.514 -0.2070  0.2452 -0.5300
 6937SOL    HW132447   0.326   2.224   7.471 -3.0711  2.6658  1.1642
 6937SOL    HW232448   0.356   2.084   7.495 -1.2530 -0.8683 -0.5994
 6938SOL     OW32449   3.670   0.989   8.420  0.1554 -0.6619 -0.2846
 6938SOL    HW132450   3.579   1.017   8.427 -0.0348 -1.4288  0.2768
 6938SOL    HW232451   3.718   1.070   8.440  1.2193 -1.2500 -0.5014
 6939SOL     OW32452   2.162   0.249   9.028 -0.1157 -0.0038  0.5923
 6939SOL    HW132453   2.105   0.173   9.038 -0.9577  0.6153  0.4110
 6939SOL    HW232454   2.193   0.217   8.943  0.0367  1.7215 -0.0137
 6940SOL     OW32455   0.756   2.249   8.656 -0.1147 -0.1853  0.3338
 6940SOL    HW132456   0.801   2.333   8.656  0.3011 -0.3942  2.4541
 6940SOL    HW232457   0.671   2.266   8.617 -1.4996  1.5049  4.0464
 6941SOL     OW32458   1.780   2.519   2.463 -0.1831 -0.0350 -0.2516
 6941SOL    HW132459   1.756   2.429   2.483  0.2572  0.6661  3.2712
 6941SOL    HW232460   1.697   2.544   2.421 -0.2747  1.3119  0.7242
 6942SOL     OW32461   1.135   1.739   6.195 -0.6842  0.0906 -0.4647
 6942SOL    HW132462   1.051   1.722   6.151 -1.9844  1.1088  1.6433
 6942SOL    HW232463   1.194   1.779   6.131 -1.1192 -2.1155 -2.2702
 6943SOL     OW32464   0.162   3.524  16.982  0.5821  0.6641 -0.0077
 6943SOL    HW132465   0.157   3.436  16.947  1.5582 -0.1651  1.8796
 6943SOL    HW232466   0.248   3.565  16.968  0.2461  2.4347  2.9689
 6944SOL     OW32467   2.182   3.996   8.106 -0.4300  0.0618 -0.0971
 6944SOL    HW132468   2.277   3.982   8.109 -0.1695  1.7083 -0.7780
 6944SOL    HW232469   2.140   3.927   8.054 -0.0772 -0.0961 -0.1699
 6945SOL     OW32470   3.043   2.151   4.498 -0.2896  0.2619  0.2375
 6945SOL    HW132471   2.961   2.119   4.459 -0.4606  0.6036  0.3170
 6945SOL    HW232472   3.101   2.133   4.424 -1.9642 -0.7003 -0.8381
 6946SOL     OW32473   3.723   0.852   6.275  0.3543  0.2485  0.5663
 6946SOL    HW132474   3.817   0.871   6.274  1.1325 -3.6660 -1.5198
 6946SOL    HW232475   3.687   0.910   6.342 -1.3617  0.8851 -0.8821
 6947SOL     OW32476   2.665   0.464   5.827  0.7350 -0.2855 -0.3454
 6947SOL    HW132477   2.595   0.445   5.765 -1.4386 -0.6264  2.2095
 6947SOL    HW232478   2.663   0.376   5.865  0.0167 -0.4558 -0.7623
 6948SOL     OW32479   3.730   2.552  15.486 -0.0736 -0.1730  0.4005
 6948SOL    HW132480   3.729   2.639  15.526  3.1523 -0.0945  0.3369
 6948SOL    HW232481   3.695   2.574  15.399 -1.0218 -1.2276  0.5174
 6949SOL     OW32482   2.137   4.501  11.515 -0.2711  0.3540 -0.0018
 6949SOL    HW132483   2.050   4.464  11.496 -1.2158  1.6555  1.7862
 6949SOL    HW232484   2.133   4.516  11.610 -2.2610 -0.6772  0.0862
 6950SOL     OW32485   4.489   1.186   5.598  0.3966 -0.4484  0.0083
 6950SOL    HW132486   4.533   1.253   5.650  1.5946  0.4915 -2.2143
 6950SOL    HW232487   4.435   1.232   5.533 -1.5663  0.2259  2.0923
 6951SOL     OW32488   2.158   1.037  14.209  0.7528 -0.2751  0.5894
 6951SOL    HW132489   2.198   0.957  14.243 -0.8721 -0.6672  1.5674
 6951SOL    HW232490   2.079   1.001  14.169 -0.1282  0.4511  1.6865
 6952SOL     OW32491   1.623   0.547   2.378 -0.6890 -0.4955 -0.2742
 6952SOL    HW132492   1.592   0.606   2.309 -1.8364 -0.1574  0.5262
 6952SOL    HW232493   1.625   0.466   2.328  0.9708 -0.0321 -0.9552
 6953SOL     OW32494   1.740   1.145   6.567 -0.3065  0.4276  0.1238
 6953SOL    HW132495   1.764   1.106   6.651  0.6268  0.8730  0.0668
 6953SOL    HW232496   1.664   1.094   6.539 -2.0398  2.5626  0.9566
 6954SOL     OW32497   2.128   0.468   8.606  0.8684 -0.1263 -0.1575
 6954SOL    HW132498   2.108   0.558   8.578  1.5308  0.7354  2.0768
 6954SOL    HW232499   2.085   0.425   8.533 -0.2479 -0.6043  0.7886
 6955SOL     OW32500   1.669   1.802   2.296 -0.1999 -0.2355  0.1102
 6955SOL    HW132501   1.679   1.735   2.364  0.6943 -0.9931 -0.7661
 6955SOL    HW232502   1.731   1.768   2.231  0.0232  1.6307 -0.6447
 6956SOL     OW32503   1.947   1.316   3.553  0.7055  0.3992  0.4139
 6956SOL    HW132504   1.905   1.245   3.601  0.7590 -0.0724 -0.2364
 6956SOL    HW232505   1.904   1.308   3.467 -0.0448 -0.6055  0.8879
 6957SOL     OW32506   3.370   0.766   5.017  0.0822  0.6489 -0.0939
 6957SOL    HW132507   3.449   0.714   5.030 -1.0217 -0.2633  2.8225
 6957SOL    HW232508   3.316   0.736   5.090  1.4841  0.9614  1.0657
 6958SOL     OW32509   3.883   3.361   3.404  0.0048  0.1978 -0.0493
 6958SOL    HW132510   3.844   3.282   3.440  1.1193 -0.9988 -1.4911
 6958SOL    HW232511   3.927   3.404   3.478  0.4265  0.5747 -0.5163
 6959SOL     OW32512   2.558   2.236  11.525  0.2678 -0.0507 -0.0437
 6959SOL    HW132513   2.463   2.243  11.528  0.3506  0.8195  0.4052
 6959SOL    HW232514   2.578   2.193  11.442 -0.2633 -0.0949 -0.1448
 6960SOL     OW32515   0.649   1.189   4.456 -0.2518  0.6720  0.1953
 6960SOL    HW132516   0.723   1.160   4.509 -0.0463 -1.7175 -1.4070
 6960SOL    HW232517   0.691   1.163   4.373 -2.6541 -1.1156 -0.4449
 6961SOL     OW32518   3.032   2.065   7.286  0.1249 -1.0355  0.6743
 6961SOL    HW132519   3.062   1.975   7.278 -2.7112 -1.8637 -0.3968
 6961SOL    HW232520   3.035   2.069   7.381 -0.0256  0.3135  0.6308
 6962SOL     OW32521   0.532   0.777  11.106 -0.2463  0.4714  0.3752
 6962SOL    HW132522   0.515   0.849  11.166  2.3057  2.1491 -0.9040
 6962SOL    HW232523   0.527   0.692  11.150 -0.3168 -0.3670 -1.2395
 6963SOL     OW32524   0.544   3.636   7.444 -0.5216  0.3770  0.8018
 6963SOL    HW132525   0.628   3.600   7.473  0.9013  2.5777 -0.5665
 6963SOL    HW232526   0.548   3.634   7.348 -0.3279 -2.0661  0.8825
 6964SOL     OW32527   3.234   4.026   3.473  0.2325 -0.1317 -0.1571
 6964SOL    HW132528   3.172   4.040   3.545  0.5132  0.1008  0.0395
 6964SOL    HW232529   3.179   4.012   3.396 -0.7703  0.8048  0.3898
 6965SOL     OW32530   0.070   4.242   4.466 -0.4330 -0.0930 -0.6897
 6965SOL    HW132531   4.726   4.282   4.434 -2.0368 -1.1367  2.0039
 6965SOL    HW232532   0.070   4.162   4.414  0.3422 -1.0464  0.7530
 6966SOL     OW32533   0.700   2.998  15.550  0.4011 -0.2694  0.4020
 6966SOL    HW132534   0.725   2.911  15.581  1.7748 -0.0770 -0.1963
 6966SOL    HW232535   0.784   3.043  15.561 -0.7246  1.4385  2.1379
 6967SOL     OW32536   2.777   0.644   4.213  0.8084  0.1084 -0.1645
 6967SOL    HW132537   2.727   0.574   4.170  0.0846  0.6320 -0.1750
 6967SOL    HW232538   2.833   0.684   4.146  0.6191  2.1592  0.9016
 6968SOL     OW32539   0.848   3.954   7.368 -0.1646 -0.7188 -0.1863
 6968SOL    HW132540   0.913   3.990   7.308 -0.3659 -0.2289 -0.1050
 6968SOL    HW232541   0.787   3.914   7.305 -1.0153 -0.3726  0.4153
 6969SOL     OW32542   3.995   3.114  12.496 -0.5880 -0.0998  0.4160
 6969SOL    HW132543   3.951   3.068  12.423  0.8484 -1.8299  0.6389
 6969SOL    HW232544   3.952   3.078  12.574  0.9961 -2.7597  0.0835
 6970SOL     OW32545   1.305   2.088  13.082  0.1572 -0.3061 -0.0754
 6970SOL    HW132546   1.232   2.050  13.130  0.9970 -1.4174  0.3305
 6970SOL    HW232547   1.263   2.147  13.019  2.9928 -0.3947 -2.0482
 6971SOL     OW32548   2.440   2.613   6.416  0.8492  0.3328 -0.3004
 6971SOL    HW132549   2.399   2.533   6.451  0.3890  0.9980  0.6821
 6971SOL    HW232550   2.533   2.610   6.437  0.9999 -1.1210 -1.1275
 6972SOL     OW32551   1.254   2.853   3.687  0.6270 -0.4937 -0.1629
 6972SOL    HW132552   1.274   2.819   3.774 -1.6761  1.4171  1.0866
 6972SOL    HW232553   1.262   2.946   3.706 -1.4889 -0.4049  0.3235
 6973SOL     OW32554   0.698   2.385   5.541 -0.2440  0.0454 -0.5674
 6973SOL    HW132555   0.684   2.470   5.582  2.1408 -0.1299  0.5971
 6973SOL    HW232556   0.680   2.414   5.451  1.3502 -1.4286 -1.3805
 6974SOL     OW32557   2.859   0.702   9.654 -0.0033  0.8615  0.5467
 6974SOL    HW132558   2.770   0.729   9.678 -0.4478  0.5151 -0.6831
 6974SOL    HW232559   2.901   0.736   9.732  0.1509  1.9758 -0.0276
 6975SOL     OW32560   2.889   2.138  12.754 -0.1760 -0.1255  0.1778
 6975SOL    HW132561   2.898   2.228  12.785 -1.3859 -0.4103  1.3386
 6975SOL    HW232562   2.800   2.112  12.777  0.5555 -2.8208 -0.0288
 6976SOL     OW32563   3.390   1.159   2.144 -0.6181 -0.1674 -0.3453
 6976SOL    HW132564   3.347   1.116   2.218  4.1246 -2.6452  0.9512
 6976SOL    HW232565   3.325   1.227   2.128 -0.8925 -0.4613 -0.4892
 6977SOL     OW32566   2.629   4.424  11.334  0.3642 -0.0445 -0.2468
 6977SOL    HW132567   2.721   4.404  11.318  0.3654  0.8677 -1.3855
 6977SOL    HW232568   2.632   4.473  11.416  0.0076 -0.2400 -0.1188
 6978SOL     OW32569   1.803   0.324  11.672  0.2261 -0.3174  0.0052
 6978SOL    HW132570   1.887   0.296  11.636  0.3855 -1.3276  1.1684
 6978SOL    HW232571   1.755   0.348  11.592 -2.1034  0.8385  1.7634
 6979SOL     OW32572   2.721   3.173   6.937  0.8640 -0.3691  0.7338
 6979SOL    HW132573   2.707   3.120   7.016  1.4878 -0.2984  0.8902
 6979SOL    HW232574   2.742   3.108   6.870 -0.2165  1.1762 -1.0813
 6980SOL     OW32575   4.086   2.438   6.046  0.4254 -0.8134  0.5018
 6980SOL    HW132576   4.100   2.512   6.104 -1.1213 -0.0955 -0.0457
 6980SOL    HW232577   4.166   2.386   6.052  1.1134  0.1266 -0.5102
 6981SOL     OW32578   2.409   1.601   6.119 -0.2114  0.5884  0.1335
 6981SOL    HW132579   2.328   1.619   6.167  0.7378  1.1424  1.5405
 6981SOL    HW232580   2.399   1.505   6.123  1.0904  0.3987 -1.3327
 6982SOL     OW32581   2.523   1.310   7.622 -0.4720  0.1683  0.5901
 6982SOL    HW132582   2.544   1.230   7.574 -0.1962 -0.3180  1.5174
 6982SOL    HW232583   2.429   1.297   7.634 -0.4680  0.2298  0.6897
 6983SOL     OW32584   1.131   3.417   5.407 -0.1067 -0.1254 -0.8090
 6983SOL    HW132585   1.129   3.458   5.494  0.3189 -0.6094 -0.5780
 6983SOL    HW232586   1.042   3.381   5.409  0.3073 -1.1558 -1.6056
 6984SOL     OW32587   2.418   1.497   5.541  0.0459 -0.5102  0.2627
 6984SOL    HW132588   2.340   1.447   5.564  0.0464 -0.8829 -0.5312
 6984SOL    HW232589   2.467   1.506   5.623  1.3590  0.1810 -0.5967
 6985SOL     OW32590   1.176   0.734   9.080 -0.3961  0.0528  0.1441
 6985SOL    HW132591   1.178   0.639   9.084  0.8786  0.0533 -0.8994
 6985SOL    HW232592   1.254   0.753   9.133 -1.6183  1.4351  1.4770
 6986SOL     OW32593   0.659   1.745   8.154  0.0301 -0.2794 -0.9915
 6986SOL    HW132594   0.564   1.743   8.139 -0.7175 -0.9985  3.9874
 6986SOL    HW232595   0.656   1.686   8.229 -1.5363  1.7811  0.6143
 6987SOL     OW32596   1.392   1.692   7.684  0.3907  0.4547 -0.1268
 6987SOL    HW132597   1.417   1.601   7.670 -2.1389 -0.4442  1.1147
 6987SOL    HW232598   1.323   1.684   7.751  0.4829 -0.9260 -0.2078
 6988SOL     OW32599   3.657   3.638   7.292 -0.0984 -0.1966  0.0019
 6988SOL    HW132600   3.602   3.630   7.370 -1.7695  2.5370 -0.9157
 6988SOL    HW232601   3.746   3.646   7.326  0.2861 -0.5527 -0.9140
 6989SOL     OW32602   3.018   4.132  16.742  0.2422  0.2140  0.4123
 6989SOL    HW132603   2.955   4.204  16.751 -0.4233 -0.2551 -0.5423
 6989SOL    HW232604   3.100   4.180  16.752  1.5604 -1.3496 -2.7985
 6990SOL     OW32605   2.321   3.962   7.384 -0.7179 -0.0616 -0.4221
 6990SOL    HW132606   2.379   4.034   7.409 -1.2826  0.4644 -0.6132
 6990SOL    HW232607   2.262   3.952   7.458 -0.5372 -0.4009 -0.3281
 6991SOL     OW32608   0.965   0.839   2.017  0.0325  0.3025 -0.1471
 6991SOL    HW132609   1.022   0.824   2.092  1.8080  0.4089 -1.4866
 6991SOL    HW232610   0.929   0.922   2.048 -2.4809 -1.1059  0.7355
 6992SOL     OW32611   0.646   2.533   5.996  0.4225  0.1064  0.0620
 6992SOL    HW132612   0.627   2.602   5.932  0.9260  1.9951  1.9757
 6992SOL    HW232613   0.725   2.490   5.962  0.8555 -1.5700  3.1411
 6993SOL     OW32614   4.117   0.676  13.444  0.5023  0.4639  0.0253
 6993SOL    HW132615   4.078   0.763  13.442  1.0300  0.6238 -2.5733
 6993SOL    HW232616   4.209   0.690  13.420  0.8242  2.3897  2.3401
 6994SOL     OW32617   0.143   1.119   4.564 -0.2066  0.7673 -0.0856
 6994SOL    HW132618   0.209   1.112   4.632 -1.8557 -2.8753  1.1315
 6994SOL    HW232619   0.098   1.201   4.583 -0.9618 -0.3878  3.0335
 6995SOL     OW32620   2.405   3.052  14.266  0.9561  0.3496 -0.3349
 6995SOL    HW132621   2.380   3.118  14.330 -1.9528 -0.3618 -0.7210
 6995SOL    HW232622   2.498   3.037  14.285  0.2371 -1.1621  1.9436
 6996SOL     OW32623   3.149   4.596   0.234 -0.1785  0.0421  0.6066
 6996SOL    HW132624   3.167   4.688   0.255 -0.9043  0.4609 -0.6011
 6996SOL    HW232625   3.205   4.582   0.158 -2.5591  1.4451 -1.4030
 6997SOL     OW32626   1.648   2.254   1.656  0.4237  0.6180  0.1267
 6997SOL    HW132627   1.708   2.229   1.726  0.1150  0.1197  0.2127
 6997SOL    HW232628   1.670   2.192   1.586 -0.4471 -0.4016  0.7563
 6998SOL     OW32629   2.537   0.482   4.221  0.5020 -0.4776  0.1773
 6998SOL    HW132630   2.490   0.539   4.160  2.2353 -0.2148 -0.9155
 6998SOL    HW232631   2.489   0.505   4.300 -0.8090  0.1592 -0.7880
 6999SOL     OW32632   3.934   0.182   3.584 -0.1578 -0.2120 -0.0732
 6999SOL    HW132633   3.997   0.115   3.558  0.6431 -1.1172  4.2018
 6999SOL    HW232634   3.991   0.249   3.621  0.4326  0.5908 -2.4546
 7000SOL     OW32635   2.670   0.557   8.311  0.2799  0.2678  0.1634
 7000SOL    HW132636   2.588   0.589   8.348 -1.4268  0.1273 -3.5560
 7000SOL    HW232637   2.723   0.634   8.332  1.5311 -0.5561  0.0165
 7001SOL     OW32638   4.482   2.470  14.031 -0.4056 -0.5466  0.1442
 7001SOL    HW132639   4.468   2.542  13.970 -1.7284 -0.5829  0.4124
 7001SOL    HW232640   4.401   2.453  14.080 -2.2352  2.3699 -1.8498
 7002SOL     OW32641   0.680   1.865   9.800  0.2559 -0.1785 -0.6253
 7002SOL    HW132642   0.657   1.862   9.893  1.6219  0.6938 -0.2627
 7002SOL    HW232643   0.755   1.925   9.805 -0.1613  0.3625 -0.9733
 7003SOL     OW32644   1.599   3.288   5.518 -0.3502 -0.0334  0.3092
 7003SOL    HW132645   1.605   3.200   5.482 -1.5454 -0.3814  0.9495
 7003SOL    HW232646   1.546   3.272   5.597 -0.1008  2.6907  1.0454
 7004SOL     OW32647   0.582   3.081   8.350 -0.4293  0.3680  0.1452
 7004SOL    HW132648   0.494   3.114   8.366 -1.4339 -1.8886 -0.7587
 7004SOL    HW232649   0.561   3.014   8.285 -0.6606 -0.1117  0.7182
 7005SOL     OW32650   1.696   2.423   5.453 -0.4622  0.0623 -0.3039
 7005SOL    HW132651   1.680   2.498   5.511  1.4614 -1.4536  2.1790
 7005SOL    HW232652   1.612   2.408   5.408 -0.9304  0.6251  0.3771
 7006SOL     OW32653   1.086   0.215  10.327 -0.1868  0.3231  0.0927
 7006SOL    HW132654   1.152   0.264  10.278 -1.3714  0.7439 -1.0816
 7006SOL    HW232655   1.147   0.161  10.377 -0.7575  0.8134  1.3252
 7007SOL     OW32656   1.420   4.630   5.016  0.1125 -0.2447  0.0272
 7007SOL    HW132657   1.382   4.565   4.956  0.6397  0.2835 -0.8729
 7007SOL    HW232658   1.422   4.577   5.095 -1.1371 -0.0623  0.1724
 7008SOL     OW32659   2.768   0.181   3.535  0.4757 -0.6844  0.0273
 7008SOL    HW132660   2.695   0.216   3.587 -0.5731 -3.2621  0.2824
 7008SOL    HW232661   2.751   0.087   3.524 -1.0725 -0.4021 -0.0484
 7009SOL     OW32662   3.162   1.656  15.885 -0.0824 -0.2312  0.5614
 7009SOL    HW132663   3.183   1.585  15.825 -2.2653  0.0764 -0.5669
 7009SOL    HW232664   3.229   1.720  15.863  1.2370 -1.6899  0.4000
 7010SOL     OW32665   0.767   1.317   7.838 -0.0657  0.5659 -0.2666
 7010SOL    HW132666   0.734   1.286   7.923  1.4062 -2.1060 -0.6559
 7010SOL    HW232667   0.851   1.351   7.866  0.4491  0.6772 -1.9497
 7011SOL     OW32668   4.201   4.484   6.042  0.2255  0.6044  0.3957
 7011SOL    HW132669   4.176   4.437   6.122  1.9185  1.2635  1.2932
 7011SOL    HW232670   4.261   4.546   6.081  0.8037 -0.8416  1.8022
 7012SOL     OW32671   4.634   1.116   8.638 -0.5951  0.3145 -0.4172
 7012SOL    HW132672   4.597   1.184   8.694 -1.2626  0.6776 -1.2980
 7012SOL    HW232673   4.702   1.163   8.589  0.8065 -1.6697 -0.3753
 7013SOL     OW32674   2.357   1.912  13.990  0.9731  0.5676 -0.3009
 7013SOL    HW132675   2.435   1.858  14.005 -0.5703 -1.7039 -0.5120
 7013SOL    HW232676   2.318   1.899  14.077  1.9571 -2.0587 -0.2494
 7014SOL     OW32677   0.107   2.106   7.720 -0.5404 -0.2089  0.3173
 7014SOL    HW132678   0.173   2.132   7.656 -0.1705 -0.3649  0.6332
 7014SOL    HW232679   0.116   2.011   7.719  1.8365  0.0332 -1.1838
 7015SOL     OW32680   0.269   2.825   9.145  0.1612  0.8911 -0.8883
 7015SOL    HW132681   0.283   2.920   9.133 -0.3774  0.6335 -3.6400
 7015SOL    HW232682   0.202   2.814   9.212  0.5619 -1.6381 -0.9259
 7016SOL     OW32683   1.177   2.825   6.233 -0.1333 -0.8607  0.0244
 7016SOL    HW132684   1.112   2.756   6.221 -1.3995 -0.0295  2.2051
 7016SOL    HW232685   1.130   2.880   6.295  1.0627  1.0719 -0.7515
 7017SOL     OW32686   3.460   4.114  11.616 -0.6010 -0.4939 -0.2802
 7017SOL    HW132687   3.399   4.174  11.573 -1.6881 -1.4116 -0.0191
 7017SOL    HW232688   3.513   4.088  11.541  0.1375 -1.8875  0.7444
 7018SOL     OW32689   3.134   3.070   8.950  0.3214  0.1869 -0.2545
 7018SOL    HW132690   3.064   3.135   8.959  0.4014  0.2274  0.1010
 7018SOL    HW232691   3.097   3.008   8.888 -1.5083  0.7290  0.2886
 7019SOL     OW32692   4.549   3.397   1.166 -0.1171 -0.2293  0.1263
 7019SOL    HW132693   4.644   3.410   1.168 -0.0865 -0.1755 -1.5121
 7019SOL    HW232694   4.537   3.333   1.236  0.2830 -1.2059 -0.6989
 7020SOL     OW32695   2.909   3.963   9.448  0.1293  0.2552  0.3052
 7020SOL    HW132696   2.961   4.027   9.498  0.3170  0.5392 -0.2530
 7020SOL    HW232697   2.923   4.007   9.364  0.1968 -0.3271  0.0151
 7021SOL     OW32698   3.587   4.220   7.409 -0.1841 -0.0184  0.7813
 7021SOL    HW132699   3.581   4.315   7.405  1.3374  0.1559  2.2640
 7021SOL    HW232700   3.572   4.188   7.320  0.3238  1.0673  0.3038
 7022SOL     OW32701   0.445   4.170   4.999 -0.1310 -0.0403  0.1571
 7022SOL    HW132702   0.413   4.140   5.084  0.5767 -0.1739  0.3719
 7022SOL    HW232703   0.357   4.187   4.964  0.6002  0.4456 -1.4421
 7023SOL     OW32704   1.631   4.442   2.976  0.0508  0.8415 -0.6105
 7023SOL    HW132705   1.627   4.520   2.921 -1.1868  1.9515  1.0650
 7023SOL    HW232706   1.544   4.445   3.016  0.0416 -1.0381 -0.4862
 7024SOL     OW32707   4.463   0.064   2.132 -0.4615 -0.1571  0.5113
 7024SOL    HW132708   4.548   0.096   2.163 -1.0907  2.2668 -0.2935
 7024SOL    HW232709   4.491   0.018   2.053 -0.8935  1.2908 -0.4887
 7025SOL     OW32710   2.702   2.841   4.108  0.1813 -0.4468  0.7248
 7025SOL    HW132711   2.672   2.931   4.100  2.0937  0.3477  2.5443
 7025SOL    HW232712   2.637   2.785   4.065 -0.6896  1.0858  0.0593
 7026SOL     OW32713   2.590   2.170   3.540  0.3051  0.3518 -0.5864
 7026SOL    HW132714   2.624   2.088   3.504  2.5800  1.2523 -0.5255
 7026SOL    HW232715   2.653   2.175   3.613  1.8669  0.2230 -1.9191
 7027SOL     OW32716   2.728   1.922  10.993  0.2142  0.1283 -0.6608
 7027SOL    HW132717   2.670   1.927  10.917 -0.4108  0.7288 -0.1356
 7027SOL    HW232718   2.740   2.009  11.031  1.1869 -0.1187 -0.4044
 7028SOL     OW32719   3.181   0.370   6.486 -0.7068 -0.5244 -0.3123
 7028SOL    HW132720   3.174   0.465   6.482 -1.6429 -0.5165  1.5088
 7028SOL    HW232721   3.274   0.360   6.465 -0.6560  1.5519 -1.0580
 7029SOL     OW32722   3.845   1.894   2.648 -0.0904  0.3360  0.3033
 7029SOL    HW132723   3.940   1.893   2.659 -0.2756  3.6039  2.1218
 7029SOL    HW232724   3.815   1.805   2.666 -0.8285  0.7104  0.9302
 7030SOL     OW32725   2.835   0.440   3.386 -0.4894 -0.2594 -0.3460
 7030SOL    HW132726   2.861   0.350   3.407 -0.5426 -0.4988 -1.2761
 7030SOL    HW232727   2.900   0.486   3.438  1.3511 -2.7309 -0.4896
 7031SOL     OW32728   3.755   3.481  11.433  0.4827  0.1180  0.3607
 7031SOL    HW132729   3.841   3.517  11.413 -0.2586  1.8142  0.2147
 7031SOL    HW232730   3.695   3.519  11.368  0.8320 -0.3346 -0.2210
 7032SOL     OW32731   2.920   2.232   8.281 -0.2822 -0.1436  0.1741
 7032SOL    HW132732   2.890   2.315   8.243  1.6985  0.2609 -0.5004
 7032SOL    HW232733   2.929   2.262   8.372 -1.0223 -1.9618  0.8378
 7033SOL     OW32734   2.301   0.723   5.709  0.1123  0.3011 -0.5300
 7033SOL    HW132735   2.354   0.681   5.777  0.4679 -0.2835 -1.1651
 7033SOL    HW232736   2.247   0.782   5.762  3.2048  1.7117  1.0341
 7034SOL     OW32737   4.367   4.279   4.989  0.3523  0.2469 -0.5734
 7034SOL    HW132738   4.302   4.328   5.040  1.1508  1.9936 -1.2659
 7034SOL    HW232739   4.318   4.198   4.977  1.0223 -0.1879 -0.3860
 7035SOL     OW32740   0.098   2.998  15.686 -0.3604  0.5492 -0.2402
 7035SOL    HW132741   0.157   3.059  15.732  0.4557  0.9858 -1.8581
 7035SOL    HW232742   0.154   2.921  15.679 -0.5791  0.5504 -1.9773
 7036SOL     OW32743   0.094   3.478   9.463  0.7052 -0.3824 -0.6397
 7036SOL    HW132744   0.042   3.404   9.495  3.2205 -1.2602  1.4219
 7036SOL    HW232745   0.030   3.549   9.462  1.7263  0.5135 -1.2777
 7037SOL     OW32746   0.367   3.426  17.246 -0.3254  0.1719 -0.3384
 7037SOL    HW132747   0.461   3.440  17.260 -0.5594  1.0129  0.4111
 7037SOL    HW232748   0.349   3.505  17.196 -0.5073  1.7601  2.1973
 7038SOL     OW32749   4.392   0.009   2.760 -0.6248 -0.5207 -0.1517
 7038SOL    HW132750   4.313   4.692   2.771 -1.1515  0.2155 -0.3959
 7038SOL    HW232751   4.415   0.029   2.670 -2.0824 -1.5767 -0.7561
 7039SOL     OW32752   0.755   1.376   1.953  0.3678 -0.3347  0.3881
 7039SOL    HW132753   0.798   1.326   1.884  1.5461  1.2093 -0.0101
 7039SOL    HW232754   0.811   1.365   2.030  0.6743  0.2184  0.2505
 7040SOL     OW32755   0.871   1.253   6.102  0.4000  0.3407 -0.2637
 7040SOL    HW132756   0.912   1.169   6.121  3.7520  2.4887  2.0049
 7040SOL    HW232757   0.939   1.313   6.133 -0.2080  1.0428 -0.2914
 7041SOL     OW32758   1.099   2.987   7.349  0.0809 -0.0005 -0.2028
 7041SOL    HW132759   1.148   2.958   7.272 -0.5451  0.2112 -0.6818
 7041SOL    HW232760   1.171   3.017   7.404 -0.1042 -0.8156  0.4858
 7042SOL     OW32761   2.439   2.055   3.240 -0.3957 -0.2512 -0.5475
 7042SOL    HW132762   2.462   2.130   3.185 -1.7497  1.6841  1.5312
 7042SOL    HW232763   2.521   2.006   3.235 -0.0442  0.2265  0.6328
 7043SOL     OW32764   1.389   0.845   5.891  0.3202  0.0897 -0.1704
 7043SOL    HW132765   1.333   0.922   5.902 -3.5631 -2.8501  0.5894
 7043SOL    HW232766   1.454   0.877   5.829  0.3846  1.8605  0.8298
 7044SOL     OW32767   3.481   0.871   2.536  0.0637 -0.0236  0.9851
 7044SOL    HW132768   3.531   0.857   2.616  0.2687  1.7884  1.1886
 7044SOL    HW232769   3.399   0.838   2.572  0.8225 -1.9783  0.9058
 7045SOL     OW32770   1.619   4.701   2.596 -0.2915  0.2723 -0.2351
 7045SOL    HW132771   1.635   4.676   2.687 -2.6054  1.5266  0.5146
 7045SOL    HW232772   1.644   0.057   2.596  0.1074  0.1609 -0.8568
 7046SOL     OW32773   2.159   4.344  13.160 -0.2718 -0.0379 -0.2156
 7046SOL    HW132774   2.167   4.250  13.142 -1.4410 -0.2054  0.1339
 7046SOL    HW232775   2.242   4.368  13.200 -0.5999  0.4106  0.1838
 7047SOL     OW32776   3.293   2.278  10.372 -0.0457  1.0015 -0.0895
 7047SOL    HW132777   3.364   2.323  10.325 -1.1576  1.6699 -1.1057
 7047SOL    HW232778   3.237   2.350  10.402  0.4590  1.2785  0.2066
 7048SOL     OW32779   1.870   3.627   0.888  0.1375 -0.4399 -0.7377
 7048SOL    HW132780   1.933   3.699   0.891 -2.6159  1.8779  1.9702
 7048SOL    HW232781   1.924   3.558   0.849 -1.1941 -1.7841 -0.2020
 7049SOL     OW32782   0.649   1.521   2.261  0.7549  0.7530  0.3934
 7049SOL    HW132783   0.580   1.542   2.323 -2.2027 -0.1079 -2.6115
 7049SOL    HW232784   0.682   1.439   2.297 -3.3426 -0.9300  0.2916
 7050SOL     OW32785   1.668   0.673   5.319 -0.7402  0.0452 -0.4677
 7050SOL    HW132786   1.751   0.719   5.303 -0.6542 -0.1018 -0.4389
 7050SOL    HW232787   1.676   0.586   5.279 -0.0835  0.4360 -1.1890
 7051SOL     OW32788   2.001   2.421  12.291  0.0858  0.5135 -0.5823
 7051SOL    HW132789   1.931   2.360  12.268 -0.6479  0.4973  1.7790
 7051SOL    HW232790   2.048   2.365  12.353  1.4420  1.6130 -0.6246
 7052SOL     OW32791   2.171   1.631  10.330 -0.0212 -0.3167 -0.0570
 7052SOL    HW132792   2.186   1.724  10.351  2.2123 -0.5764 -0.5651
 7052SOL    HW232793   2.154   1.587  10.413 -0.2033  1.3404  0.7948
 7053SOL     OW32794   2.218   3.193   2.893  0.4844 -0.1854  0.1403
 7053SOL    HW132795   2.160   3.167   2.821 -0.7442  3.0968 -0.0671
 7053SOL    HW232796   2.247   3.104   2.913 -1.3246 -0.9682 -0.7107
 7054SOL     OW32797   3.226   1.206   7.369  0.3019 -0.5896 -0.0250
 7054SOL    HW132798   3.161   1.188   7.437  0.8843  0.3277  0.7934
 7054SOL    HW232799   3.182   1.275   7.321  1.2572 -0.9003 -1.3440
 7055SOL     OW32800   3.115   2.356   7.279 -0.9606 -0.4008  0.4064
 7055SOL    HW132801   3.110   2.261   7.274 -0.1651 -0.4893  1.3371
 7055SOL    HW232802   3.118   2.363   7.374  1.5878 -0.9192  0.3642
 7056SOL     OW32803   2.956   4.553  11.643  0.7752  0.3486 -0.2133
 7056SOL    HW132804   2.894   4.625  11.626  2.8385  1.9311 -1.0312
 7056SOL    HW232805   2.984   4.535  11.554  1.9644 -1.9573  0.6359
 7057SOL     OW32806   3.463   3.501   1.703 -0.4677 -0.4742  0.2992
 7057SOL    HW132807   3.523   3.431   1.679  2.0622  2.3850 -1.6577
 7057SOL    HW232808   3.384   3.448   1.690 -2.7049  2.8314  0.4773
 7058SOL     OW32809   4.108   1.603  12.706 -0.3186  0.3717 -0.5691
 7058SOL    HW132810   4.151   1.526  12.669  3.3924  2.5281 -0.6918
 7058SOL    HW232811   4.184   1.652  12.739 -1.0763  1.8921 -1.0853
 7059SOL     OW32812   0.399   0.745   7.723  0.5710  0.2284 -0.0476
 7059SOL    HW132813   0.475   0.771   7.671  0.7065  1.8203  0.9232
 7059SOL    HW232814   0.392   0.805   7.798  1.1848  0.9886 -0.5929
 7060SOL     OW32815   3.261   2.807   7.678  0.5647  0.1241  0.0319
 7060SOL    HW132816   3.292   2.717   7.665 -0.0391  0.2883 -2.5158
 7060SOL    HW232817   3.256   2.846   7.591  0.0099  1.6521  0.7520
 7061SOL     OW32818   0.543   2.429   3.436 -0.5556  0.6923  0.5089
 7061SOL    HW132819   0.634   2.455   3.418 -1.0799  1.5617 -0.8745
 7061SOL    HW232820   0.503   2.513   3.454 -3.4088 -0.5096 -0.1939
 7062SOL     OW32821   3.704   3.855   1.530  0.4372  0.2069 -0.1063
 7062SOL    HW132822   3.665   3.830   1.447  0.7718  1.0384 -0.5074
 7062SOL    HW232823   3.792   3.821   1.514 -0.7424 -2.6639 -0.5494
 7063SOL     OW32824   0.069   2.943   2.025 -0.2158 -0.0251 -0.3723
 7063SOL    HW132825   0.011   2.988   2.087  0.2030  1.6395 -1.1873
 7063SOL    HW232826   0.077   3.020   1.968 -1.7622  1.1964  1.0651
 7064SOL     OW32827   3.561   0.951   7.412 -0.2068  0.2871  0.0930
 7064SOL    HW132828   3.530   0.912   7.494  1.6210 -1.3818 -0.0196
 7064SOL    HW232829   3.650   0.916   7.410 -0.6813 -0.9794  0.8476
 7065SOL     OW32830   3.095   1.715   6.393 -0.0309  0.8548 -0.2646
 7065SOL    HW132831   3.001   1.735   6.388 -0.4819 -1.4909 -1.4372
 7065SOL    HW232832   3.105   1.650   6.323 -0.6964 -0.3352  0.7512
 7066SOL     OW32833   4.551   4.298   6.524 -0.5854  0.1759 -0.1312
 7066SOL    HW132834   4.484   4.250   6.572 -0.4521  0.9480  0.8227
 7066SOL    HW232835   4.585   4.241   6.455 -1.0237  0.2846 -0.4348
 7067SOL     OW32836   1.106   1.240   5.345 -0.1048 -0.1118 -0.2323
 7067SOL    HW132837   1.156   1.183   5.404 -2.7926 -0.0310  2.0814
 7067SOL    HW232838   1.120   1.324   5.388  0.8119 -2.3719  3.7999
 7068SOL     OW32839   2.263   3.215  12.813 -0.0821  0.1493  0.4739
 7068SOL    HW132840   2.323   3.159  12.862 -0.8288 -1.9673 -1.0048
 7068SOL    HW232841   2.172   3.188  12.826 -0.0812  0.5931  1.3553
 7069SOL     OW32842   0.041   4.724   0.260 -0.1383 -0.5072  0.2974
 7069SOL    HW132843   0.038   4.640   0.215 -1.3629 -1.2395  1.7269
 7069SOL    HW232844   0.034   0.042   0.181 -1.4874 -0.3884  0.5047
 7070SOL     OW32845   3.475   2.119   1.334  0.1380 -0.2161 -0.1389
 7070SOL    HW132846   3.412   2.101   1.404  1.8001 -0.6798  1.2158
 7070SOL    HW232847   3.493   2.208   1.364  1.5174 -1.5884  3.1220
 7071SOL     OW32848   1.360   3.532  16.189 -0.1187  0.1632  0.0212
 7071SOL    HW132849   1.344   3.518  16.095  0.6612  0.5846 -0.1719
 7071SOL    HW232850   1.403   3.617  16.196 -0.0529  0.2180 -0.9664
 7072SOL     OW32851   2.875   1.385  13.575 -0.0398 -0.1516  0.7463
 7072SOL    HW132852   2.784   1.359  13.558  1.2720 -4.3004  0.1364
 7072SOL    HW232853   2.882   1.382  13.479  1.2855 -0.4077  0.8558
 7073SOL     OW32854   2.918   3.180  10.203 -0.1060 -0.4839 -0.2048
 7073SOL    HW132855   2.988   3.205  10.143  0.5447 -0.7621  0.4370
 7073SOL    HW232856   2.841   3.157  10.151 -0.1527  2.8583 -1.6236
 7074SOL     OW32857   4.522   2.248   9.042  0.0330  0.0439  0.2462
 7074SOL    HW132858   4.513   2.156   9.068 -1.2389 -0.5871 -2.4486
 7074SOL    HW232859   4.500   2.298   9.121  1.2175 -0.5356  0.9479
 7075SOL     OW32860   2.583   0.613  10.885 -0.3745 -0.0695  0.1603
 7075SOL    HW132861   2.604   0.522  10.865 -0.6237  0.0407 -0.6150
 7075SOL    HW232862   2.560   0.646  10.798  2.0518  1.4058  0.0751
 7076SOL     OW32863   0.694   4.686   2.183  0.1098  0.5224  0.1850
 7076SOL    HW132864   0.780   4.647   2.166 -0.1072 -0.4973  1.4041
 7076SOL    HW232865   0.636   4.636   2.126  1.4485  0.9955 -1.6080
 7077SOL     OW32866   2.331   2.807   3.846  0.1712  0.6349 -0.2699
 7077SOL    HW132867   2.330   2.862   3.924 -1.5860  0.1901  0.0230
 7077SOL    HW232868   2.361   2.869   3.779  0.5596  2.6089  1.7512
 7078SOL     OW32869   4.393   0.974   4.009  0.3250 -0.1744 -0.5036
 7078SOL    HW132870   4.458   1.036   3.975  0.9117 -1.0516 -0.9560
 7078SOL    HW232871   4.311   0.990   3.962 -0.7171  0.8064  1.6261
 7079SOL     OW32872   2.441   4.619   0.838 -0.3508  0.3636  0.6895
 7079SOL    HW132873   2.400   4.643   0.755 -0.5369 -1.0463  0.3721
 7079SOL    HW232874   2.527   4.589   0.810 -0.3607  0.4932  0.5208
 7080SOL     OW32875   3.892   4.170  14.357  0.7174 -0.6702 -0.0732
 7080SOL    HW132876   3.884   4.076  14.373 -3.3893 -0.0691  1.3942
 7080SOL    HW232877   3.955   4.194  14.425  1.4455 -0.4144 -0.8250
 7081SOL     OW32878   1.646   1.057   1.869  0.0045 -0.0870  0.8464
 7081SOL    HW132879   1.602   1.109   1.803 -1.7551 -1.2875  1.0816
 7081SOL    HW232880   1.596   0.978   1.889  1.3717 -0.7878  1.5572
 7082SOL     OW32881   3.021   2.220  16.998 -0.3911  0.5797  0.6146
 7082SOL    HW132882   3.097   2.264  16.960 -0.6008 -0.0175 -0.5064
 7082SOL    HW232883   3.053   2.133  17.022  0.0035  0.6200  0.2334
 7083SOL     OW32884   0.646   3.544   2.886  0.5008 -0.3097 -0.5950
 7083SOL    HW132885   0.740   3.546   2.900  0.0567  1.1588  2.2549
 7083SOL    HW232886   0.634   3.560   2.792  2.0440 -1.8745 -1.0482
 7084SOL     OW32887   1.577   1.425  11.687  0.0817  0.1272 -0.0575
 7084SOL    HW132888   1.533   1.362  11.745  0.2147 -0.3409 -0.4737
 7084SOL    HW232889   1.670   1.406  11.691 -0.4565 -2.1580  1.4576
 7085SOL     OW32890   3.306   2.970   2.910 -0.1624  0.0216  0.1966
 7085SOL    HW132891   3.296   2.954   3.004  2.2966  0.5894  0.5559
 7085SOL    HW232892   3.317   2.885   2.867  0.1630 -0.8232  1.9788
 7086SOL     OW32893   0.154   2.254   5.318  0.5001  0.1935  0.0567
 7086SOL    HW132894   0.189   2.273   5.231 -0.5595 -1.0406 -0.6391
 7086SOL    HW232895   0.149   2.159   5.320 -0.2388  0.2241 -0.4160
 7087SOL     OW32896   2.817   2.177   3.197 -0.0463  0.4565  0.5581
 7087SOL    HW132897   2.737   2.133   3.168 -0.5017  0.2662  2.0698
 7087SOL    HW232898   2.826   2.245   3.131  2.0422 -0.2306  0.1507
 7088SOL     OW32899   0.109   1.490   9.549  0.0938 -0.2722 -0.2492
 7088SOL    HW132900   0.155   1.406   9.548  0.7592  0.0765  1.1364
 7088SOL    HW232901   0.047   1.474   9.620  1.4509 -0.7265  0.8249
 7089SOL     OW32902   2.033   0.745  11.606  0.3383 -0.6838 -0.0304
 7089SOL    HW132903   1.950   0.745  11.653  0.8987 -0.7639  0.9780
 7089SOL    HW232904   2.031   0.663  11.557 -0.2582 -1.1523  0.7825
 7090SOL     OW32905   2.133   1.898   6.696 -0.2392  0.3524 -0.2223
 7090SOL    HW132906   2.075   1.851   6.756  0.7938  0.3782  0.8049
 7090SOL    HW232907   2.135   1.835   6.624 -0.5362 -0.3471  0.3811
 7091SOL     OW32908   0.321   3.574   2.078 -0.4430 -0.8869 -0.1455
 7091SOL    HW132909   0.291   3.485   2.098 -0.4694 -0.2969  2.3281
 7091SOL    HW232910   0.285   3.593   1.991  0.7954  1.3740 -0.1513
 7092SOL     OW32911   4.642   1.835   1.635  0.0873 -0.7524  0.1488
 7092SOL    HW132912   4.591   1.799   1.563  0.0690  1.5466 -0.9637
 7092SOL    HW232913   4.703   1.764   1.655  1.7217  0.5694 -0.1878
 7093SOL     OW32914   1.093   1.887   7.388 -0.0333  0.2500 -0.1074
 7093SOL    HW132915   1.176   1.893   7.435 -0.2839  2.3704  0.0547
 7093SOL    HW232916   1.049   1.970   7.406  0.4089  0.1853  1.2493
 7094SOL     OW32917   2.478   1.655   3.803 -0.2522 -0.2861  0.0271
 7094SOL    HW132918   2.442   1.658   3.714 -1.5490  0.2799  0.5611
 7094SOL    HW232919   2.412   1.708   3.849  0.7732  2.1632 -1.3497
 7095SOL     OW32920   0.519   0.744  13.998 -0.5732 -0.2539  0.1082
 7095SOL    HW132921   0.426   0.766  13.998 -0.1791  1.3522  1.0874
 7095SOL    HW232922   0.508   0.671  14.059 -0.5318  1.6385  2.3703
 7096SOL     OW32923   0.653   1.579   7.135 -0.4403 -0.4392 -0.5229
 7096SOL    HW132924   0.729   1.618   7.177  0.0561 -1.2439 -0.6893
 7096SOL    HW232925   0.696   1.501   7.100 -0.3174 -1.3083  1.6222
 7097SOL     OW32926   3.947   3.086   8.120  0.0331 -0.1557  0.4234
 7097SOL    HW132927   3.950   3.038   8.202  1.0812  1.0646  1.0945
 7097SOL    HW232928   4.035   3.124   8.121  0.1378 -0.4168  1.1290
 7098SOL     OW32929   4.288   1.578   4.860  0.1147 -0.2690 -0.3178
 7098SOL    HW132930   4.343   1.624   4.924  1.9437 -0.9609 -1.3820
 7098SOL    HW232931   4.217   1.540   4.910 -1.3941  0.6746 -1.7608
 7099SOL     OW32932   1.835   4.055   5.446  0.5390 -0.1720  0.1961
 7099SOL    HW132933   1.830   4.004   5.527  1.0772  0.0224  0.3557
 7099SOL    HW232934   1.798   4.140   5.472 -1.8141 -1.3171  0.5473
 7100SOL     OW32935   4.573   1.706   2.545 -0.5536 -0.1286 -0.0383
 7100SOL    HW132936   4.516   1.667   2.479 -1.2719  0.1152  0.4406
 7100SOL    HW232937   4.658   1.665   2.527 -0.6436  0.6066 -2.1378
 7101SOL     OW32938   3.805   3.722   1.798 -0.3822 -0.0006  0.2723
 7101SOL    HW132939   3.823   3.740   1.890  1.3150 -0.9629  0.1293
 7101SOL    HW232940   3.723   3.773   1.792  0.5296  1.1961 -2.0949
 7102SOL     OW32941   1.996   0.788   3.975  0.8710  0.0772 -0.3419
 7102SOL    HW132942   2.092   0.789   3.976  0.8638  0.2286  1.3303
 7102SOL    HW232943   1.973   0.701   4.009  2.7383 -1.1872 -2.3289
 7103SOL     OW32944   3.893   3.360  15.677  0.8238 -0.6141 -0.4778
 7103SOL    HW132945   3.934   3.439  15.643 -1.7989  0.0927 -2.0162
 7103SOL    HW232946   3.847   3.320  15.603  0.2435 -1.5593  0.3963
 7104SOL     OW32947   0.934   0.832  16.609  0.0493  0.4876 -0.9475
 7104SOL    HW132948   0.980   0.804  16.688  1.2871  0.8392 -1.5349
 7104SOL    HW232949   0.860   0.772  16.597 -0.3642  0.8896 -0.3764
 7105SOL     OW32950   1.620   0.607   3.537  0.4358 -0.0326 -0.6481
 7105SOL    HW132951   1.644   0.684   3.486  2.7448 -0.8536 -0.8076
 7105SOL    HW232952   1.554   0.640   3.598  0.8930  1.3003 -0.8635
 7106SOL     OW32953   0.073   3.841  12.798 -0.3970  0.0225 -0.3694
 7106SOL    HW132954   4.718   3.812  12.795 -0.9749  1.7155  0.2709
 7106SOL    HW232955   0.061   3.932  12.827 -1.8217  0.1102 -1.2271
 7107SOL     OW32956   4.467   2.376  15.060  0.5393  0.1968 -0.0417
 7107SOL    HW132957   4.456   2.413  14.972 -0.2272  0.9250  0.3634
 7107SOL    HW232958   4.414   2.299  15.039 -0.3877  0.2478  2.1126
 7108SOL     OW32959   0.753   0.117   2.415 -0.2323  0.5825  0.0524
 7108SOL    HW132960   0.829   0.067   2.445 -0.6987  1.5096  2.7702
 7108SOL    HW232961   0.722   0.070   2.338  0.6807 -0.5119  0.3487
 7109SOL     OW32962   3.327   0.701   3.131  0.1757 -0.5413 -0.1652
 7109SOL    HW132963   3.235   0.724   3.120  0.4915 -0.0920 -1.9250
 7109SOL    HW232964   3.349   0.657   3.049 -0.7493 -0.9548 -0.1865
 7110SOL     OW32965   3.332   2.037   4.533 -0.2462  0.8266  0.0653
 7110SOL    HW132966   3.384   2.117   4.524  0.2258  0.5447  0.2418
 7110SOL    HW232967   3.298   2.042   4.444  3.2957 -0.4113 -1.3858
 7111SOL     OW32968   2.531   2.290   9.521  0.0865 -0.3643  0.2900
 7111SOL    HW132969   2.501   2.257   9.436 -3.9935 -1.8733  2.3365
 7111SOL    HW232970   2.565   2.213   9.567  1.9949  1.6619  2.2569
 7112SOL     OW32971   0.161   2.725   5.694  0.4274 -0.3122  0.4133
 7112SOL    HW132972   0.150   2.639   5.653  0.5459 -0.5291  0.8315
 7112SOL    HW232973   0.096   2.720   5.764 -0.8337  0.0188 -0.7401
 7113SOL     OW32974   3.272   0.940   1.382 -0.4236 -0.7606 -0.3301
 7113SOL    HW132975   3.322   0.917   1.303  1.2573  0.0520  0.5124
 7113SOL    HW232976   3.220   0.860   1.393 -0.7738 -0.2817  1.3516
 7114SOL     OW32977   4.330   2.319   6.085  0.0423 -0.5675 -0.0949
 7114SOL    HW132978   4.324   2.270   6.167 -0.2222  1.6497  1.2287
 7114SOL    HW232979   4.387   2.261   6.035 -1.9671 -2.4451 -0.1690
 7115SOL     OW32980   2.810   2.009   7.145  0.6472 -0.4105  0.3831
 7115SOL    HW132981   2.880   2.049   7.196  0.9695 -0.1892 -0.2432
 7115SOL    HW232982   2.790   2.089   7.096  1.9685 -1.6890 -2.2007
 7116SOL     OW32983   1.131   2.687   5.491 -0.0026 -0.5291  0.0426
 7116SOL    HW132984   1.092   2.770   5.517 -0.7120 -0.2334 -1.9937
 7116SOL    HW232985   1.066   2.626   5.527 -1.1310  0.4422 -0.3797
 7117SOL     OW32986   0.137   2.339   3.987 -0.1013  0.4293 -0.5075
 7117SOL    HW132987   0.059   2.319   4.040  1.7958 -0.8041  1.7915
 7117SOL    HW232988   0.193   2.262   3.986 -0.3497  0.2551 -1.7470
 7118SOL     OW32989   0.231   1.250  16.175  0.0076 -0.2651  0.1561
 7118SOL    HW132990   0.297   1.206  16.121  1.4983  1.0194  0.9296
 7118SOL    HW232991   0.149   1.201  16.167  1.1376 -2.0876 -0.4369
 7119SOL     OW32992   1.520   0.263   3.522 -0.2567  0.0237  0.2172
 7119SOL    HW132993   1.477   0.178   3.517  0.9965 -0.4967 -1.5665
 7119SOL    HW232994   1.552   0.262   3.612  0.6397 -0.0070 -0.1065
 7120SOL     OW32995   0.289   3.594  14.979  0.4976 -0.5529  0.0239
 7120SOL    HW132996   0.325   3.633  15.058  0.6403 -0.3768 -0.1290
 7120SOL    HW232997   0.198   3.624  14.990  0.4417 -1.0871  1.0183
 7121SOL     OW32998   2.867   4.572   2.897 -0.1165  0.3212  0.7373
 7121SOL    HW132999   2.854   4.575   2.992  0.6251  0.4183  0.8363
 7121SOL    HW233000   2.952   4.528   2.894 -0.3558 -0.1516  0.8901
 7122SOL     OW33001   0.571   0.165  14.527  0.1228 -0.4066  0.4666
 7122SOL    HW133002   0.523   0.131  14.603 -0.9218 -0.0224 -0.0180
 7122SOL    HW233003   0.664   0.166  14.547  0.3276  0.2018 -0.5005
 7123SOL     OW33004   1.835   4.482   9.002  0.4211 -0.3363  0.0573
 7123SOL    HW133005   1.790   4.550   8.951  1.6691  0.4304 -0.0208
 7123SOL    HW233006   1.880   4.527   9.074  1.2407 -2.7150  1.0275
 7124SOL     OW33007   1.187   2.633  16.071  0.1367 -0.0206  0.3864
 7124SOL    HW133008   1.170   2.539  16.069  2.5865 -0.4288 -1.2720
 7124SOL    HW233009   1.209   2.650  16.163  0.9165  0.7203  0.0610
 7125SOL     OW33010   4.310   4.098   0.386  0.7925  0.1313  0.0111
 7125SOL    HW133011   4.356   4.022   0.423  0.2417 -0.6488 -0.8939
 7125SOL    HW233012   4.277   4.125   0.471 -0.3220  1.1110 -0.7283
 7126SOL     OW33013   0.485   4.026  12.571  0.0058  0.2760  0.0658
 7126SOL    HW133014   0.553   3.980  12.522 -0.0186  1.1178 -0.7688
 7126SOL    HW233015   0.437   3.959  12.620  1.0355  0.2713  1.0644
 7127SOL     OW33016   3.745   3.421   2.293  0.0435 -0.3930 -0.0420
 7127SOL    HW133017   3.766   3.510   2.321  0.4212 -0.7668  0.8587
 7127SOL    HW233018   3.826   3.373   2.309  1.3109  0.8647 -2.7649
 7128SOL     OW33019   0.056   1.189   1.580  0.1957 -0.2566  0.1779
 7128SOL    HW133020   0.090   1.189   1.670 -1.9454  0.6415  0.9909
 7128SOL    HW233021   0.079   1.106   1.538  0.3436 -0.5930  0.9239
 7129SOL     OW33022   4.094   2.612   0.913  0.5751 -0.2622  0.0242
 7129SOL    HW133023   4.051   2.531   0.884 -0.2834 -0.3740  1.6095
 7129SOL    HW233024   4.024   2.665   0.951  0.4879 -1.0442  0.9473
 7130SOL     OW33025   2.107   2.040   5.363 -0.0019 -0.2594 -0.2747
 7130SOL    HW133026   2.085   2.088   5.283 -1.2851  0.6075  0.5887
 7130SOL    HW233027   2.029   1.984   5.364 -1.2737  1.5699  1.5833
 7131SOL     OW33028   3.771   1.686   9.665  0.5595  0.5064  0.2264
 7131SOL    HW133029   3.731   1.612   9.618  0.2476  1.1011 -0.4487
 7131SOL    HW233030   3.710   1.687   9.739  3.5827  0.9579  2.6857
 7132SOL     OW33031   2.832   1.180  16.432 -0.1082 -0.0352 -0.1556
 7132SOL    HW133032   2.883   1.256  16.458  0.7078 -0.7821  0.4116
 7132SOL    HW233033   2.814   1.137  16.515  0.2501  0.3813  0.1328
 7133SOL     OW33034   2.410   2.231   5.390  0.4912 -0.0539  0.0320
 7133SOL    HW133035   2.320   2.245   5.417  0.6771  0.1003  0.5661
 7133SOL    HW233036   2.413   2.147   5.343 -0.9801 -0.0882  0.0139
 7134SOL     OW33037   1.032   2.425   6.183  0.0359  0.2225 -0.5666
 7134SOL    HW133038   1.031   2.468   6.269 -0.9747  0.9941 -0.9751
 7134SOL    HW233039   1.052   2.498   6.124 -2.0618  0.9289 -0.3904
 7135SOL     OW33040   3.924   2.122   2.447  0.6418 -0.2136  0.6848
 7135SOL    HW133041   3.932   2.029   2.469  0.3614 -0.2411  0.6635
 7135SOL    HW233042   4.010   2.139   2.409 -0.2908 -0.0887 -1.3573
 7136SOL     OW33043   1.900   2.636   8.223  0.3626 -0.6891 -0.1478
 7136SOL    HW133044   1.808   2.636   8.194  0.3274  2.5976  0.0248
 7136SOL    HW233045   1.881   2.622   8.316 -3.1378 -1.2232 -0.9175
 7137SOL     OW33046   2.446   1.747  10.156  0.0282  0.6532  0.1486
 7137SOL    HW133047   2.490   1.720  10.236  0.5597  3.1410  0.6882
 7137SOL    HW233048   2.426   1.662  10.117  1.1522 -0.5585  2.2433
 7138SOL     OW33049   0.686   2.721   6.807 -0.1746 -0.1196 -0.1707
 7138SOL    HW133050   0.596   2.728   6.775 -0.3847  0.1682  0.4890
 7138SOL    HW233051   0.681   2.634   6.846 -2.5485  1.2731  2.5656
 7139SOL     OW33052   2.774   4.472   9.264  0.1299 -0.4294  0.1165
 7139SOL    HW133053   2.730   4.395   9.227  0.4977  0.0873 -1.3929
 7139SOL    HW233054   2.721   4.498   9.339  0.4250  0.0414  0.1573
 7140SOL     OW33055   2.917   1.992   7.585 -0.7397 -0.3049  0.3081
 7140SOL    HW133056   2.857   1.917   7.587 -0.8303 -0.2293  0.4191
 7140SOL    HW233057   3.004   1.953   7.581 -1.1788 -1.3239  0.7951
 7141SOL     OW33058   1.013   0.659   6.803 -0.0266 -0.2902 -0.3420
 7141SOL    HW133059   1.021   0.581   6.858 -0.9450 -0.3651 -0.3203
 7141SOL    HW233060   1.000   0.635   6.712  0.1680 -2.4540  0.2132
 7142SOL     OW33061   1.604   0.622  13.946 -0.1420 -0.0491 -0.0196
 7142SOL    HW133062   1.517   0.629  13.908  0.3881  2.8416 -0.7670
 7142SOL    HW233063   1.600   0.552  14.010 -3.1744  1.5376  1.5134
 7143SOL     OW33064   0.293   4.728   4.932  0.4450  0.1460 -0.1726
 7143SOL    HW133065   0.203   0.024   4.926  0.4472  0.2852  0.5822
 7143SOL    HW233066   0.320   0.018   4.844 -1.9441 -0.4159 -1.0860
 7144SOL     OW33067   2.212   0.712   2.908  0.0373 -0.1631 -0.1888
 7144SOL    HW133068   2.250   0.729   2.822 -0.4656 -1.2373 -0.6241
 7144SOL    HW233069   2.221   0.617   2.900  2.1555 -0.0344  0.6071
 7145SOL     OW33070   2.792   0.053   9.253  0.2541  0.4024 -0.1114
 7145SOL    HW133071   2.742   4.708   9.263  1.0002 -0.4684 -3.4750
 7145SOL    HW233072   2.718   0.114   9.258  1.1548  1.3081  2.0592
 7146SOL     OW33073   1.133   1.653   7.003  0.2427 -0.4463  0.1871
 7146SOL    HW133074   1.141   1.614   6.916 -0.7682 -0.2082 -0.0121
 7146SOL    HW233075   1.080   1.587   7.047  1.3688 -0.7501  1.0713
 7147SOL     OW33076   0.947   0.981   5.424  0.1416 -0.1446 -0.1563
 7147SOL    HW133077   0.960   0.992   5.330 -0.0506 -3.0825 -0.5449
 7147SOL    HW233078   1.004   0.905   5.437 -1.2978 -1.1809  0.1027
 7148SOL     OW33079   4.484   3.349   1.613  0.3211  0.7723 -0.3180
 7148SOL    HW133080   4.450   3.435   1.592 -0.3442 -0.1691 -3.0114
 7148SOL    HW233081   4.569   3.362   1.655 -0.5736  0.4628  1.6132
 7149SOL     OW33082   4.490   2.798  14.801 -0.1568 -0.5612  0.3779
 7149SOL    HW133083   4.576   2.779  14.764  1.4646  1.3578  3.2252
 7149SOL    HW233084   4.502   2.888  14.832 -0.6807 -0.4312  0.1995
 7150SOL     OW33085   0.078   3.165   5.808  0.3126  0.3806  0.1547
 7150SOL    HW133086   4.726   3.139   5.781  1.2080 -1.2250 -1.2156
 7150SOL    HW233087   0.062   3.178   5.901  1.3718 -1.8045  0.6298
 7151SOL     OW33088   1.342   3.937  12.201 -0.2730 -0.2166  0.2833
 7151SOL    HW133089   1.374   3.889  12.124  0.7971 -1.3549  1.4307
 7151SOL    HW233090   1.254   3.900  12.197 -0.1743 -0.4188 -0.0426
 7152SOL     OW33091   1.270   2.577   7.484  0.3210  0.0045 -0.0028
 7152SOL    HW133092   1.316   2.641   7.430 -1.3976  1.6380  0.4685
 7152SOL    HW233093   1.248   2.635   7.557 -2.6135 -1.2303  0.0708
 7153SOL     OW33094   0.805   4.541   5.958 -0.5377 -0.1824  0.0885
 7153SOL    HW133095   0.819   4.635   5.973  1.0622 -0.5648  0.9756
 7153SOL    HW233096   0.739   4.528   6.026  1.6218  0.1205  2.2210
 7154SOL     OW33097   1.575   0.276   9.245  0.3592  0.4585 -0.2797
 7154SOL    HW133098   1.584   0.281   9.340 -1.5273 -2.5159  0.0791
 7154SOL    HW233099   1.496   0.327   9.229 -1.1134 -1.9116 -0.5050
 7155SOL     OW33100   1.764   4.251   2.104  0.0521 -0.3118 -0.8430
 7155SOL    HW133101   1.693   4.190   2.127  0.3093 -0.0613  0.6095
 7155SOL    HW233102   1.741   4.259   2.011 -1.2739 -3.6448 -0.8103
 7156SOL     OW33103   3.536   1.178   9.492  0.0770  0.3144  0.1699
 7156SOL    HW133104   3.569   1.185   9.402 -4.1296  2.1574 -1.2569
 7156SOL    HW233105   3.449   1.140   9.478  0.7476 -1.6594  1.3642
 7157SOL     OW33106   4.616   1.941   5.083 -0.4598  0.2064  0.0658
 7157SOL    HW133107   4.643   1.876   5.148 -1.0132  0.9585  1.0366
 7157SOL    HW233108   4.603   2.016   5.141 -0.3706  0.2234  0.0637
 7158SOL     OW33109   2.436   0.301  12.418  0.0702  0.4392  0.2419
 7158SOL    HW133110   2.401   0.365  12.356  0.1276 -0.5664 -0.8301
 7158SOL    HW233111   2.522   0.279  12.381  0.2056  1.6549 -0.1808
 7159SOL     OW33112   2.597   2.595   9.285  0.1422  0.0174  0.7390
 7159SOL    HW133113   2.511   2.606   9.245  0.8928  0.4361 -0.7845
 7159SOL    HW233114   2.636   2.530   9.227 -1.6361  0.7102 -1.2364
 7160SOL     OW33115   1.144   2.153   9.863 -0.5455  0.2733 -0.3562
 7160SOL    HW133116   1.127   2.236   9.818 -0.7001  0.1993 -0.4317
 7160SOL    HW233117   1.140   2.187   9.952 -1.5465  1.8358 -0.9984
 7161SOL     OW33118   0.562   1.211   8.627  0.1273  0.0980 -0.3261
 7161SOL    HW133119   0.475   1.193   8.662  0.1296  1.3098  0.3180
 7161SOL    HW233120   0.610   1.222   8.709 -0.0599 -0.4272 -0.1526
 7162SOL     OW33121   3.023   2.428   9.164  0.2965 -0.3866 -0.3045
 7162SOL    HW133122   3.086   2.499   9.167 -0.6870  0.3479  2.8789
 7162SOL    HW233123   3.066   2.373   9.230  0.9952 -1.6202 -1.7702
 7163SOL     OW33124   2.634   2.358   6.154 -0.1676 -0.9776 -0.4561
 7163SOL    HW133125   2.569   2.419   6.120 -1.4855  0.3134  4.4115
 7163SOL    HW233126   2.596   2.274   6.127  1.2174 -1.6443 -0.3501
 7164SOL     OW33127   0.918   1.586   3.029  0.0556  0.0473  0.0902
 7164SOL    HW133128   1.000   1.611   3.073 -2.1491 -0.0204  4.1855
 7164SOL    HW233129   0.943   1.493   3.026  2.4768  0.7264 -0.6590
 7165SOL     OW33130   2.060   3.708  12.376  0.2216  0.6358 -0.1753
 7165SOL    HW133131   2.056   3.772  12.447  2.2454 -0.0875  0.5712
 7165SOL    HW233132   2.025   3.637  12.429  1.0095 -0.3187 -0.9363
 7166SOL     OW33133   4.070   3.991   4.152  0.3248 -0.1717 -0.5706
 7166SOL    HW133134   4.034   3.948   4.074  1.8218 -1.3710 -0.6015
 7166SOL    HW233135   4.129   4.056   4.115  0.6536  0.8317  1.7524
 7167SOL     OW33136   4.721   2.157   4.633  0.2420  0.0576  0.4105
 7167SOL    HW133137   0.020   2.165   4.722  0.2571 -1.9225  0.5816
 7167SOL    HW233138   0.044   2.210   4.581 -0.0802 -1.6316 -1.6561
 7168SOL     OW33139   2.245   3.538   3.200 -0.4679  0.4843  0.5231
 7168SOL    HW133140   2.153   3.540   3.172 -0.7579  1.4893  1.5581
 7168SOL    HW233141   2.239   3.596   3.275  0.4377  0.9334  0.2416
 7169SOL     OW33142   3.817   4.681   6.659  0.0929  0.6729 -0.1981
 7169SOL    HW133143   3.895   4.630   6.636  0.9015  1.4330  0.8347
 7169SOL    HW233144   3.772   4.699   6.576 -0.1819 -0.7847 -0.3590
 7170SOL     OW33145   4.699   1.825   7.417 -0.2100 -0.0816  0.0990
 7170SOL    HW133146   4.668   1.876   7.492  2.9996  1.8879  0.1239
 7170SOL    HW233147   0.029   1.883   7.378 -0.2403 -0.8942 -1.1575
 7171SOL     OW33148   3.133   3.434   9.375 -0.0418  0.3053  0.8027
 7171SOL    HW133149   3.094   3.473   9.453  0.5964 -0.1516  1.3512
 7171SOL    HW233150   3.111   3.341   9.387 -0.0862  0.3667  1.1970
 7172SOL     OW33151   1.778   0.138   1.974 -0.0406 -0.1524  0.0861
 7172SOL    HW133152   1.808   0.154   1.884  0.1173  0.2540  0.2103
 7172SOL    HW233153   1.851   0.088   2.011 -0.2065 -0.3177  0.1908
 7173SOL     OW33154   4.207   2.905   0.376  0.8347 -0.0530  0.1062
 7173SOL    HW133155   4.113   2.901   0.389  1.1737 -1.3422  2.1334
 7173SOL    HW233156   4.240   2.849   0.446 -0.5933 -0.8406  0.1414
 7174SOL     OW33157   0.601   2.805   9.707  0.7032 -0.2164 -0.0308
 7174SOL    HW133158   0.672   2.779   9.765 -0.1593 -0.0621  1.0912
 7174SOL    HW233159   0.585   2.728   9.652 -0.3201 -0.4911  0.6428
 7175SOL     OW33160   0.201   3.890   9.549  0.0734 -0.3347  0.0917
 7175SOL    HW133161   0.113   3.915   9.523  0.6096  0.4198 -0.9924
 7175SOL    HW233162   0.210   3.828   9.476  1.3904 -1.5885  1.3284
 7176SOL     OW33163   3.061   1.052   5.528  0.0419 -0.2124  0.1663
 7176SOL    HW133164   3.017   1.013   5.603 -0.0851 -0.0266  0.1899
 7176SOL    HW233165   2.982   1.062   5.474 -0.8996 -2.1719  1.1878
 7177SOL     OW33166   4.065   0.091   8.130 -0.4892  0.4137  0.0628
 7177SOL    HW133167   4.097   0.020   8.074 -1.2312  0.9509 -1.0445
 7177SOL    HW233168   4.147   0.127   8.162 -0.1583 -0.8906  0.6938
 7178SOL     OW33169   3.143   2.426   4.668 -0.0934  0.2321 -0.3115
 7178SOL    HW133170   3.073   2.460   4.723 -0.0299  1.0958 -0.7642
 7178SOL    HW233171   3.133   2.334   4.692 -2.6229  0.4029 -0.7533
 7179SOL     OW33172   4.585   3.029   9.403 -0.2549 -0.5640  0.0861
 7179SOL    HW133173   4.573   3.029   9.497  0.2415  0.4528  0.1487
 7179SOL    HW233174   4.499   3.002   9.370 -1.7314  3.5068  0.6120
 7180SOL     OW33175   2.503   2.487   3.223  0.3225  0.0205  1.0526
 7180SOL    HW133176   2.456   2.434   3.287 -0.1514 -0.8868 -0.0500
 7180SOL    HW233177   2.512   2.419   3.157  0.5128 -0.0016  1.1010
 7181SOL     OW33178   2.186   2.667  11.242 -0.0875  0.1471 -0.6265
 7181SOL    HW133179   2.222   2.687  11.329 -1.9062  0.3022  0.0977
 7181SOL    HW233180   2.251   2.606  11.209 -0.0024  0.6244 -1.3379
 7182SOL     OW33181   2.782   0.683   3.259 -0.2072  0.2758  0.0807
 7182SOL    HW133182   2.784   0.596   3.299 -0.9405 -0.2292 -0.9854
 7182SOL    HW233183   2.875   0.706   3.251  0.0236 -0.6244  0.1655
 7183SOL     OW33184   3.561   3.081   8.659 -0.0957 -0.2837 -0.2810
 7183SOL    HW133185   3.579   3.013   8.724 -0.9378  0.2565  0.5221
 7183SOL    HW233186   3.470   3.097   8.683 -0.7350 -2.1611 -1.4177
 7184SOL     OW33187   0.572   2.968   6.180  0.4328 -0.4707  0.0517
 7184SOL    HW133188   0.641   2.932   6.123  0.6992 -2.1020  1.4103
 7184SOL    HW233189   0.501   2.973   6.116  1.2785 -0.3099 -0.8821
 7185SOL     OW33190   1.041   1.557   4.201 -0.1658  0.4670  0.1347
 7185SOL    HW133191   0.963   1.590   4.157 -0.9418  0.4110  1.4576
 7185SOL    HW233192   1.068   1.643   4.231  2.2817 -1.0521  2.2374
 7186SOL     OW33193   4.203   2.041   3.289  0.4647  0.0339 -0.1097
 7186SOL    HW133194   4.275   1.979   3.296  0.0727 -0.4329 -0.2176
 7186SOL    HW233195   4.200   2.048   3.194 -1.4566  0.9039  0.0070
 7187SOL     OW33196   1.032   3.342   3.744  0.1331  0.4909  0.0983
 7187SOL    HW133197   1.034   3.295   3.827  0.9665  0.8141  0.2618
 7187SOL    HW233198   0.991   3.281   3.683  0.0997  0.1910  0.4217
 7188SOL     OW33199   0.327   2.014  11.994  0.2652 -0.7179 -0.3624
 7188SOL    HW133200   0.405   2.011  11.938  0.6453  0.8856  0.0664
 7188SOL    HW233201   0.346   2.088  12.051 -2.0513  0.3918 -1.0303
 7189SOL     OW33202   2.466   4.197   7.493  0.0789 -0.3358 -0.7279
 7189SOL    HW133203   2.554   4.203   7.455  1.0272 -0.0143  1.5244
 7189SOL    HW233204   2.487   4.144   7.570 -0.0448  0.0379 -0.4329
 7190SOL     OW33205   2.787   3.408   5.574  0.1012 -0.4403 -0.2007
 7190SOL    HW133206   2.797   3.501   5.555 -0.5166 -0.1953  0.6532
 7190SOL    HW233207   2.740   3.387   5.494  0.6933  0.8917 -0.8896
 7191SOL     OW33208   0.439   3.116   1.936 -0.1085  0.3502  0.7761
 7191SOL    HW133209   0.425   3.026   1.964 -1.0940  1.1551  2.9389
 7191SOL    HW233210   0.485   3.099   1.854 -1.5785 -0.3232  0.0841
 7192SOL     OW33211   3.955   3.241  10.596  0.1100 -0.0786  0.0228
 7192SOL    HW133212   3.867   3.222  10.630 -0.1494  0.8133 -0.1595
 7192SOL    HW233213   3.947   3.336  10.592 -0.0631 -0.1741 -1.7637
 7193SOL     OW33214   4.240   4.402   4.716 -0.0584  0.0434 -0.8616
 7193SOL    HW133215   4.198   4.324   4.680  1.3113 -1.8492  1.6683
 7193SOL    HW233216   4.334   4.389   4.705 -0.7243 -4.5314 -1.2410
 7194SOL     OW33217   0.228   1.557   9.057  0.2616 -0.2418 -0.5775
 7194SOL    HW133218   0.258   1.643   9.086 -0.7145  0.6890 -2.3148
 7194SOL    HW233219   0.147   1.582   9.013 -0.5828 -3.0415 -0.5841
 7195SOL     OW33220   2.479   0.322   8.026 -0.5272  0.5814  0.1554
 7195SOL    HW133221   2.460   0.228   8.030  1.6155  0.0739 -2.0944
 7195SOL    HW233222   2.432   0.357   8.103  0.5249  0.9972  0.6086
 7196SOL     OW33223   1.543   1.316  11.974 -0.1302 -0.0982 -0.3386
 7196SOL    HW133224   1.451   1.315  11.946 -1.1255  0.3493  2.8949
 7196SOL    HW233225   1.549   1.233  12.022  1.4540 -0.7556 -1.6724
 7197SOL     OW33226   3.261   3.381  17.399  0.1442  0.5305  0.1847
 7197SOL    HW133227   3.296   3.400  17.486  2.6516 -0.2302 -0.6561
 7197SOL    HW233228   3.219   3.467  17.390  1.0285  1.0305  0.8119
 7198SOL     OW33229   3.870   2.199  16.684  0.7345  0.1839  0.2545
 7198SOL    HW133230   3.965   2.212  16.685  0.6719  0.7259 -0.6118
 7198SOL    HW233231   3.849   2.243  16.602  0.9263  0.9920  0.6468
 7199SOL     OW33232   0.487   2.811   7.850  0.2852  0.3226 -0.3574
 7199SOL    HW133233   0.562   2.815   7.792 -0.3541 -1.3959 -1.2855
 7199SOL    HW233234   0.435   2.882   7.812 -0.0345  0.6032  0.5978
 7200SOL     OW33235   2.440   0.166   9.561  0.1842 -0.0273  0.2703
 7200SOL    HW133236   2.465   0.224   9.633 -2.0848  1.1825  0.1052
 7200SOL    HW233237   2.344   0.170   9.564  0.2136  0.2855  0.7428
 7201SOL     OW33238   2.818   1.879   6.673  0.5569  0.4846 -0.2406
 7201SOL    HW133239   2.829   1.942   6.602 -0.6639 -2.1737 -2.7761
 7201SOL    HW233240   2.905   1.885   6.714  0.9452  0.7018 -1.1087
 7202SOL     OW33241   1.931   0.757   0.383 -0.0169 -0.0118 -0.8939
 7202SOL    HW133242   1.901   0.678   0.338  4.5926 -2.3641  0.1396
 7202SOL    HW233243   1.952   0.717   0.467  1.1629  0.4248 -0.9806
 7203SOL     OW33244   3.634   3.748   6.707 -0.1567  0.1507 -0.0115
 7203SOL    HW133245   3.569   3.770   6.640  0.1676  1.0041 -0.0388
 7203SOL    HW233246   3.572   3.770   6.777 -0.3217 -0.4626  0.0388
 7204SOL     OW33247   2.253   0.723   6.691  0.1965  0.6144  0.0526
 7204SOL    HW133248   2.307   0.801   6.676  1.6484 -0.4935 -0.5242
 7204SOL    HW233249   2.252   0.678   6.607  1.1134 -1.2286  1.0159
 7205SOL     OW33250   0.263   4.320  17.611  0.0387 -0.1677  0.9017
 7205SOL    HW133251   0.254   4.255  17.681 -2.6030 -2.9001 -1.9629
 7205SOL    HW233252   0.355   4.345  17.626  0.3009 -0.3861 -0.3323
 7206SOL     OW33253   0.355   3.540   9.083  0.2117 -0.2691 -0.4253
 7206SOL    HW133254   0.364   3.620   9.030  1.5636  0.6236  1.1754
 7206SOL    HW233255   0.400   3.481   9.023  0.1254 -0.4128 -0.3492
 7207SOL     OW33256   4.212   4.531   9.234  0.0538 -0.2763 -0.2385
 7207SOL    HW133257   4.278   4.478   9.188  2.2010  1.8760  0.3517
 7207SOL    HW233258   4.269   4.572   9.299  2.1955  1.2949 -3.0901
 7208SOL     OW33259   3.138   3.323   3.692 -0.2056 -0.6250  0.2740
 7208SOL    HW133260   3.061   3.294   3.741  0.8718 -1.4773  1.4468
 7208SOL    HW233261   3.123   3.418   3.685  1.6498 -0.2332  1.6673
 7209SOL     OW33262   2.271   0.201  12.604 -0.0503  0.1352 -0.3151
 7209SOL    HW133263   2.339   0.229  12.542  0.9284 -1.5356 -0.0042
 7209SOL    HW233264   2.291   0.252  12.682 -0.3886 -1.1032  0.5872
 7210SOL     OW33265   3.951   4.339   5.001 -0.2119 -0.1682 -0.2927
 7210SOL    HW133266   3.912   4.393   5.069 -2.8451 -1.2241 -0.9626
 7210SOL    HW233267   4.035   4.383   5.001 -0.0134 -0.5400 -0.3936
 7211SOL     OW33268   1.295   0.265   8.083  0.0531 -0.5370 -0.1025
 7211SOL    HW133269   1.236   0.336   8.060  0.0270 -1.1051 -1.7553
 7211SOL    HW233270   1.332   0.288   8.168 -0.8833  0.8171 -0.0673
 7212SOL     OW33271   4.205   4.648   1.373 -0.2729  0.0396 -0.0144
 7212SOL    HW133272   4.166   4.565   1.401  1.1974 -0.0250  1.8354
 7212SOL    HW233273   4.297   4.630   1.391 -0.2231 -1.4244 -1.6841
 7213SOL     OW33274   0.543   3.621   2.310 -0.2424  0.2422  0.3571
 7213SOL    HW133275   0.457   3.585   2.287 -0.9614  1.4830  1.0956
 7213SOL    HW233276   0.526   3.710   2.279 -3.3545 -0.6159 -0.4227
 7214SOL     OW33277   0.227   3.764   8.643  0.8128  0.1266  0.0965
 7214SOL    HW133278   0.174   3.836   8.608  2.7373  0.9036 -1.2106
 7214SOL    HW233279   0.196   3.749   8.732  1.2719 -1.0235  0.0608
 7215SOL     OW33280   0.235   4.007   5.441 -0.1149 -0.1653  0.0623
 7215SOL    HW133281   0.260   4.095   5.412 -0.9055  0.2974  0.7829
 7215SOL    HW233282   0.141   4.014   5.456 -0.3669  1.8753 -2.5837
 7216SOL     OW33283   1.247   1.946   9.507  0.4147 -0.2554  0.3255
 7216SOL    HW133284   1.241   2.007   9.580  1.3644 -0.4298  0.5536
 7216SOL    HW233285   1.321   1.985   9.460 -0.5861 -0.3755 -1.3604
 7217SOL     OW33286   1.449   0.907  13.733  0.0505 -0.7200 -0.1111
 7217SOL    HW133287   1.487   0.925  13.819  0.7622 -0.1648 -0.5432
 7217SOL    HW233288   1.397   0.983  13.708 -0.1179 -0.4629  1.0491
 7218SOL     OW33289   0.422   0.836  13.714 -0.0877  0.4901 -0.1136
 7218SOL    HW133290   0.344   0.888  13.734 -0.4510 -0.1249  0.0691
 7218SOL    HW233291   0.391   0.748  13.739 -2.1060  1.4809  0.8504
 7219SOL     OW33292   2.997   2.532   9.587  0.0136 -0.0168 -0.0948
 7219SOL    HW133293   3.039   2.478   9.654  0.6791  0.5140 -0.0781
 7219SOL    HW233294   2.908   2.500   9.573 -0.0713  0.3487 -0.3850
 7220SOL     OW33295   0.376   3.333  14.975  0.5673 -0.6272  0.0402
 7220SOL    HW133296   0.342   3.420  14.998  1.0594 -0.2953 -0.4702
 7220SOL    HW233297   0.324   3.317  14.896 -0.6331  0.0679  0.6968
 7221SOL     OW33298   2.436   3.133   9.238  0.6235 -0.1475  0.1479
 7221SOL    HW133299   2.447   3.210   9.294  0.2227 -0.2853  0.4212
 7221SOL    HW233300   2.411   3.060   9.294 -0.3646  0.1994  0.1677
 7222SOL     OW33301   1.588   0.651   4.197 -0.2698 -0.1015 -0.0118
 7222SOL    HW133302   1.619   0.661   4.287 -0.8002  1.8100 -0.0506
 7222SOL    HW233303   1.612   0.559   4.183 -1.1059 -0.0835 -1.5315
 7223SOL     OW33304   2.163   4.521  12.301  0.3320  0.0358 -0.3305
 7223SOL    HW133305   2.252   4.513  12.334 -0.4091 -2.6426  1.0085
 7223SOL    HW233306   2.171   4.521  12.205  0.4578 -0.7966 -0.3208
 7224SOL     OW33307   3.654   3.547   5.837  0.2453  0.6072 -0.2849
 7224SOL    HW133308   3.639   3.535   5.743 -0.9901 -2.0335  0.2521
 7224SOL    HW233309   3.675   3.458   5.864  0.0100  1.3964  2.4711
 7225SOL     OW33310   1.055   0.209   6.164  0.2037 -0.5873  0.1863
 7225SOL    HW133311   1.102   0.220   6.246 -4.5090  1.4905  2.5725
 7225SOL    HW233312   1.059   0.295   6.123 -1.0980 -0.4958  0.2596
 7226SOL     OW33313   3.393   3.763  14.922 -0.3963  0.2824 -0.2148
 7226SOL    HW133314   3.327   3.704  14.960 -1.7182  2.1521  0.4032
 7226SOL    HW233315   3.383   3.738  14.830  1.7355  0.4033 -0.4700
 7227SOL     OW33316   3.675   0.507   8.869 -0.3513  0.0646 -0.3469
 7227SOL    HW133317   3.583   0.531   8.856 -0.3304  0.2361 -0.1714
 7227SOL    HW233318   3.714   0.592   8.849 -1.0922  0.0938 -1.6985
 7228SOL     OW33319   0.917   3.789   9.607  0.0770 -0.4444 -0.4159
 7228SOL    HW133320   0.984   3.808   9.672 -2.0539  0.8017  1.3971
 7228SOL    HW233321   0.962   3.814   9.526  0.2087 -1.5902 -0.6917
 7229SOL     OW33322   0.244   1.341   2.451 -0.3054  0.6697 -0.0347
 7229SOL    HW133323   0.258   1.354   2.358 -1.7944 -0.0842 -0.3596
 7229SOL    HW233324   0.164   1.289   2.445  0.2837 -0.2573  0.1472
 7230SOL     OW33325   2.418   4.558  11.755 -0.4018  0.1335  0.6525
 7230SOL    HW133326   2.430   4.481  11.810 -0.1263  0.9906  1.7937
 7230SOL    HW233327   2.333   4.543  11.713 -0.2951  0.0881  0.4550
 7231SOL     OW33328   3.330   0.500   7.013  0.4092  0.0445  0.2725
 7231SOL    HW133329   3.254   0.488   7.070 -0.2667 -0.2845 -0.7084
 7231SOL    HW233330   3.329   0.593   6.991 -0.3516  0.0894  0.5033
 7232SOL     OW33331   3.337   2.508   0.533  0.0629  0.1485 -0.8970
 7232SOL    HW133332   3.355   2.542   0.445 -1.9362  0.0996 -1.3226
 7232SOL    HW233333   3.244   2.521   0.548  0.1859 -1.4714  1.2948
 7233SOL     OW33334   2.936   4.398   0.008  0.1847  0.5509 -0.3077
 7233SOL    HW133335   2.871   4.429  17.688 -0.3507  0.8908  0.4076
 7233SOL    HW233336   2.881   4.341   0.061 -0.3384 -0.3002 -1.7447
 7234SOL     OW33337   4.454   3.189   9.118 -0.2364 -0.0773 -0.6050
 7234SOL    HW133338   4.404   3.125   9.168  0.7514 -0.5030 -0.1760
 7234SOL    HW233339   4.529   3.203   9.176 -0.2680  0.6483 -0.7438
 7235SOL     OW33340   1.900   4.296  12.110  0.1631  0.6547  0.1819
 7235SOL    HW133341   1.981   4.286  12.161  1.5560 -0.1519 -2.1972
 7235SOL    HW233342   1.844   4.254  12.175  1.3275  2.5366  2.4452
 7236SOL     OW33343   1.141   0.524   8.017  0.2612  0.5173  0.6431
 7236SOL    HW133344   1.094   0.499   7.938  0.4951 -0.5113  0.8294
 7236SOL    HW233345   1.064   0.517   8.074 -0.1052 -0.6719  0.0083
 7237SOL     OW33346   3.461   2.310   4.199  0.0622 -0.3801 -0.4099
 7237SOL    HW133347   3.508   2.300   4.117 -3.7762  1.3461 -2.8168
 7237SOL    HW233348   3.412   2.389   4.176  0.9210  0.1629 -0.3806
 7238SOL     OW33349   4.169   1.915   2.703  0.3051 -0.0543 -0.6196
 7238SOL    HW133350   4.195   1.852   2.771  1.0520 -0.1770 -1.0126
 7238SOL    HW233351   4.246   1.971   2.695 -1.5004  2.6010  0.7074
 7239SOL     OW33352   1.295   2.347   8.000 -0.0966 -0.0419 -0.1527
 7239SOL    HW133353   1.353   2.298   7.942  0.3946  1.0061 -0.5406
 7239SOL    HW233354   1.211   2.302   7.995 -0.6173  1.0291 -0.9849
 7240SOL     OW33355   3.732   2.703   5.399 -0.4321  0.5690 -0.6366
 7240SOL    HW133356   3.714   2.677   5.309  1.5333 -0.7757 -0.6463
 7240SOL    HW233357   3.828   2.704   5.401 -0.5081  0.5382  4.1204
 7241SOL     OW33358   0.000   2.246   0.874  0.0731 -0.5925 -0.0600
 7241SOL    HW133359   4.695   2.213   0.954  1.5068 -0.5611  0.7038
 7241SOL    HW233360   4.715   2.338   0.889 -0.6190 -0.7663  0.0388
 7242SOL     OW33361   0.447   0.679   3.912  0.3759  0.2876  0.2681
 7242SOL    HW133362   0.535   0.714   3.919  1.1630 -1.9703  1.7698
 7242SOL    HW233363   0.388   0.743   3.952 -0.2712 -0.6855  0.8944
 7243SOL     OW33364   3.300   3.221   3.283 -0.1511 -0.5077 -0.0070
 7243SOL    HW133365   3.286   3.300   3.230 -2.4678 -1.5231 -0.9273
 7243SOL    HW233366   3.216   3.176   3.273 -0.2261 -0.3860  0.0768
 7244SOL     OW33367   4.570   1.961   7.628  0.7084  0.0757 -0.2369
 7244SOL    HW133368   4.508   2.003   7.568  2.0547 -1.9860 -3.0743
 7244SOL    HW233369   4.615   2.035   7.670 -0.0169 -0.0421  0.7364
 7245SOL     OW33370   1.886   2.398  13.025  0.0434  0.6809  0.2611
 7245SOL    HW133371   1.876   2.350  12.943  0.5954  0.8533  0.0864
 7245SOL    HW233372   1.975   2.434  13.018  0.1923 -0.0814 -1.7644
 7246SOL     OW33373   2.947   1.446   4.657 -0.3681  1.0745 -0.7867
 7246SOL    HW133374   2.965   1.457   4.563  2.4085 -2.9135 -0.7362
 7246SOL    HW233375   2.890   1.522   4.667 -1.8396 -0.0994 -0.4096
 7247SOL     OW33376   4.080   3.672   4.879 -0.2385 -0.1167  0.5343
 7247SOL    HW133377   4.170   3.640   4.880 -0.0244  0.4717  0.0780
 7247SOL    HW233378   4.079   3.756   4.834  2.1792 -1.0451 -1.2110
 7248SOL     OW33379   1.365   2.476   5.625  0.0550  0.7545  0.2423
 7248SOL    HW133380   1.384   2.486   5.532 -0.1115 -0.4248  0.0830
 7248SOL    HW233381   1.415   2.546   5.669 -2.7532  2.6791  0.3650
 7249SOL     OW33382   2.599   1.476   3.980 -0.2086 -0.0672 -0.0960
 7249SOL    HW133383   2.575   1.541   3.913 -1.4437  1.1708  1.5507
 7249SOL    HW233384   2.550   1.510   4.055  0.0787 -0.0988  0.1051
 7250SOL     OW33385   4.375   3.969  12.108  0.0480  0.2442 -0.3339
 7250SOL    HW133386   4.397   3.884  12.148 -0.4771  0.0813 -0.3950
 7250SOL    HW233387   4.380   3.953  12.014 -2.4034  0.3794 -0.4678
 7251SOL     OW33388   3.888   2.331   4.411 -0.3206  0.4705  0.1981
 7251SOL    HW133389   3.980   2.349   4.391 -0.1393  0.7995  1.3128
 7251SOL    HW233390   3.834   2.365   4.339 -0.9771 -0.9115  0.0475
 7252SOL     OW33391   4.346   2.299   0.442  0.2842  0.3815 -0.2191
 7252SOL    HW133392   4.395   2.341   0.512 -1.3387  1.2920  0.3651
 7252SOL    HW233393   4.386   2.212   0.449 -0.6738  0.1536  2.4809
 7253SOL     OW33394   1.323   2.098   4.415  0.3194  0.2603 -0.2060
 7253SOL    HW133395   1.227   2.101   4.413  0.4175  1.7511 -2.1349
 7253SOL    HW233396   1.344   2.053   4.333 -0.4110 -1.1804  0.3922
 7254SOL     OW33397   1.887   2.846   5.547 -0.0793  0.2058  0.4027
 7254SOL    HW133398   1.962   2.904   5.535  0.6149 -1.5178 -3.6190
 7254SOL    HW233399   1.878   2.830   5.641 -0.5154  0.0723  0.3396
 7255SOL     OW33400   3.210   0.772   2.654 -0.2414  0.3765 -0.0990
 7255SOL    HW133401   3.137   0.760   2.592 -0.2041 -1.1718  0.1728
 7255SOL    HW233402   3.160   0.829   2.713 -1.1817 -0.0775 -0.4467
 7256SOL     OW33403   3.462   2.609   9.331  0.2465 -0.4056  0.3758
 7256SOL    HW133404   3.375   2.598   9.369  1.1622 -1.0652  2.2970
 7256SOL    HW233405   3.487   2.701   9.344 -1.3164  0.2995 -1.7875
 7257SOL     OW33406   1.961   3.570   2.517 -0.0069  0.2770  0.4103
 7257SOL    HW133407   1.991   3.516   2.444  0.4098  1.7460 -0.5033
 7257SOL    HW233408   1.873   3.595   2.491  0.3281 -1.3615 -2.2808
 7258SOL     OW33409   0.276   1.801   6.629 -0.0339 -0.0387 -0.7726
 7258SOL    HW133410   0.369   1.821   6.630 -0.0839  0.2638 -1.6063
 7258SOL    HW233411   0.251   1.843   6.546 -1.4724  1.1501  0.2592
 7259SOL     OW33412   1.916   0.454   0.354 -0.5388  0.2166 -0.0682
 7259SOL    HW133413   1.839   0.403   0.328 -0.3475  0.5950 -1.3636
 7259SOL    HW233414   1.901   0.441   0.448 -1.1123  1.6053  0.0337
 7260SOL     OW33415   2.742   4.265   1.103 -0.3020  0.4749 -0.3062
 7260SOL    HW133416   2.683   4.201   1.062  0.3601  0.4350 -1.2149
 7260SOL    HW233417   2.760   4.205   1.175 -1.8821  1.8088  1.2014
 7261SOL     OW33418   1.448   1.699   9.425  0.1969  0.3384  0.2823
 7261SOL    HW133419   1.360   1.698   9.464  1.0015 -0.1495  2.1050
 7261SOL    HW233420   1.480   1.786   9.447 -0.8611  1.0295 -0.9393
 7262SOL     OW33421   4.472   1.656  11.876  0.2360  0.5221  0.1213
 7262SOL    HW133422   4.390   1.651  11.825 -0.2179  1.0646  0.7871
 7262SOL    HW233423   4.534   1.686  11.810 -0.2820 -0.6504 -0.8985
 7263SOL     OW33424   4.728   3.615   1.854 -0.4264  0.6633  0.2062
 7263SOL    HW133425   4.735   3.706   1.825  0.1541  0.4191 -0.4102
 7263SOL    HW233426   4.733   3.639   1.947  1.7604 -1.9292  0.7315
 7264SOL     OW33427   3.564   0.507   9.598 -0.1845 -0.4961  0.3066
 7264SOL    HW133428   3.540   0.420   9.566 -1.8267 -0.5753  1.7301
 7264SOL    HW233429   3.474   0.534   9.616  0.2410  0.9937  0.2205
 7265SOL     OW33430   3.961   4.655   6.028 -0.0208 -0.0037  0.2192
 7265SOL    HW133431   4.050   4.621   6.023 -0.2086 -0.5623  0.7595
 7265SOL    HW233432   3.909   4.575   6.038 -1.3803  1.0926  2.0215
 7266SOL     OW33433   3.197   2.202   9.598  0.3388 -0.1391 -0.2144
 7266SOL    HW133434   3.234   2.197   9.687 -3.0037  0.3820  1.1982
 7266SOL    HW233435   3.118   2.249   9.624  1.1923  0.8529  0.6480
 7267SOL     OW33436   3.852   3.034   1.469  0.0807  0.2177 -0.5942
 7267SOL    HW133437   3.761   3.009   1.488  0.0223  1.6175  0.9566
 7267SOL    HW233438   3.834   3.105   1.408  1.8121  1.8977  0.8608
 7268SOL     OW33439   2.709   2.544   9.765  0.2741  0.3562 -0.1254
 7268SOL    HW133440   2.729   2.557   9.672 -2.1714  0.6219 -0.6405
 7268SOL    HW233441   2.622   2.504   9.755  0.5863 -0.5054  0.6762
 7269SOL     OW33442   3.967   1.758  15.971 -0.4676  0.3116  0.4808
 7269SOL    HW133443   3.906   1.692  16.004 -1.4668  1.6876  1.3623
 7269SOL    HW233444   3.939   1.765  15.880  1.0376  0.1240  0.0063
 7270SOL     OW33445   0.387   0.620  12.362 -0.2613  0.3680  0.1292
 7270SOL    HW133446   0.395   0.621  12.458 -1.2066  3.8120  0.1774
 7270SOL    HW233447   0.314   0.680  12.350 -1.2533 -1.4744 -3.0531
 7271SOL     OW33448   3.739   3.526  11.956 -0.4432  0.7687 -0.5369
 7271SOL    HW133449   3.791   3.505  11.878 -0.5445 -1.3293 -0.0422
 7271SOL    HW233450   3.656   3.488  11.927  0.2739 -2.0104  1.0498
 7272SOL     OW33451   1.790   0.840   3.092 -0.2652  0.1039 -0.3824
 7272SOL    HW133452   1.862   0.881   3.139 -0.5031  1.2303 -1.0049
 7272SOL    HW233453   1.825   0.841   3.003  2.4967 -2.1967  0.6869
 7273SOL     OW33454   4.670   2.122  17.521 -0.4054  0.0305  0.2043
 7273SOL    HW133455   4.680   2.217  17.523  0.0205  0.0329 -2.0131
 7273SOL    HW233456   4.576   2.118  17.507 -0.1867 -0.2012 -1.1848
 7274SOL     OW33457   2.167   0.801   1.992  0.1565 -0.1586  0.3253
 7274SOL    HW133458   2.082   0.812   1.950  0.5912 -0.6437 -0.6715
 7274SOL    HW233459   2.163   0.707   2.008 -0.4793 -0.6357 -2.7473
 7275SOL     OW33460   2.289   0.564   0.590 -0.1689 -0.2676  0.6111
 7275SOL    HW133461   2.245   0.482   0.569 -3.4702  1.2427  1.7728
 7275SOL    HW233462   2.379   0.535   0.607  0.8351  0.5744 -3.1861
 7276SOL     OW33463   1.018   3.397   0.835  0.1433 -0.3577  0.2357
 7276SOL    HW133464   1.027   3.486   0.800  2.1603 -0.8639 -0.5580
 7276SOL    HW233465   0.982   3.351   0.759 -0.8204  2.9915 -1.3641
 7277SOL     OW33466   1.059   3.608   3.354 -0.3561  0.3998 -0.0029
 7277SOL    HW133467   1.132   3.589   3.413 -1.1795  0.6554  1.1007
 7277SOL    HW233468   0.996   3.595   3.425 -1.0354  1.6434 -0.3868
 7278SOL     OW33469   1.969   3.080   7.176 -0.5290 -0.0026  0.4479
 7278SOL    HW133470   2.063   3.059   7.177 -0.5029  0.1182  0.7755
 7278SOL    HW233471   1.983   3.174   7.190  1.0463 -0.3729  1.4137
 7279SOL     OW33472   4.369   4.371   9.079 -0.2668 -0.5923 -0.1797
 7279SOL    HW133473   4.434   4.373   9.009 -0.3366  0.1623 -0.2229
 7279SOL    HW233474   4.362   4.281   9.110 -1.3561 -0.6782 -0.6907
 7280SOL     OW33475   2.409   4.391  14.551 -0.5269  0.1508 -0.2300
 7280SOL    HW133476   2.373   4.439  14.477 -0.3732  0.4645 -0.0975
 7280SOL    HW233477   2.475   4.348  14.497 -0.8501 -2.2790  1.2804
 7281SOL     OW33478   3.294   2.473   9.531 -0.1241  0.5148  0.0663
 7281SOL    HW133479   3.289   2.435   9.619  1.1834 -0.9382 -0.4821
 7281SOL    HW233480   3.213   2.524   9.529 -0.2862  0.3749  3.2380
 7282SOL     OW33481   2.203   4.059   5.168 -0.6107  0.2206 -0.3346
 7282SOL    HW133482   2.259   4.130   5.137 -1.4542  2.0301  2.3037
 7282SOL    HW233483   2.256   3.981   5.155 -0.7239 -0.4010  2.8877
 7283SOL     OW33484   1.077   0.849   2.955 -0.2169  0.5041 -0.0251
 7283SOL    HW133485   1.003   0.795   2.926  0.3190 -0.6631  0.8048
 7283SOL    HW233486   1.154   0.801   2.926  1.5970  1.9985  2.3697
 7284SOL     OW33487   1.518   4.448  10.353  0.3262 -0.3168 -0.0888
 7284SOL    HW133488   1.601   4.493  10.369  0.9025 -1.1870 -0.6315
 7284SOL    HW233489   1.488   4.417  10.438 -3.0241  1.8360 -0.4952
 7285SOL     OW33490   4.454   2.410   9.933 -0.0583  0.4375  0.0900
 7285SOL    HW133491   4.408   2.457  10.003  0.2011 -0.7128  1.0122
 7285SOL    HW233492   4.510   2.364   9.994 -1.1146 -0.6201  0.2546
 7286SOL     OW33493   2.563   2.694   1.094  0.6255  0.6416 -0.3580
 7286SOL    HW133494   2.549   2.660   1.005  0.3134 -0.9363  0.2861
 7286SOL    HW233495   2.474   2.716   1.123  0.3501  1.4936 -1.8676
 7287SOL     OW33496   2.046   4.437  15.241  0.0433  0.1024 -0.2018
 7287SOL    HW133497   2.078   4.413  15.328  2.8384  2.7093 -0.5065
 7287SOL    HW233498   2.037   4.532  15.253  2.4678  0.0910  1.7629
 7288SOL     OW33499   2.703   4.610   5.649 -0.2694 -0.2572 -0.3422
 7288SOL    HW133500   2.774   4.570   5.699  0.0294  2.4129  1.3496
 7288SOL    HW233501   2.620   4.613   5.697  0.2502  0.3623  0.5140
 7289SOL     OW33502   3.836   3.000   5.482  0.0571  0.0315 -0.1676
 7289SOL    HW133503   3.844   2.905   5.479 -1.2447 -0.0765 -0.4311
 7289SOL    HW233504   3.911   3.025   5.428  1.1468  1.1395  1.8423
 7290SOL     OW33505   1.870   3.355   4.555 -0.4389  0.5478  0.1470
 7290SOL    HW133506   1.866   3.421   4.486  0.8120 -0.7444 -1.1538
 7290SOL    HW233507   1.956   3.378   4.592 -0.1854  3.5602 -2.2714
 7291SOL     OW33508   1.006   0.562   5.209  0.3594  0.0065  0.3236
 7291SOL    HW133509   0.925   0.600   5.174  0.6972  0.0903 -0.3681
 7291SOL    HW233510   0.981   0.600   5.293 -0.1262  0.7816 -0.1652
 7292SOL     OW33511   4.044   3.478   7.130  0.0416  0.3948 -0.0444
 7292SOL    HW133512   4.077   3.421   7.200 -1.1819 -0.7213 -0.3706
 7292SOL    HW233513   4.053   3.562   7.175  1.2560  1.9938 -3.2506
 7293SOL     OW33514   2.398   4.501   1.876  0.4696 -0.6453 -0.5331
 7293SOL    HW133515   2.441   4.493   1.790  1.8881  0.3050  0.0977
 7293SOL    HW233516   2.456   4.552   1.931 -0.1611 -0.2480 -0.2372
 7294SOL     OW33517   3.990   0.969  15.831  0.1272  0.2900  0.1461
 7294SOL    HW133518   4.057   0.901  15.819 -0.4555 -0.4308  1.0004
 7294SOL    HW233519   3.910   0.924  15.808  0.3606  0.2146 -0.5163
 7295SOL     OW33520   3.638   0.148   1.069  0.2408  0.4207 -0.0502
 7295SOL    HW133521   3.638   0.234   1.112  0.4669  0.7841 -0.7881
 7295SOL    HW233522   3.706   0.163   1.004 -0.1535 -2.5068 -1.1098
 7296SOL     OW33523   3.954   2.857   6.185 -0.2876  0.0305  0.1635
 7296SOL    HW133524   3.895   2.931   6.199 -0.5600 -0.0199 -0.7332
 7296SOL    HW233525   3.973   2.839   6.277  0.6595  1.2172  0.2006
 7297SOL     OW33526   0.367   4.349   3.748  0.2613 -0.5079  0.4686
 7297SOL    HW133527   0.455   4.314   3.741  0.5090 -0.4846  3.7178
 7297SOL    HW233528   0.395   4.440   3.744  0.7352 -0.6947 -0.4436
 7298SOL     OW33529   1.998   1.974   7.165 -0.4476  0.2660  0.3923
 7298SOL    HW133530   1.950   2.033   7.107  1.4278  1.4215  0.0313
 7298SOL    HW233531   2.076   1.949   7.116  0.9299 -0.2411  2.8230
 7299SOL     OW33532   0.489   3.471   4.301 -0.2508 -0.0204  0.1143
 7299SOL    HW133533   0.401   3.446   4.273  0.3058 -0.7521 -0.9922
 7299SOL    HW233534   0.540   3.486   4.221  0.2348 -1.0726  0.2209
 7300SOL     OW33535   0.352   4.191   1.671 -0.3381  0.8032  0.0988
 7300SOL    HW133536   0.257   4.188   1.662 -0.2333 -0.6857 -0.4636
 7300SOL    HW233537   0.371   4.245   1.748  3.9029  0.9930 -1.1068
 7301SOL     OW33538   0.185   0.510   5.659  0.0512  0.5026 -0.0704
 7301SOL    HW133539   0.097   0.497   5.694  0.0480 -0.7394 -0.5581
 7301SOL    HW233540   0.223   0.426   5.683 -1.9190 -0.1648  0.6953
 7302SOL     OW33541   3.496   0.710   1.744  0.2337 -0.0561  0.2973
 7302SOL    HW133542   3.521   0.717   1.836 -1.5485  1.9414  0.6233
 7302SOL    HW233543   3.408   0.672   1.751  0.0965  0.4022  1.0018
 7303SOL     OW33544   1.642   0.338   9.527 -0.1795 -0.2587 -0.1674
 7303SOL    HW133545   1.705   0.399   9.489 -1.1710  0.4521 -0.6851
 7303SOL    HW233546   1.697   0.284   9.583 -0.6199 -0.9209 -0.3726
 7304SOL     OW33547   0.390   2.193   4.345  0.0218  0.1308  0.2967
 7304SOL    HW133548   0.438   2.195   4.262  0.7499  0.0221  0.7156
 7304SOL    HW233549   0.427   2.109   4.373  0.7558  0.8919  1.6008
 7305SOL     OW33550   3.681   3.466   7.701  0.3443 -0.2870 -0.4303
 7305SOL    HW133551   3.602   3.500   7.660  0.8855  0.7415 -0.6253
 7305SOL    HW233552   3.651   3.382   7.734 -1.3574  0.3961 -0.2406
 7306SOL     OW33553   3.976   1.057   2.272  0.3954  0.5592 -0.0637
 7306SOL    HW133554   3.946   0.974   2.235 -0.5631  0.9988 -0.2728
 7306SOL    HW233555   3.904   1.113   2.241 -1.1732 -0.3279  1.9726
 7307SOL     OW33556   3.307   3.675  17.474  0.1126  0.0951  0.0131
 7307SOL    HW133557   3.287   3.765  17.500 -0.0597  0.2902 -0.8019
 7307SOL    HW233558   3.401   3.660  17.484 -0.0234  0.7900  2.5219
 7308SOL     OW33559   2.316   3.537   0.896 -0.8765  0.5527  0.2366
 7308SOL    HW133560   2.380   3.467   0.909  1.1095  2.0336 -1.5977
 7308SOL    HW233561   2.356   3.592   0.829 -0.7708  0.8223  0.5198
 7309SOL     OW33562   2.778   1.460   2.835 -0.4011 -0.5184 -0.4294
 7309SOL    HW133563   2.759   1.487   2.925 -1.9281 -2.0697 -0.3030
 7309SOL    HW233564   2.777   1.549   2.799 -2.4400 -0.2938  0.2049
 7310SOL     OW33565   4.335   3.570   7.093  0.3466 -0.1159 -0.0389
 7310SOL    HW133566   4.286   3.583   7.174 -0.7057 -3.0085 -0.1984
 7310SOL    HW233567   4.266   3.523   7.045  0.2036  0.3341 -0.2701
 7311SOL     OW33568   0.233   0.055  11.148  0.1648 -0.4415 -0.0187
 7311SOL    HW133569   0.318   0.043  11.106 -0.9868 -1.1626 -2.1201
 7311SOL    HW233570   0.210   0.142  11.115  1.4751  0.4313  1.3941
 7312SOL     OW33571   1.112   2.727   9.504 -0.1398 -0.0025  0.2996
 7312SOL    HW133572   1.047   2.790   9.473  0.4969  0.6025  0.1941
 7312SOL    HW233573   1.066   2.692   9.580  1.5678 -0.1633  1.2684
 7313SOL     OW33574   4.489   0.403   1.674 -0.7276 -0.7927  0.1667
 7313SOL    HW133575   4.532   0.335   1.727 -0.6542 -1.5351 -0.8553
 7313SOL    HW233576   4.500   0.475   1.736 -1.6972 -0.7394  0.2680
 7314SOL     OW33577   3.212   4.379   8.958  0.5776  0.0071  0.2159
 7314SOL    HW133578   3.170   4.464   8.971 -1.8601 -0.5692 -3.7231
 7314SOL    HW233579   3.272   4.371   9.032  2.1064  0.0249 -1.0086
 7315SOL     OW33580   0.795   0.431   6.818  0.2391  0.3622 -0.3535
 7315SOL    HW133581   0.746   0.469   6.891  0.2760  0.0710 -0.1773
 7315SOL    HW233582   0.748   0.456   6.739  0.4820 -3.0779 -1.6006
 7316SOL     OW33583   1.235   0.488  17.484 -0.4332  0.5510 -0.3026
 7316SOL    HW133584   1.246   0.533  17.567 -2.8006  0.5282  0.0211
 7316SOL    HW233585   1.269   0.557  17.427 -1.4032 -0.2129 -1.8342
 7317SOL     OW33586   0.080   3.438   1.080 -0.4837 -0.0746  0.2736
 7317SOL    HW133587   0.165   3.403   1.105 -0.6999  1.0648  2.5984
 7317SOL    HW233588   0.099   3.529   1.054  0.3558  0.4566  2.7415
 7318SOL     OW33589   0.246   4.219  15.928  0.3105 -0.5684 -0.5396
 7318SOL    HW133590   0.193   4.152  15.886 -0.9730 -0.6217  1.1767
 7318SOL    HW233591   0.183   4.283  15.962 -0.8808 -0.9911 -1.9478
 7319SOL     OW33592   0.197   3.272  14.770  0.2008 -0.2628 -0.0309
 7319SOL    HW133593   0.115   3.321  14.762  0.1852 -0.5183 -1.6018
 7319SOL    HW233594   0.174   3.185  14.736  1.2065 -1.1858  1.6675
 7320SOL     OW33595   1.816   4.175   7.050  0.0478 -0.5415  0.1118
 7320SOL    HW133596   1.886   4.168   7.114  0.9560  0.0756 -0.8199
 7320SOL    HW233597   1.855   4.228   6.981 -0.6914 -0.6581 -0.4015
 7321SOL     OW33598   1.605   4.041   7.899 -0.1185 -0.1096  0.0269
 7321SOL    HW133599   1.646   3.991   7.969 -1.3458 -0.6178  0.3969
 7321SOL    HW233600   1.514   4.038   7.930  0.2211  2.9028  1.3794
 7322SOL     OW33601   3.584   0.204   2.988 -0.6774 -0.1157 -0.7926
 7322SOL    HW133602   3.560   0.158   2.908  3.0048 -0.2710 -1.8208
 7322SOL    HW233603   3.601   0.124   3.037 -0.0643 -0.3960 -1.4683
 7323SOL     OW33604   0.950   3.696  12.017  0.5634 -0.8189 -0.3811
 7323SOL    HW133605   0.890   3.758  12.058 -0.8582 -1.8820 -0.8575
 7323SOL    HW233606   0.950   3.738  11.931  0.1716  0.3053  0.1763
 7324SOL     OW33607   0.850   2.437   9.501  0.2398  0.1343  1.0297
 7324SOL    HW133608   0.799   2.381   9.560 -0.4388 -0.9675 -0.5955
 7324SOL    HW233609   0.902   2.491   9.559  0.1567  3.2969 -1.8438
 7325SOL     OW33610   0.413   3.788   4.040  0.1373  0.2141 -0.4484
 7325SOL    HW133611   0.341   3.731   4.066 -1.8238  2.1862 -1.5834
 7325SOL    HW233612   0.388   3.866   4.089  1.0110  1.1693 -1.5152
 7326SOL     OW33613   0.355   0.627   8.938  0.0327  0.0083 -0.2088
 7326SOL    HW133614   0.423   0.683   8.900 -0.1868 -0.3001 -1.0654
 7326SOL    HW233615   0.398   0.541   8.931 -1.3098 -0.6038 -0.9122
 7327SOL     OW33616   4.563   3.939  15.664 -0.6267 -0.2932 -0.3944
 7327SOL    HW133617   4.527   4.022  15.630  1.0433  1.0958  1.2446
 7327SOL    HW233618   4.629   3.937  15.594  1.2686  1.2928  1.3557
 7328SOL     OW33619   2.035   3.436   1.211  0.9503  0.6280  0.1191
 7328SOL    HW133620   2.052   3.365   1.149 -4.6095 -0.4741 -0.1226
 7328SOL    HW233621   2.074   3.509   1.164 -0.3327 -0.3931 -2.5189
 7329SOL     OW33622   3.969   0.207  12.045  0.2639 -0.2528 -0.0866
 7329SOL    HW133623   4.035   0.162  12.098 -0.0413  1.2721  1.6023
 7329SOL    HW233624   3.994   0.169  11.961  0.2924  0.2601 -0.3126
 7330SOL     OW33625   4.488   2.483   1.699 -0.3729  0.2911 -0.8398
 7330SOL    HW133626   4.527   2.539   1.632 -0.9711  0.6076 -0.9215
 7330SOL    HW233627   4.518   2.402   1.657 -0.5679 -0.1047 -0.2149
 7331SOL     OW33628   2.055   4.192  12.308 -0.1481  0.1873 -0.0055
 7331SOL    HW133629   2.144   4.162  12.290 -0.0636  0.2926  0.2310
 7331SOL    HW233630   2.009   4.122  12.354 -0.3149  0.2535 -0.0707
 7332SOL     OW33631   1.140   1.398   1.816 -0.7372  0.6524 -0.3524
 7332SOL    HW133632   1.217   1.361   1.858 -0.7549  2.0388  0.9203
 7332SOL    HW233633   1.098   1.319   1.783  0.3390  0.3064 -0.8744
 7333SOL     OW33634   3.566   0.153  17.066  0.4134 -0.0987 -0.4203
 7333SOL    HW133635   3.588   0.145  17.159  1.4333  0.5292 -0.6060
 7333SOL    HW233636   3.538   0.245  17.068  1.6913  0.2963 -0.5816
 7334SOL     OW33637   0.128   3.237   4.110 -0.5103 -0.1613 -0.0597
 7334SOL    HW133638   0.056   3.198   4.158  0.5349 -2.0825 -0.0530
 7334SOL    HW233639   0.196   3.170   4.112  0.5399  0.8576 -1.2325
 7335SOL     OW33640   0.623   3.532  16.417 -0.2320 -0.1783  0.0057
 7335SOL    HW133641   0.685   3.524  16.344  1.4752 -1.1314  1.5543
 7335SOL    HW233642   0.683   3.549  16.489 -0.2198 -1.1929  0.2434
 7336SOL     OW33643   4.651   1.576  15.316 -0.1386  0.2082  0.2823
 7336SOL    HW133644   4.577   1.518  15.336 -0.4439 -0.0460 -1.5924
 7336SOL    HW233645   4.714   1.543  15.380  0.5664 -0.4081 -0.7398
 7337SOL     OW33646   2.140   4.644   9.445 -0.3235 -0.2079 -0.6512
 7337SOL    HW133647   2.138   4.646   9.540  1.9235 -1.8895 -0.5816
 7337SOL    HW233648   2.231   4.617   9.433  0.8139  1.9220  2.9962
 7338SOL     OW33649   4.512   4.670   1.901 -0.4669 -0.0649  0.0826
 7338SOL    HW133650   4.433   4.625   1.871 -1.1178  0.9389  0.2990
 7338SOL    HW233651   4.563   4.603   1.947  3.1033  1.5247 -1.5594
 7339SOL     OW33652   2.605   3.098   3.238  0.1674 -0.1091 -0.0417
 7339SOL    HW133653   2.674   3.049   3.283  0.3823  0.7590  0.5774
 7339SOL    HW233654   2.610   3.062   3.150  0.7291  0.4062 -0.2198
 7340SOL     OW33655   3.880   1.804   5.902  0.0481  0.2418  0.3094
 7340SOL    HW133656   3.802   1.822   5.848 -0.0200  1.9480  0.9552
 7340SOL    HW233657   3.847   1.737   5.961 -1.5051  0.2734 -0.5087
 7341SOL     OW33658   4.516   0.527   8.414  0.7471 -0.3496 -0.3955
 7341SOL    HW133659   4.544   0.487   8.332  2.2556  0.6374 -0.3515
 7341SOL    HW233660   4.485   0.613   8.387 -1.6427 -0.8592  0.7038
 7342SOL     OW33661   3.887   2.059   8.347 -0.6676  0.1294 -0.6581
 7342SOL    HW133662   3.891   2.049   8.252  3.6323  0.1454 -0.4611
 7342SOL    HW233663   3.853   1.971   8.368 -1.6758  0.9015  0.9670
 7343SOL     OW33664   2.882   1.571   6.770 -0.1291  0.1317 -0.1044
 7343SOL    HW133665   2.880   1.517   6.691  3.7064  1.7610 -1.2881
 7343SOL    HW233666   2.788   1.591   6.773 -0.2909 -0.5843 -0.4612
 7344SOL     OW33667   2.819   3.355  14.758  0.0173  0.2043 -0.2617
 7344SOL    HW133668   2.732   3.381  14.726 -0.0830 -0.1965 -0.3141
 7344SOL    HW233669   2.791   3.328  14.846  0.0589 -0.9097 -0.5860
 7345SOL     OW33670   0.920   1.655   2.310  0.6747  0.3526  0.7631
 7345SOL    HW133671   0.846   1.611   2.269  1.4366  0.7404 -1.0242
 7345SOL    HW233672   0.909   1.632   2.402  1.1293  1.6337  1.1348
 7346SOL     OW33673   1.259   2.291   6.066  0.6136 -0.1508 -0.0602
 7346SOL    HW133674   1.205   2.313   6.142 -1.3618 -1.2962 -1.1338
 7346SOL    HW233675   1.335   2.349   6.078  1.8409 -1.7136 -0.2570
 7347SOL     OW33676   1.422   1.870   9.093 -0.0658  0.4100  0.5917
 7347SOL    HW133677   1.438   1.912   9.177  2.1095 -0.1575  0.4578
 7347SOL    HW233678   1.349   1.920   9.056 -0.8855 -1.5096 -0.4256
 7348SOL     OW33679   4.677   0.705   2.359  0.2789  0.2830 -0.4747
 7348SOL    HW133680   4.584   0.699   2.336  0.3031 -0.5930 -0.3551
 7348SOL    HW233681   4.695   0.795   2.331 -0.2278  0.4166 -0.3742
 7349SOL     OW33682   2.476   1.054  17.506 -0.3723  0.6884 -0.0816
 7349SOL    HW133683   2.438   1.125  17.558 -1.8984  0.4859 -0.9029
 7349SOL    HW233684   2.428   1.057  17.423 -2.2204 -1.1843  0.9156
 7350SOL     OW33685   0.180   2.936  11.203 -0.0532 -0.6608  0.3191
 7350SOL    HW133686   0.263   2.978  11.226 -2.2063  2.7446  1.7773
 7350SOL    HW233687   0.172   2.874  11.276  2.0852 -0.0232  1.0826
 7351SOL     OW33688   0.307   1.320   6.350 -0.3543 -0.0069  0.5906
 7351SOL    HW133689   0.295   1.386   6.418 -2.8722 -0.1504  0.2777
 7351SOL    HW233690   0.334   1.371   6.273 -1.2112  0.0554  0.3311
 7352SOL     OW33691   1.267   3.323   4.110 -0.4239 -0.0484  0.0735
 7352SOL    HW133692   1.260   3.246   4.166  0.0101 -0.2321 -0.1239
 7352SOL    HW233693   1.360   3.314   4.086 -1.0382 -0.3982 -2.2108
 7353SOL     OW33694   1.036   1.837   4.288  0.0770  0.2835  0.1376
 7353SOL    HW133695   1.058   1.921   4.329  0.7181 -0.1412  0.6656
 7353SOL    HW233696   0.960   1.866   4.237  0.3313  0.8020  0.0489
 7354SOL     OW33697   2.752   1.294  14.245 -0.2453  0.1561  0.2527
 7354SOL    HW133698   2.788   1.226  14.189  0.5237 -1.2688  2.4705
 7354SOL    HW233699   2.663   1.259  14.257  1.0834 -2.4486  2.5742
 7355SOL     OW33700   2.367   3.356   6.411  0.1977  0.5547 -0.1443
 7355SOL    HW133701   2.353   3.279   6.466 -2.1708  1.1037  0.0225
 7355SOL    HW233702   2.372   3.302   6.333 -1.4462  0.7576 -0.3879
 7356SOL     OW33703   1.780   0.060   5.860 -0.2887  0.6744 -0.2270
 7356SOL    HW133704   1.869   0.091   5.877 -0.5446  0.5602  1.3255
 7356SOL    HW233705   1.738   0.056   5.946 -1.5895  0.0174 -0.8947
 7357SOL     OW33706   4.611   1.926   3.005  0.2604  0.4674  0.2130
 7357SOL    HW133707   4.587   1.914   3.097  1.9652 -0.6204  0.5130
 7357SOL    HW233708   4.603   2.021   2.994 -2.1623  0.1876 -0.3582
 7358SOL     OW33709   3.035   1.686  14.820 -0.2058 -0.1680 -0.1812
 7358SOL    HW133710   2.992   1.684  14.734  2.4559  0.1288 -1.5244
 7358SOL    HW233711   2.990   1.756  14.866 -0.2426 -0.6254  0.4864
 7359SOL     OW33712   0.161   4.585  14.289  0.0748  0.2689 -0.4401
 7359SOL    HW133713   0.082   4.562  14.337  1.0860  0.6128  1.3712
 7359SOL    HW233714   0.230   4.547  14.343 -0.4183 -2.7707 -1.9339
 7360SOL     OW33715   0.007   1.788   5.293 -0.2813 -0.2022 -0.0139
 7360SOL    HW133716   4.700   1.783   5.378  0.5913  1.2820  0.5232
 7360SOL    HW233717   0.081   1.733   5.319  0.4289 -0.9664 -3.6079
 7361SOL     OW33718   1.479   1.310   8.506 -0.2562  0.3422  0.0553
 7361SOL    HW133719   1.510   1.220   8.504  0.1648  0.4846 -0.0096
 7361SOL    HW233720   1.563   1.356   8.502 -1.0259  1.6430 -1.0913
 7362SOL     OW33721   0.048   2.810   5.296  0.3450  0.3089  0.6604
 7362SOL    HW133722   0.005   2.822   5.211  1.3474  0.0547  0.1147
 7362SOL    HW233723   4.731   2.741   5.336  0.9175 -0.0737  0.7675
 7363SOL     OW33724   4.097   2.924   2.475  0.8688  0.0604  0.2453
 7363SOL    HW133725   4.081   2.996   2.414 -0.8166 -0.2021  0.3838
 7363SOL    HW233726   4.149   2.869   2.417 -2.0658 -0.7614 -1.5916
 7364SOL     OW33727   0.271   1.099   4.818  0.4647  0.1404  0.1481
 7364SOL    HW133728   0.264   1.141   4.903  0.2714  2.0901 -0.8238
 7364SOL    HW233729   0.326   1.022   4.829 -1.8104 -1.6597 -0.9772
 7365SOL     OW33730   4.196   3.478   5.237 -0.4279 -0.4439 -0.5325
 7365SOL    HW133731   4.130   3.506   5.301  0.7526 -1.0944  0.9771
 7365SOL    HW233732   4.145   3.461   5.158 -0.7194 -3.0004  0.1987
 7366SOL     OW33733   2.783   0.193  10.622  0.5510 -0.3997 -0.2453
 7366SOL    HW133734   2.796   0.128  10.691  3.6270 -1.5300 -1.8853
 7366SOL    HW233735   2.739   0.141  10.556  0.2995 -2.3254  1.4457
 7367SOL     OW33736   2.435   0.653   7.479 -0.7025 -0.2643 -0.5972
 7367SOL    HW133737   2.413   0.645   7.386 -2.7131  1.2470 -0.2666
 7367SOL    HW233738   2.351   0.691   7.505 -0.3233 -1.0465  1.7680
 7368SOL     OW33739   2.598   3.829  14.915  0.2398 -0.0221  0.1980
 7368SOL    HW133740   2.692   3.814  14.906  0.2582  0.2290 -0.0154
 7368SOL    HW233741   2.599   3.924  14.917  0.1445  0.0038 -1.3118
 7369SOL     OW33742   4.467   3.796   6.262  0.4423 -0.1124 -0.2727
 7369SOL    HW133743   4.501   3.783   6.350  1.2872 -0.2976 -0.6234
 7369SOL    HW233744   4.536   3.852   6.227  1.2549  0.1568  1.7674
 7370SOL     OW33745   0.238   3.420   8.301 -0.0027  0.0721 -0.2061
 7370SOL    HW133746   0.263   3.362   8.373  0.4398 -0.8988 -1.1536
 7370SOL    HW233747   0.307   3.405   8.237 -0.1950  0.6983 -0.5583
 7371SOL     OW33748   0.958   3.759   1.995  0.3753 -0.0138 -0.6685
 7371SOL    HW133749   0.999   3.698   2.057  1.2259  1.8115  0.5810
 7371SOL    HW233750   1.028   3.770   1.931  0.4525 -1.6472 -0.8627
 7372SOL     OW33751   0.556   4.482   8.241  0.0358 -0.6902 -0.1062
 7372SOL    HW133752   0.491   4.425   8.200 -0.4327 -0.8010  0.7878
 7372SOL    HW233753   0.636   4.467   8.191 -0.9004 -0.2819 -1.7081
 7373SOL     OW33754   4.219   2.878   5.679  0.0381  0.1725  0.0386
 7373SOL    HW133755   4.134   2.841   5.703  1.4422 -0.8043  3.3667
 7373SOL    HW233756   4.262   2.849   5.759 -1.3976 -2.4547 -0.1462
 7374SOL     OW33757   1.402   3.674   2.822  0.5858  0.0123 -0.8621
 7374SOL    HW133758   1.363   3.760   2.831  0.0582 -0.4092  0.7615
 7374SOL    HW233759   1.370   3.644   2.737 -0.9780 -1.1503  0.1447
 7375SOL     OW33760   3.786   3.406   6.862  0.0149  0.3794 -0.3309
 7375SOL    HW133761   3.831   3.346   6.921 -0.5346  0.0736 -0.2291
 7375SOL    HW233762   3.699   3.366   6.862  0.0603  0.2934  0.4409
 7376SOL     OW33763   1.310   4.477   5.270 -0.3329  0.1151 -0.3239
 7376SOL    HW133764   1.353   4.416   5.210  1.4101  0.9528  0.0824
 7376SOL    HW233765   1.235   4.429   5.306  0.3381 -0.5868  0.1341
 7377SOL     OW33766   1.523   3.423   2.528 -0.3068  0.0765  0.0610
 7377SOL    HW133767   1.546   3.355   2.591  0.1446  0.3624  0.2036
 7377SOL    HW233768   1.519   3.368   2.449 -1.3066 -0.8108  0.7299
 7378SOL     OW33769   4.494   4.710   7.262  0.0072 -0.2643 -0.1798
 7378SOL    HW133770   4.569   0.014   7.218  1.0871  0.5531  2.4496
 7378SOL    HW233771   4.425   0.040   7.261  0.0568 -0.2129 -0.1836
 7379SOL     OW33772   0.128   3.653  12.996 -0.4491 -0.3233  0.0622
 7379SOL    HW133773   0.120   3.707  13.075  0.5362 -1.9335  1.2842
 7379SOL    HW233774   0.096   3.705  12.922 -1.7159 -3.1764 -1.3864
 7380SOL     OW33775   2.576   4.591   8.500 -0.0680  0.2777  0.0708
 7380SOL    HW133776   2.585   4.574   8.407  2.9766 -0.8280  0.5472
 7380SOL    HW233777   2.501   4.650   8.497 -1.7972 -1.8040  1.9661
 7381SOL     OW33778   3.210   1.017  11.388 -0.1798  0.1018  0.0843
 7381SOL    HW133779   3.249   0.973  11.313 -2.0325  1.0688 -1.4363
 7381SOL    HW233780   3.117   0.995  11.381 -0.2606  0.9999 -1.4929
 7382SOL     OW33781   1.306   3.192  13.193 -0.1826 -0.3914  0.4758
 7382SOL    HW133782   1.283   3.149  13.111  0.0407 -0.2494  0.3401
 7382SOL    HW233783   1.401   3.182  13.194  0.0282  1.5858  1.3362
 7383SOL     OW33784   3.396   3.824   4.807 -0.4292  0.5915 -0.9049
 7383SOL    HW133785   3.423   3.903   4.853  0.3665  0.5390 -1.2933
 7383SOL    HW233786   3.328   3.869   4.756 -2.2482 -0.1183  0.8769
 7384SOL     OW33787   1.186   3.178  14.911  0.1220  0.0294  0.5017
 7384SOL    HW133788   1.170   3.207  14.821 -1.5077 -1.4298  0.3366
 7384SOL    HW233789   1.282   3.176  14.918  0.4162  2.3872 -2.4539
 7385SOL     OW33790   4.542   4.339  12.479 -0.3570  0.3885  0.3936
 7385SOL    HW133791   4.451   4.325  12.452  0.0782  2.2219 -1.9434
 7385SOL    HW233792   4.557   4.433  12.472  0.4198  0.2347  0.1002
 7386SOL     OW33793   0.033   4.378   5.547  0.0575 -0.0641  0.7501
 7386SOL    HW133794   0.095   4.337   5.608 -0.2390 -0.1864  0.9756
 7386SOL    HW233795   4.705   4.411   5.610  0.5987 -0.3274  1.4415
 7387SOL     OW33796   4.649   4.034  13.116  0.5293  0.3899  0.1148
 7387SOL    HW133797   4.611   3.947  13.104  1.9492 -0.3398  0.9920
 7387SOL    HW233798   4.676   4.059  13.027  1.0309 -0.2766  0.0833
 7388SOL     OW33799   4.349   2.850   3.844 -0.1298 -0.1444 -0.0077
 7388SOL    HW133800   4.364   2.763   3.881 -0.1283  0.5348  1.5881
 7388SOL    HW233801   4.424   2.900   3.877 -1.2550  1.3959  0.2349
 7389SOL     OW33802   2.242   1.823   8.938  0.2125  0.2529  0.0363
 7389SOL    HW133803   2.328   1.862   8.923  0.0585 -0.5035 -2.8339
 7389SOL    HW233804   2.256   1.789   9.027 -0.6948  0.6068  0.3086
 7390SOL     OW33805   1.600   2.978  10.627  0.5376  0.2251 -0.0138
 7390SOL    HW133806   1.540   2.951  10.558  0.2610  0.1087  0.2685
 7390SOL    HW233807   1.655   3.050  10.596  1.5905 -0.5124  0.1257
 7391SOL     OW33808   1.401   1.390   7.091  0.3442 -0.4982  0.0722
 7391SOL    HW133809   1.342   1.374   7.017 -0.5192 -1.1320  0.8984
 7391SOL    HW233810   1.396   1.300   7.123 -1.2322 -0.8414 -1.1493
 7392SOL     OW33811   1.103   0.087   0.709 -0.3641 -0.0727 -0.3913
 7392SOL    HW133812   1.184   0.129   0.740 -1.1027  1.2973 -0.3311
 7392SOL    HW233813   1.126   0.079   0.616  0.8508  1.0996 -0.2080
 7393SOL     OW33814   3.318   1.206   1.445 -0.0328  0.2532 -0.2292
 7393SOL    HW133815   3.333   1.118   1.412 -0.6556 -0.4322  1.3785
 7393SOL    HW233816   3.228   1.212   1.477  0.9620 -0.6947  2.7113
 7394SOL     OW33817   0.024   3.844   4.113 -0.7325  0.4480 -0.1352
 7394SOL    HW133818   0.030   3.814   4.022 -0.9361 -1.5042  0.4925
 7394SOL    HW233819   4.667   3.862   4.123 -0.4886  1.1648  0.8418
 7395SOL     OW33820   3.121   3.229   5.410  0.8109 -0.0905  0.6990
 7395SOL    HW133821   3.051   3.167   5.390  0.1659  0.7708  0.3376
 7395SOL    HW233822   3.202   3.178   5.409  0.6206 -0.3905  0.0440
 7396SOL     OW33823   1.265   0.206   6.348  0.1496 -0.4649 -0.2049
 7396SOL    HW133824   1.335   0.242   6.295  0.5931  0.9690  1.3800
 7396SOL    HW233825   1.309   0.142   6.405 -2.4412 -1.8679  0.2452
 7397SOL     OW33826   2.958   3.098   9.634 -0.0521  0.0322 -0.9393
 7397SOL    HW133827   3.008   3.161   9.685 -1.6093  0.1478  0.4296
 7397SOL    HW233828   3.012   3.020   9.645  1.5526  1.1278 -1.0371
 7398SOL     OW33829   1.297   1.628   2.557  0.4405 -0.5332 -0.4423
 7398SOL    HW133830   1.231   1.653   2.622  1.2999 -1.3199  0.7409
 7398SOL    HW233831   1.269   1.690   2.490  0.7877  0.1612  0.0575
 7399SOL     OW33832   0.591   0.056  14.279  0.4126 -0.5469 -0.0290
 7399SOL    HW133833   0.591   0.079  14.371 -2.6749 -0.6191 -0.0338
 7399SOL    HW233834   0.613   0.138  14.235 -0.7539 -1.2253 -1.9128
 7400SOL     OW33835   2.448   4.586   5.765 -0.3098  0.2051 -0.3033
 7400SOL    HW133836   2.407   4.669   5.789 -1.1754 -0.1377 -0.6309
 7400SOL    HW233837   2.423   4.536   5.842  0.0522  1.9255  0.9421
 7401SOL     OW33838   0.878   3.243  15.705  0.1913  0.0488 -0.0834
 7401SOL    HW133839   0.842   3.300  15.637  0.7097 -1.0967 -1.3250
 7401SOL    HW233840   0.946   3.205  15.648 -1.4404 -0.9579 -1.3468
 7402SOL     OW33841   1.725   2.033   3.182 -0.1754 -0.0681  0.5400
 7402SOL    HW133842   1.638   2.038   3.222 -1.1180 -0.5938 -1.4644
 7402SOL    HW233843   1.777   2.051   3.260  1.5217 -0.0265 -0.5881
 7403SOL     OW33844   4.329   0.008   9.776 -0.2432 -0.4571 -0.2836
 7403SOL    HW133845   4.334   4.662   9.728  1.3758  0.1494 -1.1615
 7403SOL    HW233846   4.240   4.733   9.809 -0.0493 -1.5151 -0.1235
 7404SOL     OW33847   1.480   3.548   0.282  0.3396 -0.1512  0.0738
 7404SOL    HW133848   1.410   3.507   0.332 -0.5197  0.2623 -0.7999
 7404SOL    HW233849   1.522   3.473   0.240 -0.5560 -2.7012  3.7127
 7405SOL     OW33850   4.196   2.226   2.560  1.1479  0.2217 -0.4176
 7405SOL    HW133851   4.121   2.226   2.618  1.3039 -0.0295 -0.2186
 7405SOL    HW233852   4.261   2.188   2.619  0.1319 -1.0260 -0.1084
 7406SOL     OW33853   2.921   4.083   9.200 -0.3454 -0.0742 -0.1974
 7406SOL    HW133854   2.999   4.081   9.146 -0.7909 -0.9949 -0.8080
 7406SOL    HW233855   2.874   4.149   9.148  0.0723  0.4745  0.1270
 7407SOL     OW33856   4.325   2.517   1.434  0.4382  0.1962 -0.0551
 7407SOL    HW133857   4.419   2.538   1.434  0.1809  1.3262  1.0932
 7407SOL    HW233858   4.305   2.567   1.513 -0.7392 -0.1402 -0.1518
 7408SOL     OW33859   3.616   4.188   4.399  0.3465 -0.6945  0.0815
 7408SOL    HW133860   3.682   4.142   4.348 -1.9476 -0.8953 -2.6976
 7408SOL    HW233861   3.595   4.251   4.330  2.3889 -1.0220 -0.8233
 7409SOL     OW33862   2.676   0.222  12.301  0.2813  0.2111  0.5202
 7409SOL    HW133863   2.726   0.166  12.242 -0.0126 -0.6056  1.0579
 7409SOL    HW233864   2.743   0.252  12.363  1.6200  0.1269 -0.8812
 7410SOL     OW33865   1.723   1.248   2.224  0.2962 -0.0786  0.1686
 7410SOL    HW133866   1.664   1.175   2.244 -1.0389  0.9201 -0.0747
 7410SOL    HW233867   1.776   1.254   2.303  1.6212  3.0718 -0.9802
 7411SOL     OW33868   2.385   4.586   8.786 -0.1426 -0.8808  0.4863
 7411SOL    HW133869   2.470   4.629   8.778  0.4115 -2.1408 -0.5543
 7411SOL    HW233870   2.421   4.500   8.809 -0.3583 -1.1631 -0.2351
 7412SOL     OW33871   0.277   1.193   8.217 -0.6072 -0.4336 -0.5241
 7412SOL    HW133872   0.196   1.190   8.166 -0.7380 -2.4932 -0.2062
 7412SOL    HW233873   0.317   1.270   8.177 -0.8320 -0.0445  0.0034
 7413SOL     OW33874   3.163   4.406  16.610 -0.1309  0.0219  0.5364
 7413SOL    HW133875   3.240   4.405  16.666 -0.0590 -0.1853  0.4364
 7413SOL    HW233876   3.200   4.373  16.528 -1.0440  1.3724 -0.4190
 7414SOL     OW33877   0.343   1.559   7.181 -0.3510  0.3279  0.6119
 7414SOL    HW133878   0.436   1.536   7.174 -0.1784 -0.2579  4.4621
 7414SOL    HW233879   0.313   1.564   7.091  3.2500 -0.1842 -0.6297
 7415SOL     OW33880   3.423   3.991   8.433  0.2263 -0.5653  0.5963
 7415SOL    HW133881   3.374   3.948   8.362  0.6371  3.2122 -1.9650
 7415SOL    HW233882   3.419   4.080   8.399  2.5057 -0.8980 -0.5309
 7416SOL     OW33883   2.421   4.303   7.884 -0.3732  0.3407 -0.4690
 7416SOL    HW133884   2.504   4.352   7.892 -0.7512  0.6511  1.7084
 7416SOL    HW233885   2.421   4.271   7.794 -0.1050  0.7163 -0.6057
 7417SOL     OW33886   3.513   4.146   2.131  0.0842  0.2691 -0.3791
 7417SOL    HW133887   3.492   4.230   2.090  0.1211  1.4092  1.9303
 7417SOL    HW233888   3.592   4.111   2.089  0.6233  1.7539 -0.6109
 7418SOL     OW33889   4.215   4.373  14.158 -0.7964 -0.2053  0.2249
 7418SOL    HW133890   4.126   4.341  14.142 -0.4375  1.3361 -5.0193
 7418SOL    HW233891   4.258   4.342  14.078 -1.2509 -0.6335  0.1432
 7419SOL     OW33892   4.227   4.480   6.901  0.6869 -0.4792 -0.1737
 7419SOL    HW133893   4.166   4.408   6.892 -1.2705  1.2253 -0.4244
 7419SOL    HW233894   4.209   4.503   6.993 -3.6101 -1.0108 -0.9070
 7420SOL     OW33895   3.664   4.009   6.589  0.3799 -0.2689 -0.2270
 7420SOL    HW133896   3.702   3.947   6.651  0.6727  0.0946 -0.0463
 7420SOL    HW233897   3.586   3.961   6.559  1.1264 -0.9662 -1.0345
 7421SOL     OW33898   2.018   2.778   3.532 -0.1359 -0.3732 -0.3424
 7421SOL    HW133899   2.045   2.706   3.588 -0.3090  1.0285  1.5414
 7421SOL    HW233900   2.083   2.775   3.462  2.2129 -0.4293  1.8588
 7422SOL     OW33901   0.905   1.785   3.976  0.2209  0.2006 -0.5610
 7422SOL    HW133902   0.859   1.704   3.955 -2.4579  1.0932  1.8319
 7422SOL    HW233903   0.840   1.851   3.952 -0.2143 -0.5094 -1.3424
 7423SOL     OW33904   2.866   4.106   6.306  0.6741  0.4655  0.1093
 7423SOL    HW133905   2.893   4.039   6.243 -1.5946 -0.0378 -0.3266
 7423SOL    HW233906   2.949   4.152   6.318  0.3527  0.9298  0.5378
 7424SOL     OW33907   0.515   0.183  16.665  0.0161 -0.5176 -0.0732
 7424SOL    HW133908   0.575   0.109  16.665  0.7848  0.0864  1.7614
 7424SOL    HW233909   0.489   0.180  16.757  1.9382 -1.0747  0.4517
 7425SOL     OW33910   3.797   0.904   2.898 -0.0565 -0.3927  0.3366
 7425SOL    HW133911   3.709   0.886   2.867 -0.7071  2.2455  0.6533
 7425SOL    HW233912   3.780   0.911   2.992  2.5030  1.8360  0.6581
 7426SOL     OW33913   2.363   4.123   6.778  0.1002 -0.0472  0.0476
 7426SOL    HW133914   2.380   4.213   6.806  1.7748 -0.3505  0.0348
 7426SOL    HW233915   2.354   4.080   6.863  1.1805 -1.4262 -0.5382
 7427SOL     OW33916   2.331   0.755   2.269  0.2062 -0.1471 -0.3389
 7427SOL    HW133917   2.426   0.751   2.278  0.0980 -1.4883  0.0773
 7427SOL    HW233918   2.318   0.817   2.197 -1.6101  0.2176  0.3001
 7428SOL     OW33919   3.012   1.889   2.325  0.4501  0.5205 -0.1443
 7428SOL    HW133920   2.992   1.982   2.313 -0.5408  0.1801 -1.0482
 7428SOL    HW233921   3.099   1.879   2.285  1.2015  0.5707  1.4808
 7429SOL     OW33922   3.733   0.513   3.679  0.7754  0.3582  0.0572
 7429SOL    HW133923   3.824   0.482   3.672  1.5095  2.5125 -0.1850
 7429SOL    HW233924   3.692   0.428   3.671  1.2134  0.0211  1.3502
 7430SOL     OW33925   4.642   0.691   3.817 -0.3858  0.2869  0.0863
 7430SOL    HW133926   4.619   0.678   3.724  1.7282 -0.1467 -0.3676
 7430SOL    HW233927   4.576   0.758   3.833  0.6351  1.3964 -0.3422
 7431SOL     OW33928   2.316   2.247   9.823 -0.7118  0.0117 -0.0989
 7431SOL    HW133929   2.266   2.258   9.904  0.1730  1.6225  0.2199
 7431SOL    HW233930   2.265   2.180   9.776 -1.0763  0.3165 -0.1402
 7432SOL     OW33931   3.335   1.356   8.977 -0.0555 -0.3691  0.2475
 7432SOL    HW133932   3.245   1.338   8.949  0.1311  0.8419 -1.1386
 7432SOL    HW233933   3.336   1.448   9.004  1.0660 -0.5171  0.7122
 7433SOL     OW33934   2.725   2.499  15.487 -0.3526  0.5245  0.0424
 7433SOL    HW133935   2.711   2.550  15.567  1.6352  2.1081 -0.6266
 7433SOL    HW233936   2.685   2.559  15.424 -2.0702 -0.5922  0.0499
 7434SOL     OW33937   2.916   2.079  13.663  0.4769 -0.0369  0.0575
 7434SOL    HW133938   2.830   2.117  13.679 -0.3627 -0.3551 -3.6393
 7434SOL    HW233939   2.943   2.052  13.750 -1.0299  1.0223  0.8536
 7435SOL     OW33940   3.171   1.926   7.537  0.9675  0.0252 -0.5679
 7435SOL    HW133941   3.213   1.882   7.463  0.8875 -0.5393 -0.2694
 7435SOL    HW233942   3.245   1.958   7.589  0.9553  0.0523 -0.5670
 7436SOL     OW33943   4.246   4.271   4.024 -0.7600  1.0430 -0.9029
 7436SOL    HW133944   4.334   4.286   3.990  0.0069 -1.8764 -0.1420
 7436SOL    HW233945   4.247   4.301   4.115  1.5601 -0.3064 -0.5043
 7437SOL     OW33946   1.286   2.045   7.046  0.0416 -0.1912 -0.0991
 7437SOL    HW133947   1.243   2.117   7.092  2.3048  1.5842 -0.7998
 7437SOL    HW233948   1.203   1.998   7.032 -0.2199  0.2895 -0.1570
 7438SOL     OW33949   0.002   4.101   2.107  0.0726  0.3085 -0.2237
 7438SOL    HW133950   4.718   4.159   2.181  0.4813 -0.1338  0.2365
 7438SOL    HW233951   0.091   4.067   2.116  0.5532  1.7438  0.4173
 7439SOL     OW33952   1.153   4.104   5.015 -0.3073  0.5886 -0.6098
 7439SOL    HW133953   1.160   4.020   4.969 -2.4178 -0.9469  1.8069
 7439SOL    HW233954   1.067   4.098   5.058  1.4814  1.2287  3.0586
 7440SOL     OW33955   0.465   2.017   3.483 -0.0421 -0.3277 -0.1693
 7440SOL    HW133956   0.508   1.947   3.532 -2.3602 -0.7648  1.2175
 7440SOL    HW233957   0.386   1.963   3.481 -0.7602  0.7683 -0.8494
 7441SOL     OW33958   1.050   3.857   3.215  0.0712  0.6869 -0.0727
 7441SOL    HW133959   0.987   3.914   3.259 -0.8677  0.0262 -0.5675
 7441SOL    HW233960   1.042   3.779   3.269  0.5287  1.3208  0.9321
 7442SOL     OW33961   2.527   0.552   1.369 -0.1778  0.2830 -0.0545
 7442SOL    HW133962   2.440   0.563   1.329 -0.1074 -1.2399 -0.6480
 7442SOL    HW233963   2.580   0.618   1.325  0.9958  0.2372  1.3276
 7443SOL     OW33964   0.974   1.656   1.750  0.9348  0.1083  0.1199
 7443SOL    HW133965   0.906   1.605   1.705  0.9650  0.6048 -0.4810
 7443SOL    HW233966   1.010   1.575   1.787  0.4468 -0.2624 -0.2168
 7444SOL     OW33967   1.961   0.751  16.513  0.2178  0.2263  0.4438
 7444SOL    HW133968   2.027   0.722  16.450 -0.8664  1.1172 -1.1043
 7444SOL    HW233969   2.021   0.760  16.588 -0.3662 -2.2318  1.2132
 7445SOL     OW33970   1.880   0.966   2.841 -0.2974  0.2928  0.2868
 7445SOL    HW133971   1.899   0.934   2.753  1.0737 -0.5787  0.8884
 7445SOL    HW233972   1.955   1.025   2.850  1.8605 -2.5617  1.3953
 7446SOL     OW33973   4.620   1.516   2.108 -0.6124 -0.1412  0.1953
 7446SOL    HW133974   4.579   1.480   2.187 -0.6626 -2.3066 -0.8030
 7446SOL    HW233975   4.713   1.524   2.125 -1.1343  1.2520  2.2757
 7447SOL     OW33976   2.531   2.329   2.149 -0.2667  0.3158 -0.3751
 7447SOL    HW133977   2.461   2.323   2.085  2.6826  0.6921 -3.6342
 7447SOL    HW233978   2.541   2.237   2.174  3.2463  0.5186 -1.0384
 7448SOL     OW33979   3.854   1.627  10.104 -0.7018  0.2257 -0.3761
 7448SOL    HW133980   3.763   1.655  10.092 -1.0004 -0.2673  0.7737
 7448SOL    HW233981   3.893   1.648  10.019 -2.0206 -1.5833 -1.4160
 7449SOL     OW33982   0.766   1.246   5.152 -0.4493  0.6886  0.3602
 7449SOL    HW133983   0.824   1.308   5.109 -1.5372  2.2778  1.1801
 7449SOL    HW233984   0.704   1.232   5.081  0.7615  0.2440 -0.6013
 7450SOL     OW33985   4.405   0.694   2.348 -0.0722  0.2753 -0.2343
 7450SOL    HW133986   4.352   0.694   2.428 -1.7330 -0.6792 -1.3447
 7450SOL    HW233987   4.342   0.703   2.277  0.2613 -2.0794 -0.8199
 7451SOL     OW33988   0.135   1.079   2.096 -0.0611 -0.2893 -0.3366
 7451SOL    HW133989   0.145   1.168   2.129  0.5718 -1.0042  1.4299
 7451SOL    HW233990   0.048   1.081   2.057  0.0938  0.9560 -0.6147
 7452SOL     OW33991   1.125   2.937   4.412 -0.2761  0.2392  0.2115
 7452SOL    HW133992   1.149   2.976   4.328 -0.0180 -2.2423 -0.8887
 7452SOL    HW233993   1.137   3.014   4.467 -2.0107  0.4652  0.2554
 7453SOL     OW33994   4.702   0.962   7.634 -0.2614 -0.2594  0.6855
 7453SOL    HW133995   4.709   0.868   7.652  1.7966  0.1858  2.2865
 7453SOL    HW233996   4.610   0.984   7.619  0.1741  1.6772  0.8554
 7454SOL     OW33997   0.128   2.158  12.281  0.2386 -0.2771 -0.2133
 7454SOL    HW133998   0.213   2.194  12.304 -0.2004 -0.0206  1.0041
 7454SOL    HW233999   0.145   2.073  12.322  1.2062 -0.5752 -1.2451
 7455SOL     OW34000   2.944   1.681  15.102  0.0126  0.5286  0.4557
 7455SOL    HW134001   2.867   1.668  15.046  1.9967 -1.3697 -1.8522
 7455SOL    HW234002   2.914   1.656  15.189 -0.6181 -0.1918  0.0407
 7456SOL     OW34003   0.159   3.487  14.490  0.0979  0.5794  0.0504
 7456SOL    HW134004   0.084   3.456  14.440 -1.9445 -0.6670  3.8498
 7456SOL    HW234005   0.221   3.419  14.466  0.0386 -0.3065  2.3730
 7457SOL     OW34006   1.856   0.760   2.348 -0.0184  0.4433  0.1454
 7457SOL    HW134007   1.804   0.681   2.366 -0.2083  0.7234  0.8102
 7457SOL    HW234008   1.944   0.730   2.326 -1.0686 -0.5681 -2.6763
 7458SOL     OW34009   2.934   1.828   4.895  0.3139 -0.2824  0.4132
 7458SOL    HW134010   2.845   1.812   4.866  1.1855 -3.0009 -0.7920
 7458SOL    HW234011   2.988   1.807   4.819 -0.1518  3.4949 -0.9896
 7459SOL     OW34012   0.074   3.463  15.153 -0.2209  0.3297  0.0408
 7459SOL    HW134013   0.054   3.370  15.143 -0.2424  0.3436 -0.0443
 7459SOL    HW234014   0.133   3.444  15.227 -2.0305 -1.9011  0.9093
 7460SOL     OW34015   1.395   4.371  11.557  0.2474  0.2342  0.0414
 7460SOL    HW134016   1.372   4.341  11.469  0.0126  1.8141 -0.4370
 7460SOL    HW234017   1.352   4.456  11.549 -1.5080 -0.5408  1.1746
 7461SOL     OW34018   1.156   0.968   0.610 -0.1259  0.4274 -0.5441
 7461SOL    HW134019   1.161   1.060   0.583 -0.5702  0.8973  0.9533
 7461SOL    HW234020   1.097   0.926   0.548 -1.5219  0.2347  0.9085
 7462SOL     OW34021   4.495   0.563   4.645  0.0836  0.6500 -0.6794
 7462SOL    HW134022   4.567   0.561   4.582  0.7153 -0.4869  0.0615
 7462SOL    HW234023   4.492   0.472   4.674 -1.9688  1.1434  0.6476
 7463SOL     OW34024   2.006   2.112   3.066  0.5863 -0.3098  0.2367
 7463SOL    HW134025   2.032   2.096   3.157  1.2376 -1.5669 -0.1815
 7463SOL    HW234026   1.911   2.099   3.076  0.2070  1.4087 -1.1557
 7464SOL     OW34027   0.855   0.885   6.605  0.4775  0.4127  0.0952
 7464SOL    HW134028   0.760   0.879   6.596  0.6096 -0.3043 -0.8099
 7464SOL    HW234029   0.875   0.794   6.587  0.9188  0.4113  0.6185
 7465SOL     OW34030   4.305   4.258  15.360 -0.0455  0.1828  0.1735
 7465SOL    HW134031   4.218   4.276  15.396 -0.9859 -1.0387 -1.4884
 7465SOL    HW234032   4.306   4.312  15.281 -1.7375 -0.4896 -0.3187
 7466SOL     OW34033   3.271   0.979   8.521  0.5337  0.0472  0.2920
 7466SOL    HW134034   3.263   0.994   8.615 -0.2863 -0.1109  0.2463
 7466SOL    HW234035   3.276   0.884   8.526 -1.9171 -0.1324 -0.8457
 7467SOL     OW34036   2.292   2.732   4.944  0.7103 -0.0812  0.3864
 7467SOL    HW134037   2.348   2.792   4.896 -2.6160  0.2629 -3.1223
 7467SOL    HW234038   2.206   2.770   4.923  1.7998  1.7018 -0.8263
 7468SOL     OW34039   2.877   2.480   2.423  0.1268  0.0311 -0.3651
 7468SOL    HW134040   2.883   2.547   2.356 -0.1007 -1.2906 -1.7002
 7468SOL    HW234041   2.807   2.417   2.407  1.2241 -2.0064  2.8316
 7469SOL     OW34042   2.703   0.734   7.867 -0.6266 -0.5167  0.1304
 7469SOL    HW134043   2.728   0.652   7.824  0.1007  0.0409 -0.5249
 7469SOL    HW234044   2.770   0.745   7.934  0.6483 -0.6920 -1.1203
 7470SOL     OW34045   4.059   3.912   4.754 -0.5234  0.0901 -0.3030
 7470SOL    HW134046   4.114   3.911   4.675 -1.0450  0.4606 -0.6700
 7470SOL    HW234047   3.976   3.893   4.711  0.0981  1.3244 -2.0675
 7471SOL     OW34048   0.215   4.705   7.320  0.6398 -0.0421 -0.5886
 7471SOL    HW134049   0.125   0.000   7.322 -0.1415 -2.3474  0.4725
 7471SOL    HW234050   0.210   4.626   7.373  0.6070  1.0791  1.1118
 7472SOL     OW34051   1.100   0.088  11.796  0.3648 -0.2804 -0.2877
 7472SOL    HW134052   1.140   0.174  11.790  0.5067 -0.2090  1.7632
 7472SOL    HW234053   1.016   0.105  11.840  0.5607 -1.8299  0.7026
 7473SOL     OW34054   0.271   4.500   6.340 -0.3439 -0.0823 -0.1574
 7473SOL    HW134055   0.256   4.508   6.246  1.1725 -0.1232 -0.4033
 7473SOL    HW234056   0.238   4.582   6.376 -0.8850 -2.0833  3.8377
 7474SOL     OW34057   2.649   2.189   9.148 -0.4052 -0.4235 -0.0744
 7474SOL    HW134058   2.693   2.274   9.147 -2.0514  0.4689  1.0005
 7474SOL    HW234059   2.611   2.185   9.236 -0.2968 -2.9874 -0.1534
 7475SOL     OW34060   3.383   2.543   4.075  0.2594 -0.2252  0.5498
 7475SOL    HW134061   3.325   2.523   4.001 -0.1715  3.1961 -0.0405
 7475SOL    HW234062   3.424   2.622   4.040  1.9513 -1.4852 -0.3275
 7476SOL     OW34063   2.989   1.209  10.227  0.3687  0.0084 -0.5562
 7476SOL    HW134064   3.041   1.159  10.290 -2.8279  1.0364  2.8983
 7476SOL    HW234065   2.910   1.239  10.271 -1.5339 -5.0119 -0.5619
 7477SOL     OW34066   4.534   3.360   7.449 -0.1839 -0.8416  0.1898
 7477SOL    HW134067   4.625   3.348   7.477  1.0547  2.2313 -2.5449
 7477SOL    HW234068   4.546   3.431   7.386 -0.8646  0.7408  1.8490
 7478SOL     OW34069   2.206   3.964  17.625  0.8219 -0.2758 -0.0116
 7478SOL    HW134070   2.159   3.972  17.708 -0.4734  1.2533 -0.8989
 7478SOL    HW234071   2.133   3.948  17.564 -1.6348  1.2850  2.4964
 7479SOL     OW34072   1.993   2.478   9.070 -0.0111  0.0672 -0.3541
 7479SOL    HW134073   1.975   2.435   8.987  1.1305  0.2545 -0.7014
 7479SOL    HW234074   2.059   2.540   9.040 -1.2217  1.5037 -0.0676
 7480SOL     OW34075   2.207   1.149   8.752  0.2824 -1.0501 -0.1390
 7480SOL    HW134076   2.164   1.227   8.715  2.3222  0.2718  0.2466
 7480SOL    HW234077   2.138   1.083   8.749  0.8441 -1.7098  2.0639
 7481SOL     OW34078   0.407   0.960   6.963 -0.3984 -0.4441  0.4022
 7481SOL    HW134079   0.433   0.963   6.871 -0.2177 -0.5926  0.4487
 7481SOL    HW234080   0.312   0.965   6.957 -0.5978 -1.9023  2.6580
 7482SOL     OW34081   0.138   2.268   6.428  0.4116  0.1643  0.0602
 7482SOL    HW134082   0.060   2.267   6.483  0.1352 -2.9113 -0.4270
 7482SOL    HW234083   0.194   2.203   6.471  0.2751 -0.1095 -0.1751
 7483SOL     OW34084   3.104   3.315   2.621 -0.3497  0.1565 -0.4957
 7483SOL    HW134085   3.185   3.268   2.640 -0.2614 -0.3693 -2.1469
 7483SOL    HW234086   3.100   3.305   2.526 -1.0102 -3.0825 -0.1226
 7484SOL     OW34087   1.293   0.167   5.912 -0.3327 -0.5680  0.0757
 7484SOL    HW134088   1.213   0.143   5.865 -0.3507  2.4203 -1.4134
 7484SOL    HW234089   1.253   0.201   5.992 -1.9978  1.6623 -1.7015
 7485SOL     OW34090   1.569   0.078  11.086 -0.0340  0.6803 -0.7136
 7485SOL    HW134091   1.645   0.124  11.051 -0.4384  1.5459 -0.4516
 7485SOL    HW234092   1.589   0.093  11.179  0.6153  0.4226 -0.8098
 7486SOL     OW34093   1.786   1.163   1.383 -0.0542 -0.0974  0.3260
 7486SOL    HW134094   1.795   1.240   1.440 -0.0315 -0.6842  1.1113
 7486SOL    HW234095   1.694   1.167   1.357 -0.3386 -1.4090  1.1550
 7487SOL     OW34096   3.723   2.592   7.644 -0.1839  0.6028  0.1029
 7487SOL    HW134097   3.675   2.653   7.699 -0.4039  0.9898 -0.5248
 7487SOL    HW234098   3.727   2.649   7.567 -0.5203  1.4967  0.7541
 7488SOL     OW34099   4.251   2.366   1.773  0.3314 -0.2669 -0.2636
 7488SOL    HW134100   4.325   2.415   1.735  2.8982 -2.7455  1.5038
 7488SOL    HW234101   4.288   2.278   1.768  0.7109 -0.0590 -1.2430
 7489SOL     OW34102   2.644   1.470  11.199  0.6099 -0.3024 -0.2278
 7489SOL    HW134103   2.616   1.423  11.277 -1.7753 -0.0879 -0.9516
 7489SOL    HW234104   2.597   1.427  11.127  2.4139 -0.6187 -1.2224
 7490SOL     OW34105   2.278   1.292  14.277  0.5497 -0.2137 -0.2168
 7490SOL    HW134106   2.346   1.224  14.275 -0.2489 -1.0515  1.1744
 7490SOL    HW234107   2.206   1.242  14.237  0.5310 -0.2512 -0.1347
 7491SOL     OW34108   0.466   3.521  15.639  0.2501 -0.0227 -0.4987
 7491SOL    HW134109   0.373   3.499  15.628  0.4182 -0.4801 -1.0124
 7491SOL    HW234110   0.497   3.510  15.549  1.1702 -0.8719 -0.0680
 7492SOL     OW34111   2.155   2.455  12.984 -0.0360  0.0115  0.1353
 7492SOL    HW134112   2.170   2.460  12.890  1.5075  2.1658  0.4914
 7492SOL    HW234113   2.240   2.419  13.009  0.2346  0.7155  0.2291
 7493SOL     OW34114   3.323   2.513   6.592 -0.2320  0.0415 -0.3592
 7493SOL    HW134115   3.378   2.478   6.662 -0.9227  0.9300  0.6149
 7493SOL    HW234116   3.299   2.595   6.636 -1.1690 -0.3878 -0.0674
 7494SOL     OW34117   0.277   0.748   3.642  0.1424  0.2568 -0.2177
 7494SOL    HW134118   0.221   0.675   3.617 -2.0634  1.2722  1.7883
 7494SOL    HW234119   0.333   0.704   3.707  0.3156  0.0292 -0.5247
 7495SOL     OW34120   4.065   1.482  14.169  0.4775  0.2143 -0.3266
 7495SOL    HW134121   4.014   1.556  14.200  1.2114  0.7177 -0.3077
 7495SOL    HW234122   4.010   1.462  14.094  2.4952 -1.0041 -1.4908
 7496SOL     OW34123   1.069   3.530   1.270  1.2180  0.1142 -0.5817
 7496SOL    HW134124   1.146   3.568   1.313 -0.2944  3.8887 -1.1515
 7496SOL    HW234125   1.009   3.519   1.344  1.6415 -0.7687 -0.3732
 7497SOL     OW34126   3.906   2.188   1.654  0.1651  0.4556  0.4999
 7497SOL    HW134127   3.949   2.273   1.654 -1.2656  1.2004 -1.1429
 7497SOL    HW234128   3.910   2.171   1.559 -1.6265 -0.0857  0.5230
 7498SOL     OW34129   3.150   3.366   4.449 -0.0945 -0.0047 -0.1506
 7498SOL    HW134130   3.191   3.333   4.369 -1.3606 -0.1940 -0.7217
 7498SOL    HW234131   3.221   3.362   4.513  0.9638 -2.3310 -1.4863
 7499SOL     OW34132   4.149   4.265   3.018  0.3180  0.1469 -0.7469
 7499SOL    HW134133   4.110   4.234   3.100 -0.0906 -0.7134 -1.2765
 7499SOL    HW234134   4.158   4.182   2.972 -1.1410 -1.4403  1.8247
 7500SOL     OW34135   3.437   0.907  15.775  0.1697  0.3134  0.3408
 7500SOL    HW134136   3.454   0.815  15.755  2.4567  1.2759 -2.1310
 7500SOL    HW234137   3.364   0.933  15.718 -1.8141 -1.3282  2.1176
 7501SOL     OW34138   2.423   4.299   5.967 -0.4338 -0.1438  0.0964
 7501SOL    HW134139   2.419   4.208   5.936  1.6985 -1.5477  3.8572
 7501SOL    HW234140   2.331   4.321   5.961 -0.5456 -0.3771  0.8748
 7502SOL     OW34141   3.571   0.665  17.376 -0.3424  0.1587 -0.2189
 7502SOL    HW134142   3.621   0.745  17.357  0.5449 -0.9754 -2.7349
 7502SOL    HW234143   3.532   0.687  17.460 -0.6258 -2.1105  0.2501
 7503SOL     OW34144   1.702   1.548   7.869  0.2150  0.3847 -0.3169
 7503SOL    HW134145   1.622   1.519   7.914  0.6518  2.7462  2.0106
 7503SOL    HW234146   1.673   1.606   7.798 -1.7168  3.1017  2.6724
 7504SOL     OW34147   0.629   3.081   9.333  0.0699  0.5055 -0.0242
 7504SOL    HW134148   0.565   3.118   9.394  0.6530 -1.2643  1.6366
 7504SOL    HW234149   0.698   3.148   9.330  1.2821 -0.7855 -0.9196
 7505SOL     OW34150   3.791   3.089  12.304 -0.5594  0.4320 -0.5466
 7505SOL    HW134151   3.865   3.149  12.295 -0.7838  0.8003  0.0496
 7505SOL    HW234152   3.736   3.140  12.364  0.6639 -1.7954  2.4184
 7506SOL     OW34153   0.055   3.994  15.555 -0.2502 -0.0771  0.3416
 7506SOL    HW134154   0.091   4.025  15.472  0.8461  0.2108  0.9184
 7506SOL    HW234155   0.139   3.977  15.598 -0.6012 -0.4835  0.8767
 7507SOL     OW34156   1.775   2.981   6.517  0.1574 -0.2946 -0.0525
 7507SOL    HW134157   1.822   2.935   6.587  0.7565 -1.1482 -1.0198
 7507SOL    HW234158   1.755   3.067   6.552  1.7293 -0.9536  2.5261
 7508SOL     OW34159   4.375   4.551  17.005  0.5814 -0.1589  0.4978
 7508SOL    HW134160   4.324   4.503  16.940  1.0629 -0.0498  0.0309
 7508SOL    HW234161   4.349   4.642  16.987 -0.9042 -0.4341  1.3244
 7509SOL     OW34162   2.426   3.691   7.316 -0.4935 -0.0034 -0.6297
 7509SOL    HW134163   2.370   3.767   7.333 -1.6909 -1.4818  2.1769
 7509SOL    HW234164   2.476   3.710   7.236 -0.8883  0.1306 -0.8448
 7510SOL     OW34165   2.767   2.752   5.015 -0.0087 -0.0354  0.1160
 7510SOL    HW134166   2.785   2.663   5.045 -0.1974 -1.4661 -4.0276
 7510SOL    HW234167   2.826   2.763   4.941 -1.6540  2.5911 -0.8201
 7511SOL     OW34168   1.499   1.192   1.668 -0.6851  0.5471 -0.2841
 7511SOL    HW134169   1.480   1.285   1.680  1.3270  0.8669  0.4334
 7511SOL    HW234170   1.527   1.195   1.576 -0.7271 -1.0301 -0.3504
 7512SOL     OW34171   1.677   4.271  16.328  0.2961  0.2067 -0.1546
 7512SOL    HW134172   1.691   4.180  16.353 -0.0424  0.3719  0.6642
 7512SOL    HW234173   1.762   4.303  16.356 -1.0510  1.8000  2.1512
 7513SOL     OW34174   0.456   3.964   9.922 -0.1559  0.1657 -0.5385
 7513SOL    HW134175   0.511   4.041   9.907 -1.0725  1.5365  3.2516
 7513SOL    HW234176   0.399   3.994   9.992  0.3157 -2.9273  1.1643
 7514SOL     OW34177   0.419   3.554   7.805 -0.1799  0.5387 -0.6250
 7514SOL    HW134178   0.353   3.595   7.860 -2.5646 -1.7464 -1.7621
 7514SOL    HW234179   0.494   3.606   7.834  0.5706 -1.5895  1.3109
 7515SOL     OW34180   0.849   0.135  13.275  0.1298 -0.7374 -0.1232
 7515SOL    HW134181   0.839   0.045  13.308 -1.1279 -0.9037 -0.9992
 7515SOL    HW234182   0.775   0.132  13.215 -0.7801 -0.1934  0.9664
 7516SOL     OW34183   3.127   0.850   9.543  0.3249  0.3464  0.2426
 7516SOL    HW134184   3.061   0.918   9.560  1.2250  0.9574  1.2470
 7516SOL    HW234185   3.115   0.795   9.621  0.5353 -2.1833 -1.5457
 7517SOL     OW34186   2.068   3.305  15.477  0.5947  0.2653  0.1075
 7517SOL    HW134187   2.106   3.296  15.564 -0.0760  1.4349  0.5133
 7517SOL    HW234188   2.015   3.225  15.478 -1.1642  1.4429 -1.0866
 7518SOL     OW34189   3.623   2.806  10.849  0.5197  0.0434  0.1412
 7518SOL    HW134190   3.715   2.790  10.829  0.3532 -1.9909  0.9870
 7518SOL    HW234191   3.622   2.901  10.841 -2.2500 -0.0109  0.0221
 7519SOL     OW34192   0.417   1.393   8.082 -0.0234 -0.1580  0.4193
 7519SOL    HW134193   0.377   1.476   8.107  0.0200 -0.3129  0.9990
 7519SOL    HW234194   0.458   1.423   8.001 -0.6599 -0.9257 -0.1907
 7520SOL     OW34195   0.702   3.361   7.390 -0.0570 -0.3275 -0.0240
 7520SOL    HW134196   0.755   3.284   7.370  2.2205  1.1966  0.1716
 7520SOL    HW234197   0.742   3.428   7.336 -3.1957  1.1390 -0.4965
 7521SOL     OW34198   0.826   0.030   9.321  0.6057 -0.4012  0.4425
 7521SOL    HW134199   0.741   0.023   9.278  1.6353  0.6083 -1.8116
 7521SOL    HW234200   0.874   0.086   9.259 -0.4639  0.6537  0.5761
 7522SOL     OW34201   4.583   0.430  15.312 -0.7733  0.1766  0.4907
 7522SOL    HW134202   4.522   0.411  15.383  2.0009 -1.9448  2.2912
 7522SOL    HW234203   4.558   0.520  15.291 -2.0796 -0.2102  0.3951
 7523SOL     OW34204   3.967   2.418   5.312  0.0717  0.1519  0.0398
 7523SOL    HW134205   3.983   2.393   5.402 -1.4753  0.3126  0.3665
 7523SOL    HW234206   4.051   2.460   5.295  0.7339 -1.8596 -1.5617
 7524SOL     OW34207   1.708   4.612  15.871  0.0900  0.2455  0.1108
 7524SOL    HW134208   1.706   4.549  15.942  1.2675  0.0408 -0.0427
 7524SOL    HW234209   1.773   4.675  15.903 -1.1528  2.4893 -1.7588
 7525SOL     OW34210   3.059   1.494   2.898  0.2300  0.4563  0.2539
 7525SOL    HW134211   3.119   1.437   2.850 -0.2706  1.0247 -1.0639
 7525SOL    HW234212   2.969   1.466   2.878  0.4765 -0.8125  0.9012
 7526SOL     OW34213   4.224   2.504  17.457  0.3050  0.0630 -0.2379
 7526SOL    HW134214   4.213   2.435  17.392  0.5952 -1.0132  0.8550
 7526SOL    HW234215   4.158   2.494  17.525  1.9418  2.3477  1.6794
 7527SOL     OW34216   4.524   4.551  14.681 -0.6892  0.0541  0.0022
 7527SOL    HW134217   4.491   4.619  14.622 -1.0850 -2.4026 -2.5832
 7527SOL    HW234218   4.571   4.490  14.625  1.6359  1.7581  0.1224
 7528SOL     OW34219   0.081   4.286  16.254  0.3810  0.4459 -0.0684
 7528SOL    HW134220   0.017   4.341  16.209 -0.7515 -0.4804  0.3902
 7528SOL    HW234221   0.162   4.334  16.237  0.8151 -0.4344 -0.5072
 7529SOL     OW34222   2.007   3.433   3.090 -0.3660  0.3489 -0.4085
 7529SOL    HW134223   2.024   3.424   2.996  1.0364 -0.2093 -0.1018
 7529SOL    HW234224   1.918   3.468   3.090  0.1203  1.5974 -0.2189
 7530SOL     OW34225   2.053   2.887  12.289 -0.1117  0.0892  0.1415
 7530SOL    HW134226   2.006   2.898  12.207  1.7305  1.9581 -0.6770
 7530SOL    HW234227   2.115   2.959  12.284  0.5660 -0.6326 -1.7259
 7531SOL     OW34228   0.734   2.559  12.834 -0.4344  0.1218  0.0346
 7531SOL    HW134229   0.784   2.633  12.798 -1.2849  0.8289  0.3004
 7531SOL    HW234230   0.689   2.600  12.908 -0.6207 -1.1839  0.6357
 7532SOL     OW34231   3.221   1.932   6.451 -0.0871 -0.2516 -0.5359
 7532SOL    HW134232   3.169   1.860   6.416 -0.4152 -0.3074  0.0755
 7532SOL    HW234233   3.197   2.011   6.403 -0.9334 -0.3231 -0.2244
 7533SOL     OW34234   3.372   0.804   6.429 -0.3965  0.1535  0.0101
 7533SOL    HW134235   3.414   0.719   6.415 -0.6164  0.1890 -0.8546
 7533SOL    HW234236   3.406   0.862   6.361  1.0011 -2.1362 -1.2551
 7534SOL     OW34237   0.926   1.524  13.710 -0.1245  0.4879 -0.6329
 7534SOL    HW134238   0.938   1.488  13.798  0.7430 -1.8331 -1.6904
 7534SOL    HW234239   0.856   1.588  13.715 -0.5669 -0.3247  3.1953
 7535SOL     OW34240   3.499   1.998   3.475  0.1754  0.5407 -0.4782
 7535SOL    HW134241   3.444   2.065   3.513 -2.7562 -3.0931  1.6758
 7535SOL    HW234242   3.543   1.950   3.546 -1.7951 -0.1012  0.2956
 7536SOL     OW34243   0.760   0.386  15.584  0.3538 -0.7085 -0.1670
 7536SOL    HW134244   0.850   0.415  15.567  0.1109  1.4247  2.2000
 7536SOL    HW234245   0.712   0.435  15.517  2.6620 -2.9207 -3.4914
 7537SOL     OW34246   2.702   1.388   7.019 -0.3344 -0.6898  0.4315
 7537SOL    HW134247   2.701   1.480   7.046 -3.3712 -0.6227  0.0086
 7537SOL    HW234248   2.674   1.387   6.928 -0.3291  0.4578  0.4090
 7538SOL     OW34249   0.502   4.045  14.629 -0.2536  0.4586  0.2372
 7538SOL    HW134250   0.432   4.087  14.580  3.4550  2.4725 -3.2922
 7538SOL    HW234251   0.546   4.114  14.678 -0.3806  0.3768  0.4691
 7539SOL     OW34252   2.225   0.544   9.915 -0.7881  0.3910 -0.0428
 7539SOL    HW134253   2.272   0.582   9.841 -0.0795  0.0490  0.2326
 7539SOL    HW234254   2.301   0.532   9.972 -0.3446  0.8632 -0.5297
 7540SOL     OW34255   1.637   0.404   6.730  0.1495  0.2035 -0.6127
 7540SOL    HW134256   1.570   0.404   6.663  1.4681  1.1936 -1.9329
 7540SOL    HW234257   1.637   0.495   6.761  0.0147 -0.0113  0.0145
 7541SOL     OW34258   4.637   3.247   6.577 -0.0933  0.0309  0.3464
 7541SOL    HW134259   4.690   3.283   6.648  1.6705  0.0542 -0.9853
 7541SOL    HW234260   4.684   3.174   6.538 -0.4867  0.7972 -1.5495
 7542SOL     OW34261   0.340   3.607   9.461  0.2514  0.4295  0.4156
 7542SOL    HW134262   0.264   3.553   9.481 -0.4764  1.6822  1.0525
 7542SOL    HW234263   0.305   3.640   9.378 -1.8072  0.1775  1.1705
 7543SOL     OW34264   0.669   1.209   6.278 -0.5745  0.4570 -0.7146
 7543SOL    HW134265   0.735   1.254   6.227 -1.2805 -0.2341 -2.2310
 7543SOL    HW234266   0.632   1.167   6.201  0.5073  0.6184 -1.3186
 7544SOL     OW34267   3.893   2.883   7.901 -0.3088  0.6256  0.2035
 7544SOL    HW134268   3.879   2.948   7.969  1.9042  0.4460  0.8137
 7544SOL    HW234269   3.900   2.947   7.830 -0.0636 -1.3713 -1.5956
 7545SOL     OW34270   1.077   2.651  17.261  0.1904 -0.6702 -0.1412
 7545SOL    HW134271   1.042   2.690  17.341 -0.2063 -1.4650  0.0681
 7545SOL    HW234272   1.121   2.726  17.220  1.1119 -0.8775  0.4583
 7546SOL     OW34273   3.981   0.262   9.062 -0.0946 -0.5428  0.1252
 7546SOL    HW134274   4.017   0.325   9.125  0.6541  0.3764 -1.2255
 7546SOL    HW234275   3.889   0.288   9.069  0.1927  0.5842 -0.2684
 7547SOL     OW34276   0.738   1.502   0.001  0.2808  0.3455 -0.1603
 7547SOL    HW134277   0.791   1.512   0.080  1.0554 -0.6995 -0.5412
 7547SOL    HW234278   0.702   1.414   0.014 -1.0454  1.1061  1.3309
 7548SOL     OW34279   2.412   3.335   3.295 -0.0657 -0.3515 -0.3788
 7548SOL    HW134280   2.356   3.398   3.250 -1.1552  0.5981  2.3533
 7548SOL    HW234281   2.472   3.313   3.224 -1.9847 -0.2043 -2.0682
 7549SOL     OW34282   0.823   0.083  15.936  0.3520 -0.5909 -0.0876
 7549SOL    HW134283   0.885   0.059  15.868 -0.1816 -0.9400 -0.4544
 7549SOL    HW234284   0.752   0.101  15.874  0.9990 -1.3217 -1.0426
 7550SOL     OW34285   3.150   0.091   2.687  0.0651  0.3792 -0.1765
 7550SOL    HW134286   3.187   0.018   2.638 -0.4069 -1.7830  2.6594
 7550SOL    HW234287   3.057   0.080   2.665  0.6340 -1.8669 -1.3566
 7551SOL     OW34288   0.188   1.000  13.776 -0.3655  0.3416  0.0798
 7551SOL    HW134289   0.169   1.026  13.686  0.7395 -1.7349 -0.7473
 7551SOL    HW234290   0.131   1.059  13.825 -0.0412 -0.2575  1.1726
 7552SOL     OW34291   0.553   1.253   5.369 -0.4843  0.6234 -0.0824
 7552SOL    HW134292   0.600   1.181   5.412 -0.4399  0.5428 -0.2664
 7552SOL    HW234293   0.620   1.265   5.302 -0.2786  1.1776  0.2197
 7553SOL     OW34294   0.215   2.003   5.762 -0.2641  0.6648 -0.1004
 7553SOL    HW134295   0.212   2.059   5.684 -2.3453  1.7229  0.7212
 7553SOL    HW234296   0.135   1.951   5.756  0.5616 -0.7204  0.7902
 7554SOL     OW34297   2.230   4.029  14.432 -0.0550  0.9403 -0.3723
 7554SOL    HW134298   2.296   4.071  14.378 -0.0860  3.1062  1.2959
 7554SOL    HW234299   2.157   4.063  14.381 -1.3771  0.6617  1.3145
 7555SOL     OW34300   4.023   1.605   8.357  0.4147 -0.3630 -0.1530
 7555SOL    HW134301   4.103   1.634   8.401  0.5547 -0.6989 -0.1782
 7555SOL    HW234302   4.065   1.551   8.289  0.8566 -0.3098  0.0810
 7556SOL     OW34303   4.555   1.806  10.897  0.4739 -0.3472 -0.3695
 7556SOL    HW134304   4.645   1.837  10.883  0.7108 -0.4943  0.8039
 7556SOL    HW234305   4.512   1.810  10.812 -2.4696  1.0240  1.2199
 7557SOL     OW34306   1.008   2.940   3.851 -0.0711  0.5097 -0.1254
 7557SOL    HW134307   1.006   2.889   3.932 -0.6625  1.0482  0.2031
 7557SOL    HW234308   1.011   3.030   3.884  0.1571  0.3226  0.3673
 7558SOL     OW34309   2.368   0.308   7.263 -0.1807  0.2170 -0.0906
 7558SOL    HW134310   2.279   0.337   7.284  0.0946  1.3712 -0.5791
 7558SOL    HW234311   2.411   0.386   7.229 -0.3705  0.8428  1.1009
 7559SOL     OW34312   3.462   3.592   4.720  0.4452  0.6559  0.6172
 7559SOL    HW134313   3.547   3.592   4.764  0.2052 -0.6400  1.0831
 7559SOL    HW234314   3.429   3.678   4.747 -1.8831 -0.0809  0.1076
 7560SOL     OW34315   0.789   3.953  15.071 -0.0193  0.1914 -0.1505
 7560SOL    HW134316   0.775   4.001  14.989  1.6681  1.8779  0.5377
 7560SOL    HW234317   0.856   4.011  15.107  0.7735 -0.1780 -1.0230
 7561SOL     OW34318   2.236   2.254   2.315  0.2150 -0.1215 -0.1100
 7561SOL    HW134319   2.148   2.229   2.343 -0.5130  0.7805 -1.5352
 7561SOL    HW234320   2.236   2.230   2.222 -0.3601  1.9220 -0.6415
 7562SOL     OW34321   1.225   1.015  15.797  0.6943  0.1636  0.4109
 7562SOL    HW134322   1.204   1.008  15.703  0.7922 -1.3625  0.5034
 7562SOL    HW234323   1.212   1.109  15.806  4.1638  0.7259 -0.3364
 7563SOL     OW34324   2.323   1.332   2.769 -0.0961 -0.3059 -0.2189
 7563SOL    HW134325   2.414   1.346   2.741 -0.9686  1.1347 -2.2874
 7563SOL    HW234326   2.337   1.359   2.860  1.5327  0.2442 -0.6246
 7564SOL     OW34327   3.120   2.078   5.345  0.0606  0.1712 -0.5265
 7564SOL    HW134328   3.068   2.037   5.276  0.5036 -0.4022 -0.5100
 7564SOL    HW234329   3.184   2.008   5.351  0.1004  0.4427  2.2295
 7565SOL     OW34330   2.233   1.815   8.603 -0.1398 -0.7518 -0.1288
 7565SOL    HW134331   2.171   1.744   8.622  0.8987 -2.1248 -1.8481
 7565SOL    HW234332   2.199   1.885   8.659  1.0387 -0.4667  0.2383
 7566SOL     OW34333   0.576   2.174  15.326 -0.4523  0.9153 -0.6520
 7566SOL    HW134334   0.652   2.194  15.270  0.1136  0.1197 -0.1634
 7566SOL    HW234335   0.572   2.079  15.321 -0.5365  0.7998  1.8776
 7567SOL     OW34336   3.756   3.152   0.784 -0.2188 -0.2292 -0.1882
 7567SOL    HW134337   3.846   3.138   0.755  0.0179 -0.3830  0.6344
 7567SOL    HW234338   3.710   3.170   0.702  0.7878  0.9060 -0.5090
 7568SOL     OW34339   3.872   1.026   0.473 -0.1154  0.1221  0.2781
 7568SOL    HW134340   3.779   1.035   0.494  0.1158  0.7038  1.1159
 7568SOL    HW234341   3.857   1.001   0.382 -2.1679  0.4057  0.5395
 7569SOL     OW34342   1.772   4.085   5.172 -0.0857  0.1625 -0.5842
 7569SOL    HW134343   1.790   4.086   5.266  2.0715  0.3805 -1.0015
 7569SOL    HW234344   1.677   4.097   5.176  0.0165 -0.0412  2.8499
 7570SOL     OW34345   1.086   0.398   6.512  0.7271  0.1975 -0.5327
 7570SOL    HW134346   1.051   0.483   6.487 -0.1115 -0.1686 -0.5950
 7570SOL    HW234347   1.135   0.381   6.432 -0.9620 -0.8706 -1.3332
 7571SOL     OW34348   2.349   1.700   3.567 -0.2334  0.2472  0.3635
 7571SOL    HW134349   2.268   1.724   3.610  0.0986  1.0032  0.5763
 7571SOL    HW234350   2.325   1.702   3.474  2.7573  2.0578 -0.4013
 7572SOL     OW34351   4.069   2.132   6.338 -0.2977  0.0795  0.4590
 7572SOL    HW134352   4.116   2.150   6.257 -0.3650  2.2740  0.9260
 7572SOL    HW234353   4.008   2.062   6.312  3.0989 -3.7252  2.5903
 7573SOL     OW34354   3.762   1.663   5.163 -0.6183  0.6717  0.2463
 7573SOL    HW134355   3.804   1.643   5.079  1.0629  1.5886  0.8727
 7573SOL    HW234356   3.741   1.756   5.152  0.6193  0.9228 -0.0325
 7574SOL     OW34357   2.592   4.115   5.582  0.2340 -0.1864 -0.1280
 7574SOL    HW134358   2.607   4.121   5.676 -1.0374 -0.2597  0.0891
 7574SOL    HW234359   2.666   4.056   5.569 -0.3047 -1.2596  1.6243
 7575SOL     OW34360   0.469   0.534  13.166  0.0097 -0.3430  0.3808
 7575SOL    HW134361   0.510   0.489  13.240  0.0628  0.1758  0.6623
 7575SOL    HW234362   0.391   0.479  13.159 -0.9115  0.9325  0.7941
 7576SOL     OW34363   0.869   1.739   7.270  0.3540 -0.3272  0.5004
 7576SOL    HW134364   0.819   1.812   7.307 -1.1224 -1.7004  1.2046
 7576SOL    HW234365   0.944   1.732   7.330  0.7144 -3.3260 -0.3327
 7577SOL     OW34366   2.307   2.284   4.942  0.2068 -0.4732  0.0046
 7577SOL    HW134367   2.248   2.321   4.877 -0.9279  0.0043  1.3036
 7577SOL    HW234368   2.266   2.209   4.985  1.1664 -0.9016  0.1934
 7578SOL     OW34369   3.668   0.700   5.507  0.0897 -0.0083  0.0435
 7578SOL    HW134370   3.592   0.705   5.449  0.6444 -0.3960 -0.7188
 7578SOL    HW234371   3.679   0.794   5.516 -0.9298 -0.1392  2.5008
 7579SOL     OW34372   3.259   2.122  10.606 -0.0712  0.3674 -0.2571
 7579SOL    HW134373   3.165   2.108  10.598  0.2001 -1.2880 -0.5118
 7579SOL    HW234374   3.283   2.164  10.523  2.6959 -2.6422 -0.9969
 7580SOL     OW34375   2.975   1.842  11.018  0.7659  0.4074 -0.1099
 7580SOL    HW134376   2.882   1.854  11.035  0.1447 -0.9611 -2.5335
 7580SOL    HW234377   3.011   1.930  11.021 -1.3590  1.2477  0.3871
 7581SOL     OW34378   3.747   4.410   8.856  0.0341 -0.0401 -0.6631
 7581SOL    HW134379   3.668   4.444   8.898 -0.8953 -0.8450 -1.7625
 7581SOL    HW234380   3.774   4.497   8.827 -0.2556  0.5299  0.7957
 7582SOL     OW34381   1.190   0.355  16.848  0.1075  0.1348 -0.4150
 7582SOL    HW134382   1.167   0.414  16.776  2.9483 -0.1168 -1.5448
 7582SOL    HW234383   1.190   0.267  16.809  1.0146 -0.5435  1.1311
 7583SOL     OW34384   4.350   4.339   7.492 -0.0106 -0.2385  0.3060
 7583SOL    HW134385   4.327   4.295   7.574  0.6212 -2.9826 -0.9737
 7583SOL    HW234386   4.266   4.371   7.460 -0.4126 -0.6314  0.9770
 7584SOL     OW34387   2.651   3.375  10.724  0.0613 -0.2598 -0.0391
 7584SOL    HW134388   2.714   3.417  10.665  0.7324  1.6957  2.0593
 7584SOL    HW234389   2.713   3.336  10.786 -0.1904 -0.4606  0.0850
 7585SOL     OW34390   1.763   3.012  12.998 -0.2078 -0.0968  0.2318
 7585SOL    HW134391   1.725   3.078  13.057  0.3122 -0.9025  1.4740
 7585SOL    HW234392   1.687   2.999  12.941 -1.1454  2.0564  1.0188
 7586SOL     OW34393   3.435   0.784   5.409  0.0350 -0.1836  0.2239
 7586SOL    HW134394   3.410   0.876   5.405  0.0081 -0.2805 -1.5935
 7586SOL    HW234395   3.406   0.763   5.498 -1.5387  1.3658  0.0625
 7587SOL     OW34396   4.225   2.401  13.811 -0.0139 -0.3148 -0.0111
 7587SOL    HW134397   4.146   2.354  13.783  0.3858  0.1110 -1.8860
 7587SOL    HW234398   4.222   2.379  13.904  0.3691 -0.1170  0.0469
 7588SOL     OW34399   2.567   0.849  17.648  0.0258 -0.4407  0.2305
 7588SOL    HW134400   2.510   0.910  17.601  1.3361  1.3146  0.9095
 7588SOL    HW234401   2.529   0.844  17.736 -0.2568  2.0218  0.2529
 7589SOL     OW34402   1.533   2.574   8.962 -0.1188  0.1321  0.2196
 7589SOL    HW134403   1.463   2.573   8.897 -1.0623 -1.4721  1.2768
 7589SOL    HW234404   1.534   2.484   8.992 -1.7841  0.2117  0.4855
 7590SOL     OW34405   1.503   0.524  13.571 -0.2391  0.1487 -0.8574
 7590SOL    HW134406   1.461   0.566  13.646  0.3494  1.7704 -1.4339
 7590SOL    HW234407   1.479   0.580  13.497 -2.0291  0.6699  0.1147
 7591SOL     OW34408   0.970   2.529   8.289 -0.1989  0.0933  0.5656
 7591SOL    HW134409   0.965   2.537   8.194 -1.3272 -0.0136  0.6240
 7591SOL    HW234410   0.922   2.607   8.316 -0.5196  0.4247 -0.9802
 7592SOL     OW34411   2.904   3.622   2.074 -0.3543  0.7371 -0.0356
 7592SOL    HW134412   2.861   3.569   2.007  0.3019  3.0742 -2.3274
 7592SOL    HW234413   2.896   3.715   2.050 -0.4913  0.5023 -0.8950
 7593SOL     OW34414   2.079   1.805   3.656  0.6570  0.1158  0.2595
 7593SOL    HW134415   2.078   1.796   3.560 -1.1056 -0.1292  0.2961
 7593SOL    HW234416   2.050   1.723   3.696 -1.5345 -0.0402 -1.6182
 7594SOL     OW34417   1.956   1.521  16.898  0.0809 -0.3204  0.5798
 7594SOL    HW134418   2.018   1.570  16.844  0.7029 -1.6682  0.0739
 7594SOL    HW234419   1.875   1.560  16.866 -1.2861 -0.7199  3.5899
 7595SOL     OW34420   2.926   0.079  12.617  0.1327 -0.1056 -0.0912
 7595SOL    HW134421   2.853   0.049  12.564 -1.3887  2.5772  0.5117
 7595SOL    HW234422   2.897   0.042  12.701 -1.8780 -3.4286 -2.2493
 7596SOL     OW34423   1.209   4.072  10.319 -0.5636  0.1138  0.2481
 7596SOL    HW134424   1.181   4.154  10.280  0.7456  0.6523  0.4233
 7596SOL    HW234425   1.178   4.008  10.256  2.1999 -0.1283 -0.8826
 7597SOL     OW34426   4.095   2.189   4.659  0.2143  0.1154 -0.0833
 7597SOL    HW134427   4.031   2.140   4.607  0.9706 -1.0440  0.0923
 7597SOL    HW234428   4.170   2.162   4.607 -0.4178  1.1189 -1.5263
 7598SOL     OW34429   3.576   0.396   4.851  0.2932  0.2276  0.3877
 7598SOL    HW134430   3.488   0.431   4.835  0.5484  1.0000  0.6378
 7598SOL    HW234431   3.606   0.388   4.760  1.0687 -2.2993  0.8717
 7599SOL     OW34432   2.911   2.174  13.408 -0.0036 -0.3334 -0.0382
 7599SOL    HW134433   3.004   2.189  13.393 -0.5381  2.8361 -0.1753
 7599SOL    HW234434   2.908   2.158  13.503  0.9074 -1.1905 -0.1532
 7600SOL     OW34435   2.329   4.149  11.483  0.1229  0.0760 -0.4402
 7600SOL    HW134436   2.238   4.142  11.455  0.9187 -0.8930 -2.8464
 7600SOL    HW234437   2.356   4.058  11.468  0.4123 -0.1572  1.4887
 7601SOL     OW34438   4.055   1.632   7.516  0.8114  0.1249 -0.4051
 7601SOL    HW134439   4.090   1.600   7.599  0.0587 -1.0963 -0.5548
 7601SOL    HW234440   3.974   1.582   7.501  0.8075 -0.3889  1.3303
 7602SOL     OW34441   3.362   0.421   6.740 -0.2371  0.5303  0.4865
 7602SOL    HW134442   3.355   0.451   6.831 -2.3145 -0.6048  0.6998
 7602SOL    HW234443   3.269   0.407   6.722  0.1076 -1.2218  0.0888
 7603SOL     OW34444   2.012   0.925   9.573  0.3316  0.1621 -0.6780
 7603SOL    HW134445   1.989   0.836   9.601 -0.4975  0.8853  0.9978
 7603SOL    HW234446   2.091   0.951   9.621 -0.4923 -1.3914  1.5090
 7604SOL     OW34447   3.063   0.813   3.045  0.2378 -0.4049 -0.3308
 7604SOL    HW134448   2.982   0.854   3.073  0.1895 -0.1556 -0.8396
 7604SOL    HW234449   3.071   0.853   2.959 -0.1966 -0.8371 -0.5741
 7605SOL     OW34450   1.503   0.055   1.432  0.1730 -0.6662 -1.0110
 7605SOL    HW134451   1.487   0.148   1.450 -1.1831 -0.8396 -1.3037
 7605SOL    HW234452   1.426   0.010   1.466 -1.6565  2.7157 -0.6370
 7606SOL     OW34453   1.168   3.528   9.380 -0.3055 -0.1488 -0.3614
 7606SOL    HW134454   1.154   3.518   9.474  0.9238  1.0419 -0.0588
 7606SOL    HW234455   1.239   3.592   9.386 -0.3710 -0.0848 -0.2725
 7607SOL     OW34456   1.448   2.489  16.136 -0.0884  0.2717  0.0801
 7607SOL    HW134457   1.368   2.438  16.130  0.3627 -0.1262 -2.5432
 7607SOL    HW234458   1.448   2.516  16.044 -0.4933  0.8556  0.2520
 7608SOL     OW34459   0.470   0.472   3.666  0.2183  0.4045 -0.1121
 7608SOL    HW134460   0.536   0.505   3.605  0.0780 -0.1702 -0.5707
 7608SOL    HW234461   0.503   0.511   3.747  1.2288 -2.2177  0.7558
 7609SOL     OW34462   0.270   0.635   7.072 -0.6417  0.7450  0.3759
 7609SOL    HW134463   0.346   0.679   7.034 -1.0128  3.3321  2.6583
 7609SOL    HW234464   0.313   0.601   7.151  1.4421 -2.4786 -2.1501
 7610SOL     OW34465   1.519   0.342  15.074 -0.1876  0.2840  0.1634
 7610SOL    HW134466   1.520   0.384  14.988  1.2940 -1.6346 -0.7371
 7610SOL    HW234467   1.589   0.278  15.063  0.3764  0.8413  0.4870
 7611SOL     OW34468   2.708   0.051   7.534  0.2095 -0.1586  0.2572
 7611SOL    HW134469   2.683   4.695   7.546 -0.9704 -0.1232 -2.0432
 7611SOL    HW234470   2.655   0.053   7.455  1.3010 -2.1228 -0.5277
 7612SOL     OW34471   3.833   0.845   8.244  0.2081  0.1726  0.7663
 7612SOL    HW134472   3.776   0.901   8.298  0.0223  0.1095  0.6361
 7612SOL    HW234473   3.913   0.844   8.297 -1.1907 -1.8673  2.8983
 7613SOL     OW34474   2.277   0.165  11.192 -0.2665  0.4407  0.3012
 7613SOL    HW134475   2.356   0.137  11.238 -1.1258 -1.7327  0.4389
 7613SOL    HW234476   2.240   0.077  11.181  0.8907  0.4537 -3.7404
 7614SOL     OW34477   3.068   0.241   3.415 -0.3772 -0.7381  0.4630
 7614SOL    HW134478   3.100   0.151   3.409  2.2376  0.2271 -0.0457
 7614SOL    HW234479   3.027   0.236   3.501 -2.0029  0.7789 -0.2115
 7615SOL     OW34480   0.990   3.131   5.705  0.1172  0.7815 -0.3307
 7615SOL    HW134481   0.988   3.210   5.759 -2.7392 -0.2594  1.0978
 7615SOL    HW234482   1.079   3.149   5.673  0.1392 -0.4945 -1.0176
 7616SOL     OW34483   0.067   1.561   7.377 -0.0759 -0.0318  0.1748
 7616SOL    HW134484   0.149   1.604   7.401 -0.8335  0.7487  1.3652
 7616SOL    HW234485   4.732   1.606   7.422  0.1709  0.3804  0.1544
 7617SOL     OW34486   1.799   0.716   8.377 -0.3628  0.3130 -0.2251
 7617SOL    HW134487   1.709   0.686   8.361 -0.3095 -0.4481  0.9055
 7617SOL    HW234488   1.773   0.807   8.386  0.0886  0.4546 -0.3377
 7618SOL     OW34489   2.752   2.001   6.262  0.2041  0.5874 -0.1042
 7618SOL    HW134490   2.747   1.907   6.243 -0.8594  0.7440 -0.6436
 7618SOL    HW234491   2.771   2.034   6.174  2.2402  1.1610  0.5539
 7619SOL     OW34492   3.994   3.997   3.725 -0.0778 -0.2582  0.2826
 7619SOL    HW134493   4.072   4.049   3.706 -0.6930 -0.0694 -1.7669
 7619SOL    HW234494   3.949   4.019   3.643 -2.0113 -0.1672  1.3630
 7620SOL     OW34495   4.102   0.022  10.701  0.2960 -0.1383 -0.5817
 7620SOL    HW134496   4.102   0.117  10.690  1.2177  0.0472  0.9665
 7620SOL    HW234497   4.011   4.732  10.690  0.9458 -4.2149  3.6603
 7621SOL     OW34498   2.703   4.422  17.581  0.4122 -0.1148  0.7715
 7621SOL    HW134499   2.723   4.349  17.523 -0.6068 -1.5905  2.2603
 7621SOL    HW234500   2.690   4.495  17.520  0.3574 -1.7354 -1.1324
 7622SOL     OW34501   2.796   4.718   6.067 -0.1576  0.4864 -0.2678
 7622SOL    HW134502   2.853   4.700   6.141  1.4669 -2.5573 -2.2315
 7622SOL    HW234503   2.777   4.626   6.045 -2.4240  0.4266  1.8769
 7623SOL     OW34504   2.849   1.341  13.268  0.1888 -0.2113 -0.2396
 7623SOL    HW134505   2.849   1.435  13.254 -0.3983 -0.0206  0.9875
 7623SOL    HW234506   2.755   1.331  13.254  0.4988 -1.2391 -1.6335
 7624SOL     OW34507   1.726   3.541   5.642  0.7626  0.0898 -0.0463
 7624SOL    HW134508   1.790   3.515   5.709  0.3867  2.3692  1.2060
 7624SOL    HW234509   1.712   3.460   5.593  1.3221  0.1654 -0.3351
 7625SOL     OW34510   2.081   3.004  16.189 -0.0628 -0.4810  0.1758
 7625SOL    HW134511   2.174   3.028  16.194 -0.3376  0.3454  1.2688
 7625SOL    HW234512   2.074   2.983  16.096 -3.6361  2.1297 -0.1419
 7626SOL     OW34513   4.257   2.209   5.759  0.1865 -0.2835 -0.8532
 7626SOL    HW134514   4.309   2.203   5.839  0.0162 -1.1228 -0.8045
 7626SOL    HW234515   4.174   2.170   5.786  0.1650  0.3108 -0.0602
 7627SOL     OW34516   1.036   3.399  14.218 -0.3899  0.0672 -0.6983
 7627SOL    HW134517   1.102   3.416  14.151 -1.4446 -0.3145 -1.8440
 7627SOL    HW234518   1.079   3.406  14.302 -1.4890  0.0395 -0.1290
 7628SOL     OW34519   4.710   2.574   1.841 -0.4027 -0.2125  0.3895
 7628SOL    HW134520   0.059   2.546   1.807 -0.2187 -0.2515  0.8715
 7628SOL    HW234521   4.660   2.507   1.795 -1.0424  0.3580  0.2615
 7629SOL     OW34522   2.388   3.118   3.904 -1.0462 -0.2677  0.4087
 7629SOL    HW134523   2.376   3.190   3.842 -0.2348 -1.2362 -0.8690
 7629SOL    HW234524   2.476   3.126   3.941 -0.6522 -0.2348 -0.5532
 7630SOL     OW34525   3.563   2.326   5.650 -0.6999  0.5358 -0.2951
 7630SOL    HW134526   3.547   2.379   5.572 -0.7067  1.4127  0.3121
 7630SOL    HW234527   3.477   2.287   5.665  0.3490 -2.7045 -2.7491
 7631SOL     OW34528   0.658   3.976   7.131  0.0841  0.4435 -0.2523
 7631SOL    HW134529   0.608   3.998   7.052 -0.7985 -2.5592 -0.5506
 7631SOL    HW234530   0.744   3.955   7.094  1.0510  2.7283  0.6788
 7632SOL     OW34531   0.715   4.475  15.559  0.5342 -0.0984 -0.1880
 7632SOL    HW134532   0.676   4.388  15.557 -0.5711  0.3659  0.9847
 7632SOL    HW234533   0.652   4.525  15.611  0.8906  1.1964 -0.9868
 7633SOL     OW34534   4.627   4.394   1.288 -0.5261  0.4867  0.2695
 7633SOL    HW134535   4.716   4.425   1.298 -0.1223 -1.5736  3.2378
 7633SOL    HW234536   4.570   4.450   1.342 -0.1462  1.1178  0.0113
 7634SOL     OW34537   1.809   0.243   2.975 -0.3404 -0.5936 -0.4149
 7634SOL    HW134538   1.742   0.300   2.938  0.0422  0.3072  0.2997
 7634SOL    HW234539   1.767   0.217   3.057  1.1850 -0.3408  0.4525
 7635SOL     OW34540   2.849   1.050   6.986 -0.1066  0.3770 -0.4529
 7635SOL    HW134541   2.847   0.980   6.921 -0.9767  0.6793 -0.7535
 7635SOL    HW234542   2.915   1.015   7.046  1.6259  0.4143 -2.3296
 7636SOL     OW34543   0.385   4.694   7.097 -0.2128  0.1174  0.6060
 7636SOL    HW134544   0.322   4.707   7.168 -1.0313  0.5194 -0.1941
 7636SOL    HW234545   0.322   4.673   7.029 -0.1698  1.8943  0.0328
 7637SOL     OW34546   4.062   1.033   7.201 -0.1170  0.4168  0.5201
 7637SOL    HW134547   4.107   0.966   7.252  1.2189 -0.8060 -2.2532
 7637SOL    HW234548   4.054   0.984   7.119  1.1550 -0.1449  0.7348
 7638SOL     OW34549   3.124   0.797   5.818  0.3482 -0.4363  0.0624
 7638SOL    HW134550   3.108   0.781   5.911  1.7851 -0.2387  0.3348
 7638SOL    HW234551   3.047   0.847   5.792 -0.1969 -1.1547  0.2994
 7639SOL     OW34552   1.356   3.423   7.239  0.0230  0.0758  0.9096
 7639SOL    HW134553   1.333   3.345   7.290  1.3228  1.1043  3.0465
 7639SOL    HW234554   1.440   3.405   7.197 -1.5984  1.4778 -2.9555
 7640SOL     OW34555   1.383   4.178   6.938  0.6321  0.0898 -0.4105
 7640SOL    HW134556   1.427   4.263   6.936  1.6850 -0.4688 -1.0823
 7640SOL    HW234557   1.459   4.120   6.951  0.1150  0.0873  2.5231
 7641SOL     OW34558   0.202   0.640   8.440 -0.6253 -0.5635 -0.5584
 7641SOL    HW134559   0.133   0.707   8.445 -0.3079 -0.6738  5.1186
 7641SOL    HW234560   0.153   0.558   8.454  1.0250 -1.4236  0.1849
 7642SOL     OW34561   1.903   4.433   0.701  0.1145 -0.2748 -1.0256
 7642SOL    HW134562   1.878   4.478   0.782  0.5002  1.4603 -1.8663
 7642SOL    HW234563   1.971   4.371   0.727 -0.5687 -0.7069 -0.2484
 7643SOL     OW34564   3.888   3.889  14.429 -0.7027  0.0703  0.3006
 7643SOL    HW134565   3.825   3.821  14.407 -1.0744  0.0088  1.5257
 7643SOL    HW234566   3.945   3.842  14.491  0.8370 -1.3754 -2.1915
 7644SOL     OW34567   3.579   3.436  14.662  0.1663  0.2200 -0.3770
 7644SOL    HW134568   3.502   3.442  14.605 -1.5333 -2.0476  1.6429
 7644SOL    HW234569   3.543   3.457  14.748 -0.8199  1.4665 -1.0933
 7645SOL     OW34570   0.428   1.090   1.892  0.2616  0.2113  0.5900
 7645SOL    HW134571   0.390   1.005   1.870  1.4174  0.1004 -0.9490
 7645SOL    HW234572   0.492   1.064   1.958  0.0716 -0.4679  0.5065
 7646SOL     OW34573   4.669   1.375   8.520  0.1084 -0.6229  0.0915
 7646SOL    HW134574   0.011   1.428   8.506 -1.0765  0.7730 -1.1388
 7646SOL    HW234575   4.659   1.318   8.444  0.2211 -2.2925  1.3304
 7647SOL     OW34576   0.343   2.264   1.863 -0.2409  0.0215 -0.3752
 7647SOL    HW134577   0.418   2.249   1.921 -1.2837 -0.2532  0.9012
 7647SOL    HW234578   0.272   2.240   1.922 -0.3767  0.1046 -0.5043
 7648SOL     OW34579   0.615   1.676   1.555 -0.2203  0.2581  0.1966
 7648SOL    HW134580   0.673   1.612   1.597 -0.1019  0.5688  0.4996
 7648SOL    HW234581   0.569   1.704   1.634  0.8010 -1.7814  1.5258
 7649SOL     OW34582   2.765   3.247   2.928 -0.3453 -0.2312 -0.0990
 7649SOL    HW134583   2.711   3.170   2.948 -0.3271 -0.1523  0.2557
 7649SOL    HW234584   2.776   3.232   2.834  2.3958  2.5983 -0.2428
 7650SOL     OW34585   3.238   2.836   5.922  0.4630 -0.0130  0.1385
 7650SOL    HW134586   3.219   2.757   5.972 -0.1145 -0.4045 -0.7267
 7650SOL    HW234587   3.308   2.867   5.980 -1.4234  0.0879  2.3619
 7651SOL     OW34588   4.594   0.173   0.072  0.0662 -0.4906  0.0014
 7651SOL    HW134589   4.542   0.092   0.082 -2.2922  1.1178  0.8341
 7651SOL    HW234590   4.645   0.148  17.739  0.5261 -1.1388  0.5175
 7652SOL     OW34591   1.393   4.466   3.158 -0.3414 -0.1648 -0.3934
 7652SOL    HW134592   1.334   4.539   3.140 -0.2088 -0.4442 -1.9692
 7652SOL    HW234593   1.356   4.433   3.240 -0.2734  1.6043  0.3532
 7653SOL     OW34594   2.075   2.987   9.238 -0.0007 -0.0977 -0.4080
 7653SOL    HW134595   2.035   2.900   9.237  0.6544 -0.4415  2.1894
 7653SOL    HW234596   2.098   2.990   9.331 -0.7659 -1.6624 -0.1625
 7654SOL     OW34597   1.406   1.780   7.137 -0.7681  0.0504 -0.2705
 7654SOL    HW134598   1.362   1.857   7.101  0.4152  1.7244  1.9026
 7654SOL    HW234599   1.356   1.709   7.098 -1.6497 -0.7605  2.3346
 7655SOL     OW34600   3.611   0.179  10.304  0.0113 -0.0964 -0.2129
 7655SOL    HW134601   3.651   0.239  10.367  2.1007 -2.2683  0.5210
 7655SOL    HW234602   3.692   0.134  10.281  0.6893  0.7534  0.4964
 7656SOL     OW34603   4.642   1.989   8.689  0.4511  0.6902  0.7332
 7656SOL    HW134604   4.736   1.980   8.673  0.1283  1.3744 -1.6202
 7656SOL    HW234605   4.633   2.083   8.703 -3.3172  0.4275  0.1442
 7657SOL     OW34606   3.186   1.837   9.312  0.3710  0.9571  0.2833
 7657SOL    HW134607   3.203   1.745   9.328  1.1278  0.6532 -2.1993
 7657SOL    HW234608   3.188   1.874   9.400 -1.2479 -1.6753  1.4047
 7658SOL     OW34609   3.991   2.163   6.769 -0.4178 -0.3421 -0.2022
 7658SOL    HW134610   4.036   2.219   6.705 -0.9488 -0.0258 -0.3070
 7658SOL    HW234611   3.917   2.121   6.724  0.1743 -0.2888 -1.2242
 7659SOL     OW34612   3.411   0.653   8.853 -0.1873  0.1909 -0.4886
 7659SOL    HW134613   3.374   0.701   8.779  0.8380  0.0768 -1.0697
 7659SOL    HW234614   3.331   0.610   8.885  0.2863 -0.2320  0.1090
 7660SOL     OW34615   0.360   0.708   5.758 -0.0016 -0.4492 -0.2333
 7660SOL    HW134616   0.301   0.733   5.829  1.4961  2.4988 -0.0346
 7660SOL    HW234617   0.298   0.662   5.701 -0.9788 -0.5479  0.9087
 7661SOL     OW34618   3.920   4.531  16.077 -0.5567 -0.6472  0.3432
 7661SOL    HW134619   3.983   4.472  16.118  1.1339  1.2356  0.4478
 7661SOL    HW234620   3.937   4.609  16.130 -0.9207 -1.8421  2.2122
 7662SOL     OW34621   4.431   0.680   6.106 -0.1944  0.4132  0.3994
 7662SOL    HW134622   4.395   0.761   6.142 -2.0570 -0.5738  0.7969
 7662SOL    HW234623   4.352   0.628   6.093  1.1057 -2.0428  2.1106
 7663SOL     OW34624   1.098   2.241  17.657 -0.2941  0.1506  0.6092
 7663SOL    HW134625   1.183   2.229  17.699 -0.0186  0.6597  0.2100
 7663SOL    HW234626   1.109   2.309  17.590  0.2654  0.0902  0.6407
 7664SOL     OW34627   0.534   0.427   8.957  0.3611 -0.1524  0.5879
 7664SOL    HW134628   0.593   0.370   9.008  2.1473  1.6687  0.5762
 7664SOL    HW234629   0.609   0.474   8.919  2.3233 -1.0376  3.3833
 7665SOL     OW34630   2.483   4.629  17.036 -0.2091  0.3171  0.4482
 7665SOL    HW134631   2.496   4.541  17.000  1.9312  0.8843 -0.2061
 7665SOL    HW234632   2.573   4.661  17.024  0.7007 -2.0312  1.1027
 7666SOL     OW34633   4.294   1.835   3.031 -0.2445 -0.8693 -0.2790
 7666SOL    HW134634   4.350   1.783   3.090 -0.1283  0.8722  1.1287
 7666SOL    HW234635   4.304   1.793   2.946  2.1684 -2.6083  0.8524
 7667SOL     OW34636   2.263   1.417   3.921 -0.1563  0.1826  1.2989
 7667SOL    HW134637   2.282   1.502   3.881 -1.3748  0.1663  0.6942
 7667SOL    HW234638   2.256   1.370   3.838  2.5168 -1.2460  1.8990
 7668SOL     OW34639   1.586   3.228   6.305 -0.2143  0.0365  0.2595
 7668SOL    HW134640   1.548   3.152   6.349 -0.5687 -0.4037 -0.8034
 7668SOL    HW234641   1.559   3.284   6.378 -0.8989 -0.0570  0.0834
 7669SOL     OW34642   3.498   2.397   0.809  0.0501  0.2931  0.3398
 7669SOL    HW134643   3.467   2.405   0.719 -0.3955 -0.5142  0.4221
 7669SOL    HW234644   3.489   2.304   0.827  0.9670  0.4958  1.8661
 7670SOL     OW34645   1.212   0.715   8.698  0.2125  0.7058 -0.8290
 7670SOL    HW134646   1.256   0.770   8.632  0.5306 -1.5283 -2.4913
 7670SOL    HW234647   1.283   0.656   8.722  1.2311  1.7907 -1.1533
 7671SOL     OW34648   1.270   1.772   2.312  0.1538 -0.0123 -0.6362
 7671SOL    HW134649   1.341   1.772   2.248  0.1844  1.3454 -0.5984
 7671SOL    HW234650   1.198   1.746   2.255 -1.6493 -0.1583  1.7016
 7672SOL     OW34651   1.801   1.250   4.743 -0.2404 -0.0969 -0.8876
 7672SOL    HW134652   1.808   1.194   4.666 -3.2530 -2.0877  0.2900
 7672SOL    HW234653   1.735   1.206   4.797 -1.0904  0.5602 -1.3850
 7673SOL     OW34654   2.650   4.329   5.409 -0.2231  0.2186  0.2153
 7673SOL    HW134655   2.649   4.254   5.350 -1.2446 -0.1577  0.7089
 7673SOL    HW234656   2.596   4.303   5.484  0.4287 -1.2352  0.1765
 7674SOL     OW34657   1.031   3.455  11.651  0.1557 -0.6485 -0.8611
 7674SOL    HW134658   1.034   3.395  11.726  3.4981  0.5965  0.0116
 7674SOL    HW234659   1.009   3.533  11.703 -1.7625 -1.3324 -0.6335
 7675SOL     OW34660   4.646   1.187   7.314 -0.2039 -0.0618  0.5476
 7675SOL    HW134661   4.722   1.139   7.346 -0.6285 -1.4032 -0.4863
 7675SOL    HW234662   4.618   1.241   7.388 -1.3054 -0.9489  0.7788
 7676SOL     OW34663   3.450   1.422   7.195  0.4973  0.1869 -0.5664
 7676SOL    HW134664   3.445   1.495   7.134  1.0858 -1.2840 -2.3720
 7676SOL    HW234665   3.522   1.372   7.156  1.2968  0.2286  0.8516
 7677SOL     OW34666   3.778   3.360   4.906 -0.0910 -0.4553  0.5960
 7677SOL    HW134667   3.731   3.411   4.840 -0.3182  0.4744  1.4756
 7677SOL    HW234668   3.704   3.373   4.965 -1.4985 -1.8757 -0.8623
 7678SOL     OW34669   0.094   0.415   2.336  0.5553 -0.2323 -0.0293
 7678SOL    HW134670   0.178   0.398   2.293  0.5761  1.2761 -0.5772
 7678SOL    HW234671   0.046   0.465   2.270 -0.3014 -0.7526  0.1946
 7679SOL     OW34672   2.491   0.086   1.740 -0.3057 -0.2945  1.1770
 7679SOL    HW134673   2.412   0.102   1.689  0.2433  0.4374  0.5525
 7679SOL    HW234674   2.488   0.169   1.788  0.4779  0.4626 -0.1029
 7680SOL     OW34675   0.305   4.302  14.814  0.0883 -0.2353 -0.3098
 7680SOL    HW134676   0.344   4.289  14.901 -0.7046  1.7955  0.3560
 7680SOL    HW234677   0.384   4.304  14.759 -0.6932 -1.6042 -1.4584
 7681SOL     OW34678   4.386   4.103   6.617  0.2672  0.5780 -0.3263
 7681SOL    HW134679   4.394   4.060   6.702 -0.8628 -2.2321 -1.6378
 7681SOL    HW234680   4.304   4.071   6.578  0.3082  2.6257 -2.0755
 7682SOL     OW34681   2.144   1.395   0.680  0.0885  0.5707 -0.0794
 7682SOL    HW134682   2.152   1.448   0.600  0.0350  0.4126 -0.1878
 7682SOL    HW234683   2.107   1.312   0.651  2.2270 -1.0467  1.8611
 7683SOL     OW34684   1.550   3.116  15.206 -0.0986  0.7215  0.3805
 7683SOL    HW134685   1.518   3.137  15.118 -0.4714 -0.3756  0.2464
 7683SOL    HW234686   1.528   3.193  15.258 -0.6113  0.7471  0.1269
 7684SOL     OW34687   0.503   1.194  14.161 -0.0239 -0.1407  1.0194
 7684SOL    HW134688   0.538   1.267  14.110 -1.6354 -0.6318 -0.7496
 7684SOL    HW234689   0.573   1.129  14.153 -0.7457 -0.6748 -0.9260
 7685SOL     OW34690   3.558   4.338  12.771 -0.0643  0.4630 -0.1933
 7685SOL    HW134691   3.556   4.427  12.805  1.2648  0.7961 -0.9760
 7685SOL    HW234692   3.488   4.341  12.706 -0.5227 -0.0272  0.2788
 7686SOL     OW34693   0.249   2.981   1.669 -0.1962 -0.3079  0.1979
 7686SOL    HW134694   0.344   2.987   1.677 -0.1729 -0.2218 -0.1470
 7686SOL    HW234695   0.230   2.890   1.691 -2.5005 -0.1921 -1.2517
 7687SOL     OW34696   4.270   0.408   3.626 -0.1911  0.2732  0.0603
 7687SOL    HW134697   4.363   0.400   3.647 -0.5244 -4.2755 -0.2564
 7687SOL    HW234698   4.260   0.334   3.567  1.1597  2.6003 -3.1051
 7688SOL     OW34699   3.283   4.344   3.178  0.5573 -0.0682 -0.1047
 7688SOL    HW134700   3.257   4.256   3.203  2.4542 -0.3544  0.8610
 7688SOL    HW234701   3.326   4.363   3.261  0.7208 -0.6187 -0.0616
 7689SOL     OW34702   4.396   1.375   1.318  0.5524  0.2363  0.2901
 7689SOL    HW134703   4.449   1.396   1.240 -0.0975  0.7737 -0.0048
 7689SOL    HW234704   4.443   1.298   1.350 -0.7132 -0.2070  1.0558
 7690SOL     OW34705   4.460   1.173   6.897 -0.4066 -0.3853 -0.2727
 7690SOL    HW134706   4.394   1.144   6.960 -0.5717  1.8132  0.5399
 7690SOL    HW234707   4.540   1.159   6.948 -1.6077 -0.5664  1.5540
 7691SOL     OW34708   0.896   3.382  17.173 -0.3759  0.1274  0.7438
 7691SOL    HW134709   0.959   3.449  17.200  0.2000 -0.4156  0.7625
 7691SOL    HW234710   0.939   3.342  17.098 -0.1122 -1.6262  1.8136
 7692SOL     OW34711   3.701   0.694   8.576 -0.1814  0.3306  0.3213
 7692SOL    HW134712   3.691   0.768   8.516 -0.8018 -0.5289 -0.6534
 7692SOL    HW234713   3.790   0.714   8.604  0.7340 -0.0836 -2.2262
 7693SOL     OW34714   3.142   4.222   8.229  0.1631  0.1211 -0.0010
 7693SOL    HW134715   3.099   4.295   8.273 -1.8068 -0.5383 -0.8190
 7693SOL    HW234716   3.065   4.166   8.222  0.3662  0.1485 -2.4695
 7694SOL     OW34717   4.699   4.094  12.849  0.2356 -0.1047 -0.1338
 7694SOL    HW134718   4.606   4.112  12.837  0.4073  1.3595  0.7326
 7694SOL    HW234719   4.720   4.131  12.763 -1.4092  1.8328  0.3153
 7695SOL     OW34720   3.549   2.396  15.656  0.1517 -0.4215 -0.6629
 7695SOL    HW134721   3.556   2.309  15.616  0.2374 -0.4089 -0.6736
 7695SOL    HW234722   3.587   2.453  15.589  2.2585  0.1490  1.0459
 7696SOL     OW34723   3.297   4.261  10.088 -0.4115  0.1285 -0.1054
 7696SOL    HW134724   3.358   4.278  10.016  0.3154  0.3815  0.5581
 7696SOL    HW234725   3.281   4.347  10.128  1.1043  0.2805  0.1921
 7697SOL     OW34726   3.484   1.834   9.516  0.0577  0.2637 -0.2013
 7697SOL    HW134727   3.524   1.921   9.515  1.1831 -0.2460  0.2979
 7697SOL    HW234728   3.394   1.860   9.534  0.2866  0.5576  0.5264
 7698SOL     OW34729   0.834   4.216   1.068 -0.2918  0.2498 -0.1856
 7698SOL    HW134730   0.783   4.156   1.123 -1.0438  1.3698  0.3245
 7698SOL    HW234731   0.806   4.300   1.104  1.5300  1.6167 -1.9907
 7699SOL     OW34732   2.626   1.348  13.486 -0.4143  0.3551  0.1124
 7699SOL    HW134733   2.562   1.419  13.488 -1.5203 -0.7036  2.2015
 7699SOL    HW234734   2.589   1.302  13.411  0.1610  0.8888 -0.5007
 7700SOL     OW34735   1.034   2.017   9.187  0.1957  1.1959 -0.2629
 7700SOL    HW134736   1.029   2.085   9.254 -1.0822  0.8110  0.0435
 7700SOL    HW234737   0.943   2.003   9.162  0.9572 -0.1833 -2.3082
 7701SOL     OW34738   3.934   1.132   4.803  0.1730 -0.1755  0.1473
 7701SOL    HW134739   3.995   1.164   4.869  1.1121 -2.5429  0.4354
 7701SOL    HW234740   3.947   1.192   4.730 -0.1595  0.9162  0.9790
 7702SOL     OW34741   3.252   2.614   5.703 -0.1622 -0.2936 -0.6876
 7702SOL    HW134742   3.260   2.702   5.667  0.0506  0.8114  2.0230
 7702SOL    HW234743   3.158   2.598   5.710 -0.6101  3.3666  1.4885
 7703SOL     OW34744   2.646   4.567   1.693  0.6844 -0.1579 -0.1545
 7703SOL    HW134745   2.657   4.638   1.629  0.2673 -1.4760 -1.6944
 7703SOL    HW234746   2.616   4.629   1.759 -0.6229  0.6124 -1.4434
 7704SOL     OW34747   1.201   3.623  12.922 -0.6839  0.0180 -0.1539
 7704SOL    HW134748   1.139   3.694  12.943 -1.5894 -1.4030  1.9319
 7704SOL    HW234749   1.211   3.589  13.011 -1.0111 -1.0628 -0.5286
 7705SOL     OW34750   3.114   4.358   1.399 -0.4506  0.0269 -0.7124
 7705SOL    HW134751   3.088   4.316   1.317  0.4778 -1.3109 -0.3390
 7705SOL    HW234752   3.180   4.420   1.367  0.4859  0.1679  1.4899
 7706SOL     OW34753   4.495   0.395   3.880 -0.1972 -0.1761 -0.1787
 7706SOL    HW134754   4.521   0.413   3.970 -1.6107 -0.8444  0.3714
 7706SOL    HW234755   4.561   0.445   3.832  0.6096 -1.2002 -0.1525
 7707SOL     OW34756   0.218   1.399   5.138 -0.1061 -0.4121  0.6559
 7707SOL    HW134757   0.164   1.446   5.200 -1.3719  0.0471 -0.7984
 7707SOL    HW234758   0.295   1.455   5.127 -0.7575  0.1296 -1.0792
 7708SOL     OW34759   0.540   4.696  13.389 -0.3948  0.0009 -0.4685
 7708SOL    HW134760   0.625   4.653  13.391  0.5358  1.9007  0.4984
 7708SOL    HW234761   0.561   0.015  13.314  0.6317  0.8565  0.4544
 7709SOL     OW34762   4.160   4.510   0.097  0.6176  0.0966 -0.2605
 7709SOL    HW134763   4.239   4.475   0.054  0.9108 -0.1896  0.5087
 7709SOL    HW234764   4.088   4.492   0.037 -0.6934  1.7823  0.7976
 7710SOL     OW34765   2.224   0.640  11.266  0.3924  0.0707  0.1107
 7710SOL    HW134766   2.153   0.685  11.312  1.2374 -1.1801  2.6951
 7710SOL    HW234767   2.206   0.547  11.281  0.5528  0.0508  0.1896
 7711SOL     OW34768   2.278   1.006   4.387 -0.2810  0.3637 -0.6684
 7711SOL    HW134769   2.358   1.049   4.416 -0.4582 -0.3565  0.8732
 7711SOL    HW234770   2.301   0.992   4.295  2.2421  2.8019 -0.4270
 7712SOL     OW34771   2.229   3.787   6.009 -0.6738 -0.6192 -0.4655
 7712SOL    HW134772   2.238   3.824   6.097  0.0981 -1.1223 -0.3284
 7712SOL    HW234773   2.313   3.741   6.014  0.0747  0.7169 -0.7425
 7713SOL     OW34774   3.870   1.362  10.773 -0.1417  0.3189 -0.8109
 7713SOL    HW134775   3.856   1.275  10.736 -1.1828 -0.2534  0.9043
 7713SOL    HW234776   3.864   1.334  10.865 -1.1364  0.6571 -0.7658
 7714SOL     OW34777   0.660   3.958   7.848 -0.3193 -0.4383  0.5382
 7714SOL    HW134778   0.678   3.932   7.758 -0.0271  2.9469 -0.3980
 7714SOL    HW234779   0.675   3.879   7.899 -0.0415 -0.8674 -0.1997
 7715SOL     OW34780   4.306   4.005   4.294  1.2571 -0.1860  0.0734
 7715SOL    HW134781   4.307   4.101   4.295 -1.2558 -0.1385 -1.8679
 7715SOL    HW234782   4.220   3.992   4.254  1.6027 -1.3526 -0.3005
 7716SOL     OW34783   4.711   1.564  15.043 -0.1214 -0.3561 -0.0392
 7716SOL    HW134784   4.701   1.584  15.136  3.2141  1.7211 -0.1162
 7716SOL    HW234785   0.007   1.645  15.002 -2.0808 -0.6384 -2.1074
 7717SOL     OW34786   2.387   3.726  13.728 -0.1578 -0.4646 -0.4089
 7717SOL    HW134787   2.479   3.738  13.704  1.0066 -2.0779  3.2172
 7717SOL    HW234788   2.347   3.746  13.644 -1.4391 -0.2207  0.2579
 7718SOL     OW34789   2.662   1.189   7.187 -0.0279 -0.3536 -0.4886
 7718SOL    HW134790   2.673   1.281   7.160  1.0470 -0.0580  0.9459
 7718SOL    HW234791   2.728   1.134   7.144  0.1305 -0.0051 -0.6920
 7719SOL     OW34792   3.460   0.588  11.321  0.4900  0.1982 -0.8313
 7719SOL    HW134793   3.390   0.649  11.345  1.7531  0.5904  1.8729
 7719SOL    HW234794   3.526   0.610  11.387 -0.2907  0.7042 -0.2171
 7720SOL     OW34795   1.121   2.540   2.131 -0.4621 -1.5368 -0.1227
 7720SOL    HW134796   1.157   2.562   2.217  2.4140 -1.8823 -1.2414
 7720SOL    HW234797   1.033   2.578   2.131 -0.1046 -0.6981  0.4516
 7721SOL     OW34798   0.502   0.471   5.009 -0.4355 -0.3982  0.2316
 7721SOL    HW134799   0.503   0.419   5.090  3.0063 -1.0287 -0.2185
 7721SOL    HW234800   0.530   0.556   5.043 -0.4839 -0.4536  0.4102
 7722SOL     OW34801   1.750   4.668   7.204 -0.0513 -0.1777  0.4134
 7722SOL    HW134802   1.665   4.625   7.195  0.8011 -2.6099  3.9283
 7722SOL    HW234803   1.781   4.672   7.113 -0.6337  2.5629  0.3299
 7723SOL     OW34804   0.439   0.726   8.318  0.0004  0.1044 -0.2056
 7723SOL    HW134805   0.407   0.815   8.330 -1.4106 -0.6708  1.8408
 7723SOL    HW234806   0.360   0.673   8.328  0.8310 -1.2146 -0.4966
 7724SOL     OW34807   3.079   0.543  14.845  0.0411 -0.9659 -0.3001
 7724SOL    HW134808   3.028   0.465  14.866 -2.6921  0.1788 -2.7353
 7724SOL    HW234809   3.092   0.532  14.751 -1.5175  1.7214 -0.8258
 7725SOL     OW34810   0.744   2.903   0.933  0.4390 -0.2471  1.1152
 7725SOL    HW134811   0.697   2.978   0.896  0.5803  0.3331  2.1088
 7725SOL    HW234812   0.833   2.934   0.947  0.5012 -0.2484  0.7148
 7726SOL     OW34813   4.669   2.771   2.462 -0.3994  0.2453  0.2552
 7726SOL    HW134814   0.003   2.835   2.473 -0.5080  0.5189 -0.6470
 7726SOL    HW234815   4.720   2.691   2.451  1.2636  1.1405  1.4600
 7727SOL     OW34816   1.604   4.406   7.054  0.4153  0.4351  0.0730
 7727SOL    HW134817   1.554   4.480   7.019 -2.4093 -0.6820  1.7748
 7727SOL    HW234818   1.678   4.411   6.994 -0.9842 -0.6770 -1.7246
 7728SOL     OW34819   4.148   0.648   4.080  0.5971  0.0180 -0.3473
 7728SOL    HW134820   4.236   0.686   4.082  1.2367 -1.3767 -1.6539
 7728SOL    HW234821   4.119   0.654   4.171 -0.3743  0.5468 -0.6875
 7729SOL     OW34822   4.490   2.401   0.631 -0.1445 -0.1605  0.1239
 7729SOL    HW134823   4.481   2.495   0.618 -2.2685 -0.1050  1.8576
 7729SOL    HW234824   4.584   2.386   0.622 -0.1944 -0.3481 -0.0856
 7730SOL     OW34825   1.157   1.162   0.868 -0.0981  0.0694 -0.0693
 7730SOL    HW134826   1.066   1.141   0.889  0.0960 -1.1418 -0.4145
 7730SOL    HW234827   1.176   1.225   0.937 -3.4092  0.1924  0.7378
 7731SOL     OW34828   3.784   2.377   5.102 -0.2313 -0.7219 -0.3573
 7731SOL    HW134829   3.785   2.460   5.149 -4.5517  0.2061 -1.9785
 7731SOL    HW234830   3.875   2.353   5.123  0.1391  0.6380 -0.4157
 7732SOL     OW34831   4.708   4.517   6.063  0.7540 -1.1451  0.4096
 7732SOL    HW134832   4.621   4.484   6.082 -0.0214  1.6844  1.7810
 7732SOL    HW234833   4.706   4.612   6.074 -1.9548 -1.4549  2.7714
 7733SOL     OW34834   0.613   1.704   8.983  0.1701 -0.3978  0.1903
 7733SOL    HW134835   0.547   1.669   8.923 -3.8793  1.2138  3.7248
 7733SOL    HW234836   0.607   1.663   9.070  1.0776  0.7778  0.8060
 7734SOL     OW34837   3.987   1.203   7.906  0.3133 -0.5790 -0.2845
 7734SOL    HW134838   4.007   1.288   7.946  3.5162 -1.5818  0.2706
 7734SOL    HW234839   3.992   1.141   7.979  1.9655  1.3173  1.2030
 7735SOL     OW34840   3.435   4.692   1.666  0.1636  0.5344  0.0479
 7735SOL    HW134841   3.376   4.711   1.738  0.3006  0.4085  0.1933
 7735SOL    HW234842   3.514   4.727   1.707  0.4485 -1.5270  1.2895
 7736SOL     OW34843   4.638   1.410   1.590  0.3746  0.2562 -0.3918
 7736SOL    HW134844   4.690   1.332   1.572  1.1245  0.3729  1.2221
 7736SOL    HW234845   4.574   1.371   1.648  0.8415  1.0229  0.6450
 7737SOL     OW34846   2.157   2.560  12.134  0.1504  0.1499  0.2919
 7737SOL    HW134847   2.199   2.492  12.081  1.2436  0.6259  0.5318
 7737SOL    HW234848   2.107   2.514  12.201 -0.9513  0.5551 -0.2498
 7738SOL     OW34849   0.477   2.581   5.641  0.2451 -0.2740  0.3394
 7738SOL    HW134850   0.444   2.669   5.657  1.2381  0.5703 -2.2869
 7738SOL    HW234851   0.434   2.533   5.712 -1.9795  1.7289  0.3201
 7739SOL     OW34852   1.469   1.450   3.126  0.0739  0.0005  0.4038
 7739SOL    HW134853   1.418   1.489   3.197 -1.5966 -1.6177  0.0856
 7739SOL    HW234854   1.558   1.460   3.161 -0.1425  0.3133  0.8608
 7740SOL     OW34855   1.787   2.488   4.068  0.0020  0.2127 -0.0163
 7740SOL    HW134856   1.737   2.485   3.987 -0.9401 -1.1877  0.6155
 7740SOL    HW234857   1.747   2.436   4.138  2.3907 -0.4777  0.8473
 7741SOL     OW34858   3.634   2.217   6.453  0.1258  0.2891  0.5838
 7741SOL    HW134859   3.677   2.290   6.496  0.8844 -0.9807  1.9937
 7741SOL    HW234860   3.600   2.248   6.369  2.0120 -0.1023 -0.3306
 7742SOL     OW34861   3.968   1.862   9.608 -0.5742  0.3369 -0.4225
 7742SOL    HW134862   3.895   1.802   9.593 -0.3037 -0.2019  0.3793
 7742SOL    HW234863   3.936   1.933   9.553 -1.2882 -0.8948 -1.6158
 7743SOL     OW34864   1.989   1.036   3.243  0.6949 -0.2939  0.2057
 7743SOL    HW134865   2.040   1.028   3.324  0.5350  3.2911  0.6602
 7743SOL    HW234866   1.960   1.127   3.246  0.5629 -0.3080 -0.7619
 7744SOL     OW34867   4.132   3.603  14.895  0.2561  0.2116  0.8890
 7744SOL    HW134868   4.102   3.516  14.922  1.9326 -0.4747  0.5919
 7744SOL    HW234869   4.088   3.665  14.952  2.0533  0.9987  1.4248
 7745SOL     OW34870   2.344   4.253   4.968 -0.3163  0.3671 -0.2502
 7745SOL    HW134871   2.436   4.229   4.967 -0.8681 -1.7298 -0.0231
 7745SOL    HW234872   2.354   4.344   4.939 -2.4449  1.3009  1.9086
 7746SOL     OW34873   4.102   4.123   2.413  0.1569  0.6483 -0.5367
 7746SOL    HW134874   4.022   4.103   2.364 -2.3576  2.2995  2.8573
 7746SOL    HW234875   4.051   4.161   2.485  0.4046  1.3428 -0.7287
 7747SOL     OW34876   3.156   2.508   1.726  0.3335 -0.3115  0.7727
 7747SOL    HW134877   3.172   2.449   1.800  1.3922  0.7354  1.3914
 7747SOL    HW234878   3.225   2.574   1.729  0.8375 -0.8315  0.4904
 7748SOL     OW34879   0.429   3.645  17.111  0.1746 -0.6550  0.1482
 7748SOL    HW134880   0.422   3.694  17.029 -0.3631 -0.3896  0.3541
 7748SOL    HW234881   0.515   3.682  17.130  0.0582 -0.5939  0.5574
 7749SOL     OW34882   2.343   3.731  17.005  0.0186  0.3318  0.0467
 7749SOL    HW134883   2.268   3.674  17.014  1.3317 -1.4564 -0.3932
 7749SOL    HW234884   2.371   3.740  17.096 -1.6250  1.1849  0.4607
 7750SOL     OW34885   1.317   4.305   5.690 -0.2161 -0.2729  0.2982
 7750SOL    HW134886   1.314   4.338   5.780 -1.3679  0.1922  0.0807
 7750SOL    HW234887   1.234   4.336   5.655  0.5055  0.3859 -0.8237
 7751SOL     OW34888   4.547   1.120   1.364 -0.4806  0.0206  0.4623
 7751SOL    HW134889   4.606   1.132   1.439 -1.1023 -1.0917  1.1284
 7751SOL    HW234890   4.609   1.111   1.292  2.1856 -0.4053  2.7813
 7752SOL     OW34891   0.316   3.433   8.594 -0.2826  0.7777  0.6545
 7752SOL    HW134892   0.261   3.508   8.618  0.4075  1.5964 -0.3180
 7752SOL    HW234893   0.291   3.372   8.664 -0.9156 -0.2716 -0.4906
 7753SOL     OW34894   0.410   3.758  11.362 -0.0509  0.1371 -0.2101
 7753SOL    HW134895   0.396   3.806  11.444 -2.0715  1.6057 -1.4258
 7753SOL    HW234896   0.362   3.675  11.366 -1.3095  1.0436  3.6288
 7754SOL     OW34897   0.494   4.504   7.290 -0.1320  0.6696  0.2036
 7754SOL    HW134898   0.491   4.575   7.353 -3.0162 -0.1602  1.0167
 7754SOL    HW234899   0.483   4.550   7.207 -2.8773  1.8761  1.2344
 7755SOL     OW34900   2.969   2.338   3.032  0.9606 -0.0549  0.0909
 7755SOL    HW134901   3.048   2.301   2.992  0.0471 -0.1498 -1.6340
 7755SOL    HW234902   3.008   2.359   3.117 -1.2210  2.0015  0.5814
 7756SOL     OW34903   2.408   0.139   7.694  0.3434 -0.4797 -0.0768
 7756SOL    HW134904   2.437   0.228   7.712  0.0623 -0.9413  2.6000
 7756SOL    HW234905   2.337   0.159   7.633  1.4406  0.5647 -1.0143
 7757SOL     OW34906   1.291   3.455  11.811  0.0750 -0.0201  0.3127
 7757SOL    HW134907   1.358   3.522  11.829 -1.0197  1.4985 -1.2982
 7757SOL    HW234908   1.294   3.454  11.715 -0.4142 -0.6676  0.3027
 7758SOL     OW34909   4.575   3.809   8.027 -0.1369  0.1918 -0.4905
 7758SOL    HW134910   4.657   3.801   8.076  0.5297  1.6630 -1.3568
 7758SOL    HW234911   4.551   3.720   8.052 -0.1133 -0.1521 -1.6784
 7759SOL     OW34912   1.807   1.557  12.352 -0.4170  0.2556  0.4259
 7759SOL    HW134913   1.749   1.511  12.413 -2.4871  0.9543 -0.9782
 7759SOL    HW234914   1.752   1.547  12.274 -0.7132  1.8128  0.4281
 7760SOL     OW34915   3.469   3.091   0.388 -0.2250 -0.6145  0.2067
 7760SOL    HW134916   3.424   3.027   0.332 -1.0658  1.1284 -1.1005
 7760SOL    HW234917   3.422   3.077   0.471 -1.2215  0.6209 -0.1489
 7761SOL     OW34918   2.462   0.321   1.852  0.1847 -0.1185  0.4794
 7761SOL    HW134919   2.504   0.380   1.915  2.6274 -1.6261  0.2722
 7761SOL    HW234920   2.471   0.375   1.773  0.1528 -1.4823 -0.4441
 7762SOL     OW34921   1.245   0.973   8.953  0.0095 -0.2823  0.4650
 7762SOL    HW134922   1.214   0.897   9.001  0.8139 -0.6416  0.4239
 7762SOL    HW234923   1.291   0.916   8.891 -0.6947 -0.5359  0.1876
 7763SOL     OW34924   0.782   1.959   9.148 -0.2530 -0.4480  0.3892
 7763SOL    HW134925   0.713   2.021   9.123  1.2307  0.8359 -0.5455
 7763SOL    HW234926   0.739   1.911   9.219 -0.8690 -0.0220  0.3056
 7764SOL     OW34927   1.686   4.367  13.169  0.7978  0.5325  0.0579
 7764SOL    HW134928   1.602   4.346  13.129  0.6343 -0.3958  0.9043
 7764SOL    HW234929   1.658   4.413  13.248 -3.0690 -0.1934 -0.9103
 7765SOL     OW34930   2.081   2.215   9.604 -0.1272  0.0687  0.0016
 7765SOL    HW134931   2.159   2.179   9.561  0.6791 -0.3710  1.8205
 7765SOL    HW234932   2.024   2.218   9.528 -1.0941  0.1776  0.7371
 7766SOL     OW34933   1.713   0.383   7.061  0.3729  0.5554 -0.0736
 7766SOL    HW134934   1.628   0.375   7.104  0.6315  0.6275  0.4465
 7766SOL    HW234935   1.686   0.366   6.971 -0.7242  0.0371  0.3497
 7767SOL     OW34936   3.428   3.898   3.059 -0.2340 -0.9497 -0.1390
 7767SOL    HW134937   3.421   3.988   3.029 -1.9282 -1.2837 -0.7120
 7767SOL    HW234938   3.410   3.851   2.978 -0.9858  1.6539 -1.4681
 7768SOL     OW34939   4.704   2.942   9.043 -0.1196 -0.7552  0.4072
 7768SOL    HW134940   4.632   2.883   9.065  0.1315 -1.1095  0.2813
 7768SOL    HW234941   0.009   2.933   9.129 -1.2090  0.1741  1.0296
 7769SOL     OW34942   0.451   4.614  11.830 -0.7725  0.7036 -0.0410
 7769SOL    HW134943   0.415   4.686  11.777  0.7878  0.9827 -0.7095
 7769SOL    HW234944   0.386   4.549  11.805 -0.0785 -0.0617  0.1763
 7770SOL     OW34945   2.269   3.539  10.961  0.2189 -0.0379  0.2912
 7770SOL    HW134946   2.276   3.495  11.046  0.4446 -1.1186 -0.2808
 7770SOL    HW234947   2.332   3.480  10.918  2.3748 -0.1633  3.6441
 7771SOL     OW34948   0.888   2.734  11.391  0.0128  0.2102 -0.6020
 7771SOL    HW134949   0.823   2.664  11.388  0.5790 -0.3142 -0.6662
 7771SOL    HW234950   0.940   2.718  11.312 -0.9232 -1.3271 -0.8941
 7772SOL     OW34951   2.585   0.463  16.236 -0.2871  0.4321 -0.6877
 7772SOL    HW134952   2.598   0.551  16.201  1.7922 -0.0581 -1.1071
 7772SOL    HW234953   2.653   0.446  16.301 -2.2074  0.1038  1.2602
 7773SOL     OW34954   1.751   4.457  16.112  0.8413 -0.3049 -0.4374
 7773SOL    HW134955   1.662   4.440  16.144  0.6708  0.8493 -0.2864
 7773SOL    HW234956   1.809   4.464  16.187 -2.3691  0.3142  1.9684
 7774SOL     OW34957   4.048   2.211   2.102 -0.0671 -0.5768  0.3954
 7774SOL    HW134958   4.055   2.295   2.056  0.5952 -0.3504  0.9238
 7774SOL    HW234959   4.092   2.234   2.183  0.4218  1.5046 -0.4700
 7775SOL     OW34960   0.647   2.455   8.098  0.3648 -0.3288  0.4801
 7775SOL    HW134961   0.688   2.447   8.011 -2.1389  1.6013 -0.8667
 7775SOL    HW234962   0.693   2.537   8.117  1.4587 -0.6146 -0.9020
 7776SOL     OW34963   3.130   2.874   4.609  0.0262  0.5829  0.8680
 7776SOL    HW134964   3.198   2.899   4.671  0.6272  1.0543  0.0244
 7776SOL    HW234965   3.184   2.868   4.530  2.1956  0.3158  2.3513
 7777SOL     OW34966   4.308   1.417  14.015 -0.5857  0.5170  0.4941
 7777SOL    HW134967   4.239   1.481  13.999 -0.9397 -1.0528 -4.2282
 7777SOL    HW234968   4.337   1.395  13.927 -0.6811 -1.8986  1.0518
 7778SOL     OW34969   2.548   4.414   1.019 -0.2058  0.0619  0.2917
 7778SOL    HW134970   2.627   4.378   1.059 -0.4134  0.7101  1.2911
 7778SOL    HW234971   2.547   4.504   1.053  0.5696  1.1542 -2.6073
 7779SOL     OW34972   0.451   3.245   6.815 -0.1109 -0.1277 -0.0353
 7779SOL    HW134973   0.425   3.335   6.832  1.0728  0.2846 -0.4173
 7779SOL    HW234974   0.374   3.196   6.843  2.8959 -4.4953  0.6213
 7780SOL     OW34975   3.988   2.152   7.853  0.0229  0.5060  0.4212
 7780SOL    HW134976   3.922   2.175   7.788  2.0038 -2.1088 -2.5169
 7780SOL    HW234977   4.060   2.208   7.824 -0.0833 -0.6412 -2.0533
 7781SOL     OW34978   3.797   1.830  13.052  0.5489  0.4611 -0.0430
 7781SOL    HW134979   3.853   1.905  13.071 -2.0021  3.1840 -3.1531
 7781SOL    HW234980   3.854   1.786  12.989 -0.3552  0.6656 -1.0022
 7782SOL     OW34981   3.872   1.262   7.045 -0.4079 -0.0562 -0.3472
 7782SOL    HW134982   3.933   1.287   6.976  0.0074 -0.4263 -0.1152
 7782SOL    HW234983   3.918   1.184   7.076 -1.0636 -1.0163 -1.7785
 7783SOL     OW34984   3.020   2.232   5.037  0.1519  0.9714 -0.4734
 7783SOL    HW134985   3.021   2.237   4.942 -0.0689 -2.0737 -0.6161
 7783SOL    HW234986   3.110   2.211   5.061 -1.6655 -0.3168  5.3017
 7784SOL     OW34987   2.527   3.323   6.839 -0.0190  0.4657 -0.1047
 7784SOL    HW134988   2.608   3.272   6.838 -1.6699 -2.2131  1.3613
 7784SOL    HW234989   2.486   3.291   6.759  3.4305  1.7502 -2.3945
 7785SOL     OW34990   0.395   3.906   0.935  0.3393  0.1046  0.1423
 7785SOL    HW134991   0.453   3.970   0.895 -0.0438  0.7711  0.6536
 7785SOL    HW234992   0.316   3.924   0.885  0.1901  2.6425  1.2819
 7786SOL     OW34993   4.426   4.613   5.368 -0.2803 -0.1423  0.0543
 7786SOL    HW134994   4.332   4.621   5.352 -0.6680 -0.3090  2.2044
 7786SOL    HW234995   4.417   4.611   5.463 -1.0401  0.4817 -0.0011
 7787SOL     OW34996   4.646   3.792  11.854  0.6005  0.0639  0.3011
 7787SOL    HW134997   4.552   3.811  11.854  0.8181  1.1370 -0.2975
 7787SOL    HW234998   4.678   3.882  11.852 -0.0216  0.2765 -0.2712
 7788SOL     OW34999   2.070   1.306   6.504 -0.1293 -0.1493 -0.2139
 7788SOL    HW135000   2.036   1.371   6.566  0.1378  0.4959 -0.7520
 7788SOL    HW235001   1.997   1.314   6.442 -0.4767 -1.0773  0.0670
 7789SOL     OW35002   1.696   3.202   2.338  0.7526  0.0124 -0.4012
 7789SOL    HW135003   1.671   3.206   2.246 -0.2251  2.9355  0.0029
 7789SOL    HW235004   1.696   3.106   2.344  2.0191 -0.0570 -1.4599
 7790SOL     OW35005   0.882   3.535  13.105  0.7108 -0.0489  0.1397
 7790SOL    HW135006   0.944   3.605  13.125 -0.7516  1.3021 -0.0437
 7790SOL    HW235007   0.884   3.523  13.010  0.6078  0.6685  0.0476
 7791SOL     OW35008   3.438   2.424   2.994  0.2169  0.1777  0.1766
 7791SOL    HW135009   3.503   2.364   2.958  1.2941  1.3897  0.1039
 7791SOL    HW235010   3.361   2.410   2.940 -0.5576 -1.0806  1.6094
 7792SOL     OW35011   1.596   4.536   6.535 -0.0865 -0.1594 -0.5441
 7792SOL    HW135012   1.593   4.576   6.622 -1.0564 -2.6497  0.5620
 7792SOL    HW235013   1.514   4.488   6.523 -1.9090  1.7463  4.2798
 7793SOL     OW35014   1.907   3.868   6.778  0.1346  0.3095 -0.0578
 7793SOL    HW135015   1.959   3.819   6.714  0.8667  3.0706 -1.5877
 7793SOL    HW235016   1.971   3.937   6.794 -1.9078  3.0057 -3.5447
 7794SOL     OW35017   4.515   0.497   1.410 -0.8528 -0.9708 -0.0012
 7794SOL    HW135018   4.519   0.471   1.502 -1.0565 -1.6993 -0.1930
 7794SOL    HW235019   4.480   0.415   1.375 -0.2773 -1.6923  1.1065
 7795SOL     OW35020   2.215   4.393  10.391  0.7522  0.5554  0.0934
 7795SOL    HW135021   2.277   4.441  10.445  1.3783 -0.4472  0.2778
 7795SOL    HW235022   2.249   4.303  10.388  1.5849  0.8151  2.0807
 7796SOL     OW35023   1.914   2.378   7.994 -0.0096 -0.7214 -0.0350
 7796SOL    HW135024   1.857   2.340   8.060 -1.7923  0.0362 -1.1447
 7796SOL    HW235025   2.002   2.375   8.032 -1.7317 -0.0784  3.9880
 7797SOL     OW35026   1.139   4.472   0.569  0.5680 -0.2038  0.5099
 7797SOL    HW135027   1.221   4.494   0.614  0.8562  2.0807 -1.1856
 7797SOL    HW235028   1.074   4.486   0.638  1.9530  0.2214  1.7433
 7798SOL     OW35029   1.426   1.873   6.218  0.4400 -0.3892  0.2013
 7798SOL    HW135030   1.406   1.860   6.125  1.3804  0.6861 -0.1372
 7798SOL    HW235031   1.414   1.786   6.256 -2.5814  0.2633  0.7691
 7799SOL     OW35032   0.529   1.847   2.275  0.5022  0.0055  0.4172
 7799SOL    HW135033   0.499   1.769   2.321  0.4702  1.4174  2.7941
 7799SOL    HW235034   0.535   1.912   2.345 -1.1819  3.2566 -2.5039
 7800SOL     OW35035   1.254   3.733   5.929  0.0368  0.5907  0.4184
 7800SOL    HW135036   1.304   3.801   5.973  0.1222  0.2206  0.8876
 7800SOL    HW235037   1.286   3.745   5.839  0.5162 -1.1601  0.3668
 7801SOL     OW35038   0.351   2.665   8.949  0.5098  0.3021 -0.8119
 7801SOL    HW135039   0.438   2.680   8.986  0.4654 -0.2084 -0.4986
 7801SOL    HW235040   0.296   2.712   9.012  1.2979 -1.0218  0.8511
 7802SOL     OW35041   3.861   0.717   7.175 -0.2390  0.4723  0.3485
 7802SOL    HW135042   3.795   0.648   7.182 -0.5563  0.7012 -0.4535
 7802SOL    HW235043   3.818   0.778   7.115  1.3697 -0.0789 -1.3452
 7803SOL     OW35044   4.688   0.236   5.583  0.1097 -0.2156  0.4043
 7803SOL    HW135045   4.601   0.237   5.543  0.1261 -1.1304  0.3489
 7803SOL    HW235046   4.716   0.145   5.592 -1.5830 -0.8568 -0.8783
 7804SOL     OW35047   0.441   3.179   8.032 -0.1492  0.2486 -0.4420
 7804SOL    HW135048   0.438   3.213   7.943 -0.8753 -1.2747 -1.0033
 7804SOL    HW235049   0.530   3.204   8.057 -0.7491  1.6644  0.3059
 7805SOL     OW35050   1.509   1.231   9.580 -0.1400  0.3910 -1.0294
 7805SOL    HW135051   1.565   1.192   9.512 -0.0523 -0.5768 -0.4075
 7805SOL    HW235052   1.432   1.176   9.562 -0.3654  1.1284 -2.3300
 7806SOL     OW35053   1.742   3.650  13.097 -0.2678 -0.2811  0.5261
 7806SOL    HW135054   1.709   3.611  13.016  1.6052 -4.8739  1.9579
 7806SOL    HW235055   1.666   3.700  13.127 -1.4067 -1.1854 -0.8535
 7807SOL     OW35056   4.012   2.249   2.742  0.0075 -0.4972  0.3782
 7807SOL    HW135057   3.933   2.220   2.788  0.1295 -0.4272  0.6315
 7807SOL    HW235058   4.052   2.316   2.797 -1.6181  2.6639 -2.2824
 7808SOL     OW35059   2.627   4.570  11.556 -0.0021  0.6523 -0.0014
 7808SOL    HW135060   2.557   4.545  11.616 -0.0949  0.9963  0.0330
 7808SOL    HW235061   2.679   4.632  11.607  1.9507 -0.4673 -0.5989
 7809SOL     OW35062   2.527   1.546  15.281  0.3069 -0.6084 -0.0929
 7809SOL    HW135063   2.527   1.594  15.198 -0.9772 -1.9154 -0.8286
 7809SOL    HW235064   2.504   1.618  15.340 -0.6774  1.3540 -2.8718
 7810SOL     OW35065   3.301   0.477   4.795  0.0585 -0.4477 -0.2245
 7810SOL    HW135066   3.209   0.488   4.817  0.4433 -0.2700  1.2952
 7810SOL    HW235067   3.333   0.566   4.806 -0.8069 -0.1166 -0.4058
 7811SOL     OW35068   3.423   1.011  16.430  0.0213 -0.8751 -0.6359
 7811SOL    HW135069   3.340   1.058  16.417  1.1150  0.1084 -4.1468
 7811SOL    HW235070   3.390   0.929  16.466  0.5656 -1.5044 -1.5911
 7812SOL     OW35071   0.474   1.155   3.138 -0.1106  0.2526  0.2351
 7812SOL    HW135072   0.481   1.066   3.174 -0.9651  0.4248  0.8144
 7812SOL    HW235073   0.544   1.158   3.073 -0.8706 -0.4026 -0.6069
 7813SOL     OW35074   4.056   0.261   5.136  0.0068 -0.1443  0.3786
 7813SOL    HW135075   4.083   0.240   5.047  3.0130  0.1484  1.2077
 7813SOL    HW235076   4.105   0.338   5.167 -3.1451  1.5322  1.1660
 7814SOL     OW35077   2.167   3.069  16.621  0.0511 -0.1992 -0.1003
 7814SOL    HW135078   2.217   2.989  16.614 -0.0862 -0.2444 -0.5739
 7814SOL    HW235079   2.162   3.100  16.530 -1.4637 -0.5851 -0.1461
 7815SOL     OW35080   1.261   0.307   2.725  0.2559 -0.3477 -0.6313
 7815SOL    HW135081   1.225   0.395   2.734 -0.2665 -0.4884 -1.3463
 7815SOL    HW235082   1.321   0.318   2.651  3.3947 -0.4962  1.8837
 7816SOL     OW35083   3.565   4.241   9.408  0.3872  0.0982  0.3238
 7816SOL    HW135084   3.509   4.163   9.413  2.4456 -1.3811  0.2695
 7816SOL    HW235085   3.643   4.194   9.440  1.3635  1.7480  0.3369
 7817SOL     OW35086   1.616   2.767   8.683  0.4781 -0.2971  0.4974
 7817SOL    HW135087   1.548   2.782   8.617  0.8519  0.1857  0.2174
 7817SOL    HW235088   1.564   2.769   8.763 -0.9437  2.5118 -0.4856
 7818SOL     OW35089   4.164   2.816   1.977  0.3085  0.1450 -0.5366
 7818SOL    HW135090   4.226   2.752   1.941  1.9679  0.7213  1.3055
 7818SOL    HW235091   4.226   2.888   1.988 -0.9828  0.7614  2.6895
 7819SOL     OW35092   1.257   1.163   7.171  0.5285  0.3030  0.1223
 7819SOL    HW135093   1.295   1.109   7.101 -0.5787  0.2302 -0.4160
 7819SOL    HW235094   1.165   1.169   7.146  0.4231  0.0635  0.4655
 7820SOL     OW35095   4.039   4.415  11.996  0.3862 -0.1121 -0.0773
 7820SOL    HW135096   4.076   4.470  11.926 -0.7396 -0.1126 -0.6720
 7820SOL    HW235097   4.031   4.335  11.945 -2.7591 -0.6736  1.3240
 7821SOL     OW35098   3.053   1.519   8.682  0.4491  0.2709 -1.0042
 7821SOL    HW135099   3.039   1.508   8.588 -0.8822  1.6498 -0.9712
 7821SOL    HW235100   3.110   1.595   8.694  4.3156 -2.4977 -2.0669
 7822SOL     OW35101   2.872   1.829   3.754 -0.8696  0.9027 -0.2456
 7822SOL    HW135102   2.917   1.760   3.802  0.7524  0.6157 -2.2061
 7822SOL    HW235103   2.823   1.877   3.822 -2.0493 -0.3919 -0.1910
 7823SOL     OW35104   0.148   1.804   4.623  0.1547 -0.0586 -0.2277
 7823SOL    HW135105   0.060   1.842   4.615 -0.8210 -2.1487  0.4404
 7823SOL    HW235106   0.191   1.879   4.663  1.0673 -0.8103  0.2054
 7824SOL     OW35107   2.767   3.962   3.564 -0.0649 -0.3385  0.9510
 7824SOL    HW135108   2.860   3.971   3.581 -0.1972  2.1797  0.3951
 7824SOL    HW235109   2.726   3.939   3.647 -1.0971 -1.9711 -0.0090
 7825SOL     OW35110   1.440   3.838   8.944  0.5223 -0.4488  0.0557
 7825SOL    HW135111   1.479   3.871   9.025 -3.6098 -3.0054  3.0402
 7825SOL    HW235112   1.364   3.895   8.932 -0.1696 -1.1908  0.9356
 7826SOL     OW35113   3.151   4.669   1.580 -0.0199  0.3846  0.7357
 7826SOL    HW135114   3.153   4.603   1.511 -0.6456  0.7006  0.4240
 7826SOL    HW235115   3.215   4.733   1.548 -0.9234 -0.5799 -3.0041
 7827SOL     OW35116   2.086   1.467   9.160  0.1364  0.4080  0.3457
 7827SOL    HW135117   2.049   1.513   9.085  0.8501  1.2787  0.5330
 7827SOL    HW235118   2.135   1.402   9.110 -0.2126  1.9254 -1.9765
 7828SOL     OW35119   4.122   1.013   1.561  0.0920  0.1653  0.0808
 7828SOL    HW135120   4.188   1.008   1.492  0.3676  1.7938  0.2149
 7828SOL    HW235121   4.148   1.094   1.605  0.2103 -0.4315  1.1055
 7829SOL     OW35122   1.177   1.290   8.707 -0.4979 -0.2096 -0.4688
 7829SOL    HW135123   1.270   1.302   8.726 -1.2173  2.2745  1.5524
 7829SOL    HW235124   1.177   1.238   8.627  0.8230 -0.4710 -0.3022
 7830SOL     OW35125   3.452   3.736  14.274  0.0387  0.1935  0.1857
 7830SOL    HW135126   3.509   3.812  14.275 -0.4779  0.6098 -1.5848
 7830SOL    HW235127   3.368   3.768  14.307  0.7236 -0.7243  2.7735
 7831SOL     OW35128   1.002   3.048   8.377  0.3927 -0.3085 -1.3445
 7831SOL    HW135129   0.910   3.035   8.398  0.1274  0.4019 -2.0793
 7831SOL    HW235130   0.980   3.071   8.287  0.0427 -0.3800 -1.2758
 7832SOL     OW35131   2.882   3.159   5.934  0.0859  0.3563 -0.1271
 7832SOL    HW135132   2.934   3.209   5.872  1.0543 -0.4999 -0.0102
 7832SOL    HW235133   2.867   3.079   5.884 -1.9921  0.4616  0.3465
 7833SOL     OW35134   2.089   1.336   4.907  0.6653  0.1009  0.4224
 7833SOL    HW135135   2.181   1.326   4.931  1.1392  1.7430 -0.7329
 7833SOL    HW235136   2.087   1.297   4.820 -0.7838  1.3059 -0.0953
 7834SOL     OW35137   0.449   2.898   9.419  0.4120  0.1856 -0.2440
 7834SOL    HW135138   0.520   2.955   9.389  1.0877  0.0701  1.1397
 7834SOL    HW235139   0.495   2.833   9.472  1.1314 -0.7244 -1.9941
 7835SOL     OW35140   1.033   3.402   6.767 -0.1156  0.3591 -0.0673
 7835SOL    HW135141   0.994   3.489   6.757  0.9396  0.9508  0.9711
 7835SOL    HW235142   1.052   3.380   6.676  1.4274 -1.1281  0.6004
 7836SOL     OW35143   3.778   2.172   6.989  0.1750  0.4392  0.6604
 7836SOL    HW135144   3.767   2.247   6.931 -2.4543 -2.2081 -2.2642
 7836SOL    HW235145   3.715   2.115   6.945  1.5342 -1.1266  0.7390
 7837SOL     OW35146   4.547   3.963   1.965 -0.1624 -0.1246 -0.5303
 7837SOL    HW135147   4.603   3.914   1.906  1.5224  0.0695  0.9250
 7837SOL    HW235148   4.617   3.999   2.019  0.4245 -1.0505 -0.6710
 7838SOL     OW35149   3.061   0.391   7.556  0.3672 -0.2786  0.2381
 7838SOL    HW135150   3.060   0.320   7.491  0.2304 -2.1105  2.2351
 7838SOL    HW235151   3.013   0.353   7.629 -1.2137  0.3452 -0.4941
 7839SOL     OW35152   4.372   0.459   5.309  0.1036 -0.3111 -0.2414
 7839SOL    HW135153   4.293   0.499   5.272 -0.6066 -1.4619 -0.0135
 7839SOL    HW235154   4.408   0.414   5.233  0.2314  0.2538 -0.5116
 7840SOL     OW35155   0.021   0.831   4.415  0.0378 -0.7954  0.1771
 7840SOL    HW135156   4.693   0.880   4.467  1.4605  1.3685 -0.0757
 7840SOL    HW235157   0.099   0.852   4.466 -0.3494  0.7244  0.1706
 7841SOL     OW35158   2.524   3.762   7.050 -0.1248 -0.1866  0.1512
 7841SOL    HW135159   2.548   3.735   6.962  1.4456 -1.7160  1.0534
 7841SOL    HW235160   2.475   3.844   7.039 -2.7553 -1.7420  0.3744
 7842SOL     OW35161   0.930   4.253  14.085  0.0149  0.3063  0.1191
 7842SOL    HW135162   0.964   4.244  13.996  0.6899  0.5725  0.3501
 7842SOL    HW235163   1.007   4.236  14.140  0.7242 -0.1909 -1.0323
 7843SOL     OW35164   2.090   0.992  17.332 -0.6011  0.5105 -0.1672
 7843SOL    HW135165   2.079   0.910  17.284 -0.3787  0.0419  0.5764
 7843SOL    HW235166   2.001   1.025  17.345  0.0808  2.2179  0.2034
 7844SOL     OW35167   3.424   0.459  17.329 -0.0273 -0.1462 -0.3725
 7844SOL    HW135168   3.480   0.536  17.332 -3.5565  2.3825 -0.2550
 7844SOL    HW235169   3.432   0.437  17.237  0.5093 -4.8345  0.7643
 7845SOL     OW35170   1.414   2.634  11.293  0.1234 -0.8881 -0.5123
 7845SOL    HW135171   1.402   2.630  11.198 -1.8817 -3.2958 -0.1754
 7845SOL    HW235172   1.509   2.648  11.297 -0.3976  2.0102  1.5832
 7846SOL     OW35173   0.316   3.082   7.015  0.1916  0.2291  0.5467
 7846SOL    HW135174   0.231   3.048   6.987 -0.1591  0.5780  1.1726
 7846SOL    HW235175   0.365   3.002   7.033  0.6343  0.4154  0.1508
 7847SOL     OW35176   2.708   2.425   3.679 -0.3949 -0.6385  0.0438
 7847SOL    HW135177   2.725   2.346   3.730  1.7204  0.8632  1.6870
 7847SOL    HW235178   2.619   2.451   3.705 -0.5045 -1.7268  0.7522
 7848SOL     OW35179   2.874   0.163   9.864  0.1246  0.1490  0.0937
 7848SOL    HW135180   2.828   0.161   9.948 -0.4464 -1.7372 -0.2736
 7848SOL    HW235181   2.953   0.119   9.894 -0.2300  0.5502  1.6141
 7849SOL     OW35182   0.204   2.806   8.751 -0.5162  0.0219 -0.3187
 7849SOL    HW135183   0.195   2.885   8.803 -1.9615  0.9662 -1.9750
 7849SOL    HW235184   0.260   2.756   8.810  0.8961  0.5043 -1.2465
 7850SOL     OW35185   4.726   0.534   2.560  0.5949 -0.4265 -0.1391
 7850SOL    HW135186   0.019   0.477   2.489  0.5141 -2.2648  1.3204
 7850SOL    HW235187   4.713   0.615   2.511 -0.1261  0.3214  1.2963
 7851SOL     OW35188   1.707   1.596   5.970  0.4267 -0.1092  0.3513
 7851SOL    HW135189   1.789   1.632   5.935  0.6830  0.0357  1.0837
 7851SOL    HW235190   1.642   1.656   5.934 -1.1197 -2.4983 -0.8277
 7852SOL     OW35191   2.137   1.236   7.156 -0.0291  0.5637 -0.4585
 7852SOL    HW135192   2.193   1.300   7.201  1.3808 -0.4624 -0.7488
 7852SOL    HW235193   2.176   1.152   7.178 -0.3222  0.3395 -0.8045
 7853SOL     OW35194   4.436   3.728   3.363 -0.6265 -0.0253  0.2611
 7853SOL    HW135195   4.407   3.820   3.358  1.4521  0.5799 -0.7632
 7853SOL    HW235196   4.487   3.739   3.443 -0.6809 -1.2048  0.4520
 7854SOL     OW35197   3.497   0.884   8.988  0.0205  0.2272  0.9375
 7854SOL    HW135198   3.421   0.939   9.010 -1.1009 -0.8651 -0.2315
 7854SOL    HW235199   3.461   0.804   8.951 -0.6393  0.2613  1.4997
 7855SOL     OW35200   1.708   2.234  10.592  0.2901  0.0577 -0.0142
 7855SOL    HW135201   1.708   2.151  10.544 -1.4695  0.2217 -0.3045
 7855SOL    HW235202   1.768   2.218  10.665 -0.3289 -1.8332  0.0766
 7856SOL     OW35203   1.446   2.987   7.078 -0.1108 -0.3532 -0.1550
 7856SOL    HW135204   1.492   3.017   7.157 -1.2876  2.0884 -0.3945
 7856SOL    HW235205   1.516   2.993   7.013 -1.5852  0.0442 -1.7006
 7857SOL     OW35206   2.533   3.516  12.623 -1.1497 -0.1831 -0.2712
 7857SOL    HW135207   2.548   3.579  12.694  0.3866  2.9694 -3.3837
 7857SOL    HW235208   2.619   3.535  12.585 -0.8504 -1.1398 -0.0735
 7858SOL     OW35209   0.101   1.214  15.222 -0.4312  0.2631 -0.5276
 7858SOL    HW135210   0.144   1.145  15.273  3.0074  0.6254 -2.9633
 7858SOL    HW235211   0.007   1.198  15.228 -0.4564  0.0274 -1.6531
 7859SOL     OW35212   2.977   1.532   9.667 -0.3239  0.0331  0.2493
 7859SOL    HW135213   2.909   1.561   9.727  0.7564  1.3535  0.8353
 7859SOL    HW235214   2.973   1.597   9.597  0.1024 -1.2493 -0.9729
 7860SOL     OW35215   0.192   0.238   1.183  0.2565  0.3543 -0.1144
 7860SOL    HW135216   0.242   0.309   1.222 -0.0754  1.3267 -1.4502
 7860SOL    HW235217   0.102   0.269   1.172  1.0502  3.5647  2.4429
 7861SOL     OW35218   4.550   2.992   1.193 -0.0116 -0.2860 -0.3487
 7861SOL    HW135219   4.505   3.021   1.113 -1.6566  2.3203  1.5073
 7861SOL    HW235220   4.543   3.067   1.252  3.8694 -0.6259  0.5054
 7862SOL     OW35221   4.338   2.971   9.230 -0.0196  0.3160 -0.0949
 7862SOL    HW135222   4.265   2.919   9.264 -0.0105 -0.9389 -1.9866
 7862SOL    HW235223   4.397   2.903   9.198 -1.6385 -0.8329 -0.6072
 7863SOL     OW35224   2.495   4.346   8.846  0.5120 -0.5399 -0.2416
 7863SOL    HW135225   2.538   4.313   8.925  4.4618 -1.6070 -2.8622
 7863SOL    HW235226   2.423   4.286   8.827 -0.0241  0.3193 -0.9418
 7864SOL     OW35227   0.289   3.699   7.138 -0.3942  0.2455  0.0228
 7864SOL    HW135228   0.237   3.633   7.184 -2.0909  0.5563 -1.4414
 7864SOL    HW235229   0.380   3.679   7.160  0.4245  2.0223 -1.8027
 7865SOL     OW35230   2.618   1.773   4.215  0.0542 -0.1451 -0.3843
 7865SOL    HW135231   2.632   1.749   4.306 -2.1148  0.4241  0.1016
 7865SOL    HW235232   2.557   1.707   4.184  0.6392  0.7990 -3.6454
 7866SOL     OW35233   4.198   4.474   5.103  0.5621 -0.3658  0.6089
 7866SOL    HW135234   4.188   4.518   5.187 -1.0628 -0.8411  0.6667
 7866SOL    HW235235   4.229   4.543   5.045  3.0589 -0.8728  1.3388
 7867SOL     OW35236   3.305   2.481  15.765 -0.1298  0.0079  0.3922
 7867SOL    HW135237   3.383   2.432  15.739 -0.6395 -0.4230 -0.3160
 7867SOL    HW235238   3.307   2.457  15.858  1.6734  0.6652  0.5186
 7868SOL     OW35239   2.753   4.236   3.959  0.0755 -0.0719 -0.4063
 7868SOL    HW135240   2.782   4.326   3.974  0.0976  0.1378 -1.7350
 7868SOL    HW235241   2.660   4.246   3.941 -0.3769  0.1374  2.0139
 7869SOL     OW35242   0.257   0.112   2.943 -0.2933  0.4286 -0.2109
 7869SOL    HW135243   0.165   0.101   2.920 -0.7012  1.1285  1.0611
 7869SOL    HW235244   0.289   0.059   2.870  0.7845 -1.3153  1.5439
 7870SOL     OW35245   2.019   0.499  11.504 -0.8170  0.6788  0.2037
 7870SOL    HW135246   1.973   0.419  11.529  0.1343  0.1652  0.3282
 7870SOL    HW235247   2.058   0.476  11.420 -0.9859 -2.0159  0.8758
 7871SOL     OW35248   2.547   3.411   6.056  0.4201  0.1503  0.1657
 7871SOL    HW135249   2.451   3.409   6.054  0.4322 -1.0681  0.7888
 7871SOL    HW235250   2.566   3.333   6.002  1.5766 -0.0753  0.9071
 7872SOL     OW35251   2.610   3.971  11.283 -1.2305  0.3816  0.2003
 7872SOL    HW135252   2.559   4.020  11.219 -2.8166 -3.0407 -1.1769
 7872SOL    HW235253   2.571   3.884  11.293  1.6917 -0.7203  2.1357
 7873SOL     OW35254   0.359   4.350   1.886 -0.6362  0.3253 -0.0237
 7873SOL    HW135255   0.320   4.332   1.971  2.7109  0.5050  1.5338
 7873SOL    HW235256   0.323   4.438   1.874  0.4049  0.7454  0.0030
 7874SOL     OW35257   4.373   3.842   2.118  0.2328 -0.0498 -0.7754
 7874SOL    HW135258   4.433   3.886   2.057 -2.5340  3.1694 -1.2016
 7874SOL    HW235259   4.429   3.806   2.186  0.5676  0.9252 -0.5351
 7875SOL     OW35260   0.383   2.970  15.270 -0.3948  0.3628 -0.0788
 7875SOL    HW135261   0.300   2.945  15.229 -0.7405 -0.6701  1.2634
 7875SOL    HW235262   0.354   3.000  15.356 -1.7775 -0.0777 -0.3883
 7876SOL     OW35263   1.496   2.746  16.246  0.0701  0.2409 -0.3275
 7876SOL    HW135264   1.455   2.659  16.236 -1.0556  0.7662 -0.3298
 7876SOL    HW235265   1.423   2.788  16.292 -0.4550  0.7941 -1.6557
 7877SOL     OW35266   4.151   0.563  15.500 -0.2617  0.1317  0.3574
 7877SOL    HW135267   4.067   0.579  15.543 -0.7444  1.7449 -1.1658
 7877SOL    HW235268   4.124   0.493  15.441  0.1392 -0.0845  0.4368
 7878SOL     OW35269   0.253   1.426  15.119 -0.6192  0.3297  0.3599
 7878SOL    HW135270   0.207   1.349  15.152 -0.6253  0.6151  1.0153
 7878SOL    HW235271   0.185   1.444  15.054 -0.7061  2.9129  1.1313
 7879SOL     OW35272   3.131   3.660  16.557 -0.6488  0.0495 -0.8172
 7879SOL    HW135273   3.213   3.704  16.580 -1.4696  0.7952  0.6454
 7879SOL    HW235274   3.064   3.722  16.585 -3.2300 -3.5900  1.0299
 7880SOL     OW35275   3.111   3.064   6.129  0.0054 -0.2198  0.1263
 7880SOL    HW135276   3.017   3.050   6.138  0.0303  1.1300  2.3040
 7880SOL    HW235277   3.128   2.969   6.128 -2.7823 -0.6977 -0.5954
 7881SOL     OW35278   1.302   0.932   0.382  0.0063 -0.2269 -0.1430
 7881SOL    HW135279   1.394   0.908   0.373 -0.0301 -1.0596  1.5869
 7881SOL    HW235280   1.288   0.911   0.475  0.6563  1.6769  0.3972
 7882SOL     OW35281   1.156   3.475   7.502 -0.3334 -0.0398 -0.7312
 7882SOL    HW135282   1.144   3.509   7.413  0.6624  0.7243 -0.5801
 7882SOL    HW235283   1.076   3.443   7.542  0.6447  0.0566  1.2993
 7883SOL     OW35284   3.955   2.768   5.656  0.0447  0.0901 -0.6086
 7883SOL    HW135285   3.960   2.688   5.708  0.1495 -0.6153 -1.6985
 7883SOL    HW235286   3.861   2.785   5.663  0.1450 -0.0592  0.9514
 7884SOL     OW35287   1.686   3.108   8.390 -0.1825  0.1060 -0.8702
 7884SOL    HW135288   1.665   3.178   8.452 -1.2020  0.0890 -1.1899
 7884SOL    HW235289   1.601   3.064   8.389  1.7971 -3.7338 -0.0938
 7885SOL     OW35290   1.927   4.427   5.208 -0.0487  0.0827 -0.2018
 7885SOL    HW135291   1.983   4.424   5.285 -2.4677 -0.8520  1.5175
 7885SOL    HW235292   1.991   4.400   5.143  0.2963  3.1490 -1.1623
 7886SOL     OW35293   1.381   0.581   7.739 -0.0746 -0.0155 -0.0091
 7886SOL    HW135294   1.295   0.596   7.700 -1.0956  0.4248  2.3727
 7886SOL    HW235295   1.367   0.508   7.800  0.1938 -0.0820 -0.0258
 7887SOL     OW35296   4.629   4.184   4.253  0.0292 -0.1206 -0.1396
 7887SOL    HW135297   4.538   4.169   4.279  0.2210 -1.9590 -0.5452
 7887SOL    HW235298   4.626   4.165   4.159 -0.0938  0.8942 -0.3444
 7888SOL     OW35299   0.403   2.666   3.503 -0.4674  0.3308 -0.3607
 7888SOL    HW135300   0.331   2.610   3.475 -1.3021  1.0083  0.4509
 7888SOL    HW235301   0.378   2.755   3.477 -1.3325  0.0100 -0.6128
 7889SOL     OW35302   2.383   4.491   9.157  0.0004 -0.4753  0.9752
 7889SOL    HW135303   2.359   4.578   9.123  2.0878  0.2165  1.2902
 7889SOL    HW235304   2.471   4.491   9.120  0.0985 -1.3197  1.2015
 7890SOL     OW35305   1.991   3.107   2.160  0.1021 -0.1138  0.1078
 7890SOL    HW135306   1.983   3.012   2.157  1.6639 -0.2108 -1.0566
 7890SOL    HW235307   2.043   3.127   2.082  1.6147  1.4566  1.5299
 7891SOL     OW35308   4.107   0.630  16.155 -0.0579 -0.6866  0.5425
 7891SOL    HW135309   4.114   0.646  16.061  0.9585 -0.3241  0.6752
 7891SOL    HW235310   4.195   0.603  16.182  1.3135  1.6124 -1.5684
 7892SOL     OW35311   4.319   4.364   3.447 -0.5017 -0.0412 -0.1813
 7892SOL    HW135312   4.311   4.459   3.440 -0.8161 -0.0548 -0.0138
 7892SOL    HW235313   4.413   4.347   3.459 -0.9184 -3.0019 -1.0756
 7893SOL     OW35314   1.825   1.318   5.943  0.0218 -0.2051 -0.0226
 7893SOL    HW135315   1.798   1.408   5.960  0.7340 -0.0663  0.3745
 7893SOL    HW235316   1.920   1.317   5.936 -0.1869  0.2730 -2.8812
 7894SOL     OW35317   4.662   0.411  16.064  0.4699 -0.2902 -0.6747
 7894SOL    HW135318   4.642   0.487  16.009 -0.3767 -2.3367 -3.2373
 7894SOL    HW235319   4.657   0.460  16.146  0.7166  0.8727 -1.3507
 7895SOL     OW35320   1.412   1.070   2.943  0.5722  0.5505 -0.1982
 7895SOL    HW135321   1.492   1.113   2.913  2.2273 -0.1648  3.2035
 7895SOL    HW235322   1.460   0.992   2.972 -1.4738 -0.7671 -0.3676
 7896SOL     OW35323   2.252   2.570   3.438 -0.3981  0.2038 -0.0897
 7896SOL    HW135324   2.231   2.554   3.346  1.2241 -1.4253 -0.1840
 7896SOL    HW235325   2.270   2.664   3.432  2.6542 -0.3036  1.2282
 7897SOL     OW35326   1.151   0.816   8.345 -0.1304 -0.2091  0.2443
 7897SOL    HW135327   1.184   0.840   8.431 -1.5701 -1.2388  1.0940
 7897SOL    HW235328   1.220   0.757   8.314  2.6253  2.6782  0.8746
 7898SOL     OW35329   3.284   3.870   2.416 -0.7165 -0.1071  0.7089
 7898SOL    HW135330   3.335   3.890   2.495  2.9122 -0.3251 -1.5817
 7898SOL    HW235331   3.320   3.783   2.400 -1.0370 -0.4649  1.9247
 7899SOL     OW35332   4.142   1.404   6.398  0.1325 -0.3489  0.4823
 7899SOL    HW135333   4.232   1.383   6.421 -0.5152 -1.3427  2.1061
 7899SOL    HW235334   4.111   1.452   6.475  0.7405 -1.3692  1.3629
 7900SOL     OW35335   2.117   2.642   2.345  0.1294 -0.3772  0.1732
 7900SOL    HW135336   2.175   2.596   2.284  0.7319  2.3512 -1.2975
 7900SOL    HW235337   2.180   2.708   2.371 -0.4356  0.9026 -1.6714
 7901SOL     OW35338   2.154   4.731   3.839 -0.3892  0.1970 -0.5223
 7901SOL    HW135339   2.084   0.043   3.794 -0.7054  0.4871  0.2928
 7901SOL    HW235340   2.232   0.019   3.790  0.3490  0.8839  1.0198
 7902SOL     OW35341   3.531   1.950   9.826  1.0876  0.7450 -0.3960
 7902SOL    HW135342   3.567   1.874   9.871 -1.3204 -0.8013 -1.1025
 7902SOL    HW235343   3.530   1.916   9.736  2.1734 -1.7364  0.5449
 7903SOL     OW35344   0.652   0.261   2.066 -0.6617 -0.1889 -0.0825
 7903SOL    HW135345   0.656   0.167   2.050  1.5827 -0.2583  0.8832
 7903SOL    HW235346   0.613   0.266   2.154 -0.0530 -1.4664  0.2500
 7904SOL     OW35347   1.384   1.188  13.373 -0.5084 -0.5368  0.1956
 7904SOL    HW135348   1.290   1.172  13.364 -0.6942 -0.2551  1.6519
 7904SOL    HW235349   1.391   1.189  13.468  1.6026  1.2456  0.0127
 7905SOL     OW35350   1.636   1.179  16.445  0.2872 -0.0809 -0.1142
 7905SOL    HW135351   1.724   1.142  16.446 -0.3444 -1.6066 -1.9049
 7905SOL    HW235352   1.585   1.099  16.457 -1.3075  0.8330 -0.8380
 7906SOL     OW35353   1.615   1.554   7.027  0.0677  0.4649 -0.1577
 7906SOL    HW135354   1.641   1.587   7.113  0.6389 -0.8920  0.1983
 7906SOL    HW235355   1.539   1.499   7.044 -0.4791  0.4921 -2.5063
 7907SOL     OW35356   0.994   2.939   9.148 -0.0353 -0.1574  0.1445
 7907SOL    HW135357   0.972   2.981   9.232 -0.8966 -1.4782  0.5779
 7907SOL    HW235358   0.918   2.890   9.118  0.5724 -0.6137 -0.6362
 7908SOL     OW35359   3.874   3.066  12.756 -0.4679 -0.0087  0.3450
 7908SOL    HW135360   3.874   2.972  12.775  0.5272 -0.1742 -0.4717
 7908SOL    HW235361   3.865   3.111  12.840 -0.9463  0.0270  0.2732
 7909SOL     OW35362   0.391   1.727  11.925 -0.4927 -0.2616 -0.4866
 7909SOL    HW135363   0.448   1.804  11.930  0.4325 -0.8931 -1.1881
 7909SOL    HW235364   0.441   1.669  11.984 -1.6092 -0.4223  0.3106
 7910SOL     OW35365   3.132   3.721   6.440 -0.1366  0.0001  0.2552
 7910SOL    HW135366   3.037   3.714   6.450 -0.4271  3.1683 -0.3234
 7910SOL    HW235367   3.164   3.719   6.530 -0.3267 -0.8404  0.3071
 7911SOL     OW35368   2.159   4.678   8.646 -0.2379 -0.0399 -0.6599
 7911SOL    HW135369   2.213   4.633   8.712 -0.2644  2.7869  1.3113
 7911SOL    HW235370   2.098   4.610   8.619 -1.3187  0.2452  1.1195
 7912SOL     OW35371   2.051   4.105  15.538 -0.1313 -0.2186  0.0307
 7912SOL    HW135372   2.020   4.048  15.608  1.6310  0.3074  1.2158
 7912SOL    HW235373   2.144   4.083  15.534 -0.0367  0.0512  0.6964
 7913SOL     OW35374   0.924   0.406   2.175 -0.3981 -0.6868 -0.2938
 7913SOL    HW135375   0.993   0.384   2.238 -1.3199 -0.0384  0.9374
 7913SOL    HW235376   0.849   0.400   2.234 -0.8700  1.7374 -0.6405
 7914SOL     OW35377   4.552   1.344  11.882  0.3583 -0.0223  0.2175
 7914SOL    HW135378   4.640   1.363  11.849  1.0324 -1.5857  1.1524
 7914SOL    HW235379   4.494   1.410  11.842  1.0626 -0.2357 -1.1386
 7915SOL     OW35380   0.760   1.948   2.145 -0.0093  0.5058 -0.2270
 7915SOL    HW135381   0.752   2.013   2.215 -1.0732 -0.0280  0.1406
 7915SOL    HW235382   0.677   1.902   2.153 -1.2919  2.8159 -0.1728
 7916SOL     OW35383   1.380   3.837   4.664 -0.3142  0.9908  0.0991
 7916SOL    HW135384   1.340   3.911   4.618  0.7688  1.6539  0.2140
 7916SOL    HW235385   1.453   3.878   4.711 -0.4754  1.8314 -0.3768
 7917SOL     OW35386   2.849   4.729   5.454  0.0327 -0.6003  0.2037
 7917SOL    HW135387   2.794   4.701   5.528  0.8737  1.6904  1.7065
 7917SOL    HW235388   2.803   4.687   5.382 -1.6011 -0.6475  1.2602
 7918SOL     OW35389   1.097   4.475   2.525  0.0241 -0.0905 -0.2631
 7918SOL    HW135390   1.109   4.466   2.620  4.0137 -0.5892 -0.7996
 7918SOL    HW235391   1.186   4.478   2.488  0.2372 -1.8699  0.1001
 7919SOL     OW35392   1.212   4.582  11.795  0.3363  0.1715  0.1450
 7919SOL    HW135393   1.171   4.668  11.792 -1.0892 -0.5020  0.5713
 7919SOL    HW235394   1.303   4.605  11.816  1.2033 -2.3613 -0.8981
 7920SOL     OW35395   4.429   1.740   5.000  0.3651 -0.6344  0.7204
 7920SOL    HW135396   4.381   1.809   4.954  1.8365 -1.9814 -2.8291
 7920SOL    HW235397   4.424   1.768   5.091  0.5258 -1.6848  1.0479
 7921SOL     OW35398   4.480   4.369   6.094  0.2280  0.0557 -0.1823
 7921SOL    HW135399   4.407   4.415   6.136  1.8768  1.3882  1.2190
 7921SOL    HW235400   4.468   4.284   6.137  1.4046 -0.6954 -1.3774
 7922SOL     OW35401   2.838   1.172   3.682 -0.2916  0.3627 -0.8121
 7922SOL    HW135402   2.772   1.144   3.618  0.5441  1.7082 -2.2484
 7922SOL    HW235403   2.777   1.175   3.756  1.0939 -1.2140  0.4017
 7923SOL     OW35404   0.401   3.688  13.036  0.0870 -0.2506 -0.8098
 7923SOL    HW135405   0.449   3.622  13.086 -0.3548  0.3443  0.3863
 7923SOL    HW235406   0.312   3.653  13.037  0.3154 -0.6549  4.4329
 7924SOL     OW35407   0.740   3.377  15.507 -0.2696  0.1549 -0.0728
 7924SOL    HW135408   0.716   3.307  15.447  1.8241 -0.5638 -0.0649
 7924SOL    HW235409   0.743   3.442  15.437 -2.2595  0.7377  0.3745
 7925SOL     OW35410   0.306   1.843   2.928  0.1457  0.1348 -0.1971
 7925SOL    HW135411   0.383   1.817   2.877  0.8663 -2.3117  2.1367
 7925SOL    HW235412   0.333   1.933   2.946 -1.8623  0.6704  0.0350
 7926SOL     OW35413   1.774   2.230   9.982  0.0007 -0.3579  0.3713
 7926SOL    HW135414   1.826   2.167   9.933 -2.0595 -0.5939 -1.5439
 7926SOL    HW235415   1.832   2.306   9.990 -0.9861  0.4688 -0.2172
 7927SOL     OW35416   1.692   0.429   5.202  0.1021 -0.0003  0.4393
 7927SOL    HW135417   1.735   0.376   5.269 -1.3547  0.6584  1.8922
 7927SOL    HW235418   1.771   0.450   5.154 -0.2176 -0.3930 -0.2541
 7928SOL     OW35419   2.615   4.008   8.506  0.0842  0.2782  0.4895
 7928SOL    HW135420   2.707   4.002   8.531  0.0723 -0.7749  0.2751
 7928SOL    HW235421   2.624   3.994   8.412 -0.8576  1.9483  0.1553
 7929SOL     OW35422   2.575   3.561   4.108  0.2144  0.4881  0.2408
 7929SOL    HW135423   2.484   3.537   4.090  0.8738 -1.5394 -0.3699
 7929SOL    HW235424   2.616   3.583   4.025  0.4729  0.7764  0.4451
 7930SOL     OW35425   3.137   3.677  16.275 -0.3916  0.4339 -0.0283
 7930SOL    HW135426   3.168   3.766  16.292  1.8732 -0.0561 -1.6230
 7930SOL    HW235427   3.151   3.640  16.362  2.7246 -0.4255 -0.9115
 7931SOL     OW35428   2.001   0.381   8.392 -0.0302 -0.2719  0.4016
 7931SOL    HW135429   2.034   0.316   8.330 -1.5650 -0.1158 -0.6132
 7931SOL    HW235430   1.971   0.448   8.330  0.0143  1.8557  2.6615
 7932SOL     OW35431   3.392   3.759  13.242 -0.3772 -0.5686 -0.1684
 7932SOL    HW135432   3.419   3.842  13.281  2.4913 -1.7216  0.2434
 7932SOL    HW235433   3.361   3.790  13.157 -0.4287 -0.2439 -0.0308
 7933SOL     OW35434   4.700   3.909  14.536 -1.0286 -0.2716  0.4751
 7933SOL    HW135435   0.028   3.846  14.569  1.1370 -0.5547 -4.1960
 7933SOL    HW235436   4.631   3.906  14.602  0.2656  2.8583  1.9800
 7934SOL     OW35437   0.998   1.671  15.043 -0.0457  0.2126  0.2406
 7934SOL    HW135438   0.999   1.579  15.069 -1.7146  0.1022 -0.1197
 7934SOL    HW235439   0.912   1.679  15.003  1.2355  0.6794 -2.3971
 7935SOL     OW35440   0.591   4.432   8.516  0.3559 -0.5194  0.0525
 7935SOL    HW135441   0.543   4.505   8.556  0.5617  0.3857 -1.3316
 7935SOL    HW235442   0.591   4.454   8.422 -1.3307 -0.2967  0.0931
 7936SOL     OW35443   1.247   1.163  16.550  0.5216  0.0224 -0.1835
 7936SOL    HW135444   1.264   1.141  16.642  0.4348  0.5351 -0.0465
 7936SOL    HW235445   1.305   1.106  16.499  2.2054  0.4116  1.3137
 7937SOL     OW35446   3.193   1.332   2.120  0.1785 -0.0292 -0.3993
 7937SOL    HW135447   3.147   1.406   2.079  0.6117  1.1629  1.2549
 7937SOL    HW235448   3.157   1.349   2.207 -1.2899 -0.7549 -0.8562
 7938SOL     OW35449   1.030   4.278   2.356 -0.1935  0.3023 -0.6595
 7938SOL    HW135450   1.042   4.335   2.432  2.1318  0.4066 -1.1263
 7938SOL    HW235451   1.116   4.296   2.318  0.4274 -2.3576 -0.5236
 7939SOL     OW35452   4.071   2.703  16.445  0.3333 -0.1837  0.4924
 7939SOL    HW135453   4.013   2.766  16.401 -0.9282 -1.9967 -0.4268
 7939SOL    HW235454   4.130   2.692  16.371 -2.0618  1.4430 -1.6473
 7940SOL     OW35455   3.870   0.819   1.269  0.2201 -0.2705 -0.2298
 7940SOL    HW135456   3.803   0.873   1.309 -1.7925 -2.1637 -1.0585
 7940SOL    HW235457   3.927   0.812   1.345 -1.4896  0.7937  1.1330
 7941SOL     OW35458   0.284   0.960   6.095  0.5176 -0.3977  0.6831
 7941SOL    HW135459   0.250   0.912   6.018  2.3965  1.2460 -1.1593
 7941SOL    HW235460   0.243   0.907   6.163 -0.1985 -1.9091 -0.9061
 7942SOL     OW35461   0.257   1.370   8.674 -0.4954  0.4867  0.0262
 7942SOL    HW135462   0.247   1.281   8.708 -0.3602 -0.6340 -2.8547
 7942SOL    HW235463   0.210   1.419   8.741 -0.4272 -0.8210  1.0498
 7943SOL     OW35464   3.828   4.634   2.702  0.2495  0.1039  0.1119
 7943SOL    HW135465   3.778   4.715   2.712  0.2736 -0.3176  3.6232
 7943SOL    HW235466   3.918   4.663   2.718  0.1494  0.9889 -0.9475
 7944SOL     OW35467   1.743   2.125   5.986  0.3568  0.1202 -0.7201
 7944SOL    HW135468   1.657   2.135   5.946  0.1555 -1.1868 -0.6309
 7944SOL    HW235469   1.725   2.068   6.061 -0.9415  0.9944 -0.3756
 7945SOL     OW35470   2.327   1.500   8.415 -0.8183 -0.1043 -0.0656
 7945SOL    HW135471   2.386   1.425   8.416 -1.5218 -0.6289  1.2488
 7945SOL    HW235472   2.285   1.489   8.329  2.5016 -0.8512 -1.5888
 7946SOL     OW35473   2.379   1.832   2.668  0.4313 -0.5714 -0.1871
 7946SOL    HW135474   2.384   1.828   2.764 -2.6097 -1.7568 -0.0729
 7946SOL    HW235475   2.443   1.900   2.649 -1.5312  1.9203  2.0964
 7947SOL     OW35476   4.171   1.657  16.106 -0.0644  0.7231 -0.2588
 7947SOL    HW135477   4.139   1.567  16.114  0.6531  0.3928 -0.9686
 7947SOL    HW235478   4.102   1.711  16.068 -1.4238 -0.1916  0.9059
 7948SOL     OW35479   4.674   1.000   9.108  0.1332  0.1384  0.4572
 7948SOL    HW135480   4.627   1.030   9.186 -1.9527 -0.0547 -0.7102
 7948SOL    HW235481   4.707   1.086   9.081 -1.8940  0.3393 -1.3666
 7949SOL     OW35482   0.294   3.627   2.778 -0.0128  0.0689 -0.4292
 7949SOL    HW135483   0.388   3.635   2.764 -0.0296  0.7773 -0.1278
 7949SOL    HW235484   0.271   3.537   2.754  2.5346 -0.9392  0.8744
 7950SOL     OW35485   3.695   2.442   9.243 -0.2231  0.0808 -0.4407
 7950SOL    HW135486   3.618   2.497   9.256  0.9543  2.0537 -1.9494
 7950SOL    HW235487   3.733   2.464   9.328 -0.3996  0.8187 -0.5572
 7951SOL     OW35488   3.292   1.299   4.595  0.0559 -0.1132  0.4331
 7951SOL    HW135489   3.267   1.391   4.586 -2.3020 -0.5819  2.2629
 7951SOL    HW235490   3.242   1.262   4.522 -2.1401 -0.0002  1.8893
 7952SOL     OW35491   3.067   0.513  12.534  0.0225 -0.0365 -0.0008
 7952SOL    HW135492   3.053   0.588  12.476 -1.1908  0.6325  1.1487
 7952SOL    HW235493   3.089   0.555  12.617 -0.1776  0.3007 -0.1215
 7953SOL     OW35494   1.682   1.162   2.925 -0.2590  0.3610 -0.5026
 7953SOL    HW135495   1.768   1.119   2.922  0.5386  2.0734 -2.8515
 7953SOL    HW235496   1.679   1.230   2.858  0.7781  1.0966  0.1714
 7954SOL     OW35497   4.084   3.738   6.000  0.1687 -0.5175 -0.1471
 7954SOL    HW135498   4.109   3.801   5.932  0.8965 -1.0984 -0.4226
 7954SOL    HW235499   4.169   3.713   6.036 -0.0142  0.3974  0.9314
 7955SOL     OW35500   1.437   1.956   3.252 -0.2136 -0.1782  0.3826
 7955SOL    HW135501   1.475   1.892   3.312 -0.6010  0.2167  1.0456
 7955SOL    HW235502   1.432   2.033   3.308 -1.5318  1.5347 -2.0742
 7956SOL     OW35503   2.559   2.349   5.586 -0.3070 -0.4197 -0.1404
 7956SOL    HW135504   2.513   2.277   5.543 -0.5632  0.5046 -1.4176
 7956SOL    HW235505   2.645   2.337   5.545  0.3335  0.2287  1.0224
 7957SOL     OW35506   1.868   4.000  12.417  0.0537 -0.3609  0.1791
 7957SOL    HW135507   1.916   4.031  12.494 -0.8302 -1.3508  1.1199
 7957SOL    HW235508   1.810   3.938  12.462  0.3465 -1.4542 -0.9315
 7958SOL     OW35509   2.353   0.890   9.129 -0.5673  0.1316 -0.4952
 7958SOL    HW135510   2.446   0.913   9.129 -0.5416  0.0057  1.0185
 7958SOL    HW235511   2.366   0.799   9.103  1.0287  0.4447 -0.7819
 7959SOL     OW35512   1.296   1.432  16.620 -0.0005 -0.1819 -0.4112
 7959SOL    HW135513   1.265   1.349  16.583 -1.6168 -0.1915  0.9498
 7959SOL    HW235514   1.261   1.415  16.708 -1.4915 -1.1155 -1.1799
 7960SOL     OW35515   3.058   2.575  15.724 -0.1630 -0.2036  0.0440
 7960SOL    HW135516   3.135   2.519  15.726 -0.8356 -1.1556 -1.4870
 7960SOL    HW235517   3.064   2.605  15.633 -0.6129 -2.5078 -0.7286
 7961SOL     OW35518   1.802   1.891  13.090 -1.0190  0.4256  0.6266
 7961SOL    HW135519   1.742   1.966  13.092 -1.2984  0.2080  0.2538
 7961SOL    HW235520   1.751   1.813  13.074  2.9618 -1.5142 -2.6131
 7962SOL     OW35521   3.441   3.995   9.420 -0.4155 -0.4927 -0.1213
 7962SOL    HW135522   3.495   3.948   9.357 -1.3914 -0.9614 -0.6067
 7962SOL    HW235523   3.375   3.925   9.423 -0.7535 -0.1391  0.8499
 7963SOL     OW35524   3.782   3.222  11.496 -0.4838 -0.2445  0.1840
 7963SOL    HW135525   3.855   3.183  11.448 -1.0430 -0.2276 -0.6663
 7963SOL    HW235526   3.767   3.301  11.445  1.6109  0.1385  0.1368
 7964SOL     OW35527   3.824   0.032   8.276  0.4135 -0.0935  0.3558
 7964SOL    HW135528   3.819   0.106   8.337 -0.9502  3.3870 -3.9259
 7964SOL    HW235529   3.898   0.061   8.223  0.0892 -0.4942 -0.3170
 7965SOL     OW35530   2.971   3.755  16.087  0.4380  0.0828  0.2336
 7965SOL    HW135531   3.009   3.816  16.024  0.6078  0.9974  1.2212
 7965SOL    HW235532   3.035   3.747  16.158  0.1915 -2.8884  0.1434
 7966SOL     OW35533   3.206   0.480   3.382 -0.6086 -0.4825  0.1013
 7966SOL    HW135534   3.143   0.409   3.370 -0.4191 -0.2683 -2.2308
 7966SOL    HW235535   3.141   0.546   3.406  0.6046  1.1407 -1.0924
 7967SOL     OW35536   2.126   0.388  11.281  0.5052 -0.0914  0.2114
 7967SOL    HW135537   2.057   0.336  11.239 -0.2061  0.2457  0.9419
 7967SOL    HW235538   2.195   0.323  11.290  2.2260  1.7542  0.1673
 7968SOL     OW35539   3.166   2.558   1.399 -0.0671  0.6708 -0.7488
 7968SOL    HW135540   3.199   2.642   1.367 -1.0653  1.5702  0.5714
 7968SOL    HW235541   3.172   2.573   1.493  0.6285 -0.8220 -0.5483
 7969SOL     OW35542   1.029   3.163  15.481  0.0362 -0.9346  0.6111
 7969SOL    HW135543   1.123   3.154  15.463 -0.5115 -1.0591 -2.1984
 7969SOL    HW235544   0.991   3.107  15.413 -0.8082  1.4906 -0.9357
 7970SOL     OW35545   0.228   2.774   4.715 -0.2875 -0.3644 -0.4550
 7970SOL    HW135546   0.311   2.779   4.669  0.4906  0.8054  1.1005
 7970SOL    HW235547   0.170   2.744   4.645  0.7511 -0.9812 -1.0525
 7971SOL     OW35548   3.488   4.019   3.326 -0.1936 -0.0147 -0.3225
 7971SOL    HW135549   3.449   3.978   3.248 -2.4067 -0.0361  0.8084
 7971SOL    HW235550   3.413   4.037   3.382  0.7275 -0.9913  1.2115
 7972SOL     OW35551   0.708   1.351   6.987  0.0352  0.3852 -0.0674
 7972SOL    HW135552   0.679   1.279   7.043  1.3694  1.0504  1.4736
 7972SOL    HW235553   0.727   1.298   6.910  1.0676  0.6808 -0.0135
 7973SOL     OW35554   1.667   3.115  16.535  0.1814 -0.0884 -0.0870
 7973SOL    HW135555   1.612   3.153  16.466  1.0487 -1.4982 -1.5425
 7973SOL    HW235556   1.743   3.108  16.478  0.4950  1.0139  0.1860
 7974SOL     OW35557   3.826   4.107   2.383  0.3109  0.2928 -0.2441
 7974SOL    HW135558   3.752   4.144   2.432 -0.2464 -0.9602 -0.1538
 7974SOL    HW235559   3.833   4.172   2.313 -0.5221  0.9631  0.2847
 7975SOL     OW35560   4.350   1.229   5.871 -0.3979 -0.7713  0.1706
 7975SOL    HW135561   4.383   1.254   5.958  2.0485 -0.3290 -0.8778
 7975SOL    HW235562   4.387   1.142   5.865 -0.8856 -1.0002  0.4674
 7976SOL     OW35563   1.716   1.458   7.483 -0.4077  0.4057  0.1358
 7976SOL    HW135564   1.623   1.438   7.469 -0.3278 -0.0396  0.2473
 7976SOL    HW235565   1.705   1.544   7.525 -0.1816  1.0063 -1.0462
 7977SOL     OW35566   2.377   2.447   3.920  0.1166 -0.1762 -0.1719
 7977SOL    HW135567   2.293   2.491   3.934  0.1605  0.2176 -1.1703
 7977SOL    HW235568   2.382   2.459   3.825 -0.2238  1.8081  0.0734
 7978SOL     OW35569   2.103   2.101   4.556  0.5618 -0.1117  0.2565
 7978SOL    HW135570   2.131   2.147   4.476 -1.7230 -0.1818 -0.6071
 7978SOL    HW235571   2.033   2.159   4.587  0.6950 -0.0473  0.4352
 7979SOL     OW35572   0.397   3.388  12.888  0.0725  0.2534 -0.1564
 7979SOL    HW135573   0.406   3.440  12.808  1.6205  0.6423  0.2799
 7979SOL    HW235574   0.474   3.331  12.882 -1.9384 -2.4108 -0.6374
 7980SOL     OW35575   0.432   0.201   4.653  0.0190 -0.6085  0.1795
 7980SOL    HW135576   0.413   0.145   4.577 -1.2432  0.6736 -0.4415
 7980SOL    HW235577   0.345   0.213   4.691 -0.0678 -0.5119 -0.0500
 7981SOL     OW35578   0.048   2.055   6.254  0.3540 -0.0402 -0.4721
 7981SOL    HW135579   0.044   2.120   6.324 -0.8574  0.2111 -0.7649
 7981SOL    HW235580   0.096   1.986   6.299 -1.2024 -0.0103  1.2389
 7982SOL     OW35581   2.977   0.863   6.686 -0.0785 -0.4987  0.4220
 7982SOL    HW135582   3.013   0.832   6.603  1.0421  0.9757  0.3630
 7982SOL    HW235583   2.882   0.854   6.677 -0.0693 -0.7045  0.5275
 7983SOL     OW35584   2.687   4.416   3.583 -0.4202 -0.1943  0.3303
 7983SOL    HW135585   2.612   4.443   3.530 -0.7416  1.2856  1.5386
 7983SOL    HW235586   2.642   4.381   3.660  2.8562 -0.9416  1.9256
 7984SOL     OW35587   2.402   3.911   4.789  0.7421 -0.0312 -0.6227
 7984SOL    HW135588   2.472   3.974   4.773  1.0539  0.0451  1.0238
 7984SOL    HW235589   2.330   3.973   4.780  0.3065 -0.1283  2.1280
 7985SOL     OW35590   4.042   2.162  13.735  0.2406  0.0143  0.0929
 7985SOL    HW135591   4.108   2.147  13.803  1.1211 -0.8052 -0.9581
 7985SOL    HW235592   4.055   2.081  13.686  0.0087  0.0239  0.0197
 7986SOL     OW35593   4.466   1.337   8.808 -0.3551  0.3937 -0.5145
 7986SOL    HW135594   4.392   1.360   8.753 -1.4267 -2.6116 -0.3479
 7986SOL    HW235595   4.450   1.402   8.876  2.1231  0.5142 -0.0537
 7987SOL     OW35596   3.739   3.234   8.020  0.3798  0.3884  0.2116
 7987SOL    HW135597   3.811   3.184   8.058 -1.9447 -1.0205  2.6940
 7987SOL    HW235598   3.777   3.321   8.011  0.5409  0.4169  1.2160
 7988SOL     OW35599   0.873   3.248   4.771  0.0956  0.4619 -0.6901
 7988SOL    HW135600   0.837   3.323   4.819  0.0322 -0.0473  0.0676
 7988SOL    HW235601   0.819   3.178   4.809 -0.7887  1.8277  0.5856
 7989SOL     OW35602   3.459   3.307   7.547  0.0861 -0.8041 -0.7978
 7989SOL    HW135603   3.392   3.272   7.488 -1.3967 -1.3084  1.2101
 7989SOL    HW235604   3.409   3.335   7.623  1.7911  1.1548 -0.3872
 7990SOL     OW35605   0.702   3.827   4.206 -0.3612 -0.4308 -0.8512
 7990SOL    HW135606   0.764   3.899   4.208 -1.8841  0.9666 -3.4801
 7990SOL    HW235607   0.637   3.866   4.265  2.2543  0.6318  1.2711
 7991SOL     OW35608   0.307   2.404   2.817  0.2835  0.4813 -0.5335
 7991SOL    HW135609   0.262   2.354   2.749  0.3054  1.8151 -1.5210
 7991SOL    HW235610   0.390   2.357   2.822 -0.4405 -0.8632 -0.9890
 7992SOL     OW35611   2.942   3.117   0.998  0.2824 -0.3383  0.0613
 7992SOL    HW135612   3.005   3.186   0.978  1.8479 -1.5469  0.7751
 7992SOL    HW235613   2.996   3.042   1.026  1.2482 -0.0755 -1.0964
 7993SOL     OW35614   3.841   1.841  15.719 -0.1968  0.1322 -0.3914
 7993SOL    HW135615   3.863   1.849  15.626  2.2317 -3.6880 -0.1366
 7993SOL    HW235616   3.757   1.795  15.711 -1.6458  2.7506 -0.5133
 7994SOL     OW35617   1.596   1.822   8.871  0.4733  0.5134 -0.3623
 7994SOL    HW135618   1.524   1.813   8.934 -0.0123  0.1889 -0.9615
 7994SOL    HW235619   1.644   1.900   8.897  1.9769 -0.6149  0.1841
 7995SOL     OW35620   0.497   2.605   3.947  0.1721  0.6984 -0.3849
 7995SOL    HW135621   0.488   2.511   3.958 -1.1370  0.8422 -0.2830
 7995SOL    HW235622   0.435   2.628   3.877 -1.4729 -0.0556  0.8461
 7996SOL     OW35623   2.283   4.688   7.331 -0.0813  0.5908  0.2790
 7996SOL    HW135624   2.289   4.593   7.335  1.1157  0.6104 -0.9358
 7996SOL    HW235625   2.189   4.700   7.342 -0.2322 -1.2157  0.8984
 7997SOL     OW35626   2.156   0.670   3.650 -0.0100 -0.2537 -0.6016
 7997SOL    HW135627   2.228   0.696   3.707 -0.4269 -3.3703  1.3764
 7997SOL    HW235628   2.204   0.608   3.596  1.0976 -1.7961  2.1742
 7998SOL     OW35629   1.950   3.751   1.295 -0.2989 -0.2546  0.6958
 7998SOL    HW135630   2.040   3.774   1.273 -0.6314 -0.3168 -0.7607
 7998SOL    HW235631   1.908   3.729   1.211 -0.3881 -0.9423  0.9248
 7999SOL     OW35632   1.873   0.515   3.182  0.5119 -0.0036  0.0543
 7999SOL    HW135633   1.891   0.596   3.230  1.4486  0.3177 -0.8628
 7999SOL    HW235634   1.954   0.466   3.171 -0.0365 -1.1698  1.1646
 8000SOL     OW35635   1.260   1.995   2.466  0.4896 -0.0492 -0.1765
 8000SOL    HW135636   1.249   1.925   2.402 -0.8124 -1.4143  1.5711
 8000SOL    HW235637   1.339   1.955   2.504  0.7051  0.5344 -0.0042
 8001SOL     OW35638   3.838   1.650   3.748 -0.7416 -0.2085  0.0160
 8001SOL    HW135639   3.918   1.696   3.774  0.5019 -0.8572 -2.7037
 8001SOL    HW235640   3.813   1.622   3.836 -1.3430 -1.7931 -0.6543
 8002SOL     OW35641   0.409   2.148  17.670  0.4024 -0.1893 -0.0280
 8002SOL    HW135642   0.360   2.185  17.596  2.6136  0.7343 -1.0469
 8002SOL    HW235643   0.456   2.071  17.636  2.6447  0.9107  0.5736
 8003SOL     OW35644   3.294   2.841   6.976 -0.5655 -0.0331 -0.3030
 8003SOL    HW135645   3.206   2.853   7.011 -0.6826 -0.2653 -0.5099
 8003SOL    HW235646   3.345   2.839   7.057 -0.7086  1.2006 -0.1918
 8004SOL     OW35647   2.821   0.359   6.155 -0.1316 -0.0488  0.1163
 8004SOL    HW135648   2.867   0.299   6.213  1.5842  0.6456 -0.5392
 8004SOL    HW235649   2.735   0.356   6.197  0.7840  1.0242  2.0349
 8005SOL     OW35650   3.305   3.760  15.936  0.2572 -0.5279  0.2603
 8005SOL    HW135651   3.327   3.682  15.987  3.2951  1.4079  1.9281
 8005SOL    HW235652   3.319   3.832  15.997 -3.9013  0.3040  0.2635
 8006SOL     OW35653   3.280   0.238  10.161 -0.0878  0.2168 -0.1811
 8006SOL    HW135654   3.223   0.311  10.137 -0.8980 -0.3219  0.1427
 8006SOL    HW235655   3.242   0.223  10.247 -0.8081 -0.0256 -0.5407
 8007SOL     OW35656   0.278   1.822   1.591  0.5160  0.0898  0.1515
 8007SOL    HW135657   0.271   1.731   1.620 -1.7234  0.4693  0.7318
 8007SOL    HW235658   0.343   1.858   1.651  0.8582 -1.8268  0.9305
 8008SOL     OW35659   2.205   2.676   6.066 -0.3221 -0.2783 -0.2493
 8008SOL    HW135660   2.180   2.676   5.974  2.5791  0.1818 -1.0629
 8008SOL    HW235661   2.161   2.756   6.095  2.0741  0.3058  1.8331
 8009SOL     OW35662   3.796   3.106   5.081 -0.5573 -0.3123  0.2434
 8009SOL    HW135663   3.842   3.033   5.038 -1.6627 -0.4717 -0.6780
 8009SOL    HW235664   3.814   3.167   5.009  2.2753 -0.1980  1.0460
 8010SOL     OW35665   2.038   3.356   6.187  0.1203  0.3044 -0.3466
 8010SOL    HW135666   1.999   3.276   6.223  0.6042 -0.4062 -1.4019
 8010SOL    HW235667   1.966   3.394   6.136 -0.0233  2.2092  1.2692
 8011SOL     OW35668   2.042   1.561   5.582 -0.4826  0.3131 -0.1173
 8011SOL    HW135669   2.079   1.496   5.524  1.2178  2.1204 -1.0546
 8011SOL    HW235670   2.110   1.628   5.573 -0.9350  0.5700 -1.6187
 8012SOL     OW35671   1.686   3.207   4.742  0.2891  0.6414  0.1635
 8012SOL    HW135672   1.738   3.157   4.679  1.4639  0.1730  1.4955
 8012SOL    HW235673   1.723   3.294   4.727  0.8473  0.0406 -1.9191
 8013SOL     OW35674   1.759   4.735   8.941  0.1782  0.1176  0.3313
 8013SOL    HW135675   1.683   0.055   8.958  1.3158  2.4679 -2.5142
 8013SOL    HW235676   1.740   4.693   8.857 -1.6193 -3.1392  2.3563
 8014SOL     OW35677   2.258   0.397   6.114  0.1645  0.6410 -0.0235
 8014SOL    HW135678   2.171   0.359   6.101  0.7260 -0.1897 -1.2962
 8014SOL    HW235679   2.272   0.360   6.202 -0.3415 -2.4332 -1.2329
 8015SOL     OW35680   1.170   1.564  15.359  0.1105 -0.4356  0.2918
 8015SOL    HW135681   1.192   1.471  15.373 -0.7808 -0.5443  0.9608
 8015SOL    HW235682   1.215   1.590  15.279  0.5599 -1.8307  0.0816
 8016SOL     OW35683   1.493   0.739   2.193 -0.8085 -0.2799  0.0973
 8016SOL    HW135684   1.397   0.733   2.200 -0.8350  0.5263  0.3879
 8016SOL    HW235685   1.500   0.778   2.106  1.0056  2.6192  1.5535
 8017SOL     OW35686   2.418   2.234   2.513 -0.1657  0.5007 -0.0063
 8017SOL    HW135687   2.377   2.303   2.565  2.9665  1.0592  1.6821
 8017SOL    HW235688   2.347   2.229   2.448 -0.8955  0.0470  0.8247
 8018SOL     OW35689   0.731   3.689  15.053 -0.5300  0.0731 -0.2613
 8018SOL    HW135690   0.699   3.688  14.963 -3.0079  2.4887  0.5843
 8018SOL    HW235691   0.772   3.775  15.057  1.0164 -0.6500 -0.9483
 8019SOL     OW35692   0.439   0.134   3.421  0.7141 -0.3995  0.0054
 8019SOL    HW135693   0.401   0.063   3.369 -0.1272  0.3930 -0.4624
 8019SOL    HW235694   0.368   0.197   3.425  0.0097 -1.2390  0.8070
 8020SOL     OW35695   0.772   1.869   8.825 -0.0960 -0.2713 -0.2961
 8020SOL    HW135696   0.750   1.820   8.904  1.0630  1.0553  0.8616
 8020SOL    HW235697   0.740   1.955   8.854 -2.0606 -1.3261  0.6169
 8021SOL     OW35698   4.682   1.407   3.856  0.7582 -0.4018 -0.6266
 8021SOL    HW135699   4.701   1.448   3.940  0.8071  1.1513 -1.3933
 8021SOL    HW235700   4.666   1.487   3.806 -0.0980  0.5365  1.1631
 8022SOL     OW35701   2.945   1.949  14.802  0.2630  0.4558 -0.0898
 8022SOL    HW135702   3.032   1.948  14.762 -0.8442  0.5623 -2.5080
 8022SOL    HW235703   2.879   1.946  14.732  0.4695 -1.8773 -0.1811
 8023SOL     OW35704   3.857   3.136   8.780 -0.4812  0.2208  0.2221
 8023SOL    HW135705   3.797   3.135   8.855  0.2585  0.6778  0.8161
 8023SOL    HW235706   3.792   3.106   8.717  0.9117 -0.1243 -1.0393
 8024SOL     OW35707   2.472   0.548   7.193 -0.2811  0.5365  0.4006
 8024SOL    HW135708   2.459   0.577   7.103  0.9146 -3.2817 -0.9740
 8024SOL    HW235709   2.567   0.538   7.190 -0.7531 -3.9920  0.3952
 8025SOL     OW35710   0.340   4.300   6.650  0.9352 -0.1017 -0.3516
 8025SOL    HW135711   0.366   4.225   6.704 -1.6171 -1.3847 -0.8872
 8025SOL    HW235712   0.246   4.282   6.645  0.9665 -0.4410  0.2743
 8026SOL     OW35713   3.881   0.518   1.926  0.1569  0.6255 -0.8091
 8026SOL    HW135714   3.968   0.499   1.892  0.0519  2.4613 -2.0794
 8026SOL    HW235715   3.884   0.613   1.915  0.0317  0.2944 -3.7164
 8027SOL     OW35716   1.206   1.379   2.507  0.3189  0.0688 -0.7288
 8027SOL    HW135717   1.256   1.453   2.542 -1.3779  0.8079  0.1839
 8027SOL    HW235718   1.116   1.389   2.539  0.6543 -0.3935  0.3626
 8028SOL     OW35719   4.079   3.261   0.197 -0.3466  0.1495  0.2992
 8028SOL    HW135720   4.049   3.267   0.288 -2.9329 -0.8309 -0.4914
 8028SOL    HW235721   4.157   3.206   0.202 -2.2659 -2.7726 -2.1129
 8029SOL     OW35722   1.974   4.433   2.441  0.2742 -0.1786  0.2890
 8029SOL    HW135723   1.945   4.516   2.403  0.9860 -0.3883 -0.7170
 8029SOL    HW235724   1.928   4.367   2.390 -0.5292  1.8999 -1.6703
 8030SOL     OW35725   2.824   3.508   5.126  0.6011  0.2916  0.4636
 8030SOL    HW135726   2.892   3.550   5.179  0.0947 -1.8528  2.8461
 8030SOL    HW235727   2.822   3.427   5.178  0.9034  0.5579  0.8905
 8031SOL     OW35728   0.850   2.737   6.301  0.2031  0.5786 -0.1097
 8031SOL    HW135729   0.844   2.756   6.208 -1.7833  2.4283  0.4176
 8031SOL    HW235730   0.758   2.740   6.325  0.0079  1.7163 -1.0404
 8032SOL     OW35731   1.627   4.475  13.421  0.1609 -0.0751  0.5028
 8032SOL    HW135732   1.580   4.558  13.427 -1.0965 -0.9025  1.9159
 8032SOL    HW235733   1.720   4.495  13.437  0.1260 -0.3397  1.0259
 8033SOL     OW35734   4.459   3.346   0.918 -0.1827  0.3170  0.4975
 8033SOL    HW135735   4.493   3.374   1.003  0.1789  0.2796  0.3642
 8033SOL    HW235736   4.430   3.255   0.922  2.7641 -0.6019  0.3764
 8034SOL     OW35737   1.051   3.187   3.987  0.1664 -0.0795 -0.2858
 8034SOL    HW135738   1.002   3.133   4.049  2.2773 -1.4899  0.1583
 8034SOL    HW235739   1.128   3.215   4.036  0.1621 -0.2491 -0.1793
 8035SOL     OW35740   2.876   0.022   7.954 -0.1392  0.1026  0.0550
 8035SOL    HW135741   2.788   0.027   7.990 -0.6500  0.4201 -1.2169
 8035SOL    HW235742   2.903   4.670   7.981  0.0117  0.2820  0.4784
 8036SOL     OW35743   0.453   3.142  12.074 -0.7548 -0.2704 -0.4660
 8036SOL    HW135744   0.532   3.129  12.126 -1.2641  0.1543  0.4099
 8036SOL    HW235745   0.435   3.224  12.119  1.7764 -0.2283  0.4720
 8037SOL     OW35746   0.827   2.065   3.596 -0.6077  0.2603 -0.5690
 8037SOL    HW135747   0.842   1.974   3.623 -0.3234  0.2229 -0.8594
 8037SOL    HW235748   0.801   2.053   3.505 -1.1096 -0.0838 -0.3799
 8038SOL     OW35749   2.980   0.696   7.675  0.4718 -0.0237 -0.1399
 8038SOL    HW135750   3.028   0.656   7.603 -0.4960 -2.0867  0.3604
 8038SOL    HW235751   3.017   0.653   7.752  0.7301  3.2554  1.5656
 8039SOL     OW35752   3.149   0.661   6.517 -0.2128 -0.1057  0.3239
 8039SOL    HW135753   3.104   0.705   6.445  1.8295  1.1930 -0.1491
 8039SOL    HW235754   3.225   0.718   6.529  0.4679 -0.6248 -1.5060
 8040SOL     OW35755   2.930   1.824  11.918 -0.1203 -0.2794 -0.3476
 8040SOL    HW135756   2.945   1.893  11.854 -0.4404  0.1470  0.0380
 8040SOL    HW235757   3.007   1.833  11.975 -1.2534  2.2949  0.7711
 8041SOL     OW35758   0.729   2.001  13.317 -0.2078 -0.3650  0.6726
 8041SOL    HW135759   0.809   1.999  13.371  0.3292  2.8383 -0.0235
 8041SOL    HW235760   0.697   1.912  13.333 -1.0139 -0.5377 -1.9526
 8042SOL     OW35761   1.411   4.727   5.382  1.1559 -0.3495 -0.0900
 8042SOL    HW135762   1.398   4.704   5.474 -2.4356  2.2609  0.0383
 8042SOL    HW235763   1.378   4.646   5.345 -0.4873  0.9419 -1.4569
 8043SOL     OW35764   1.661   0.549   6.425 -0.4788 -0.1522  0.5052
 8043SOL    HW135765   1.733   0.544   6.489 -2.4378 -1.0983  2.6192
 8043SOL    HW235766   1.630   0.630   6.466 -1.8006 -0.8348  0.8444
 8044SOL     OW35767   2.512   2.314   8.384  0.5211  0.6962  0.0929
 8044SOL    HW135768   2.486   2.318   8.292 -1.3474  0.2291  0.5880
 8044SOL    HW235769   2.555   2.229   8.392  0.0189  0.2857 -1.6172
 8045SOL     OW35770   2.129   4.032  16.360 -0.3224 -0.6687  0.1407
 8045SOL    HW135771   2.155   4.018  16.451 -0.2346 -0.5161  0.1399
 8045SOL    HW235772   2.150   4.126  16.355 -0.2130 -0.6551  0.9290
 8046SOL     OW35773   2.418   4.610   7.590  0.0636 -0.1654  1.1385
 8046SOL    HW135774   2.431   4.698   7.624  0.9330  0.1487  0.0002
 8046SOL    HW235775   2.323   4.602   7.580  0.2571  0.5269 -1.2560
 8047SOL     OW35776   1.124   0.024  13.673 -0.1623 -0.3317  0.6335
 8047SOL    HW135777   1.132   4.728  13.763 -2.0825  2.2581  1.7234
 8047SOL    HW235778   1.106   0.117  13.683  0.5864 -0.1535  0.2747
 8048SOL     OW35779   0.988   1.154   8.844  0.2297  0.2705 -0.0555
 8048SOL    HW135780   1.051   1.111   8.902  1.5913  0.7472 -1.1863
 8048SOL    HW235781   1.046   1.210   8.792  0.6485  0.1577  0.2820
 8049SOL     OW35782   1.996   0.492   3.999  0.1792  0.1163 -0.2706
 8049SOL    HW135783   1.963   0.478   3.911  1.2157  0.3182 -0.6969
 8049SOL    HW235784   1.985   0.404   4.033  0.6639  0.0995 -0.1441
 8050SOL     OW35785   0.683   0.737   2.197  0.5882  0.3645  0.8086
 8050SOL    HW135786   0.667   0.679   2.123  0.6864  1.7776 -0.3314
 8050SOL    HW235787   0.770   0.707   2.222  0.1943 -0.7589  0.7963
 8051SOL     OW35788   3.559   1.216   3.334  0.1547  0.4163  0.0453
 8051SOL    HW135789   3.569   1.168   3.417  2.4454  1.0640  0.1484
 8051SOL    HW235790   3.581   1.305   3.361  0.4183 -0.4708  2.7998
 8052SOL     OW35791   3.512   3.776   9.795  0.0238  0.3217  0.0084
 8052SOL    HW135792   3.534   3.712   9.863 -1.6055 -1.9139 -1.5817
 8052SOL    HW235793   3.434   3.739   9.753  0.5560 -1.8252  0.9157
 8053SOL     OW35794   3.032   1.569   1.100 -0.1601  0.0696  0.2872
 8053SOL    HW135795   2.963   1.556   1.165  1.1035 -2.7379  1.1000
 8053SOL    HW235796   3.107   1.603   1.150 -0.9327  0.4299  1.2022
 8054SOL     OW35797   3.686   4.400  12.354 -0.0193 -0.1879 -0.2570
 8054SOL    HW135798   3.701   4.316  12.398  1.8891  1.3246  2.0227
 8054SOL    HW235799   3.714   4.379  12.265 -1.2837 -0.0328 -0.6872
 8055SOL     OW35800   1.636   0.037  12.062  0.0218  0.3027 -0.1042
 8055SOL    HW135801   1.600   4.695  12.104  1.2502  1.2913  2.8059
 8055SOL    HW235802   1.591   0.105  12.113  0.5159  0.8514 -0.3934
 8056SOL     OW35803   2.187   4.300   2.514  0.6487  0.4749 -0.6908
 8056SOL    HW135804   2.116   4.358   2.487  0.8601  1.0464 -0.0416
 8056SOL    HW235805   2.251   4.309   2.443  0.0954 -0.2605 -1.2760
 8057SOL     OW35806   0.716   4.123  14.871 -0.3557 -0.6179 -0.0152
 8057SOL    HW135807   0.637   4.136  14.924  0.0085 -0.9629  0.6145
 8057SOL    HW235808   0.764   4.206  14.880  0.2079 -0.6265 -2.8914
 8058SOL     OW35809   0.889   0.334   5.601 -0.2053 -0.2789 -0.3601
 8058SOL    HW135810   0.930   0.416   5.628 -1.1953  0.4085 -0.9651
 8058SOL    HW235811   0.961   0.276   5.577 -0.9147 -1.0089 -0.7204
 8059SOL     OW35812   1.810   2.780  13.428  0.6634 -0.4563  0.3383
 8059SOL    HW135813   1.764   2.811  13.350 -2.1454 -1.6564  1.5381
 8059SOL    HW235814   1.899   2.795  13.397 -0.5094  2.0946 -1.7574
 8060SOL     OW35815   1.478   4.150   6.202 -0.1538  0.4421  0.5454
 8060SOL    HW135816   1.516   4.128   6.287  0.9172 -0.3886 -0.1443
 8060SOL    HW235817   1.465   4.245   6.198  1.1228  0.5255 -1.7741
 8061SOL     OW35818   0.659   0.071   8.673 -0.1853 -0.4585  0.1230
 8061SOL    HW135819   0.728   0.042   8.613  0.5863  0.9433  0.3417
 8061SOL    HW235820   0.651   0.164   8.652 -0.2261 -1.0808 -2.5831
 8062SOL     OW35821   2.826   0.634   6.154  0.0223 -0.5862  0.4205
 8062SOL    HW135822   2.830   0.543   6.126 -1.2140 -0.7214  0.6969
 8062SOL    HW235823   2.745   0.669   6.117  0.3278  1.1447  1.3998
 8063SOL     OW35824   0.128   1.039   1.800  0.2307 -0.6378  0.1172
 8063SOL    HW135825   0.186   0.966   1.823  1.6195 -0.1957 -1.9813
 8063SOL    HW235826   0.122   1.096   1.876 -1.2692 -0.6390  0.0033
 8064SOL     OW35827   3.194   2.555   6.080 -0.5139  0.4337  0.1098
 8064SOL    HW135828   3.141   2.477   6.064 -0.3620  0.8037 -2.2979
 8064SOL    HW235829   3.224   2.545   6.170  0.5840 -1.3055 -0.4476
 8065SOL     OW35830   0.933   0.819   8.196 -1.1017  0.2480 -0.1233
 8065SOL    HW135831   0.922   0.912   8.176 -1.6460  0.4497  1.1212
 8065SOL    HW235832   1.015   0.823   8.246 -0.5593  0.8155 -1.0699
 8066SOL     OW35833   1.432   0.750   5.415  0.2937 -0.6432  0.0450
 8066SOL    HW135834   1.414   0.665   5.455  0.9715 -0.0812  1.5141
 8066SOL    HW235835   1.522   0.734   5.386 -0.4124 -0.3912 -2.3393
 8067SOL     OW35836   3.357   3.925   4.542  0.0449  0.6605 -0.0262
 8067SOL    HW135837   3.423   3.883   4.488  1.1357  3.2898 -0.7473
 8067SOL    HW235838   3.409   4.004   4.558  0.2170  0.3430  0.9935
 8068SOL     OW35839   1.613   3.420  14.756  0.0388 -0.0416 -0.2034
 8068SOL    HW135840   1.522   3.447  14.763  0.5460  1.6330 -0.0422
 8068SOL    HW235841   1.632   3.436  14.849  2.0514  2.1192 -0.9956
 8069SOL     OW35842   0.043   3.386   8.960  0.1473  0.6997  0.3456
 8069SOL    HW135843   0.063   3.470   9.003  4.9622  0.0542 -0.6559
 8069SOL    HW235844   0.033   3.330   9.037 -2.9755 -2.1844 -2.1397
 8070SOL     OW35845   3.406   3.127   6.636 -0.0663 -0.5494  0.2334
 8070SOL    HW135846   3.344   3.121   6.708 -2.2271  2.2110 -1.4072
 8070SOL    HW235847   3.341   3.124   6.565  0.1022  2.0329 -0.0239
 8071SOL     OW35848   2.258   3.755   4.297 -0.3287 -0.0221 -0.3609
 8071SOL    HW135849   2.235   3.796   4.214  0.6811  0.9711 -0.1551
 8071SOL    HW235850   2.317   3.683   4.272 -1.4941 -0.8189 -0.8299
 8072SOL     OW35851   0.773   1.663   7.898  0.2139  0.4448 -0.0637
 8072SOL    HW135852   0.684   1.685   7.871 -0.2059  0.0667  0.9870
 8072SOL    HW235853   0.751   1.666   7.991 -0.8576  2.7273 -0.4067
 8073SOL     OW35854   2.899   1.198   1.110 -0.7647  0.0313  0.5933
 8073SOL    HW135855   2.920   1.277   1.159  1.1380  1.1369 -1.9944
 8073SOL    HW235856   2.878   1.234   1.024 -2.8635 -2.6165 -0.0023
 8074SOL     OW35857   0.056   4.367  11.191  0.0775 -0.3182  0.2591
 8074SOL    HW135858   4.719   4.380  11.252 -0.0322 -4.5304  1.0683
 8074SOL    HW235859   0.011   4.319  11.121  0.1969  1.1445 -0.8110
 8075SOL     OW35860   4.269   3.740   6.802  0.7958 -0.2946 -0.2624
 8075SOL    HW135861   4.347   3.780   6.842  1.4343  1.3176 -3.0965
 8075SOL    HW235862   4.293   3.733   6.709  0.8999  1.8471 -0.3901
 8076SOL     OW35863   4.666   3.036   6.385 -0.2145  0.8140  0.0840
 8076SOL    HW135864   4.631   2.951   6.412 -2.5301  1.5187 -0.6749
 8076SOL    HW235865   0.004   3.022   6.327 -0.6604  0.5389 -0.4208
 8077SOL     OW35866   4.499   4.085   8.434 -0.1074  0.1862 -0.3042
 8077SOL    HW135867   4.547   4.002   8.440  0.3812  0.6071  1.8974
 8077SOL    HW235868   4.449   4.078   8.353  1.5436 -0.0423 -1.2836
 8078SOL     OW35869   4.651   1.720   7.714 -0.4494 -0.1304 -0.0544
 8078SOL    HW135870   4.559   1.696   7.709  0.3312 -3.0298 -0.5558
 8078SOL    HW235871   4.647   1.814   7.696  0.3832 -0.2160 -0.6689
 8079SOL     OW35872   2.428   4.553   5.254  0.0262 -0.1645 -0.2379
 8079SOL    HW135873   2.334   4.571   5.254  0.1221  0.3281 -1.9518
 8079SOL    HW235874   2.438   4.503   5.174 -0.3252  0.5528 -0.7234
 8080SOL     OW35875   3.810   1.576   9.152 -0.5642 -0.6334 -0.0228
 8080SOL    HW135876   3.793   1.583   9.058 -1.9104  2.0544  0.4084
 8080SOL    HW235877   3.743   1.517   9.186 -1.2747 -0.3490 -0.9483
 8081SOL     OW35878   1.533   2.118  12.148  0.7041  0.3125 -0.5990
 8081SOL    HW135879   1.601   2.165  12.197 -0.3903 -1.4146  2.5389
 8081SOL    HW235880   1.583   2.110  12.067  0.7321 -1.3263 -0.4056
 8082SOL     OW35881   2.108   1.393  11.277 -0.1075 -0.1120  0.6777
 8082SOL    HW135882   2.149   1.307  11.289  1.4536  0.5331 -0.0911
 8082SOL    HW235883   2.155   1.418  11.198 -1.2813 -0.7291 -0.2150
 8083SOL     OW35884   3.433   3.934  14.591  0.1397  0.0880 -0.2759
 8083SOL    HW135885   3.424   3.989  14.669 -0.1896  1.5150 -1.2996
 8083SOL    HW235886   3.390   3.852  14.612  3.1638 -1.0023  1.7301
 8084SOL     OW35887   1.302   1.146   5.500 -0.0624  0.1909  0.2733
 8084SOL    HW135888   1.337   1.232   5.523 -0.3688  0.0616  1.2218
 8084SOL    HW235889   1.387   1.103   5.506 -0.1049  0.1557  0.6235
 8085SOL     OW35890   4.021   3.601   5.421  0.0614 -0.0409  0.2650
 8085SOL    HW135891   3.979   3.584   5.505  0.2493  0.0163  0.3706
 8085SOL    HW235892   3.947   3.582   5.363 -1.0990 -0.1848  1.7938
 8086SOL     OW35893   2.069   3.499   0.747 -0.2059  0.3069  0.4056
 8086SOL    HW135894   2.108   3.559   0.683 -1.5625  0.5144 -0.2289
 8086SOL    HW235895   2.148   3.464   0.786  0.6427  0.5791 -1.0477
 8087SOL     OW35896   1.630   0.466   2.868  0.6857 -0.1044 -0.3630
 8087SOL    HW135897   1.587   0.495   2.788 -2.1934 -3.6183 -0.1268
 8087SOL    HW235898   1.719   0.496   2.852  0.3949  1.1344  0.3739
 8088SOL     OW35899   0.109   0.575   1.277 -0.0942  0.0310 -0.2953
 8088SOL    HW135900   0.100   0.508   1.345  1.9499 -1.3561 -1.3938
 8088SOL    HW235901   0.199   0.565   1.247 -0.3387 -0.9660 -0.7045
 8089SOL     OW35902   1.864   1.068   4.510 -0.2311  0.3934 -0.2952
 8089SOL    HW135903   1.815   1.002   4.558 -3.6106  0.5898 -3.4708
 8089SOL    HW235904   1.925   1.012   4.462  0.3354 -0.0077  0.9233
 8090SOL     OW35905   3.688   3.957   6.303  0.1998 -0.3231 -0.2197
 8090SOL    HW135906   3.694   3.975   6.397 -0.7829  0.5780 -0.3425
 8090SOL    HW235907   3.759   3.895   6.284 -0.4704 -1.3446  0.6161
 8091SOL     OW35908   4.488   2.751   9.084  0.1970  0.5124  0.0023
 8091SOL    HW135909   4.457   2.740   8.994 -2.9492 -2.2074  1.4108
 8091SOL    HW235910   4.551   2.682   9.105  0.2953  0.4163 -0.6303
 8092SOL     OW35911   3.174   1.998  13.571  0.9027 -0.0004  0.0562
 8092SOL    HW135912   3.221   2.082  13.572  0.4828  0.2349  0.9695
 8092SOL    HW235913   3.082   2.024  13.580  1.6503  2.3654  0.8613
 8093SOL     OW35914   3.119   1.051   4.709 -0.1500 -0.4156  0.0005
 8093SOL    HW135915   3.120   0.995   4.787 -0.4734 -3.0136 -1.8748
 8093SOL    HW235916   3.137   1.132   4.757  4.5709 -0.9961 -0.8187
 8094SOL     OW35917   3.591   2.901   8.840  0.6085 -0.2941 -0.9155
 8094SOL    HW135918   3.535   2.827   8.820 -1.3845  0.5842  1.5005
 8094SOL    HW235919   3.673   2.852   8.847  1.6553  1.4394 -0.7659
 8095SOL     OW35920   0.510   3.688   1.745 -0.1251 -0.0916 -0.3314
 8095SOL    HW135921   0.552   3.709   1.829 -2.4034  0.9341  0.5448
 8095SOL    HW235922   0.567   3.738   1.686 -0.2977  0.8718  0.3141
 8096SOL     OW35923   2.615   0.969   9.168 -0.2891  0.5747  0.3911
 8096SOL    HW135924   2.624   0.874   9.169  0.2934  0.6010 -1.0685
 8096SOL    HW235925   2.677   0.983   9.239  1.1863 -1.4873 -0.5055
 8097SOL     OW35926   1.163   1.105   2.442  0.4819  0.1970 -0.5080
 8097SOL    HW135927   1.227   1.115   2.513 -0.5275  1.6131  0.1997
 8097SOL    HW235928   1.160   1.188   2.394 -1.4943 -0.7325 -1.9642
 8098SOL     OW35929   2.493   2.927   3.565  0.1552  0.3652 -0.1744
 8098SOL    HW135930   2.529   2.859   3.508 -0.2395  2.1054 -2.4659
 8098SOL    HW235931   2.566   2.939   3.626  1.0799  1.1218 -1.4432
 8099SOL     OW35932   0.709   2.126   4.529 -0.3350  0.6170  0.1947
 8099SOL    HW135933   0.682   2.126   4.438  0.5117 -0.5903 -0.0576
 8099SOL    HW235934   0.725   2.032   4.537  2.5995  1.0589 -0.3232
 8100SOL     OW35935   0.856   4.184   5.849 -0.2821 -0.4856  0.2145
 8100SOL    HW135936   0.770   4.162   5.814 -0.1074 -0.7864 -0.0305
 8100SOL    HW235937   0.876   4.109   5.906 -2.0494 -0.6331  0.6165
 8101SOL     OW35938   0.868   2.111   5.940  0.3924  0.7387 -0.2180
 8101SOL    HW135939   0.872   2.133   6.033  3.2267 -1.3527  0.1379
 8101SOL    HW235940   0.774   2.094   5.928  1.1421 -3.0873 -0.6680
 8102SOL     OW35941   0.325   3.295  16.104 -0.7882  0.4823  0.4243
 8102SOL    HW135942   0.373   3.376  16.082  1.7456 -0.7519  1.4613
 8102SOL    HW235943   0.359   3.278  16.191  0.2754 -1.4311 -0.3711
 8103SOL     OW35944   3.951   2.711   2.605 -0.3404 -0.2872  0.3309
 8103SOL    HW135945   4.001   2.783   2.567  0.5676 -0.3221  1.4532
 8103SOL    HW235946   3.910   2.748   2.683 -1.6495 -1.1094  0.0359
 8104SOL     OW35947   1.224   2.020   7.872 -0.1772  0.3606  0.0840
 8104SOL    HW135948   1.260   1.938   7.906 -0.3732 -1.5221 -4.2388
 8104SOL    HW235949   1.182   2.048   7.953  1.7779 -1.0126  1.5696
 8105SOL     OW35950   3.723   2.112   4.834  0.3180 -0.4887 -0.4829
 8105SOL    HW135951   3.642   2.064   4.815  1.8572 -3.7462  1.0097
 8105SOL    HW235952   3.744   2.138   4.745  0.5416 -1.1196 -0.6144
 8106SOL     OW35953   3.134   3.611   5.594  0.0116  0.0149  0.3698
 8106SOL    HW135954   3.159   3.703   5.600 -1.8340  0.4873  0.7806
 8106SOL    HW235955   3.222   3.575   5.601 -0.1922 -0.0975  2.5124
 8107SOL     OW35956   3.917   1.784  12.583  0.4385 -0.1024 -0.0405
 8107SOL    HW135957   3.989   1.737  12.542  0.1929 -0.7209  0.2373
 8107SOL    HW235958   3.867   1.708  12.611  0.0904  1.2924  3.1384
 8108SOL     OW35959   4.574   4.506   3.143 -0.0202 -0.5028  0.3633
 8108SOL    HW135960   4.588   4.600   3.155  1.3266 -0.9934  2.7094
 8108SOL    HW235961   4.611   4.474   3.225 -3.4813 -2.0970  1.3228
 8109SOL     OW35962   2.547   1.157   5.355 -0.8090  0.7123  0.5405
 8109SOL    HW135963   2.467   1.158   5.407 -1.6419 -1.0280 -0.7198
 8109SOL    HW235964   2.530   1.067   5.328 -1.2214  0.5977  1.1679
 8110SOL     OW35965   3.297   3.798   6.254  0.4416  0.0596  0.5898
 8110SOL    HW135966   3.287   3.736   6.182  0.1228  0.9327 -0.1192
 8110SOL    HW235967   3.251   3.751   6.324  2.8293 -2.1976  0.6452
 8111SOL     OW35968   0.880   2.407   9.180 -0.8403 -0.0018 -0.0823
 8111SOL    HW135969   0.930   2.478   9.221  0.2686 -0.4111 -0.7350
 8111SOL    HW235970   0.947   2.370   9.123 -0.4949  0.4691  0.0197
 8112SOL     OW35971   0.301   4.647  13.534 -0.0849  0.3977 -0.1348
 8112SOL    HW135972   0.300   4.552  13.542  1.0895  0.2725 -1.5428
 8112SOL    HW235973   0.384   4.659  13.489 -0.0523  2.7043  0.5301
 8113SOL     OW35974   1.285   3.588  10.032 -0.2211  0.1747  0.0389
 8113SOL    HW135975   1.311   3.673   9.997  1.1774  0.6233  2.1838
 8113SOL    HW235976   1.292   3.616  10.123 -1.1206  0.5925 -0.0130
 8114SOL     OW35977   4.668   2.994  16.948  0.3609 -0.4121 -0.2730
 8114SOL    HW135978   4.585   3.013  16.904  0.5303  0.4461 -0.2251
 8114SOL    HW235979   4.711   2.931  16.890 -1.2016 -1.8429  0.1212
 8115SOL     OW35980   3.584   3.101  11.617 -0.5159  0.0318  0.2570
 8115SOL    HW135981   3.595   3.120  11.710 -2.0047 -1.5524  0.7479
 8115SOL    HW235982   3.671   3.124  11.583 -0.0875  2.3483  2.9384
 8116SOL     OW35983   0.599   1.632   4.414 -0.0514  0.7451 -0.3522
 8116SOL    HW135984   0.645   1.642   4.497  0.8700 -1.4039 -0.5863
 8116SOL    HW235985   0.509   1.654   4.435  0.3636  0.3279  1.8701
 8117SOL     OW35986   1.930   0.747   3.380  0.3905  0.0135  0.0479
 8117SOL    HW135987   1.995   0.711   3.440  0.6962  0.5916  0.0628
 8117SOL    HW235988   1.949   0.839   3.361  0.2969 -0.1577 -0.8358
 8118SOL     OW35989   0.858   0.168   4.552  0.3524 -0.1551 -0.1675
 8118SOL    HW135990   0.796   0.182   4.623  2.5403 -0.1487  1.7263
 8118SOL    HW235991   0.858   0.248   4.500  0.2902 -0.8419 -1.2419
 8119SOL     OW35992   3.372   2.737   2.803  0.4525 -0.1484 -0.0887
 8119SOL    HW135993   3.423   2.700   2.731  1.4252 -0.1164  0.5848
 8119SOL    HW235994   3.320   2.660   2.825  0.8090  0.2877  2.2241
 8120SOL     OW35995   1.434   0.934   4.445  0.6458 -0.3257 -0.0807
 8120SOL    HW135996   1.519   0.912   4.409  1.0365 -0.0588  0.6710
 8120SOL    HW235997   1.441   1.027   4.468 -1.1650 -0.4169  0.8444
 8121SOL     OW35998   0.271   1.029  16.452  0.4193  0.0461  0.8798
 8121SOL    HW135999   0.206   1.066  16.512  0.6022  0.6925  0.6757
 8121SOL    HW236000   0.225   1.022  16.368  2.5458 -3.2459 -0.0113
 8122SOL     OW36001   4.026   2.776   1.511 -0.9529 -0.0118  0.5501
 8122SOL    HW136002   4.109   2.775   1.559 -0.2330  0.5457 -0.6947
 8122SOL    HW236003   3.968   2.758   1.585  1.4479 -0.7626  2.2237
 8123SOL     OW36004   3.308   0.637   2.234 -0.1100  0.1427  0.7487
 8123SOL    HW136005   3.315   0.561   2.292 -1.1123 -0.4974  0.0250
 8123SOL    HW236006   3.363   0.611   2.161  0.1621  0.5105  0.8223
 8124SOL     OW36007   1.432   0.579  15.197 -0.0477 -0.2782  0.4467
 8124SOL    HW136008   1.493   0.621  15.258 -0.1827 -2.7743  2.2959
 8124SOL    HW236009   1.484   0.516  15.146  0.1948 -0.6892  1.1928
 8125SOL     OW36010   2.323   3.630   8.508  0.0981  0.0887  0.2467
 8125SOL    HW136011   2.379   3.700   8.541  0.7536 -0.9616  1.3679
 8125SOL    HW236012   2.313   3.571   8.583  1.8733 -1.5718 -0.8169
 8126SOL     OW36013   2.293   2.969   4.394 -0.4177 -0.4932  0.2540
 8126SOL    HW136014   2.275   2.875   4.397 -2.6388 -0.0730  0.5849
 8126SOL    HW236015   2.379   2.970   4.436  0.1097  1.6657 -0.8732
 8127SOL     OW36016   4.256   2.550   3.044 -0.1387 -0.0688  0.1626
 8127SOL    HW136017   4.286   2.603   3.119 -0.8554  0.8852 -0.2155
 8127SOL    HW236018   4.196   2.608   2.996  0.9306  0.8453 -0.0960
 8128SOL     OW36019   2.064   4.464   4.050  0.2923 -0.6211  0.1791
 8128SOL    HW136020   2.088   4.443   3.959  0.6739 -0.1981  0.1849
 8128SOL    HW236021   1.990   4.521   4.032 -1.2065 -2.1019  1.6272
 8129SOL     OW36022   2.985   0.074   3.914  0.1595 -0.2687  0.1541
 8129SOL    HW136023   2.937   0.044   3.992 -0.9904  2.1793  0.4104
 8129SOL    HW236024   3.056   0.010   3.912  1.1854  0.8207  1.1946
 8130SOL     OW36025   4.568   3.056   3.912  0.2817 -0.0250 -0.1596
 8130SOL    HW136026   4.650   3.087   3.874 -0.0305 -1.8726 -2.3308
 8130SOL    HW236027   4.519   3.139   3.919 -0.2623 -0.2817 -0.8753
 8131SOL     OW36028   0.763   2.316   4.685 -0.5579  0.3258 -0.2905
 8131SOL    HW136029   0.712   2.383   4.639 -2.5755 -0.7127  0.4194
 8131SOL    HW236030   0.733   2.247   4.626  0.3690  1.6229 -2.2620
 8132SOL     OW36031   4.188   4.583   8.547 -0.0029 -0.2213  0.1460
 8132SOL    HW136032   4.236   4.520   8.602  2.5001  1.5529  0.0045
 8132SOL    HW236033   4.158   4.640   8.618  1.5620  2.0070 -0.9867
 8133SOL     OW36034   4.452   0.695  11.801  0.3136  0.9073  0.0072
 8133SOL    HW136035   4.500   0.618  11.770  0.7559  0.8305  0.8625
 8133SOL    HW236036   4.382   0.716  11.740 -1.4452  0.6270  1.9127
 8134SOL     OW36037   2.515   0.503   6.593 -0.3614  0.3118 -0.2598
 8134SOL    HW136038   2.599   0.522   6.634 -0.4415  0.0949  0.0045
 8134SOL    HW236039   2.503   0.408   6.601  1.0597  0.0335 -1.4541
 8135SOL     OW36040   3.196   4.367  17.667 -0.0674 -0.7660  0.5079
 8135SOL    HW136041   3.261   4.430  17.698  1.1085 -0.8158 -1.8893
 8135SOL    HW236042   3.122   4.387  17.725 -0.0158  0.4738  0.1412
 8136SOL     OW36043   0.506   1.608  13.750 -0.0577 -0.5081 -0.3030
 8136SOL    HW136044   0.456   1.684  13.781  1.6664  1.0259 -1.2933
 8136SOL    HW236045   0.589   1.651  13.731 -0.5032  0.6164  0.2227
 8137SOL     OW36046   0.551   2.620  17.378 -0.3647  0.1059  0.3940
 8137SOL    HW136047   0.630   2.654  17.335  0.6277 -1.2341  1.1621
 8137SOL    HW236048   0.516   2.698  17.421 -0.5594  0.2154  0.0364
 8138SOL     OW36049   1.473   2.885  13.133 -0.4838  0.7424 -0.2790
 8138SOL    HW136050   1.564   2.889  13.162 -0.7649 -1.8256  1.0047
 8138SOL    HW236051   1.426   2.882  13.216 -3.5640 -1.1843 -2.0949
 8139SOL     OW36052   1.379   1.256  17.306  0.3108  0.2365 -0.4875
 8139SOL    HW136053   1.402   1.315  17.378 -0.4814 -0.4828  0.3486
 8139SOL    HW236054   1.293   1.297  17.295  1.4841  2.0932 -2.7494
 8140SOL     OW36055   1.548   1.008   5.500 -0.6640  0.5366  0.1317
 8140SOL    HW136056   1.594   1.022   5.417  1.7488  1.5045  1.6353
 8140SOL    HW236057   1.533   0.913   5.491 -1.2056  0.6313  0.0271
 8141SOL     OW36058   0.668   0.640   8.507  0.2634 -0.7699  0.0512
 8141SOL    HW136059   0.594   0.640   8.567  0.4012  0.8939  0.2212
 8141SOL    HW236060   0.629   0.679   8.429 -0.4711  1.2782  1.4656
 8142SOL     OW36061   4.472   4.015  10.921  0.3645 -0.0899 -0.5113
 8142SOL    HW136062   4.410   4.041  10.853 -0.5137 -0.3212  0.2023
 8142SOL    HW236063   4.490   3.938  10.867  1.6704 -0.2636  0.1813
 8143SOL     OW36064   4.357   3.647   9.503  0.0839 -0.1862 -0.1467
 8143SOL    HW136065   4.358   3.552   9.512  2.6858 -0.1216  0.3580
 8143SOL    HW236066   4.353   3.681   9.593 -2.7694  1.2374 -0.8061
 8144SOL     OW36067   1.989   3.060   2.445  0.0656  0.0709  0.1674
 8144SOL    HW136068   2.010   3.101   2.360 -0.6966 -1.9072 -0.9698
 8144SOL    HW236069   1.898   3.031   2.442  0.0755  0.0139  0.4944
 8145SOL     OW36070   0.633   1.807   5.935 -0.0238  0.1210  0.1372
 8145SOL    HW136071   0.551   1.774   5.898  0.2246 -0.9089  0.5072
 8145SOL    HW236072   0.618   1.899   5.913 -1.0018  0.3502  1.7585
 8146SOL     OW36073   4.393   4.094   8.684  0.1978 -0.1748  0.3566
 8146SOL    HW136074   4.421   4.047   8.606 -1.1927 -0.4171  0.0146
 8146SOL    HW236075   4.362   4.022   8.738 -1.2941  1.0516  1.1393
 8147SOL     OW36076   1.912   1.260   8.063  0.0495 -0.2416  0.0178
 8147SOL    HW136077   1.853   1.333   8.046  1.3855  0.4875 -1.3986
 8147SOL    HW236078   1.969   1.296   8.131  1.5615 -1.2879 -0.6966
 8148SOL     OW36079   3.365   2.444  16.021  0.5070 -0.2275 -0.0593
 8148SOL    HW136080   3.296   2.454  16.087  1.9495  0.6406  1.3213
 8148SOL    HW236081   3.369   2.348  16.018 -2.2143 -0.3623  0.9042
 8149SOL     OW36082   3.527   3.649   7.556 -0.3621  0.1243  0.2202
 8149SOL    HW136083   3.440   3.662   7.517 -0.0717 -0.8103 -0.7352
 8149SOL    HW236084   3.504   3.685   7.641 -1.3253  0.1334 -0.0314
 8150SOL     OW36085   3.192   2.203   6.198 -0.0308  0.4504 -0.2346
 8150SOL    HW136086   3.117   2.221   6.255 -0.6986  2.7138 -1.8126
 8150SOL    HW236087   3.256   2.265   6.232  1.0580 -2.4879  3.0457
 8151SOL     OW36088   2.809   4.260  17.398  0.0077  0.3104  0.6862
 8151SOL    HW136089   2.895   4.257  17.440 -0.1535 -0.3720  0.9556
 8151SOL    HW236090   2.839   4.262  17.307 -2.6536  3.5535 -0.1196
 8152SOL     OW36091   1.639   0.901   9.104  0.2825 -0.2598  0.4757
 8152SOL    HW136092   1.579   0.963   9.063 -1.8195 -1.3127  1.9649
 8152SOL    HW236093   1.599   0.818   9.076 -0.2422  0.3773 -0.6743
 8153SOL     OW36094   0.356   0.987   2.226  0.4196 -0.5388 -0.4236
 8153SOL    HW136095   0.434   1.005   2.173 -0.6475 -1.1530 -2.1942
 8153SOL    HW236096   0.285   1.023   2.174 -0.4556 -0.1700  1.0207
 8154SOL     OW36097   0.478   2.105   3.846 -0.4739  0.0172 -0.2737
 8154SOL    HW136098   0.477   2.166   3.772 -1.7353  0.3555  0.0306
 8154SOL    HW236099   0.387   2.077   3.839  0.1296 -1.8428 -0.7484
 8155SOL     OW36100   2.021   3.058   0.578  0.5366  0.5773  0.3309
 8155SOL    HW136101   1.942   3.026   0.534  0.9923  1.0703 -0.8399
 8155SOL    HW236102   2.003   3.152   0.586  1.7740  0.7566  0.8972
 8156SOL     OW36103   2.250   2.077   8.414 -0.0851 -0.2462  0.1039
 8156SOL    HW136104   2.218   2.152   8.463 -3.2695 -0.1429 -2.1676
 8156SOL    HW236105   2.325   2.054   8.470 -0.1663 -4.1747 -1.3571
 8157SOL     OW36106   0.348   3.605  12.433 -0.3959 -0.3168 -0.7919
 8157SOL    HW136107   0.288   3.665  12.478  0.7069 -1.1014  1.7374
 8157SOL    HW236108   0.331   3.634  12.343  2.4487  1.0394 -0.8850
 8158SOL     OW36109   3.792   1.514   6.523  0.0511  0.1717  0.0152
 8158SOL    HW136110   3.766   1.551   6.438  1.5568  0.0038 -0.5162
 8158SOL    HW236111   3.886   1.517   6.510 -0.2474 -0.6442 -2.2336
 8159SOL     OW36112   2.370   3.067  15.115  0.1463  0.0263 -0.5663
 8159SOL    HW136113   2.318   3.147  15.128  0.7596 -0.0922  2.5783
 8159SOL    HW236114   2.322   3.002  15.166  0.1422 -0.7461 -1.5630
 8160SOL     OW36115   2.593   0.503   2.020  0.5700  0.1576  0.0386
 8160SOL    HW136116   2.590   0.598   2.008  1.2078  0.3246  1.2534
 8160SOL    HW236117   2.535   0.488   2.095  0.1696 -0.7835 -0.4589
 8161SOL     OW36118   3.405   0.855   6.141  0.7058 -0.3106 -0.4266
 8161SOL    HW136119   3.454   0.934   6.119  2.1995 -1.4489 -1.2004
 8161SOL    HW236120   3.433   0.794   6.072  2.6945  0.3439 -0.1962
 8162SOL     OW36121   4.445   0.249   5.449  0.2409 -0.1852 -0.0173
 8162SOL    HW136122   4.419   0.334   5.412 -0.6740 -0.5236 -0.1615
 8162SOL    HW236123   4.382   0.189   5.410  1.4817 -1.2647 -0.3257
 8163SOL     OW36124   4.050   2.155  17.636 -0.4757  0.0622  0.2847
 8163SOL    HW136125   3.992   2.080  17.620 -3.2959  2.4037 -0.5779
 8163SOL    HW236126   4.012   2.216  17.572 -0.0749 -1.2468 -1.1874
 8164SOL     OW36127   4.733   0.806   2.758  0.5872 -0.3120  0.3558
 8164SOL    HW136128   0.091   0.804   2.771  0.9115  2.7434 -1.6763
 8164SOL    HW236129   4.716   0.713   2.743  1.5890 -0.1547 -1.7683
 8165SOL     OW36130   3.575   0.525   7.248  0.4701  0.4640 -0.8246
 8165SOL    HW136131   3.500   0.579   7.273 -1.0005  0.0568 -4.2988
 8165SOL    HW236132   3.565   0.453   7.310  0.8566  2.0836  1.1306
 8166SOL     OW36133   3.655   3.914  16.700  0.0527 -0.2505  0.6173
 8166SOL    HW136134   3.690   3.825  16.705  0.7955  0.0478  0.8749
 8166SOL    HW236135   3.691   3.940  16.785  1.1624  0.5096 -0.0829
 8167SOL     OW36136   2.505   0.816   8.770 -0.4077 -0.0874 -0.0339
 8167SOL    HW136137   2.576   0.781   8.824 -0.0407  2.8170  1.3464
 8167SOL    HW236138   2.498   0.903   8.808 -2.4418  0.3140 -1.3225
 8168SOL     OW36139   3.194   0.491  15.708  0.2210 -0.3761 -0.4111
 8168SOL    HW136140   3.264   0.470  15.646  1.9978  3.2951  0.3190
 8168SOL    HW236141   3.142   0.411  15.715  1.9471 -1.3881  0.5462
 8169SOL     OW36142   2.207   2.039  15.366  0.0866 -0.6507 -0.3810
 8169SOL    HW136143   2.221   2.122  15.320  2.2455  0.0176  1.5038
 8169SOL    HW236144   2.295   2.003  15.361  0.1483 -0.3483 -1.4889
 8170SOL     OW36145   1.079   0.110  12.245  0.0410 -0.1815  0.0360
 8170SOL    HW136146   1.104   0.019  12.226  1.3639  0.1610  0.1373
 8170SOL    HW236147   0.987   0.098  12.269 -0.4832 -1.8212 -2.7793
 8171SOL     OW36148   1.116   1.769   6.481 -0.3053 -0.0204  0.0802
 8171SOL    HW136149   1.069   1.849   6.506  0.7632  0.3281  0.9582
 8171SOL    HW236150   1.151   1.784   6.394 -0.5859 -0.6393 -0.1435
 8172SOL     OW36151   4.176   0.585   5.593  0.0487 -0.2120 -0.4153
 8172SOL    HW136152   4.251   0.600   5.535  0.5994 -1.4061 -0.0072
 8172SOL    HW236153   4.099   0.615   5.545  1.1167  1.5343 -1.0152
 8173SOL     OW36154   4.243   0.218  10.264 -0.2059 -0.4846 -0.3047
 8173SOL    HW136155   4.303   0.204  10.190 -0.2600  1.7385 -0.7614
 8173SOL    HW236156   4.272   0.139  10.310 -1.3490 -1.6693 -1.5733
 8174SOL     OW36157   1.919   1.302   3.251  0.5250  0.1487 -0.4470
 8174SOL    HW136158   1.886   1.372   3.194  0.0979 -0.7084 -1.2438
 8174SOL    HW236159   1.836   1.279   3.293 -1.2586  2.4909 -2.6444
 8175SOL     OW36160   2.365   4.062  12.247  0.6993  0.2451 -0.0317
 8175SOL    HW136161   2.458   4.047  12.234  0.2282 -1.5890 -1.2781
 8175SOL    HW236162   2.338   4.111  12.169  3.1446  0.1302 -0.9438
 8176SOL     OW36163   0.437   4.026   0.586 -0.2366  0.0178  0.4590
 8176SOL    HW136164   0.493   3.989   0.654  0.1093 -0.9269 -0.3475
 8176SOL    HW236165   0.373   4.072   0.641 -0.8604 -0.5357  0.1980
 8177SOL     OW36166   1.207   2.223  13.958  0.1308 -0.6133 -0.8606
 8177SOL    HW136167   1.293   2.249  13.991  0.4542 -0.6180 -1.6872
 8177SOL    HW236168   1.217   2.224  13.863  0.2754  2.0984 -0.8174
 8178SOL     OW36169   1.785   3.152   9.286  0.1357 -0.3398 -0.5449
 8178SOL    HW136170   1.709   3.206   9.307  0.8457  0.9716 -1.3048
 8178SOL    HW236171   1.840   3.182   9.359 -2.4691  2.4619  0.2700
 8179SOL     OW36172   1.984   1.704   3.410  0.1641 -0.2677 -0.3819
 8179SOL    HW136173   2.025   1.674   3.329 -0.9640  1.4430 -1.5731
 8179SOL    HW236174   1.897   1.665   3.400 -0.5776  1.2901 -0.0145
 8180SOL     OW36175   1.233   0.450   7.447 -0.2114 -0.1260  0.7694
 8180SOL    HW136176   1.185   0.512   7.501 -1.1008  1.0271 -1.3554
 8180SOL    HW236177   1.326   0.473   7.444  0.1404 -1.6371  0.1482
 8181SOL     OW36178   1.495   3.651   6.906 -0.1464  0.1806 -0.2145
 8181SOL    HW136179   1.589   3.666   6.919 -0.1499 -0.9577  1.1738
 8181SOL    HW236180   1.460   3.702   6.980 -1.3336 -0.1819 -0.5413
 8182SOL     OW36181   3.807   1.996   8.846 -0.2952 -0.2979  0.2257
 8182SOL    HW136182   3.728   1.970   8.894 -0.5451  2.9046  1.5550
 8182SOL    HW236183   3.846   2.063   8.902 -0.0355 -0.9990  0.8943
 8183SOL     OW36184   3.210   4.293   9.426 -0.6729  0.4569  0.0763
 8183SOL    HW136185   3.264   4.372   9.433  0.0925  0.1357 -2.4039
 8183SOL    HW236186   3.144   4.318   9.361 -1.2400  1.7210  1.1343
 8184SOL     OW36187   1.218   2.021   8.993 -0.2701  0.4094 -0.3032
 8184SOL    HW136188   1.169   2.054   9.068  2.1368  0.8119  1.0719
 8184SOL    HW236189   1.141   2.018   8.936  0.8346  0.8101 -1.8113
 8185SOL     OW36190   1.428   2.433   5.348 -0.0460  0.3060 -0.3776
 8185SOL    HW136191   1.444   2.449   5.255  2.4362 -0.3228 -0.0759
 8185SOL    HW236192   1.383   2.350   5.338 -0.4161  0.4622 -0.0219
 8186SOL     OW36193   1.416   3.596  11.058 -0.1938  0.1501 -0.2548
 8186SOL    HW136194   1.339   3.644  11.089  0.3531  0.2353  0.9537
 8186SOL    HW236195   1.435   3.642  10.976  2.3585 -0.5242 -0.0372
 8187SOL     OW36196   3.718   2.362  15.197  0.6871  0.1536  0.6226
 8187SOL    HW136197   3.639   2.409  15.223 -0.9277 -1.3222 -1.5538
 8187SOL    HW236198   3.701   2.278  15.240 -0.0255 -0.3746 -0.6886
 8188SOL     OW36199   2.065   1.416  14.423  0.4022 -0.6356 -0.0967
 8188SOL    HW136200   2.028   1.328  14.417 -1.2727  0.1283 -0.9985
 8188SOL    HW236201   2.147   1.387  14.382 -0.5652 -2.6395 -0.6309
 8189SOL     OW36202   0.948   4.409  16.765 -0.2305 -0.1656 -0.2485
 8189SOL    HW136203   0.952   4.332  16.708  0.4446 -0.9516  0.8581
 8189SOL    HW236204   0.857   4.435  16.778 -0.8611 -1.4928 -2.0346
 8190SOL     OW36205   0.156   0.881   8.111  0.0861 -0.3770  0.3564
 8190SOL    HW136206   0.183   0.794   8.080 -0.3003 -1.1979  2.3116
 8190SOL    HW236207   0.188   0.939   8.043  1.3109 -2.7872 -1.1411
 8191SOL     OW36208   0.962   1.308   2.144 -0.6057 -0.0784 -0.1766
 8191SOL    HW136209   0.978   1.322   2.238  2.2570  0.8312 -0.8029
 8191SOL    HW236210   1.044   1.322   2.097 -0.7204 -3.1302 -1.2715
 8192SOL     OW36211   2.337   3.265  14.712 -0.4532  0.4519 -0.0861
 8192SOL    HW136212   2.344   3.266  14.616  0.6115 -1.6313 -0.0284
 8192SOL    HW236213   2.403   3.330  14.735  0.2262 -0.3792  0.3152
 8193SOL     OW36214   2.198   1.651   2.056  0.8243  0.0729 -0.0452
 8193SOL    HW136215   2.140   1.673   1.983  0.2373  0.3676  0.5071
 8193SOL    HW236216   2.271   1.706   2.028 -0.9920  1.8805 -1.2830
 8194SOL     OW36217   4.053   1.155   6.342 -0.7425 -0.6963  0.0654
 8194SOL    HW136218   4.080   1.113   6.423  2.9364  0.9201 -0.2894
 8194SOL    HW236219   4.089   1.242   6.360 -1.0036 -0.3211 -1.2149
 8195SOL     OW36220   3.842   2.107  11.184  0.3951 -0.0105 -0.3074
 8195SOL    HW136221   3.829   2.161  11.262 -0.5601 -1.1455  0.3226
 8195SOL    HW236222   3.760   2.106  11.135  0.4175  1.0794 -0.3688
 8196SOL     OW36223   1.793   3.010  12.349 -0.7853  0.2493  0.2396
 8196SOL    HW136224   1.862   3.069  12.318  1.1144 -1.9377  0.2949
 8196SOL    HW236225   1.835   2.926  12.329 -1.3949  0.0983 -0.4092
 8197SOL     OW36226   1.230   0.810  14.774  0.3016  0.0462 -0.2543
 8197SOL    HW136227   1.165   0.746  14.746 -0.1477 -0.5615  2.2380
 8197SOL    HW236228   1.195   0.887  14.727 -0.0246  1.1728  1.8423
 8198SOL     OW36229   4.073   1.509   5.538 -0.3663  0.0074 -0.4327
 8198SOL    HW136230   4.041   1.478   5.453  1.5303 -1.3373 -0.6431
 8198SOL    HW236231   4.054   1.601   5.521  2.1013  0.7464  0.8415
 8199SOL     OW36232   2.029   1.130   7.699 -0.4810 -0.0247 -0.6839
 8199SOL    HW136233   2.080   1.060   7.657 -2.4670 -0.6919 -1.9526
 8199SOL    HW236234   2.010   1.184   7.622  2.7699  1.4737 -0.4773
 8200SOL     OW36235   1.774   3.002   6.020  0.4540  0.3799 -0.4902
 8200SOL    HW136236   1.691   3.041   5.994  0.1484  0.7264  1.0345
 8200SOL    HW236237   1.759   2.992   6.114  1.3142 -0.4885 -0.4470
 8201SOL     OW36238   0.108   3.524  12.696  0.2411  0.2678  0.6217
 8201SOL    HW136239   0.159   3.597  12.731 -0.6866 -0.1885  2.9064
 8201SOL    HW236240   0.069   3.479  12.771 -1.1715  1.6654  0.7021
 8202SOL     OW36241   3.427   1.709   4.380  0.2605 -0.1639  0.5171
 8202SOL    HW136242   3.487   1.779   4.357 -0.8267  0.6420  0.1621
 8202SOL    HW236243   3.347   1.746   4.345  1.8773  0.1898 -2.7468
 8203SOL     OW36244   4.534   0.681  14.052 -0.5696  0.4000  0.4460
 8203SOL    HW136245   4.611   0.728  14.018 -0.2934 -0.4974 -0.1738
 8203SOL    HW236246   4.470   0.752  14.045  1.0939  1.8312 -0.3616
 8204SOL     OW36247   3.841   0.376   8.684 -0.4306  0.3625  0.1361
 8204SOL    HW136248   3.763   0.399   8.734 -0.9452  1.2694 -1.0701
 8204SOL    HW236249   3.904   0.387   8.755 -0.3414  0.7527 -0.0036
 8205SOL     OW36250   4.205   1.246   8.628  0.1811  0.0286 -0.3295
 8205SOL    HW136251   4.223   1.161   8.669 -0.1278  0.8258  1.4397
 8205SOL    HW236252   4.261   1.243   8.550 -0.6628  0.3583 -0.9534
 8206SOL     OW36253   0.900   3.786   4.623 -0.4541  0.4261  0.0831
 8206SOL    HW136254   0.922   3.758   4.712  1.1824  0.5528 -0.2774
 8206SOL    HW236255   0.928   3.878   4.619 -0.7674  0.4638 -1.5457
 8207SOL     OW36256   1.600   3.110  14.691  0.0192  0.1547  0.2963
 8207SOL    HW136257   1.571   3.069  14.610 -0.4732  0.1856  0.4560
 8207SOL    HW236258   1.692   3.087  14.697  0.1681  0.8088  0.5163
 8208SOL     OW36259   3.929   0.290  15.918  0.4047  0.1972 -0.1465
 8208SOL    HW136260   3.877   0.364  15.950 -1.2083  0.1331 -2.6979
 8208SOL    HW236261   3.865   0.233  15.876  1.5216 -1.1910  0.0724
 8209SOL     OW36262   2.875   2.939   6.291  0.2801 -0.3683 -0.3983
 8209SOL    HW136263   2.946   2.889   6.333 -0.0835 -0.2931  0.3080
 8209SOL    HW236264   2.827   2.874   6.239 -1.7874 -0.8042  2.0690
 8210SOL     OW36265   4.049   4.728  16.250  0.1808 -0.2176 -0.1235
 8210SOL    HW136266   4.116   0.051  16.285  2.4328 -2.1223 -1.2354
 8210SOL    HW236267   3.992   4.710  16.324 -0.2668  1.5134 -0.0524
 8211SOL     OW36268   2.620   0.248   8.344 -0.4619 -0.1847 -0.0500
 8211SOL    HW136269   2.552   0.225   8.407 -0.0685  2.6571  1.3819
 8211SOL    HW236270   2.609   0.342   8.329  2.9218 -0.0364 -1.6583
 8212SOL     OW36271   4.507   1.472   6.121 -0.5479 -0.0221  0.0559
 8212SOL    HW136272   4.509   1.537   6.191 -0.4734 -1.1030  1.0601
 8212SOL    HW236273   4.469   1.518   6.046 -1.0878 -0.5668 -0.0079
 8213SOL     OW36274   2.720   0.038   4.965  0.0901  0.0430  0.1041
 8213SOL    HW136275   2.681   4.702   4.915  2.1941 -2.2933  1.8230
 8213SOL    HW236276   2.813   0.012   4.966 -0.0895 -0.6020  0.2608
 8214SOL     OW36277   1.339   3.300   7.789 -0.2557 -0.6949 -0.3953
 8214SOL    HW136278   1.333   3.389   7.824  0.1967 -1.6430  2.1385
 8214SOL    HW236279   1.373   3.313   7.701  1.0423  1.3075  0.3982
 8215SOL     OW36280   4.421   0.969   5.875 -0.2272 -0.0435  0.6834
 8215SOL    HW136281   4.367   0.904   5.832  1.1858 -0.5061 -0.3891
 8215SOL    HW236282   4.399   0.960   5.968  0.4893 -0.6136  0.8018
 8216SOL     OW36283   4.197   0.512  13.646  0.5546  0.0236 -0.0361
 8216SOL    HW136284   4.156   0.571  13.582  0.6884  1.6270  1.3520
 8216SOL    HW236285   4.142   0.434  13.642  0.8011 -0.2350  1.6854
 8217SOL     OW36286   2.515   1.994   7.741 -0.1963  0.4370  0.8485
 8217SOL    HW136287   2.595   2.030   7.702 -0.6829 -1.5411 -1.9372
 8217SOL    HW236288   2.542   1.902   7.749 -0.3776  0.2545 -0.7089
 8218SOL     OW36289   0.060   2.105   4.919  0.0459  0.2540 -0.0738
 8218SOL    HW136290   4.729   2.040   4.939 -0.7096  0.5455 -1.6903
 8218SOL    HW236291   0.067   2.138   5.009 -2.7564  0.7362 -0.0228
 8219SOL     OW36292   2.587   3.528   5.392 -0.2879  0.3563 -0.5066
 8219SOL    HW136293   2.633   3.596   5.344  0.4390  0.9475  1.0326
 8219SOL    HW236294   2.545   3.472   5.326 -1.3174  1.6569 -0.9462
 8220SOL     OW36295   0.954   4.687   7.943 -0.1366 -0.0666 -0.2811
 8220SOL    HW136296   0.916   0.038   7.938 -2.0652 -0.6921  3.9548
 8220SOL    HW236297   1.020   4.698   8.012 -1.3406 -0.5259  0.9324
 8221SOL     OW36298   0.363   2.223  12.375  0.6234  0.6053 -0.4836
 8221SOL    HW136299   0.403   2.218  12.462  3.1093 -1.1595 -1.7124
 8221SOL    HW236300   0.417   2.289  12.332  2.7864  0.5111  2.0800
 8222SOL     OW36301   0.263   2.832   7.126  0.2743 -0.2354 -0.4257
 8222SOL    HW136302   0.198   2.887   7.169  0.5718 -0.2947  0.1092
 8222SOL    HW236303   0.203   2.764   7.096  1.6251 -1.5600 -0.1246
 8223SOL     OW36304   1.700   2.988  15.393 -0.7843 -0.2283 -0.2430
 8223SOL    HW136305   1.621   2.940  15.417 -1.7509  1.0657 -0.8198
 8223SOL    HW236306   1.667   3.039  15.319 -0.6936 -0.1609 -0.2373
 8224SOL     OW36307   4.700   0.840  16.489 -0.3108  0.3082  0.4826
 8224SOL    HW136308   4.713   0.935  16.486  0.2289  0.1977 -0.6294
 8224SOL    HW236309   4.605   0.842  16.497 -0.5134 -0.5235 -1.8301
 8225SOL     OW36310   2.648   4.515   7.467  0.0691  0.1544  0.0253
 8225SOL    HW136311   2.556   4.532   7.490  0.2726  0.9527  0.2754
 8225SOL    HW236312   2.664   4.429   7.505  1.8557  0.2745 -0.4555
 8226SOL     OW36313   2.474   4.484   6.188  0.0816  0.2649 -0.0729
 8226SOL    HW136314   2.428   4.415   6.140  0.0700 -1.3634  2.2668
 8226SOL    HW236315   2.403   4.530   6.233  0.7550  0.2370  1.0274
 8227SOL     OW36316   1.104   0.172   5.393  0.3375 -0.4065 -0.5300
 8227SOL    HW136317   1.069   0.089   5.359  0.5541 -1.0936  0.9114
 8227SOL    HW236318   1.189   0.149   5.429 -0.3109 -1.6234  0.2396
 8228SOL     OW36319   4.423   4.316   5.838 -0.3304 -0.0864  0.0665
 8228SOL    HW136320   4.451   4.350   5.923  2.0258 -1.0936 -0.2973
 8228SOL    HW236321   4.385   4.233   5.867  2.3892 -1.2561  0.2951
 8229SOL     OW36322   2.736   4.420   4.921 -0.6508  0.0086  0.3907
 8229SOL    HW136323   2.794   4.420   4.845 -0.1544  0.3952  0.7765
 8229SOL    HW236324   2.795   4.417   4.996  1.8206  0.2698 -1.5670
 8230SOL     OW36325   2.067   1.482   0.426  0.0494  0.2043  0.1555
 8230SOL    HW136326   1.986   1.485   0.477  1.3904  1.0556  2.2099
 8230SOL    HW236327   2.091   1.573   0.446 -1.1552  0.5635 -0.0514
 8231SOL     OW36328   3.522   1.574   9.458  0.3336 -0.4730  0.0581
 8231SOL    HW136329   3.496   1.520   9.532  1.4241 -0.9527  0.0910
 8231SOL    HW236330   3.504   1.666   9.481  0.7578 -0.2561 -0.4809
 8232SOL     OW36331   4.616   4.125   1.212  0.5853  0.3620 -0.2581
 8232SOL    HW136332   4.677   4.197   1.224  0.6610  0.1369  0.7338
 8232SOL    HW236333   4.660   4.077   1.142 -2.2744 -1.4265 -0.8220
 8233SOL     OW36334   3.338   4.138  12.558 -0.1508  0.3988 -0.1673
 8233SOL    HW136335   3.339   4.232  12.579 -0.5368  0.3208  0.2109
 8233SOL    HW236336   3.394   4.142  12.481  1.5265 -0.6564  1.0091
 8234SOL     OW36337   2.018   0.939   1.572  0.0509 -0.7052  0.0936
 8234SOL    HW136338   1.932   0.949   1.614  0.7950  2.6865  0.8158
 8234SOL    HW236339   2.003   0.949   1.478  1.0737  0.7545  0.0865
 8235SOL     OW36340   2.369   3.979   7.033  0.2139  0.1438 -0.0637
 8235SOL    HW136341   2.424   4.037   7.086 -1.8589  0.7379  1.4292
 8235SOL    HW236342   2.284   4.012   7.062 -0.4712 -0.3717 -1.4538
 8236SOL     OW36343   1.487   2.019   8.362  0.1555 -0.2814  0.1955
 8236SOL    HW136344   1.557   2.084   8.353 -0.3431  0.5254  2.1193
 8236SOL    HW236345   1.488   1.978   8.276 -1.0089  0.4306 -0.1646
 8237SOL     OW36346   0.645   2.485   8.978  0.1633  0.1180 -1.1046
 8237SOL    HW136347   0.733   2.516   8.954  1.0127 -0.1085  1.7221
 8237SOL    HW236348   0.620   2.560   9.031 -3.5080 -1.0973 -1.0917
 8238SOL     OW36349   0.975   0.516   3.257 -0.0595 -0.4880  0.1057
 8238SOL    HW136350   1.059   0.528   3.301  0.7473 -3.6364 -0.5551
 8238SOL    HW236351   1.007   0.479   3.175 -1.4211  1.0489 -1.1253
 8239SOL     OW36352   3.282   0.929   2.254  0.3593 -0.0016 -0.0386
 8239SOL    HW136353   3.237   0.847   2.233  1.5550 -0.4253 -0.9597
 8239SOL    HW236354   3.341   0.896   2.322  1.5691 -0.2227 -1.2107
 8240SOL     OW36355   1.295   3.791   7.700 -0.1173 -0.2886  0.0471
 8240SOL    HW136356   1.228   3.857   7.721  2.8153  1.6514  3.2949
 8240SOL    HW236357   1.312   3.801   7.606 -1.3525  0.5450 -0.0878
 8241SOL     OW36358   0.557   0.397  14.262 -0.0318  0.0973 -0.8191
 8241SOL    HW136359   0.506   0.466  14.221  0.8802  1.2809  0.0537
 8241SOL    HW236360   0.636   0.449  14.280 -0.7673  1.1310 -0.5945
 8242SOL     OW36361   1.772   2.101  12.006 -0.0057 -0.2900 -0.2852
 8242SOL    HW136362   1.763   2.015  11.965 -0.7828 -0.7046  0.7664
 8242SOL    HW236363   1.816   2.155  11.940  0.1472  1.2052  1.0346
 8243SOL     OW36364   4.641   4.317   3.803  0.0158 -0.5441  0.0919
 8243SOL    HW136365   4.713   4.360   3.850  2.1725 -0.7706 -3.0048
 8243SOL    HW236366   4.677   4.297   3.717  2.4439  0.5045  0.8567
 8244SOL     OW36367   0.087   2.864   8.137  0.4711  0.1528  0.2195
 8244SOL    HW136368   0.019   2.906   8.190 -0.2341 -1.7951  0.8560
 8244SOL    HW236369   0.150   2.821   8.195 -0.0128 -1.1876 -0.2732
 8245SOL     OW36370   2.600   1.035   2.374  0.8526  0.0659 -0.2294
 8245SOL    HW136371   2.624   0.982   2.451  0.5705 -1.0451 -0.9079
 8245SOL    HW236372   2.666   1.006   2.311  1.6489  0.0478  0.6094
 8246SOL     OW36373   3.928   4.154   6.032 -0.0204  0.0152  0.1181
 8246SOL    HW136374   3.878   4.218   5.981  0.7230  0.6070  0.1189
 8246SOL    HW236375   3.887   4.075   5.998  2.3102 -1.4116  0.5857
 8247SOL     OW36376   1.115   1.041  14.586 -0.1673  0.2863  0.3656
 8247SOL    HW136377   1.184   1.107  14.597  0.5566 -0.5619  0.9103
 8247SOL    HW236378   1.057   1.081  14.651 -2.4434 -2.0473 -0.2610
 8248SOL     OW36379   2.463   3.338  17.620  0.2161  0.4152 -0.3196
 8248SOL    HW136380   2.393   3.383  17.572  2.4961 -0.0167 -4.0448
 8248SOL    HW236381   2.510   3.415  17.653  0.4591  1.3105 -2.7836
 8249SOL     OW36382   3.331   1.047   6.528  0.2881 -0.0926  0.3735
 8249SOL    HW136383   3.422   1.075   6.531  0.0455  0.7851 -0.3962
 8249SOL    HW236384   3.345   0.953   6.513  0.7819 -0.3232  2.3290
 8250SOL     OW36385   0.988   3.075   0.692 -0.2704 -0.0221 -0.1924
 8250SOL    HW136386   0.966   3.117   0.609 -0.7612 -1.8464 -0.9882
 8250SOL    HW236387   0.973   2.984   0.667  2.8976 -1.2406  2.4084
 8251SOL     OW36388   0.906   2.595   4.373  0.2873 -0.5583 -0.2670
 8251SOL    HW136389   0.895   2.597   4.278  1.7189 -1.6283 -0.4557
 8251SOL    HW236390   0.848   2.664   4.406  1.5644 -0.3297  1.5310
 8252SOL     OW36391   2.607   2.677  15.320  0.0612  0.1438 -0.1201
 8252SOL    HW136392   2.540   2.744  15.332  0.7239  0.2586  2.7316
 8252SOL    HW236393   2.666   2.728  15.263  0.7851  0.6730  1.0964
 8253SOL     OW36394   4.083   1.052   3.444 -0.5261 -0.7842  0.1827
 8253SOL    HW136395   4.129   1.059   3.361  1.0828  0.0245  1.1295
 8253SOL    HW236396   4.016   0.988   3.422  0.7189 -1.6906 -0.9685
 8254SOL     OW36397   3.099   0.477   5.682 -0.0665 -0.0563 -0.6506
 8254SOL    HW136398   3.060   0.479   5.769 -1.0667  0.4161 -1.1144
 8254SOL    HW236399   3.188   0.451   5.706 -0.2543  0.7111  0.8854
 8255SOL     OW36400   3.766   4.388   2.623  0.1757 -0.2546 -0.5869
 8255SOL    HW136401   3.783   4.481   2.641 -1.4818 -0.2838  1.2326
 8255SOL    HW236402   3.708   4.395   2.548  0.5299  0.7634 -0.7623
 8256SOL     OW36403   3.494   3.238   9.949 -0.4991 -0.4347  0.2291
 8256SOL    HW136404   3.482   3.285  10.031 -0.7456 -0.1213  0.0134
 8256SOL    HW236405   3.537   3.157   9.975 -4.5728 -2.6660 -0.1208
 8257SOL     OW36406   3.947   3.432   4.475  0.3126  0.0967 -0.6490
 8257SOL    HW136407   3.889   3.365   4.437  0.0851 -0.6909  1.0571
 8257SOL    HW236408   3.929   3.498   4.409  2.0647 -0.8504 -2.0531
 8258SOL     OW36409   1.938   2.885   7.942 -0.3753  0.0803  0.1082
 8258SOL    HW136410   1.849   2.899   7.976  0.0476  2.9585  0.0547
 8258SOL    HW236411   1.919   2.852   7.854  0.0006  1.4302 -0.4702
 8259SOL     OW36412   3.738   4.071  16.204  0.8741 -1.2541  0.0168
 8259SOL    HW136413   3.796   4.066  16.128  2.4848 -2.0194  1.3102
 8259SOL    HW236414   3.719   4.165  16.191  3.1802 -1.0612 -1.9189
 8260SOL     OW36415   3.145   4.216   5.603 -0.2577 -0.1388 -0.2743
 8260SOL    HW136416   3.052   4.239   5.612  0.0357 -0.3053  3.0274
 8260SOL    HW236417   3.149   4.212   5.508 -1.4127  0.8979 -0.3722
 8261SOL     OW36418   2.272   3.338  17.031  0.1191 -0.0005  0.2345
 8261SOL    HW136419   2.337   3.292  17.085 -1.1881 -1.1424  0.8340
 8261SOL    HW236420   2.298   3.319  16.941 -0.5835 -2.8748  0.6669
 8262SOL     OW36421   0.011   3.496   2.763 -0.3625  0.4302  0.0800
 8262SOL    HW136422   0.009   3.589   2.788  2.2704  0.9980 -1.8252
 8262SOL    HW236423   0.050   3.458   2.842 -0.8653  1.4568  0.8218
 8263SOL     OW36424   1.450   1.580  10.545  0.1860 -0.2443  0.1945
 8263SOL    HW136425   1.544   1.560  10.544  0.5547  1.4231  1.9800
 8263SOL    HW236426   1.428   1.531  10.466 -0.9994 -0.1059  0.4422
 8264SOL     OW36427   3.096   0.252   8.561 -0.1252  0.1544 -0.6408
 8264SOL    HW136428   3.058   0.237   8.474  0.4663 -2.5859 -0.4284
 8264SOL    HW236429   3.039   0.199   8.617  0.4769 -1.6248 -1.6925
 8265SOL     OW36430   2.602   2.924   9.718  0.3423 -0.3811 -0.3220
 8265SOL    HW136431   2.575   2.864   9.788  0.1937 -0.9467 -0.8637
 8265SOL    HW236432   2.549   3.001   9.738  1.4054  0.3868 -0.4486
 8266SOL     OW36433   1.889   4.387  11.512 -0.0438  0.3859 -0.2598
 8266SOL    HW136434   1.837   4.396  11.432 -1.1861 -1.8731  0.2298
 8266SOL    HW236435   1.821   4.376  11.578  1.2840 -2.6507  0.5911
 8267SOL     OW36436   4.254   2.629  13.072  0.1374  0.5426  0.1339
 8267SOL    HW136437   4.346   2.641  13.050 -0.1660  1.2524 -0.7625
 8267SOL    HW236438   4.275   2.598  13.160  0.5631 -0.1716 -0.2192
 8268SOL     OW36439   1.923   2.078   9.791  0.3590 -0.5865  0.6232
 8268SOL    HW136440   1.972   2.144   9.742 -0.8519 -1.3013 -1.5279
 8268SOL    HW236441   1.923   2.001   9.735 -2.4286 -1.0476  1.2410
 8269SOL     OW36442   3.529   1.348   6.246  0.2843  0.4266 -0.0254
 8269SOL    HW136443   3.466   1.277   6.260 -1.6884  1.7194 -2.3051
 8269SOL    HW236444   3.590   1.295   6.195  3.0759  2.4590  1.2118
 8270SOL     OW36445   2.343   0.900  10.272  0.2648 -0.5773 -0.2927
 8270SOL    HW136446   2.273   0.845  10.308 -1.3655 -0.1543 -2.7598
 8270SOL    HW236447   2.423   0.850  10.285 -0.3398 -0.8079  2.4924
 8271SOL     OW36448   0.348   3.256   4.512  0.2179  0.2515  0.0083
 8271SOL    HW136449   0.323   3.217   4.428 -0.4907  0.3545  0.1710
 8271SOL    HW236450   0.439   3.286   4.507  0.3058 -0.0170  0.0240
 8272SOL     OW36451   2.948   0.158  16.990 -0.4253 -0.1081 -0.3185
 8272SOL    HW136452   3.025   0.163  16.934 -0.7229  0.9677 -0.6424
 8272SOL    HW236453   2.896   0.234  16.961  0.6338 -0.0305 -2.0254
 8273SOL     OW36454   4.512   3.819   4.229  0.7793  0.0568 -0.0486
 8273SOL    HW136455   4.439   3.882   4.230 -0.4940 -1.4199  0.2317
 8273SOL    HW236456   4.501   3.784   4.318 -0.3919  2.3230  0.6919
 8274SOL     OW36457   4.060   4.251  16.569 -0.4808 -0.6577  0.2352
 8274SOL    HW136458   4.049   4.165  16.610 -1.6452 -0.8486 -0.4619
 8274SOL    HW236459   3.969   4.276  16.550 -0.4451  0.1764  1.1858
 8275SOL     OW36460   2.462   1.598   6.573  0.2761  0.7291  0.1442
 8275SOL    HW136461   2.382   1.622   6.527 -1.1029  0.4524  2.3793
 8275SOL    HW236462   2.470   1.667   6.638 -1.2178  1.3321 -0.3030
 8276SOL     OW36463   0.980   1.991  13.449 -0.0631  0.3971 -0.5298
 8276SOL    HW136464   0.992   2.074  13.495  2.3853  1.3462 -2.8799
 8276SOL    HW236465   0.992   1.931  13.522  1.8523  1.4926  0.0508
 8277SOL     OW36466   0.557   4.346  13.445 -0.1411 -0.5561 -0.1339
 8277SOL    HW136467   0.506   4.406  13.499  1.6583 -1.4601  2.5479
 8277SOL    HW236468   0.517   4.260  13.457  0.0627 -0.6229  0.0693
 8278SOL     OW36469   3.673   0.084   5.813  0.5813  0.1533 -0.5177
 8278SOL    HW136470   3.592   0.052   5.853  0.7994 -0.0284 -0.2173
 8278SOL    HW236471   3.665   0.052   5.723  2.3303 -2.3722  0.2093
 8279SOL     OW36472   1.203   1.325   4.505 -0.1384 -0.7403 -0.3801
 8279SOL    HW136473   1.235   1.329   4.416  1.6507  0.6932  0.3382
 8279SOL    HW236474   1.185   1.418   4.517 -2.2290 -1.1905 -0.0291
 8280SOL     OW36475   2.469   0.532   1.661  0.2389  0.0576  0.2640
 8280SOL    HW136476   2.470   0.622   1.691  1.5567  0.3634 -0.6583
 8280SOL    HW236477   2.491   0.540   1.568 -0.3135 -0.2067  0.1063
 8281SOL     OW36478   1.286   4.541  14.902  0.2936 -0.0572  0.0427
 8281SOL    HW136479   1.238   4.479  14.957  2.9534 -2.1669  0.0072
 8281SOL    HW236480   1.230   4.617  14.888 -0.0794 -0.1367  1.1164
 8282SOL     OW36481   4.081   1.371   6.867 -0.3687  0.2247  0.6554
 8282SOL    HW136482   4.151   1.433   6.888  0.2188 -0.3002  0.2572
 8282SOL    HW236483   4.128   1.311   6.809 -0.4948 -0.4544  1.2468
 8283SOL     OW36484   2.932   2.344  15.812  0.1997  0.0450  0.8492
 8283SOL    HW136485   2.871   2.313  15.745  2.0841 -0.7140 -0.4804
 8283SOL    HW236486   2.948   2.433  15.780  0.0563 -0.3636 -0.3733
 8284SOL     OW36487   4.264   1.893   6.524  0.2314  0.5136 -0.3152
 8284SOL    HW136488   4.308   1.808   6.534  3.6965  2.6083  1.9141
 8284SOL    HW236489   4.265   1.941   6.606 -2.7734  1.3619 -0.7470
 8285SOL     OW36490   2.978   3.850   8.276  0.7077 -0.4300  0.0526
 8285SOL    HW136491   2.956   3.891   8.359  0.5267  0.0387 -0.2224
 8285SOL    HW236492   2.971   3.756   8.290  0.1379  0.0186  2.7556
 8286SOL     OW36493   0.690   3.640   6.168  0.1938  0.1259 -0.3033
 8286SOL    HW136494   0.725   3.729   6.161 -0.2477  0.3664  0.6194
 8286SOL    HW236495   0.711   3.621   6.259  0.1063  2.6151  0.2363
 8287SOL     OW36496   0.978   2.709   7.445 -0.6801 -0.1671  0.2108
 8287SOL    HW136497   1.017   2.749   7.522 -0.8863 -1.3932  0.9540
 8287SOL    HW236498   1.021   2.756   7.374  0.6464 -2.2824 -0.3844
 8288SOL     OW36499   4.532   3.542   8.083  0.1820 -0.0892  0.5407
 8288SOL    HW136500   4.589   3.501   8.149  0.9446  1.3988  0.8149
 8288SOL    HW236501   4.581   3.526   8.002 -0.3227 -1.1511  0.4404
 8289SOL     OW36502   3.601   3.315   4.444  0.6620 -0.2152  0.4109
 8289SOL    HW136503   3.581   3.244   4.505  1.2104  0.1965  1.0588
 8289SOL    HW236504   3.641   3.257   4.379 -2.4136  0.1358 -1.8525
 8290SOL     OW36505   2.958   3.276   9.044 -0.0868 -0.3474 -0.3104
 8290SOL    HW136506   2.906   3.356   9.052  1.8113  0.6596  1.9698
 8290SOL    HW236507   3.041   3.323   9.037 -0.4958  0.3064 -0.8061
 8291SOL     OW36508   2.149   1.248   9.399  0.2669  0.1062 -0.4284
 8291SOL    HW136509   2.231   1.199   9.397  0.0367 -0.3280  1.2227
 8291SOL    HW236510   2.115   1.213   9.316  0.8904 -0.6240 -0.3817
 8292SOL     OW36511   3.319   1.704   8.651 -0.0383 -0.8485 -0.2855
 8292SOL    HW136512   3.295   1.778   8.594 -0.0927 -0.8318 -0.2406
 8292SOL    HW236513   3.362   1.639   8.595  0.6323 -0.6079 -0.0435
 8293SOL     OW36514   3.089   0.908  11.869 -0.5808  0.3091  0.9221
 8293SOL    HW136515   3.177   0.941  11.884 -1.3599  1.7529  2.3551
 8293SOL    HW236516   3.092   0.859  11.787 -1.4520  0.3719  0.8520
 8294SOL     OW36517   1.257   4.699  10.870 -0.7240 -0.7210  0.1689
 8294SOL    HW136518   1.165   4.718  10.890 -0.5394 -0.7727  1.0700
 8294SOL    HW236519   1.301   0.046  10.855 -1.0575 -0.3671  1.1398
 8295SOL     OW36520   2.135   0.251   5.245  0.3903  0.2079  0.0913
 8295SOL    HW136521   2.116   0.177   5.302 -1.0966 -0.1860 -0.8883
 8295SOL    HW236522   2.210   0.215   5.199  1.2003  0.1723  1.4515
 8296SOL     OW36523   2.845   1.295   9.583  0.7167 -0.8713  0.9658
 8296SOL    HW136524   2.869   1.296   9.491  2.5578 -1.1637  1.4437
 8296SOL    HW236525   2.880   1.369   9.633 -2.3419  1.8470 -0.8629
 8297SOL     OW36526   3.463   1.525   1.623 -0.1650 -0.2039 -0.5569
 8297SOL    HW136527   3.480   1.571   1.541  0.7305 -1.4847 -1.0916
 8297SOL    HW236528   3.433   1.600   1.675  4.3686  0.6113  0.8962
 8298SOL     OW36529   1.456   3.166  14.926  0.1646  0.0444 -0.7471
 8298SOL    HW136530   1.482   3.164  14.834 -0.8490 -0.5103 -1.0212
 8298SOL    HW236531   1.519   3.228  14.962 -1.0318  1.0606 -0.3762
 8299SOL     OW36532   2.966   1.312  17.617 -0.5033  0.7037  0.0482
 8299SOL    HW136533   2.933   1.222  17.605 -0.9105  1.0966 -1.7793
 8299SOL    HW236534   2.988   1.316  17.710 -0.2504 -1.5203  0.0779
 8300SOL     OW36535   0.895   2.964   3.177  0.0915 -0.3348  0.3545
 8300SOL    HW136536   0.938   2.891   3.222  0.1286  0.3849  1.5079
 8300SOL    HW236537   0.818   2.973   3.234 -0.0372 -0.5694  0.2207
 8301SOL     OW36538   0.335   3.893   5.874 -0.1030  0.0821  0.2562
 8301SOL    HW136539   0.339   3.878   5.779 -0.5898  1.1962  0.0611
 8301SOL    HW236540   0.402   3.832   5.906 -1.2264 -1.5668 -0.5250
 8302SOL     OW36541   1.496   3.144   6.663  0.3973 -0.0972 -0.9599
 8302SOL    HW136542   1.517   3.225   6.617  2.0444  0.1766  0.2809
 8302SOL    HW236543   1.441   3.186   6.730  2.9516  0.5528  0.7625
 8303SOL     OW36544   2.884   1.022  12.025  0.5176  0.6692 -0.0646
 8303SOL    HW136545   2.901   0.938  12.069  0.3005  0.6710  0.0260
 8303SOL    HW236546   2.935   0.996  11.949  0.3920 -1.7746  0.6529
 8304SOL     OW36547   0.768   1.286  17.361 -0.0366 -0.1196  0.1739
 8304SOL    HW136548   0.674   1.303  17.361 -0.0857 -0.3525 -2.0935
 8304SOL    HW236549   0.802   1.344  17.292  0.2366 -3.3552 -2.3952
 8305SOL     OW36550   3.379   2.393   3.278  0.0059 -0.3377 -0.0991
 8305SOL    HW136551   3.370   2.335   3.202 -2.6560 -1.0809  0.7581
 8305SOL    HW236552   3.406   2.469   3.228 -1.3950  0.2933  0.1186
 8306SOL     OW36553   2.005   2.718   8.692  0.0489  0.3225 -0.1450
 8306SOL    HW136554   1.943   2.778   8.735  0.4013 -0.5633  1.6155
 8306SOL    HW236555   2.090   2.749   8.722 -0.2212  0.2347  0.7142
 8307SOL     OW36556   3.516   2.241  16.901  0.0702 -0.1784 -0.3960
 8307SOL    HW136557   3.531   2.335  16.890 -0.2634  0.0898  1.3397
 8307SOL    HW236558   3.422   2.229  16.911  0.3603  0.5416  3.2351
 8308SOL     OW36559   3.118   2.487   6.877  0.1365  0.3182  0.1051
 8308SOL    HW136560   3.073   2.490   6.961 -1.0426 -1.2612 -0.4692
 8308SOL    HW236561   3.150   2.572   6.848  0.6858 -0.5981 -1.9846
 8309SOL     OW36562   1.759   2.673   8.474  0.9097 -0.3420 -0.5648
 8309SOL    HW136563   1.681   2.668   8.528  0.0050  1.9226 -1.6594
 8309SOL    HW236564   1.805   2.746   8.516  1.5616 -0.1623 -1.5879
 8310SOL     OW36565   1.315   2.642   2.897 -0.1914 -0.3931  0.0625
 8310SOL    HW136566   1.240   2.678   2.943  0.1846 -1.4982  1.5387
 8310SOL    HW236567   1.294   2.549   2.902  0.5568 -0.5989 -0.5080
 8311SOL     OW36568   2.340   1.015   5.520 -0.2888  0.1319  0.1089
 8311SOL    HW136569   2.324   0.928   5.482 -2.5456  0.4360  0.3809
 8311SOL    HW236570   2.254   1.055   5.533 -1.0192 -1.2725 -0.3778
 8312SOL     OW36571   1.323   3.039   4.754  0.1449 -0.5713  0.3548
 8312SOL    HW136572   1.309   2.983   4.830  0.2975 -0.9809  0.0794
 8312SOL    HW236573   1.234   3.043   4.719 -0.0644 -1.4304  0.7967
 8313SOL     OW36574   2.780   0.646  10.111  0.3867 -0.6837 -0.2961
 8313SOL    HW136575   2.731   0.707  10.166  0.5737 -0.3281 -0.5274
 8313SOL    HW236576   2.739   0.649  10.025  0.4081  1.9727 -0.2108
 8314SOL     OW36577   1.473   0.844   6.894 -0.3955 -0.3889 -0.2945
 8314SOL    HW136578   1.412   0.777   6.927  0.2450 -0.4872  0.6839
 8314SOL    HW236579   1.419   0.923   6.899 -2.9088 -2.0981 -0.1929
 8315SOL     OW36580   4.039   2.437   1.597 -0.4697 -0.4043  0.1024
 8315SOL    HW136581   4.118   2.415   1.647  0.7579  3.3707 -0.2236
 8315SOL    HW236582   4.071   2.434   1.507  1.9393  0.5016  0.9262
 8316SOL     OW36583   2.022   1.488   4.054  1.0763 -0.5104  0.1440
 8316SOL    HW136584   1.968   1.444   3.989 -0.7646  0.7002  0.8624
 8316SOL    HW236585   2.112   1.470   4.027  1.3678  1.4975 -0.2348
 8317SOL     OW36586   2.968   0.511   8.738 -0.3380  0.2947  0.5588
 8317SOL    HW136587   2.999   0.540   8.652 -0.4254 -0.0701  0.4037
 8317SOL    HW236588   3.046   0.496   8.790 -0.5071  2.0665  1.3359
 8318SOL     OW36589   3.129   0.115   4.194 -0.3871  0.4222  0.1276
 8318SOL    HW136590   3.057   0.156   4.146  0.0537 -0.7098 -1.4825
 8318SOL    HW236591   3.208   0.144   4.149  0.1111  1.2386  1.4926
 8319SOL     OW36592   3.667   3.891   7.993  0.3269 -0.3035 -0.0344
 8319SOL    HW136593   3.654   3.974   7.948 -1.5323 -0.8267 -0.4614
 8319SOL    HW236594   3.657   3.928   8.081 -2.8236 -1.4193  0.0814
 8320SOL     OW36595   0.429   2.448   8.802  0.7139  0.2905  0.3873
 8320SOL    HW136596   0.385   2.516   8.854 -0.2811  1.5603 -2.1457
 8320SOL    HW236597   0.504   2.431   8.860  3.0695  2.8114 -1.9125
 8321SOL     OW36598   4.225   1.688   8.008  0.2982 -1.0451 -0.1517
 8321SOL    HW136599   4.166   1.645   7.946 -1.1333  0.9555 -0.1598
 8321SOL    HW236600   4.173   1.762   8.038  3.2867  1.7356 -1.9586
 8322SOL     OW36601   4.023   1.252   3.093 -0.0110 -0.6784 -0.1951
 8322SOL    HW136602   4.096   1.251   3.030 -0.8725 -1.9817 -1.1651
 8322SOL    HW236603   3.971   1.187   3.047  0.1624 -1.0637  0.1583
 8323SOL     OW36604   0.828   3.527  16.894  0.1566  0.7897  0.7492
 8323SOL    HW136605   0.920   3.502  16.901 -0.0506 -0.2480 -0.2733
 8323SOL    HW236606   0.822   3.614  16.933  0.8572  0.8243  0.7749
 8324SOL     OW36607   4.634   0.593   1.816 -0.3711 -0.5552  0.2424
 8324SOL    HW136608   4.646   0.672   1.764 -0.0233 -1.8553 -1.6383
 8324SOL    HW236609   4.682   0.622   1.894  0.6628  1.2009 -1.0484
 8325SOL     OW36610   4.453   2.114   8.404  0.6211  0.1690  0.1120
 8325SOL    HW136611   4.368   2.151   8.426 -0.0820 -0.4882 -1.5109
 8325SOL    HW236612   4.429   2.037   8.353 -0.9268 -0.8597  2.3998
 8326SOL     OW36613   0.985   1.393  15.129  0.0247  0.4623  0.0710
 8326SOL    HW136614   0.924   1.377  15.200  0.9933 -0.3364  0.7218
 8326SOL    HW236615   1.074   1.377  15.161 -0.5289  1.5125  2.1504
 8327SOL     OW36616   1.211   2.164  13.634  0.0332 -0.0192 -0.1713
 8327SOL    HW136617   1.240   2.073  13.646  0.5685  0.5559  3.0400
 8327SOL    HW236618   1.279   2.197  13.576 -0.5013 -0.6907 -1.1675
 8328SOL     OW36619   0.169   1.266   5.732  0.4709  0.4445  0.4754
 8328SOL    HW136620   0.183   1.252   5.826 -2.6962 -1.1913  0.7254
 8328SOL    HW236621   0.253   1.304   5.707 -0.2278  1.9408  0.3437
 8329SOL     OW36622   1.726   1.127   5.262  0.1712 -0.7801  0.3476
 8329SOL    HW136623   1.690   1.086   5.183  0.8103 -2.4869  0.9387
 8329SOL    HW236624   1.762   1.206   5.222 -1.6189  0.6561  1.5938
 8330SOL     OW36625   0.661   3.364   2.479  0.0806  0.5505 -0.1730
 8330SOL    HW136626   0.738   3.355   2.535  1.5477 -2.6407 -2.7060
 8330SOL    HW236627   0.691   3.419   2.407  1.3630  2.1877  1.6275
 8331SOL     OW36628   0.255   2.536   4.123  0.2450 -0.1999 -0.0545
 8331SOL    HW136629   0.211   2.490   4.051 -0.6104  1.0866 -0.3740
 8331SOL    HW236630   0.301   2.599   4.068  1.7413 -0.7691  0.5631
 8332SOL     OW36631   3.475   4.078   5.686 -0.2419 -0.1354  0.2050
 8332SOL    HW136632   3.465   4.001   5.742  0.3663 -1.4817 -1.4922
 8332SOL    HW236633   3.570   4.083   5.691 -0.4285  0.9159  2.7796
 8333SOL     OW36634   3.805   1.217   6.187 -0.2286  0.0223 -0.6545
 8333SOL    HW136635   3.865   1.236   6.115 -0.6111  1.3917 -0.6242
 8333SOL    HW236636   3.871   1.213   6.255 -1.3765 -0.8791  0.3908
 8334SOL     OW36637   3.533   4.461  11.916 -0.0808  0.2349 -0.1985
 8334SOL    HW136638   3.604   4.399  11.896  0.1971  0.6964 -0.6283
 8334SOL    HW236639   3.596   4.531  11.932 -0.2313  0.5127 -0.8450
 8335SOL     OW36640   4.549   0.657  12.210 -0.3715  0.5960  0.2668
 8335SOL    HW136641   4.552   0.675  12.116  0.6852  0.1199  0.2034
 8335SOL    HW236642   4.608   0.581  12.216 -1.1562 -0.0867 -0.6385
 8336SOL     OW36643   2.659   0.039   8.124  0.1785  0.3720 -0.2649
 8336SOL    HW136644   2.667   0.118   8.178  0.2599  0.2316 -0.0732
 8336SOL    HW236645   2.621   4.717   8.189  2.2670 -1.5407 -0.7470
 8337SOL     OW36646   0.030   2.597  15.643  0.1627  0.0753  0.1739
 8337SOL    HW136647   0.042   2.608  15.737  0.8784 -0.2009  0.1110
 8337SOL    HW236648   4.679   2.559  15.650 -0.2425  0.7367 -1.1848
 8338SOL     OW36649   0.124   3.670  15.413 -0.0838  0.4065  0.0017
 8338SOL    HW136650   0.124   3.660  15.508 -0.8188  2.0099  0.1732
 8338SOL    HW236651   0.161   3.583  15.398  2.1646  1.8180 -2.5361
 8339SOL     OW36652   1.469   3.151   7.974 -0.7068  0.0832  0.3153
 8339SOL    HW136653   1.524   3.225   7.998  1.9186 -1.8531  0.2953
 8339SOL    HW236654   1.417   3.194   7.905 -1.0550  2.3136  1.9712
 8340SOL     OW36655   3.280   3.085  11.155 -0.3625  0.4251  0.2668
 8340SOL    HW136656   3.221   3.102  11.082 -0.8672  0.2105  0.6230
 8340SOL    HW236657   3.245   3.139  11.225 -2.0575 -0.5323  0.1376
 8341SOL     OW36658   3.544   0.462  11.102 -0.7825 -0.2030  0.3207
 8341SOL    HW136659   3.511   0.538  11.149 -0.9030  0.3869 -0.7026
 8341SOL    HW236660   3.632   0.495  11.082 -0.8480 -1.0591 -1.3895
 8342SOL     OW36661   0.793   0.302   2.805  0.5588 -0.2607 -0.1923
 8342SOL    HW136662   0.776   0.369   2.872 -0.5001 -1.3309  0.6185
 8342SOL    HW236663   0.877   0.272   2.841  0.4396  0.8093  1.0059
 8343SOL     OW36664   4.557   1.030   2.748  0.2101 -0.1192  0.2014
 8343SOL    HW136665   4.618   0.957   2.736  0.9889  0.4879  0.4833
 8343SOL    HW236666   4.470   0.999   2.726 -0.3892  2.0216 -0.4865
 8344SOL     OW36667   3.668   1.315   8.729 -0.0110  0.3605  0.0588
 8344SOL    HW136668   3.716   1.280   8.654  0.0419  0.6759 -0.0556
 8344SOL    HW236669   3.674   1.410   8.723 -1.4349  0.5783  2.5227
 8345SOL     OW36670   3.573   1.165   5.431 -0.2411  0.5914  0.4669
 8345SOL    HW136671   3.532   1.251   5.443  0.9550  1.0599  1.1849
 8345SOL    HW236672   3.489   1.121   5.418  0.3451  0.4043 -2.7043
 8346SOL     OW36673   2.460   1.060  15.812 -0.2215  0.1948  0.1163
 8346SOL    HW136674   2.503   1.111  15.743 -1.0572  0.8567  0.0918
 8346SOL    HW236675   2.387   1.029  15.758  1.5330 -0.7774 -1.7184
 8347SOL     OW36676   3.163   2.025  11.028  0.0649 -0.6692  0.5778
 8347SOL    HW136677   3.218   1.960  11.071 -1.6362 -2.7505 -0.4150
 8347SOL    HW236678   3.121   2.059  11.108  3.5763 -2.1043  3.0479
 8348SOL     OW36679   2.630   0.738   2.269 -0.7601  0.2913 -0.0648
 8348SOL    HW136680   2.725   0.739   2.274 -0.6808  0.3048 -1.6975
 8348SOL    HW236681   2.610   0.782   2.352  0.4043 -0.5259  0.6568
 8349SOL     OW36682   4.283   1.997   4.526 -0.6077 -0.0021 -0.4950
 8349SOL    HW136683   4.276   1.903   4.540 -1.5463  0.4168  1.9560
 8349SOL    HW236684   4.331   2.023   4.606  3.0563 -0.9190 -2.3849
 8350SOL     OW36685   2.766   2.249   5.424  0.2098  0.0713 -0.0193
 8350SOL    HW136686   2.730   2.295   5.348  2.0732 -0.2425 -1.0941
 8350SOL    HW236687   2.771   2.158   5.392  0.8877  0.1023  0.0034
 8351SOL     OW36688   1.891   1.683   8.748  0.2586 -0.3381 -0.4396
 8351SOL    HW136689   1.834   1.672   8.671  2.0239 -1.8844 -1.5339
 8351SOL    HW236690   1.833   1.723   8.812 -0.8425 -2.1926 -0.2821
 8352SOL     OW36691   2.595   2.121  12.784  0.2811 -0.0413 -0.1623
 8352SOL    HW136692   2.590   2.149  12.692 -1.1305 -0.3391 -0.1721
 8352SOL    HW236693   2.558   2.197  12.828  1.7736  1.1927 -1.0310
 8353SOL     OW36694   3.372   2.849   5.549  0.2719 -0.0610  0.5101
 8353SOL    HW136695   3.431   2.921   5.524 -1.4882  1.7901  1.6552
 8353SOL    HW236696   3.432   2.776   5.562  2.0458  1.7302  2.3604
 8354SOL     OW36697   0.799   3.605   5.270 -0.5516  0.2284 -0.4860
 8354SOL    HW136698   0.876   3.609   5.214 -0.2207  2.9560  0.1988
 8354SOL    HW236699   0.839   3.649   5.344 -1.0634  0.7346 -0.5125
 8355SOL     OW36700   1.403   3.879  10.003 -0.2967 -0.2024  0.0992
 8355SOL    HW136701   1.486   3.928   9.996 -1.7985  2.0775 -2.1122
 8355SOL    HW236702   1.356   3.919  10.076 -0.6216  0.5008 -0.4997
 8356SOL     OW36703   2.476   0.811  10.519 -0.2879 -0.3777  0.0627
 8356SOL    HW136704   2.495   0.735  10.576  0.8784  0.7700  1.2239
 8356SOL    HW236705   2.381   0.811  10.523 -0.3040 -3.0035 -0.0526
 8357SOL     OW36706   1.613   4.696   6.307 -0.0842 -0.5595 -0.2463
 8357SOL    HW136707   1.610   4.658   6.395 -2.0267  0.6016  0.1767
 8357SOL    HW236708   1.595   0.049   6.334  0.1735 -0.8415  0.8613
 8358SOL     OW36709   1.263   1.645   9.094  0.3924 -0.6552  0.2415
 8358SOL    HW136710   1.338   1.704   9.107  0.4213 -0.1509 -2.0743
 8358SOL    HW236711   1.196   1.670   9.157  0.7105  0.3578  0.1898
 8359SOL     OW36712   3.942   3.751  15.014  0.0792 -0.1652 -0.2308
 8359SOL    HW136713   3.946   3.823  14.951  1.0782  1.6846  1.9305
 8359SOL    HW236714   3.848   3.751  15.029 -0.0499  2.2576 -1.1531
 8360SOL     OW36715   3.336   1.495   7.678 -0.0973 -0.0351  0.3137
 8360SOL    HW136716   3.427   1.487   7.707 -0.1655 -2.5741 -0.1598
 8360SOL    HW236717   3.354   1.500   7.585  0.1135 -1.6895  0.2525
 8361SOL     OW36718   2.199   3.112   8.306  0.2575 -0.2101  0.6691
 8361SOL    HW136719   2.146   3.044   8.265  2.4557 -2.9063  2.2940
 8361SOL    HW236720   2.283   3.094   8.263 -1.0974 -1.8749 -1.2736
 8362SOL     OW36721   1.534   2.712  13.912 -0.0331 -0.4498 -0.4109
 8362SOL    HW136722   1.598   2.752  13.972  0.3989  0.1708 -1.2837
 8362SOL    HW236723   1.480   2.788  13.890  0.3928  0.4404  1.5622
 8363SOL     OW36724   0.035   0.514   6.508 -0.2457  0.1023 -0.2278
 8363SOL    HW136725   0.095   0.520   6.582 -0.1964  2.0471 -0.4307
 8363SOL    HW236726   4.696   0.464   6.541  0.6698 -1.9954 -1.2935
 8364SOL     OW36727   4.616   3.373  16.695 -0.0971  0.0260  0.0969
 8364SOL    HW136728   4.681   3.340  16.756  0.1471 -0.2341 -0.3004
 8364SOL    HW236729   4.629   3.306  16.628  1.8662  1.6873 -1.1857
 8365SOL     OW36730   2.475   3.662   4.658 -0.1666  0.1349  0.5566
 8365SOL    HW136731   2.451   3.573   4.684 -1.0048  0.8774  2.3395
 8365SOL    HW236732   2.450   3.722   4.727  1.3551  1.1158  0.2583
 8366SOL     OW36733   2.899   4.464   5.799 -0.0895 -0.8177 -0.3101
 8366SOL    HW136734   2.988   4.451   5.833  0.2970  0.7146 -0.7370
 8366SOL    HW236735   2.833   4.436   5.863  1.2048 -1.3532  0.8026
 8367SOL     OW36736   0.828   2.277   6.868  0.0061  0.7636 -0.6756
 8367SOL    HW136737   0.785   2.336   6.929 -1.8402 -0.5970 -0.6547
 8367SOL    HW236738   0.838   2.332   6.790  2.5205  1.6155  0.2329
 8368SOL     OW36739   4.417   2.208  17.449  0.2067  0.3991  0.5805
 8368SOL    HW136740   4.359   2.243  17.381  1.6489  1.7440  0.0635
 8368SOL    HW236741   4.377   2.239  17.530  0.3948 -0.0996  0.8624
 8369SOL     OW36742   0.421   1.558   1.397 -0.2315  0.2306 -0.2318
 8369SOL    HW136743   0.472   1.603   1.464  0.9579 -1.0832 -0.2596
 8369SOL    HW236744   0.363   1.492   1.435  0.7753 -0.9795 -0.7854
 8370SOL     OW36745   2.138   4.572   7.650  0.3277  0.4862  0.2004
 8370SOL    HW136746   2.061   4.568   7.593  1.4226  0.1145 -1.2248
 8370SOL    HW236747   2.118   4.512   7.723  1.1700 -0.6837 -0.5351
 8371SOL     OW36748   3.064   4.676   2.457  0.6051 -0.0030 -0.5195
 8371SOL    HW136749   2.995   4.659   2.393  0.1953  0.5263 -0.2154
 8371SOL    HW236750   3.053   4.597   2.511 -0.0868 -0.5996 -1.5421
 8372SOL     OW36751   3.832   3.087   7.705 -0.1389  0.1409 -0.1999
 8372SOL    HW136752   3.836   3.112   7.613  2.5463  1.3051  0.2543
 8372SOL    HW236753   3.747   3.123   7.731 -0.4719  2.0066 -3.8200
 8373SOL     OW36754   0.364   2.425   8.050  0.2650 -0.0746 -0.0583
 8373SOL    HW136755   0.457   2.438   8.069  0.6918 -2.6834 -0.2658
 8373SOL    HW236756   0.348   2.355   8.113  0.0594 -0.6331 -0.7201
 8374SOL     OW36757   3.253   4.004   6.593 -0.6103 -0.4782 -0.0802
 8374SOL    HW136758   3.211   4.085   6.563  1.2902  0.2189 -0.9077
 8374SOL    HW236759   3.282   4.021   6.682 -4.3351 -0.9217  1.2104
 8375SOL     OW36760   0.045   2.009  16.640 -0.2387 -0.4585  0.2479
 8375SOL    HW136761   0.071   2.085  16.691 -0.6448 -0.7536  0.8984
 8375SOL    HW236762   0.081   2.025  16.553  1.6674  0.3158  1.1920
 8376SOL     OW36763   4.257   0.658   2.567  0.1944 -0.3369  0.0243
 8376SOL    HW136764   4.301   0.669   2.652  0.2005  0.9117 -0.1328
 8376SOL    HW236765   4.174   0.630   2.604  1.2052  0.4502  2.9145
 8377SOL     OW36766   2.007   3.390   2.842  0.1618 -0.2972  0.0364
 8377SOL    HW136767   2.089   3.345   2.861  1.0778 -0.5329 -4.4986
 8377SOL    HW236768   2.036   3.447   2.772 -0.7952 -0.2165 -0.2918
 8378SOL     OW36769   3.931   0.049   2.954 -0.1954  0.0762 -0.6615
 8378SOL    HW136770   3.996   0.009   3.011 -0.8200  0.2062  0.1472
 8378SOL    HW236771   3.850   4.735   2.963 -0.2347  0.2011 -0.3472
 8379SOL     OW36772   3.770   0.136   4.460  0.2665  0.2001  0.4435
 8379SOL    HW136773   3.834   0.175   4.400  1.1344  0.3625  1.4914
 8379SOL    HW236774   3.796   0.165   4.547  1.9320 -0.8630  0.2952
 8380SOL     OW36775   3.700   0.156   1.485 -0.2118  0.0491  0.0577
 8380SOL    HW136776   3.695   0.244   1.520  2.0311  0.2890 -0.2301
 8380SOL    HW236777   3.724   0.111   1.566 -0.1444 -1.3858 -0.7515
 8381SOL     OW36778   4.329   4.692   4.972 -0.0099  0.0229  0.2630
 8381SOL    HW136779   4.400   4.718   5.031  1.1238 -1.2143 -0.5755
 8381SOL    HW236780   4.366   4.623   4.917  0.1324  0.4729 -0.1971
 8382SOL     OW36781   4.505   3.679   2.301 -0.1845 -0.3435  0.1197
 8382SOL    HW136782   4.442   3.668   2.371 -1.1400  0.2556 -0.6480
 8382SOL    HW236783   4.560   3.602   2.317 -0.9205 -1.0740 -0.8487
 8383SOL     OW36784   0.238   2.369  11.236  0.2332 -0.7185 -0.7217
 8383SOL    HW136785   0.212   2.438  11.176  2.0685 -1.0394 -1.8922
 8383SOL    HW236786   0.190   2.293  11.203 -1.4661  0.0496  0.0235
 8384SOL     OW36787   3.527   2.405   7.748  0.2081  0.1816  0.1768
 8384SOL    HW136788   3.588   2.443   7.684  0.0136  0.0493 -0.0863
 8384SOL    HW236789   3.588   2.375   7.815 -0.5338  0.9188  1.1627
 8385SOL     OW36790   1.433   2.990   8.258  0.2015  0.0462 -0.3353
 8385SOL    HW136791   1.444   3.036   8.175  0.5345 -0.8294 -0.7818
 8385SOL    HW236792   1.402   3.058   8.317  0.4035  1.2537 -1.6189
 8386SOL     OW36793   3.121   1.565  16.813  0.3101 -0.2169 -0.0757
 8386SOL    HW136794   3.029   1.586  16.825  0.1595 -0.7502 -0.3438
 8386SOL    HW236795   3.129   1.571  16.718  2.1661 -2.2285 -0.0471
 8387SOL     OW36796   0.953   1.540   5.983  0.0152  0.3337  0.0661
 8387SOL    HW136797   0.928   1.457   5.944  0.6057  0.2701 -0.1790
 8387SOL    HW236798   0.873   1.592   5.989  0.7965  1.5693 -0.0289
 8388SOL     OW36799   4.253   1.535   2.075 -0.1226 -0.4599 -0.7791
 8388SOL    HW136800   4.185   1.490   2.125 -1.6284  3.2390  0.5188
 8388SOL    HW236801   4.198   1.599   2.030  0.8078 -0.8248 -2.4465
 8389SOL     OW36802   3.051   1.310   3.580  0.0620  0.4046 -0.1378
 8389SOL    HW136803   2.978   1.250   3.598  0.7811 -0.1895  0.8031
 8389SOL    HW236804   3.072   1.300   3.487  0.7638  0.4620  0.0136
 8390SOL     OW36805   0.504   1.480  13.140 -0.3215  0.3590 -0.8704
 8390SOL    HW136806   0.477   1.391  13.115  1.7135 -0.4907 -0.0475
 8390SOL    HW236807   0.591   1.462  13.176 -2.0683 -1.4458  2.4429
 8391SOL     OW36808   2.863   0.675   8.086  0.1748 -0.0572 -0.2482
 8391SOL    HW136809   2.836   0.717   8.168  0.3790 -0.7110  0.1525
 8391SOL    HW236810   2.825   0.588   8.095 -2.2650  1.0852  0.4796
 8392SOL     OW36811   2.879   0.253   3.053 -0.2461  0.1964  0.3496
 8392SOL    HW136812   2.882   0.166   3.092  2.2897 -0.0389 -0.4277
 8392SOL    HW236813   2.965   0.290   3.071  0.8446 -1.2407 -1.9258
 8393SOL     OW36814   0.040   4.217  16.839 -0.2996 -0.4547 -0.7284
 8393SOL    HW136815   0.068   4.197  16.928  2.6380  0.7697 -1.3685
 8393SOL    HW236816   4.707   4.282  16.845 -1.6415 -1.6969 -2.7179
 8394SOL     OW36817   0.852   2.004   8.546  0.2599 -0.7137 -0.8776
 8394SOL    HW136818   0.802   2.085   8.554  0.8763 -0.3159 -1.0065
 8394SOL    HW236819   0.918   2.033   8.482 -0.5059 -0.4421 -1.5438
 8395SOL     OW36820   0.216   3.404  15.376 -0.4723 -0.0015  0.7040
 8395SOL    HW136821   0.198   3.314  15.402  1.9404 -0.5473  0.4943
 8395SOL    HW236822   0.308   3.395  15.350 -1.2945 -0.9000 -1.8656
 8396SOL     OW36823   0.621   1.016   5.501 -0.2640  0.3518 -0.5176
 8396SOL    HW136824   0.546   1.024   5.559  1.2123  0.5649  1.3815
 8396SOL    HW236825   0.662   0.933   5.529  0.5623  0.9528  0.0773
 8397SOL     OW36826   0.459   3.181   2.236 -0.0063 -0.0835  0.2876
 8397SOL    HW136827   0.554   3.172   2.251  0.2510 -0.5131 -1.7219
 8397SOL    HW236828   0.455   3.134   2.153  0.0677  0.8468 -0.2343
 8398SOL     OW36829   1.265   0.532   8.371  0.6728 -0.0249 -0.2004
 8398SOL    HW136830   1.333   0.474   8.337  0.2306 -0.1671 -0.8369
 8398SOL    HW236831   1.289   0.537   8.464  0.6482 -0.4780 -0.1695
 8399SOL     OW36832   4.115   1.022  15.502  0.0197 -0.3973 -0.4136
 8399SOL    HW136833   4.074   0.946  15.461 -1.4216 -0.1480  0.5500
 8399SOL    HW236834   4.193   0.977  15.535 -0.1028  1.2563  2.1124
 8400SOL     OW36835   2.981   3.347   7.518 -0.3678  0.3283  0.1446
 8400SOL    HW136836   3.015   3.259   7.530 -0.1406  0.3345 -0.4528
 8400SOL    HW236837   2.906   3.340   7.459  0.1858 -0.3177 -0.4682
 8401SOL     OW36838   4.577   2.251   8.591  0.0020 -0.7575 -0.1472
 8401SOL    HW136839   4.519   2.221   8.520  0.0442 -0.3318 -0.3629
 8401SOL    HW236840   4.517   2.282   8.659  0.4103  0.5914 -0.4030
 8402SOL     OW36841   2.181   2.890  12.895 -0.4114 -0.1484 -0.0161
 8402SOL    HW136842   2.179   2.876  12.800 -0.9908  3.3267 -0.5061
 8402SOL    HW236843   2.271   2.919  12.913 -0.7885  1.8257 -1.2951
 8403SOL     OW36844   2.359   4.052  15.521 -0.0879  0.2144 -0.5663
 8403SOL    HW136845   2.378   4.013  15.606  1.8559 -0.8904 -1.5016
 8403SOL    HW236846   2.360   3.973  15.467  2.5737 -0.3291  0.2955
 8404SOL     OW36847   3.210   2.895   9.136  0.1084 -0.2377  0.4944
 8404SOL    HW136848   3.172   2.925   9.053 -0.1845 -0.2016  0.6453
 8404SOL    HW236849   3.200   2.969   9.195  0.7847  0.1843  0.0902
 8405SOL     OW36850   3.212   3.813   9.396  0.4944 -0.5482  0.7039
 8405SOL    HW136851   3.163   3.895   9.398  1.0284 -0.1907 -1.2412
 8405SOL    HW236852   3.160   3.759   9.337 -0.8890  1.4147  0.1146
 8406SOL     OW36853   1.609   0.773   6.536 -0.3681  0.1916  0.1269
 8406SOL    HW136854   1.532   0.803   6.585 -0.4901  0.0322  0.0316
 8406SOL    HW236855   1.619   0.856   6.490  1.9157  0.3047  0.8355
 8407SOL     OW36856   1.355   0.867   6.655  0.3351  0.0960  0.0747
 8407SOL    HW136857   1.398   0.846   6.738 -0.8478 -1.8768  0.2050
 8407SOL    HW236858   1.268   0.893   6.686  0.5640  0.7623  0.1516
 8408SOL     OW36859   0.630   0.321   3.998  0.0055  0.5128 -0.1062
 8408SOL    HW136860   0.649   0.227   4.000 -0.5347  0.3576 -1.9413
 8408SOL    HW236861   0.711   0.359   3.964  0.8564 -0.0022  1.3206
 8409SOL     OW36862   0.239   0.447  14.585 -0.1571 -0.5515 -0.5618
 8409SOL    HW136863   0.323   0.492  14.595 -0.9516  1.5302 -3.1709
 8409SOL    HW236864   0.255   0.373  14.527 -0.4657 -2.0034  1.2294
 8410SOL     OW36865   4.290   0.056  16.975  0.2508 -0.0076  0.5047
 8410SOL    HW136866   4.214   0.027  16.924 -0.2035  1.6522  0.2336
 8410SOL    HW236867   4.283   0.150  16.957  0.5178  0.0825  0.8844
 8411SOL     OW36868   0.482   1.609   3.426 -0.6929  0.0663  0.4276
 8411SOL    HW136869   0.559   1.593   3.371 -0.8817 -2.4519  0.9247
 8411SOL    HW236870   0.473   1.531   3.480 -0.3830  0.1540  0.6051
 8412SOL     OW36871   2.228   2.039   4.082  0.0876  0.1690  0.6898
 8412SOL    HW136872   2.209   2.132   4.072  1.1773  0.1193 -1.9125
 8412SOL    HW236873   2.145   2.004   4.115  1.0597 -1.0050  1.8888
 8413SOL     OW36874   1.889   0.743   1.844 -0.1496  0.1438 -0.0044
 8413SOL    HW136875   1.902   0.821   1.899  2.3558 -0.5668  0.3892
 8413SOL    HW236876   1.814   0.700   1.886  0.3289 -0.1309  0.5623
 8414SOL     OW36877   3.707   3.619  14.347  0.2495  0.6459  0.0170
 8414SOL    HW136878   3.745   3.552  14.290  2.5311  0.8295  1.3320
 8414SOL    HW236879   3.642   3.661  14.291 -0.3126 -0.3974 -0.1163
 8415SOL     OW36880   1.040   2.107   4.381  0.1198 -0.3995  0.5952
 8415SOL    HW136881   1.034   2.202   4.392  1.4424 -0.1357 -1.0394
 8415SOL    HW236882   0.957   2.095   4.335  0.1555  1.2955  0.0875
 8416SOL     OW36883   4.513   1.200   3.006  0.1009 -0.2886  0.8817
 8416SOL    HW136884   4.509   1.125   3.066  3.8326 -1.0401  0.2042
 8416SOL    HW236885   4.518   1.156   2.921 -1.0203 -0.4233  0.8887
 8417SOL     OW36886   0.738   2.609  16.006  0.3467  0.4684  0.6011
 8417SOL    HW136887   0.679   2.546  16.048 -1.2350  2.1166  0.8965
 8417SOL    HW236888   0.794   2.551  15.955  0.0902  0.1194  0.7134
 8418SOL     OW36889   4.631   0.031   3.135 -0.1663  0.1385 -0.0862
 8418SOL    HW136890   4.726   0.031   3.146 -0.3006 -3.0774  1.0062
 8418SOL    HW236891   4.608   0.117   3.100 -0.0121  0.7086  1.2076
 8419SOL     OW36892   3.978   2.117   5.825  0.0388  0.6001  0.0408
 8419SOL    HW136893   3.910   2.121   5.759 -0.3371  1.6706  0.4863
 8419SOL    HW236894   3.940   2.141   5.910 -0.6652 -0.2309 -0.0491
 8420SOL     OW36895   3.572   3.610  17.534  0.9511  0.0397  0.1695
 8420SOL    HW136896   3.649   3.570  17.574  1.0211 -1.0873 -1.0960
 8420SOL    HW236897   3.617   3.686  17.497 -1.2986  0.4103 -1.8453
 8421SOL     OW36898   1.504   0.047  11.619  0.1754 -0.7483 -0.2535
 8421SOL    HW136899   1.539   0.025  11.533 -0.0236  0.9130 -0.7482
 8421SOL    HW236900   1.515   4.704  11.673 -1.7202 -1.5998 -1.1479
 8422SOL     OW36901   4.260   2.410   0.214  0.4455 -0.3075 -0.2264
 8422SOL    HW136902   4.165   2.402   0.219  0.5853 -0.4775  2.2095
 8422SOL    HW236903   4.289   2.364   0.293  0.8061 -0.6151 -0.5355
 8423SOL     OW36904   3.350   4.161   2.629  0.2348 -0.6730 -0.5137
 8423SOL    HW136905   3.404   4.180   2.552 -1.2059  1.3938 -1.0305
 8423SOL    HW236906   3.394   4.081   2.657  1.7565  0.4273  0.3102
 8424SOL     OW36907   0.228   2.270  17.143  0.6653  0.1226 -0.1662
 8424SOL    HW136908   0.276   2.188  17.153  1.1596  0.2528 -1.5408
 8424SOL    HW236909   0.276   2.334  17.197  3.2196 -0.1235 -2.1244
 8425SOL     OW36910   1.212   0.008   2.423  0.2005 -0.0924 -0.1720
 8425SOL    HW136911   1.246   4.680   2.361 -0.1135 -0.4718  0.0552
 8425SOL    HW236912   1.231   0.092   2.381  0.7393  0.2030  0.6476
 8426SOL     OW36913   2.490   4.206   7.150 -0.1963  0.1622 -0.1403
 8426SOL    HW136914   2.553   4.251   7.094  1.4277 -0.3845  1.2361
 8426SOL    HW236915   2.434   4.282   7.165  0.3489  1.1401 -3.0862
 8427SOL     OW36916   1.936   3.607   8.734 -0.6313  0.0193  0.1370
 8427SOL    HW136917   1.863   3.666   8.716 -0.8431  0.2722  1.8084
 8427SOL    HW236918   1.902   3.517   8.729  0.8397 -0.5701  0.7052
 8428SOL     OW36919   0.959   0.956   4.862 -0.3725  0.2529  0.1877
 8428SOL    HW136920   1.004   0.971   4.945  0.2229  1.7380 -0.4123
 8428SOL    HW236921   1.012   0.904   4.802 -0.9816  0.7824 -0.8175
 8429SOL     OW36922   0.462   2.745   6.439 -0.2088 -0.5837  0.3520
 8429SOL    HW136923   0.509   2.676   6.392  2.2535  1.1383  0.3081
 8429SOL    HW236924   0.376   2.732   6.397  1.1405 -0.1470 -2.5798
 8430SOL     OW36925   2.926   4.608  11.943  0.4460  0.4241  0.5678
 8430SOL    HW136926   3.018   4.619  11.966  0.1775  0.4631  1.6242
 8430SOL    HW236927   2.929   4.572  11.854 -0.2737 -3.1611  1.9654
 8431SOL     OW36928   3.265   0.384   0.135  0.1200 -0.1405 -0.3841
 8431SOL    HW136929   3.192   0.427   0.179 -0.7072  0.3952 -2.2995
 8431SOL    HW236930   3.337   0.408   0.193 -1.0217 -1.0543  1.4003
 8432SOL     OW36931   1.631   1.031   4.271 -0.1596 -0.5793 -0.5366
 8432SOL    HW136932   1.651   1.125   4.270 -3.9808  0.2014 -0.0221
 8432SOL    HW236933   1.610   1.029   4.177 -1.3392 -4.1949 -0.1915
 8433SOL     OW36934   1.894   1.470   4.301  0.3296  0.3337 -0.1983
 8433SOL    HW136935   1.968   1.491   4.359  2.0401 -1.7715 -1.6221
 8433SOL    HW236936   1.935   1.482   4.215  0.9303 -2.7746 -0.3352
 8434SOL     OW36937   0.911   1.612  15.393 -0.7400 -0.3903 -0.4898
 8434SOL    HW136938   1.005   1.596  15.394 -0.5800  0.6613  1.5083
 8434SOL    HW236939   0.874   1.524  15.384 -0.3400 -0.4577 -1.3974
 8435SOL     OW36940   0.661   4.298   1.692  0.2805 -0.1582  0.0405
 8435SOL    HW136941   0.584   4.242   1.702 -2.0336  2.6357 -2.0572
 8435SOL    HW236942   0.723   4.227   1.675  0.4809 -0.2140  1.0012
 8436SOL     OW36943   0.017   1.893   3.284  0.2907  0.2170  0.5672
 8436SOL    HW136944   0.069   1.973   3.281 -1.0018  1.0060 -1.3729
 8436SOL    HW236945   0.061   1.834   3.223  1.1011  0.6438  0.7344
 8437SOL     OW36946   1.593   4.034   7.039 -0.2699 -0.9151  0.3182
 8437SOL    HW136947   1.674   4.082   7.058  0.1299 -0.8501 -1.5497
 8437SOL    HW236948   1.550   4.046   7.124  0.1220  0.1031  0.3845
 8438SOL     OW36949   3.400   2.170   2.720 -0.0115  0.0101 -0.1617
 8438SOL    HW136950   3.440   2.255   2.698  0.2117 -0.4619 -1.5422
 8438SOL    HW236951   3.466   2.110   2.686  0.4695  0.6475 -0.3587
 8439SOL     OW36952   3.316   3.041   9.598 -0.2541  0.3646 -0.0894
 8439SOL    HW136953   3.235   2.991   9.607 -1.2100  2.6859  4.1092
 8439SOL    HW236954   3.297   3.085   9.515  1.4602  0.1243 -0.6253
 8440SOL     OW36955   0.304   0.298   6.499  0.2182 -0.2389 -0.1301
 8440SOL    HW136956   0.376   0.235   6.494  0.3357 -0.3435  3.0438
 8440SOL    HW236957   0.270   0.266   6.583  1.9311  0.0571  0.6652
 8441SOL     OW36958   3.520   4.086  11.884  0.8669  0.1377 -0.6375
 8441SOL    HW136959   3.493   4.131  11.804 -1.1373  2.2329  1.2113
 8441SOL    HW236960   3.459   4.012  11.884  1.4986 -0.3980  3.3964
 8442SOL     OW36961   4.567   0.628   3.546 -0.4498 -0.1551  0.5017
 8442SOL    HW136962   4.521   0.711   3.559 -1.3024 -0.1339 -2.5130
 8442SOL    HW236963   4.508   0.582   3.486 -1.3570  0.8248  0.6443
 8443SOL     OW36964   0.665   3.630   8.238 -0.3293  0.1029  0.2968
 8443SOL    HW136965   0.619   3.628   8.322  0.0259 -2.6895  0.4231
 8443SOL    HW236966   0.746   3.679   8.250  0.1289 -0.5016 -0.3758
 8444SOL     OW36967   1.429   3.457   3.388 -0.4456  0.3198 -0.1234
 8444SOL    HW136968   1.496   3.505   3.339  1.1467 -2.6749 -0.8472
 8444SOL    HW236969   1.363   3.524   3.407 -0.7905  0.0677 -0.4343
 8445SOL     OW36970   3.719   0.506  13.112  0.1195 -0.3371 -0.6216
 8445SOL    HW136971   3.744   0.561  13.186  0.9254  1.4978 -2.2453
 8445SOL    HW236972   3.695   0.429  13.163 -0.2967 -0.0298 -0.3462
 8446SOL     OW36973   2.777   2.680   2.278 -0.1484 -0.0235  0.1573
 8446SOL    HW136974   2.850   2.711   2.226  1.0291  0.0456  1.8673
 8446SOL    HW236975   2.757   2.752   2.338  1.0498  1.4160 -1.1903
 8447SOL     OW36976   4.337   4.395  13.672  0.0561  0.4473  0.1632
 8447SOL    HW136977   4.293   4.397  13.587  1.1697  0.5195 -0.4093
 8447SOL    HW236978   4.428   4.383  13.647  0.1891  0.5158  0.6022
 8448SOL     OW36979   1.489   4.078  12.376 -0.3920  0.3782  0.2775
 8448SOL    HW136980   1.445   4.015  12.319 -1.3822  0.6682  0.7295
 8448SOL    HW236981   1.468   4.027  12.455  0.4744 -0.2749  0.0875
 8449SOL     OW36982   2.965   1.305   6.996  0.3608  0.0562 -0.3034
 8449SOL    HW136983   2.877   1.344   7.001 -0.0031 -1.1097  2.5242
 8449SOL    HW236984   2.933   1.215   6.994  0.6981 -0.0446 -1.2794
 8450SOL     OW36985   2.670   4.045   7.318 -0.1175  0.1152  0.6388
 8450SOL    HW136986   2.587   4.067   7.275 -0.1646  1.5695  1.4620
 8450SOL    HW236987   2.739   4.059   7.254  0.9314  0.0056  1.7570
 8451SOL     OW36988   1.601   0.733   2.578  0.2769 -0.3500  0.1568
 8451SOL    HW136989   1.616   0.661   2.516  0.1396  0.0216 -0.3069
 8451SOL    HW236990   1.676   0.713   2.634 -0.3782 -0.1474  1.1076
 8452SOL     OW36991   1.318   3.294   5.255  0.0444 -0.5153 -0.4807
 8452SOL    HW136992   1.312   3.345   5.175 -1.2351 -0.8150 -0.5799
 8452SOL    HW236993   1.254   3.341   5.308  1.5095 -1.0228  1.7598
 8453SOL     OW36994   3.699   4.498   1.414 -0.4556  0.1964 -0.1430
 8453SOL    HW136995   3.702   4.573   1.355 -0.4407  2.8008  3.1835
 8453SOL    HW236996   3.787   4.500   1.451 -1.1315  0.2289  1.4482
 8454SOL     OW36997   0.107   0.277   0.144 -0.7239 -0.3700 -0.1215
 8454SOL    HW136998   0.020   0.243   0.119  0.0607 -1.4830 -1.3340
 8454SOL    HW236999   0.159   0.213   0.096  1.3685  1.1178  0.1963
 8455SOL     OW37000   0.722   1.389   9.255 -0.3402  0.7734  0.1658
 8455SOL    HW137001   0.645   1.445   9.243 -0.3578  0.6778 -0.1708
 8455SOL    HW237002   0.688   1.304   9.283 -1.0781  1.0344  0.0691
 8456SOL     OW37003   1.864   1.910   7.554 -0.2597 -0.5461 -0.5823
 8456SOL    HW137004   1.938   1.854   7.531  0.8732  1.4684 -1.8074
 8456SOL    HW237005   1.902   1.973   7.615 -1.9280 -0.3266  0.2117
 8457SOL     OW37006   0.216   0.255   8.013  0.1373 -0.0428  0.1798
 8457SOL    HW137007   0.189   0.305   7.936 -1.1458 -1.6126 -0.3954
 8457SOL    HW237008   0.131   0.230   8.050 -1.3079  1.7900 -1.9130
 8458SOL     OW37009   1.268   3.284   8.780  0.7964 -0.6524  0.3553
 8458SOL    HW137010   1.192   3.232   8.754 -0.2655  1.1123  0.0002
 8458SOL    HW237011   1.241   3.374   8.766 -0.2860 -0.7922  1.5553
 8459SOL     OW37012   1.702   2.337   3.560 -0.0468  0.2247  0.7646
 8459SOL    HW137013   1.788   2.332   3.518 -1.4605 -0.9127 -1.9428
 8459SOL    HW237014   1.728   2.294   3.642 -0.1233 -2.9526 -0.9005
 8460SOL     OW37015   0.011   2.811   1.206 -0.0521  0.3976 -0.5841
 8460SOL    HW137016   4.682   2.880   1.217 -0.5088 -0.4306  1.7549
 8460SOL    HW237017   4.693   2.742   1.167  1.0267 -0.9632  0.3122
 8461SOL     OW37018   2.402   0.973  10.017 -0.4707 -0.2132  0.3885
 8461SOL    HW137019   2.379   0.938  10.103  0.8498  0.0020  0.8274
 8461SOL    HW237020   2.495   0.992  10.020 -0.2762 -0.8815 -1.6013
 8462SOL     OW37021   0.660   3.382   8.097 -0.0007 -0.3390  0.2565
 8462SOL    HW137022   0.706   3.352   8.175 -0.9402  0.5186  1.1401
 8462SOL    HW237023   0.655   3.475   8.116 -3.4145 -0.1832 -1.3008
 8463SOL     OW37024   2.967   4.007   2.384  0.2031 -0.2496  0.1286
 8463SOL    HW137025   3.010   3.981   2.465 -1.5647  0.8094  1.4204
 8463SOL    HW237026   2.883   3.960   2.387 -0.4485  0.9122  0.1427
 8464SOL     OW37027   2.134   1.488   4.458 -0.0605  0.4328 -0.3185
 8464SOL    HW137028   2.150   1.397   4.433  0.2501  0.5166 -0.4223
 8464SOL    HW237029   2.202   1.540   4.415 -1.1709  3.5229  1.6581
 8465SOL     OW37030   1.045   1.911   7.091  0.0077 -0.2957  0.1518
 8465SOL    HW137031   1.049   1.877   7.181  1.9982 -2.0255 -0.5792
 8465SOL    HW237032   1.059   1.829   7.044 -3.7393 -0.0804 -1.3056
 8466SOL     OW37033   4.433   1.249   2.510 -0.3344  0.1296  0.4015
 8466SOL    HW137034   4.421   1.178   2.447 -0.4963 -0.2333  0.8462
 8466SOL    HW237035   4.439   1.198   2.590  0.4097 -0.7226 -0.2061
 8467SOL     OW37036   1.576   0.887  11.383 -0.2543 -0.8125  0.3286
 8467SOL    HW137037   1.545   0.815  11.439 -1.0268 -0.2991  0.5651
 8467SOL    HW237038   1.629   0.931  11.448 -0.9456  0.0823  0.2874
 8468SOL     OW37039   2.108   2.336   1.825 -0.0495  0.2521 -0.2353
 8468SOL    HW137040   2.046   2.309   1.757  0.7127 -0.1846 -0.7499
 8468SOL    HW237041   2.054   2.397   1.875 -1.3661 -1.4152  0.4172
 8469SOL     OW37042   4.322   4.295  13.937 -0.3743  0.5800  0.2999
 8469SOL    HW137043   4.290   4.219  13.888  1.4539 -0.7674  1.1916
 8469SOL    HW237044   4.317   4.353  13.861  0.0150  0.4333  0.1661
 8470SOL     OW37045   4.341   4.114   1.863 -0.8262 -0.7691 -0.0895
 8470SOL    HW137046   4.404   4.083   1.928 -0.4894  0.5636  0.2243
 8470SOL    HW237047   4.378   4.176   1.800 -2.1508 -0.4329 -0.5510
 8471SOL     OW37048   0.535   3.988   3.885  0.0530 -0.0107  0.1936
 8471SOL    HW137049   0.478   3.927   3.931 -2.0633  2.2883  0.6468
 8471SOL    HW237050   0.623   3.957   3.905  1.3232  2.4089 -1.5323
 8472SOL     OW37051   3.717   2.682   3.988 -0.0006 -0.3960  0.3885
 8472SOL    HW137052   3.698   2.638   3.906  1.3747  2.0239 -1.2313
 8472SOL    HW237053   3.633   2.723   4.004 -0.4213 -1.0086 -0.2701
 8473SOL     OW37054   0.191   1.809   7.650  0.1239 -0.0539  0.0795
 8473SOL    HW137055   0.182   1.753   7.573 -0.7575  0.0625  0.0925
 8473SOL    HW237056   0.186   1.735   7.710  0.8622 -2.9083 -3.4146
 8474SOL     OW37057   0.547   4.380   5.270 -0.1814 -0.1685 -0.3090
 8474SOL    HW137058   0.603   4.302   5.268  0.6624  0.4560 -0.9221
 8474SOL    HW237059   0.523   4.391   5.178 -2.2669  1.4908  0.4290
 8475SOL     OW37060   3.343   0.916   9.890  0.5223  0.0119  0.3252
 8475SOL    HW137061   3.418   0.881   9.939 -0.5385 -0.3650  1.6810
 8475SOL    HW237062   3.393   0.978   9.838 -1.1989  1.1398  0.0298
 8476SOL     OW37063   1.519   4.150   6.612 -0.2562  0.8817  0.0978
 8476SOL    HW137064   1.543   4.087   6.680  1.9285 -1.7447 -3.1090
 8476SOL    HW237065   1.426   4.130   6.601  0.5907 -1.8454 -1.9705
 8477SOL     OW37066   3.670   3.282   5.232  0.2402 -0.0062 -0.4632
 8477SOL    HW137067   3.693   3.205   5.180 -2.0185 -1.2118  0.3289
 8477SOL    HW237068   3.582   3.306   5.205  0.1534  1.0691  0.7805
 8478SOL     OW37069   4.060   3.698   9.017 -0.2476 -0.7083  0.2124
 8478SOL    HW137070   4.139   3.647   9.002  0.9895  1.1217  0.5574
 8478SOL    HW237071   4.090   3.785   9.042 -0.3083 -0.8237  0.6977
 8479SOL     OW37072   2.571   4.258   6.604  0.4067 -0.1831 -0.3023
 8479SOL    HW137073   2.527   4.215   6.677  1.6323 -0.7886  0.0938
 8479SOL    HW237074   2.647   4.203   6.585 -0.9021 -1.2208 -2.5002
 8480SOL     OW37075   0.999   3.780   6.442  0.2496 -0.4660 -0.1279
 8480SOL    HW137076   0.941   3.806   6.371 -0.3592  2.5485  1.5036
 8480SOL    HW237077   0.942   3.771   6.518  2.2986  3.3000  1.8396
 8481SOL     OW37078   1.690   3.642  11.565 -0.0080  0.6244 -0.2270
 8481SOL    HW137079   1.642   3.720  11.590 -2.7317 -0.1691 -3.1307
 8481SOL    HW237080   1.615   3.591  11.534 -1.6702  3.5111 -0.9024
 8482SOL     OW37081   2.668   4.158   6.919  0.0555  0.6550  0.0506
 8482SOL    HW137082   2.683   4.063   6.917 -1.7164  0.3567  0.5667
 8482SOL    HW237083   2.737   4.191   6.861  0.5463  1.3688  1.0472
 8483SOL     OW37084   0.251   3.522  11.362  0.2828 -0.6340  0.6225
 8483SOL    HW137085   0.165   3.547  11.396  0.3760 -1.4449  1.4839
 8483SOL    HW237086   0.232   3.433  11.331 -0.4714  0.7171 -2.7941
 8484SOL     OW37087   0.744   0.392  10.590 -0.1877  0.1652  0.1452
 8484SOL    HW137088   0.736   0.311  10.540  2.2564  0.3152 -0.5130
 8484SOL    HW237089   0.839   0.401  10.598 -0.2410 -0.1907  1.1787
 8485SOL     OW37090   1.476   1.851   2.608 -0.2358  0.3745 -0.2494
 8485SOL    HW137091   1.476   1.758   2.627  3.1019  0.6649  1.1447
 8485SOL    HW237092   1.564   1.890   2.603  0.4439 -0.9789  1.3503
 8486SOL     OW37093   4.732   3.964   0.979  0.0206 -0.0603 -0.3540
 8486SOL    HW137094   0.069   3.991   1.035 -0.2828  1.6194 -0.7426
 8486SOL    HW237095   0.049   3.939   0.903  1.3488  1.0472  0.2050
 8487SOL     OW37096   2.470   0.976   2.109 -0.3474  0.5006 -0.3961
 8487SOL    HW137097   2.497   0.987   2.201  3.4907 -0.4109 -1.4201
 8487SOL    HW237098   2.524   0.908   2.070 -0.8833  0.4621 -1.0540
 8488SOL     OW37099   0.129   0.411   0.729  0.3579 -0.1234 -0.3982
 8488SOL    HW137100   0.058   0.346   0.733  0.5761 -0.2918  0.7472
 8488SOL    HW237101   0.106   0.435   0.639 -1.0699  1.0246  0.2791
 8489SOL     OW37102   1.193   1.685   9.624  0.1244  0.7492 -0.0431
 8489SOL    HW137103   1.230   1.701   9.711  2.3083 -0.4243 -0.7369
 8489SOL    HW237104   1.184   1.770   9.582  0.3087  0.1419 -1.3186
 8490SOL     OW37105   0.755   2.364   6.370  0.8653  0.0344 -0.3059
 8490SOL    HW137106   0.707   2.282   6.358  1.6528 -0.6474  1.2376
 8490SOL    HW237107   0.842   2.336   6.341  0.2401 -1.0275 -1.1315
 8491SOL     OW37108   2.743   2.456   9.482 -0.6012 -0.1819  0.6462
 8491SOL    HW137109   2.662   2.405   9.493  0.1791 -1.3915  0.7741
 8491SOL    HW237110   2.706   2.520   9.421  0.9387 -1.3601 -1.5310
 8492SOL     OW37111   0.891   0.621   6.548  0.7768 -0.5599 -0.3692
 8492SOL    HW137112   0.916   0.638   6.457  2.7411  2.2850  0.6834
 8492SOL    HW237113   0.817   0.561   6.543 -0.0211  0.2822  1.3423
 8493SOL     OW37114   3.479   4.651   6.682  0.1651 -0.4099 -0.1348
 8493SOL    HW137115   3.401   4.690   6.643  1.1634 -0.9555 -2.6304
 8493SOL    HW237116   3.547   4.716   6.663 -2.1394  0.7087 -4.6079
 8494SOL     OW37117   2.882   2.177   1.195 -0.1232  0.3683 -0.0225
 8494SOL    HW137118   2.920   2.264   1.185 -1.7355  0.9380 -1.3033
 8494SOL    HW237119   2.962   2.125   1.189 -0.8545 -0.7494 -0.1781
 8495SOL     OW37120   3.343   3.269   0.169  0.0424  0.1767  0.0712
 8495SOL    HW137121   3.397   3.347   0.154  1.7647 -0.8886  0.7429
 8495SOL    HW237122   3.380   3.235   0.251 -2.3921  1.2601  1.5999
 8496SOL     OW37123   2.849   0.051  12.978 -0.3781  0.0012  0.1222
 8496SOL    HW137124   2.859   0.032  13.071 -1.3350 -1.2726 -0.0234
 8496SOL    HW237125   2.761   0.016  12.966 -0.6282  0.6737  0.0226
 8497SOL     OW37126   1.739   1.418   8.594  0.5997 -0.0211 -0.4687
 8497SOL    HW137127   1.704   1.504   8.617  0.0977 -0.0368 -1.2127
 8497SOL    HW237128   1.733   1.384   8.684 -1.9160 -1.6108 -1.2671
 8498SOL     OW37129   4.037   2.326   8.736  0.2176  0.0659  0.5162
 8498SOL    HW137130   3.962   2.321   8.676 -1.2981 -1.1422  2.5014
 8498SOL    HW237131   4.068   2.416   8.725  4.3146 -1.2547  1.5851
 8499SOL     OW37132   4.502   2.558   5.217 -0.1379 -0.6623 -0.6161
 8499SOL    HW137133   4.557   2.527   5.289 -0.0573  0.1953 -0.3121
 8499SOL    HW237134   4.486   2.651   5.235  1.1567 -0.4383 -0.6445
 8500SOL     OW37135   4.450   0.414   7.845  0.4849 -0.5560  0.2531
 8500SOL    HW137136   4.405   0.398   7.927 -1.1557 -0.6709 -0.6738
 8500SOL    HW237137   4.435   0.331   7.798 -1.0634  0.0955 -0.3775
 8501SOL     OW37138   4.153   3.043   7.129 -0.0707 -0.0193 -0.5063
 8501SOL    HW137139   4.137   3.098   7.052  1.0323  0.4021 -0.4218
 8501SOL    HW237140   4.248   3.045   7.130  0.0178 -4.0033  0.1992
 8502SOL     OW37141   1.876   1.442   9.360 -0.6925 -0.4403 -0.3509
 8502SOL    HW137142   1.820   1.370   9.329  1.1666 -1.1326 -2.1383
 8502SOL    HW237143   1.949   1.435   9.298 -0.0929  1.2191  0.1623
 8503SOL     OW37144   1.108   3.733   5.335  0.1602  0.5336  0.1566
 8503SOL    HW137145   1.122   3.650   5.381  0.4619  0.4105 -0.1601
 8503SOL    HW237146   1.195   3.770   5.347  0.2051  0.2637  0.6683
 8504SOL     OW37147   2.924   0.993   5.749 -0.7170 -0.0124 -0.0743
 8504SOL    HW137148   2.847   1.049   5.752  0.7730  1.9652  1.1682
 8504SOL    HW237149   2.898   0.942   5.825 -3.1422  0.7083 -0.4300
 8505SOL     OW37150   0.433   1.588   2.422  0.0254  0.6535  0.0316
 8505SOL    HW137151   0.497   1.630   2.480 -0.0922  2.2215 -0.9895
 8505SOL    HW237152   0.367   1.563   2.488  1.0620  1.2315  1.2829
 8506SOL     OW37153   0.850   3.404   4.304  0.1505  0.0097 -0.5118
 8506SOL    HW137154   0.892   3.445   4.379 -0.6311 -1.5695  0.7962
 8506SOL    HW237155   0.910   3.420   4.231  2.6357 -4.1623  0.5726
 8507SOL     OW37156   1.909   2.832   5.814  0.4755 -0.0783  0.0081
 8507SOL    HW137157   1.946   2.763   5.869  0.8381  1.1388  1.3299
 8507SOL    HW237158   1.839   2.867   5.869 -0.3834  0.2724 -1.3154
 8508SOL     OW37159   0.037   1.303   0.878 -0.2910 -0.0347  0.4635
 8508SOL    HW137160   4.727   1.224   0.852  1.4313 -1.0612  0.4868
 8508SOL    HW237161   0.131   1.281   0.875 -0.7230 -1.5134 -2.4236
 8509SOL     OW37162   2.974   4.344  12.578 -0.1701  0.1017 -0.3792
 8509SOL    HW137163   3.054   4.373  12.621 -0.7685  1.3574 -0.0886
 8509SOL    HW237164   2.940   4.418  12.527  3.3507 -0.0097 -2.8787
 8510SOL     OW37165   3.413   4.073  10.237 -0.2220  0.5715 -0.4158
 8510SOL    HW137166   3.369   4.134  10.178 -3.1299 -1.2352 -0.1546
 8510SOL    HW237167   3.477   4.038  10.175 -0.7325  0.5131 -0.9079
 8511SOL     OW37168   4.582   0.485   2.143 -0.2489 -0.6255  0.5577
 8511SOL    HW137169   4.560   0.468   2.235 -1.5122 -2.2621 -0.0458
 8511SOL    HW237170   4.498   0.459   2.104  0.9179 -2.4186 -0.7311
 8512SOL     OW37171   4.291   3.841  11.879 -0.3380  0.1240 -0.1971
 8512SOL    HW137172   4.202   3.861  11.907 -0.2305  0.1315  0.1343
 8512SOL    HW237173   4.267   3.774  11.815 -1.3514 -0.1233  0.4431
 8513SOL     OW37174   2.074   3.366  16.543  0.0953 -0.0284 -0.1593
 8513SOL    HW137175   2.091   3.376  16.450 -0.6679 -1.5103 -0.4715
 8513SOL    HW237176   2.023   3.284  16.541 -0.7351  0.4609  0.5825
 8514SOL     OW37177   1.140   0.567   3.493  0.4073  0.1284 -0.5135
 8514SOL    HW137178   1.144   0.489   3.548  2.4027  1.0277  0.5957
 8514SOL    HW237179   1.226   0.560   3.453  0.4467 -1.3442 -0.1687
 8515SOL     OW37180   1.776   4.566   8.272  0.2569  0.1045 -0.5579
 8515SOL    HW137181   1.856   4.515   8.258 -0.6480 -1.0769 -1.4373
 8515SOL    HW237182   1.808   4.654   8.253  1.4186 -0.4003 -0.9291
 8516SOL     OW37183   0.736   1.721  13.618  0.6059 -0.3767  0.0465
 8516SOL    HW137184   0.711   1.717  13.526 -3.0735  1.1609  0.9764
 8516SOL    HW237185   0.794   1.796  13.629  2.5300 -1.5805 -2.0157
 8517SOL     OW37186   2.599   0.862   3.908  0.1929 -0.1572 -0.2350
 8517SOL    HW137187   2.679   0.915   3.902 -0.3326  0.9401  2.7277
 8517SOL    HW237188   2.562   0.919   3.975  0.2160 -0.3544 -0.0534
 8518SOL     OW37189   1.303   1.523   5.241  0.3107 -0.0724  0.2658
 8518SOL    HW137190   1.332   1.439   5.277  1.1768  0.0540 -0.1279
 8518SOL    HW237191   1.240   1.564   5.300  0.8331  0.0335  0.7433
 8519SOL     OW37192   3.692   3.300  10.678 -0.0751  0.3503  0.6559
 8519SOL    HW137193   3.735   3.377  10.717 -0.5345  0.3800  1.1002
 8519SOL    HW237194   3.610   3.330  10.639  0.4601 -1.4908 -1.8607
 8520SOL     OW37195   1.291   0.507   1.953  0.1010 -0.7267 -0.2214
 8520SOL    HW137196   1.381   0.535   1.939 -0.4294 -0.4938 -3.0642
 8520SOL    HW237197   1.269   0.563   2.028  0.9655  0.9543 -1.2256
 8521SOL     OW37198   2.380   4.499   4.578 -0.2055 -0.2075 -0.6609
 8521SOL    HW137199   2.412   4.572   4.631 -0.0797 -1.7749  1.4431
 8521SOL    HW237200   2.324   4.546   4.517 -0.5034 -0.9703 -0.9766
 8522SOL     OW37201   4.219   3.198   8.492 -0.0819 -0.1743  0.9127
 8522SOL    HW137202   4.198   3.275   8.544  1.6473  0.6115  0.4483
 8522SOL    HW237203   4.208   3.127   8.556 -0.4881 -0.6964  0.2698
 8523SOL     OW37204   2.966   0.689   5.070  0.2090 -0.3200  0.0364
 8523SOL    HW137205   3.048   0.695   5.119 -0.7609  1.6540  1.3751
 8523SOL    HW237206   2.996   0.625   5.004  0.3013  0.0365 -0.2671
 8524SOL     OW37207   2.324   4.211   9.087 -0.3089 -0.9411 -0.3101
 8524SOL    HW137208   2.314   4.195   8.993 -0.4756  1.7196 -0.7490
 8524SOL    HW237209   2.366   4.297   9.097 -0.3786 -0.9219 -0.1863
 8525SOL     OW37210   3.619   4.326   2.409 -0.1791  0.2153 -0.2457
 8525SOL    HW137211   3.530   4.308   2.379 -0.8314  1.0711  1.1845
 8525SOL    HW237212   3.663   4.359   2.331  0.3290  0.8016  0.2815
 8526SOL     OW37213   3.685   0.961   1.386 -0.7138  0.1757 -0.1439
 8526SOL    HW137214   3.611   1.021   1.379 -0.6039  0.2911 -0.3313
 8526SOL    HW237215   3.739   0.993   1.458  1.4219 -1.1579 -1.1433
 8527SOL     OW37216   2.725   3.559   8.602  0.2530  0.4294  0.2602
 8527SOL    HW137217   2.660   3.627   8.618  0.1250  0.2676  0.4320
 8527SOL    HW237218   2.807   3.606   8.620 -0.4181  1.9786 -0.7460
 8528SOL     OW37219   0.979   0.610   4.354  0.0917 -0.3609 -0.7051
 8528SOL    HW137220   0.984   0.515   4.345  0.0668 -0.7267  2.8192
 8528SOL    HW237221   0.965   0.596   4.448  0.9222  2.0278 -0.2418
 8529SOL     OW37222   2.934   0.641   9.094  0.1458 -0.0804 -0.1082
 8529SOL    HW137223   2.878   0.675   9.025 -1.9106 -1.1260  1.0745
 8529SOL    HW237224   2.881   0.669   9.168 -0.1189  1.4272 -0.8760
 8530SOL     OW37225   0.050   0.252  17.076 -0.0097 -0.1651 -0.3084
 8530SOL    HW137226   0.070   0.322  17.138  0.5071  0.7478 -1.5079
 8530SOL    HW237227   0.009   0.305  17.008 -0.3840 -2.0124 -1.5308
 8531SOL     OW37228   0.269   0.517   6.056 -0.5020 -0.1304 -0.1963
 8531SOL    HW137229   0.190   0.557   6.019 -0.1408 -0.1586 -0.9893
 8531SOL    HW237230   0.232   0.457   6.122  1.9345  0.5968  1.8443
 8532SOL     OW37231   1.000   3.334   5.891  0.2617  0.1901 -0.0506
 8532SOL    HW137232   0.972   3.264   5.950 -2.0906  1.9078  0.8581
 8532SOL    HW237233   1.076   3.354   5.947 -1.5068  1.6729  1.8142
 8533SOL     OW37234   0.161   1.137   3.577  0.2369  0.0138 -0.3203
 8533SOL    HW137235   0.157   1.133   3.481 -0.7266 -0.7412 -0.2495
 8533SOL    HW237236   0.103   1.067   3.605 -1.5134  1.7845  0.5210
 8534SOL     OW37237   3.138   1.120   4.010  0.3506 -0.2181 -0.3170
 8534SOL    HW137238   3.121   1.119   3.916  1.0755  3.4848 -0.5227
 8534SOL    HW237239   3.096   1.038   4.032 -2.0156  1.6472  2.0683
 8535SOL     OW37240   3.246   3.819   8.289 -0.6493  0.1749  0.5429
 8535SOL    HW137241   3.151   3.813   8.286 -0.5862 -0.2675 -0.8935
 8535SOL    HW237242   3.271   3.757   8.220 -1.7999  1.5676 -1.1286
 8536SOL     OW37243   1.458   3.799  16.193  0.0677  0.4131 -0.9057
 8536SOL    HW137244   1.507   3.830  16.269 -1.1151  1.1789 -0.4464
 8536SOL    HW237245   1.385   3.860  16.179 -1.8938 -2.3507 -2.5815
 8537SOL     OW37246   3.001   3.486   5.377 -0.1858 -0.4384  0.4157
 8537SOL    HW137247   3.036   3.528   5.456 -2.4554  1.0040  0.6648
 8537SOL    HW237248   3.032   3.396   5.381 -0.0855 -0.3267  1.9557
 8538SOL     OW37249   2.754   4.372  12.710 -0.9056 -0.2871 -0.5810
 8538SOL    HW137250   2.702   4.410  12.640 -0.6189  2.3997  0.6737
 8538SOL    HW237251   2.834   4.355  12.661  0.9008  0.8252  1.9388
 8539SOL     OW37252   0.267   2.935   4.928 -0.0785  0.0866  0.2291
 8539SOL    HW137253   0.185   2.911   4.971 -0.2492  0.2592  0.0006
 8539SOL    HW237254   0.255   2.866   4.864 -0.8135  0.3202  0.1159
 8540SOL     OW37255   1.732   1.847   1.292  0.0898  0.2091 -0.8976
 8540SOL    HW137256   1.681   1.871   1.215 -0.6046 -0.7189 -0.7178
 8540SOL    HW237257   1.690   1.772   1.333  1.9532 -0.4422 -0.1641
 8541SOL     OW37258   0.185   2.598  11.124 -0.2102  0.2645 -0.2673
 8541SOL    HW137259   0.169   2.660  11.053  1.8359  0.1392 -0.8510
 8541SOL    HW237260   0.214   2.658  11.194 -2.1924  0.7754  0.1077
 8542SOL     OW37261   1.978   3.191   3.252  0.0719 -0.2416 -0.0618
 8542SOL    HW137262   1.951   3.140   3.175  0.7999 -0.9241  0.1517
 8542SOL    HW237263   1.988   3.270   3.198 -0.5213 -0.4379 -0.4710
 8543SOL     OW37264   2.052   4.103   3.664  0.0394 -0.6327 -0.2480
 8543SOL    HW137265   1.969   4.055   3.662 -1.1120  1.3798 -0.3930
 8543SOL    HW237266   2.035   4.179   3.718  0.8431 -1.1494  0.7215
 8544SOL     OW37267   1.756   3.509   9.555  0.0120 -0.1615 -0.5443
 8544SOL    HW137268   1.709   3.502   9.471  1.8255 -2.3884 -1.3941
 8544SOL    HW237269   1.799   3.424   9.547  0.0434 -0.3385  1.5747
 8545SOL     OW37270   0.156   2.166   2.049 -0.4441 -0.0822  0.0754
 8545SOL    HW137271   0.142   2.088   2.103 -1.6917 -1.0300 -1.6244
 8545SOL    HW237272   0.075   2.166   1.998 -0.1584 -0.6700 -0.3738
 8546SOL     OW37273   0.938   4.219   6.244 -0.0208  0.2725  0.8792
 8546SOL    HW137274   0.978   4.300   6.277  0.3126  1.3090 -2.0576
 8546SOL    HW237275   1.009   4.188   6.188 -2.4964 -0.0185 -2.1182
 8547SOL     OW37276   3.663   2.853  11.690 -0.2686  0.6900 -0.3216
 8547SOL    HW137277   3.714   2.792  11.637 -0.0247  0.4503  0.1908
 8547SOL    HW237278   3.615   2.915  11.636 -1.0376  0.8987  0.5888
 8548SOL     OW37279   0.723   3.617   6.464 -0.6461 -0.3120 -0.1688
 8548SOL    HW137280   0.658   3.672   6.508  0.4859  0.6793  0.2442
 8548SOL    HW237281   0.800   3.641   6.514 -0.1434  0.9641 -1.5441
 8549SOL     OW37282   0.069   0.455   5.156 -0.5691 -0.0334 -0.0725
 8549SOL    HW137283   0.093   0.390   5.222 -1.3566 -0.8578 -0.5961
 8549SOL    HW237284   0.041   0.523   5.217  2.2100  0.8471  0.2035
 8550SOL     OW37285   4.477   1.998  16.370 -0.2570 -0.5449  0.2980
 8550SOL    HW137286   4.543   1.953  16.316 -1.1975 -1.9839  0.3496
 8550SOL    HW237287   4.396   1.953  16.344  0.1290 -1.1231  0.0899
 8551SOL     OW37288   2.996   3.752   4.047 -0.0147 -0.4864  0.1070
 8551SOL    HW137289   3.081   3.747   4.003  0.2111  1.3731  0.3578
 8551SOL    HW237290   2.967   3.842   4.030 -0.1864 -0.7115 -0.8049
 8552SOL     OW37291   0.889   4.210   3.561 -0.6637 -0.3002 -0.3455
 8552SOL    HW137292   0.966   4.191   3.615 -0.1577 -0.7959 -1.2368
 8552SOL    HW237293   0.879   4.305   3.569 -0.1213 -0.3916  1.5406
 8553SOL     OW37294   1.677   0.042  11.376 -0.2797 -0.2890 -0.6836
 8553SOL    HW137295   1.644   4.694  11.346  1.1684 -1.3251  0.6329
 8553SOL    HW237296   1.761   0.024  11.418 -0.8369  1.2347  1.0662
 8554SOL     OW37297   3.438   2.600  10.830  0.5477 -0.2977  0.8024
 8554SOL    HW137298   3.508   2.665  10.838  0.4670 -0.3416  1.9075
 8554SOL    HW237299   3.370   2.648  10.784  1.7384  0.9478  0.3526
 8555SOL     OW37300   0.560   3.901   2.258  0.1356  0.4434  0.3499
 8555SOL    HW137301   0.555   3.961   2.184  1.1588  0.4812  0.3117
 8555SOL    HW237302   0.622   3.936   2.323  0.7943  0.8565 -0.5111
 8556SOL     OW37303   1.257   2.814   7.175  0.6200  0.2299 -0.7146
 8556SOL    HW137304   1.317   2.814   7.249  0.1536 -0.1269 -0.3376
 8556SOL    HW237305   1.323   2.834   7.108 -0.3898  0.4624 -1.6445
 8557SOL     OW37306   2.108   3.892  12.135 -0.1202 -0.8938 -0.2947
 8557SOL    HW137307   2.088   3.810  12.179 -1.2763  0.1101  1.0535
 8557SOL    HW237308   2.162   3.936  12.201  1.0539 -0.1249 -1.7500
 8558SOL     OW37309   3.466   2.150   7.085  0.1865  0.6686  0.2858
 8558SOL    HW137310   3.402   2.143   7.155  0.7512  1.2404  0.8677
 8558SOL    HW237311   3.513   2.067   7.091 -1.2236 -0.2312 -0.9841
 8559SOL     OW37312   4.645   2.808   7.569  0.1227 -0.0087  0.2016
 8559SOL    HW137313   4.662   2.888   7.619 -1.0898  1.5816 -1.9270
 8559SOL    HW237314   4.677   2.742   7.629  2.7635  1.1356  0.0622
 8560SOL     OW37315   4.164   2.987   5.054  0.4478 -0.5926  0.2212
 8560SOL    HW137316   4.187   3.075   5.025  0.8694 -1.4042 -1.8640
 8560SOL    HW237317   4.119   2.950   4.978  2.4994 -1.2525 -0.6661
 8561SOL     OW37318   0.053   3.290   7.480  0.2420  0.1594  0.1083
 8561SOL    HW137319   0.044   3.258   7.569 -2.3772  1.5549  0.3450
 8561SOL    HW237320   0.088   3.215   7.431 -0.0281  0.9594 -1.3248
 8562SOL     OW37321   4.666   0.238   0.674  0.3882 -0.1550 -0.3710
 8562SOL    HW137322   4.718   0.160   0.657 -2.2012 -1.3043 -2.9717
 8562SOL    HW237323   4.594   0.184   0.707  1.0634 -0.3959  0.6979
 8563SOL     OW37324   0.486   4.440   4.169 -0.6103 -0.4283 -0.1298
 8563SOL    HW137325   0.415   4.389   4.207  0.3293 -1.0815  0.7310
 8563SOL    HW237326   0.548   4.374   4.138 -0.1778 -1.7127  3.5350
 8564SOL     OW37327   4.187   2.768   2.268  0.1022  0.3447  0.5024
 8564SOL    HW137328   4.265   2.802   2.224 -0.3786 -0.1433 -0.7241
 8564SOL    HW237329   4.129   2.781   2.193 -0.4888 -0.5808  0.8004
 8565SOL     OW37330   0.516   0.252   5.223  0.5390 -0.3813  0.5169
 8565SOL    HW137331   0.427   0.262   5.255 -0.0658 -0.7818 -1.0247
 8565SOL    HW237332   0.563   0.252   5.306 -1.1651  1.3315  1.4801
 8566SOL     OW37333   3.609   3.076  10.799  0.3366  0.0774  0.2123
 8566SOL    HW137334   3.632   3.153  10.747  2.8815  0.3746  1.7610
 8566SOL    HW237335   3.514   3.063  10.794 -0.0005  1.0092  3.5324
 8567SOL     OW37336   0.192   3.505   7.300  0.2525  0.5474 -0.3092
 8567SOL    HW137337   0.114   3.460   7.332  1.7216 -1.6332  0.1766
 8567SOL    HW237338   0.213   3.555   7.379 -0.9469  0.0988  0.2993
 8568SOL     OW37339   0.760   1.511   8.763  0.1404 -0.0102 -0.0979
 8568SOL    HW137340   0.779   1.583   8.823  0.4591 -0.7799  0.7179
 8568SOL    HW237341   0.840   1.521   8.711  0.1830  1.8537  0.3387
 8569SOL     OW37342   2.459   0.595  12.674 -0.4189 -0.1460  0.2643
 8569SOL    HW137343   2.527   0.553  12.622 -0.6911  1.2115 -1.1926
 8569SOL    HW237344   2.385   0.581  12.615  0.0549  0.7776 -0.5464
 8570SOL     OW37345   0.917   1.593  13.188 -0.4207  0.1509  0.5057
 8570SOL    HW137346   0.956   1.580  13.275  0.9313  0.1769 -0.0969
 8570SOL    HW237347   0.856   1.520  13.199 -1.5890  0.7607 -2.0544
 8571SOL     OW37348   0.973   1.122   7.280  0.0466 -0.7174  0.2442
 8571SOL    HW137349   1.024   1.149   7.357  1.9595  0.2339 -1.3803
 8571SOL    HW237350   0.879   1.137   7.296  0.3665 -0.1501  1.5868
 8572SOL     OW37351   3.162   2.131   8.595 -0.0515  0.5464 -0.1222
 8572SOL    HW137352   3.104   2.199   8.562 -0.8881  0.3850  1.0229
 8572SOL    HW237353   3.241   2.178   8.621 -0.3859  0.6087  0.7719
 8573SOL     OW37354   3.554   1.868   7.085 -0.2568  0.1719  0.3564
 8573SOL    HW137355   3.636   1.819   7.090  1.3686  2.7823 -0.9271
 8573SOL    HW237356   3.498   1.805   7.040  0.5249 -0.6694  0.5681
 8574SOL     OW37357   2.534   1.294  16.610 -0.8549  0.6193 -0.3237
 8574SOL    HW137358   2.606   1.321  16.667 -0.6204 -2.3575  0.7497
 8574SOL    HW237359   2.458   1.283  16.668  0.1701  1.5666  1.2069
 8575SOL     OW37360   3.494   2.600   7.370  0.0500 -0.4966 -0.0480
 8575SOL    HW137361   3.581   2.607   7.330 -0.1477 -0.3459 -0.4512
 8575SOL    HW237362   3.439   2.584   7.294 -1.9977 -0.7398  1.4974
 8576SOL     OW37363   1.050   1.026   2.747  0.3572  0.0307  0.0623
 8576SOL    HW137364   1.146   1.025   2.744  0.3575  0.4713 -0.1729
 8576SOL    HW237365   1.038   0.974   2.826  0.7391 -0.6147 -0.3003
 8577SOL     OW37366   3.991   4.384   6.284 -0.5676 -0.0997  0.4663
 8577SOL    HW137367   3.965   4.353   6.371  1.3314 -0.0493  1.0508
 8577SOL    HW237368   4.010   4.475   6.307 -2.2938  0.4296 -0.2029
 8578SOL     OW37369   1.292   2.585  13.187  0.0145 -0.1693 -0.3584
 8578SOL    HW137370   1.267   2.676  13.173  0.3790  0.0713  0.5838
 8578SOL    HW237371   1.362   2.583  13.121  0.6363  0.9801  0.2712
 8579SOL     OW37372   2.908   1.012   4.328  0.5761  0.2172  0.2634
 8579SOL    HW137373   2.832   1.058   4.292 -1.1275 -0.2956  3.1409
 8579SOL    HW237374   2.886   0.991   4.419  0.0355  0.5210  0.2060
 8580SOL     OW37375   1.092   4.727   4.095 -0.5921 -0.2237  0.1383
 8580SOL    HW137376   1.158   4.660   4.076 -2.2161 -1.7817 -0.0117
 8580SOL    HW237377   1.110   0.011   4.187 -2.6512 -0.7525  0.6596
 8581SOL     OW37378   2.165   2.835  10.193 -0.0542 -0.0467  0.3935
 8581SOL    HW137379   2.247   2.885  10.195 -0.8904  1.3631 -0.7082
 8581SOL    HW237380   2.210   2.753  10.172  0.7120  0.4819 -0.0551
 8582SOL     OW37381   1.946   0.198  15.269  0.2063 -0.3744 -0.3761
 8582SOL    HW137382   1.928   0.129  15.333 -2.6313  1.4360  0.7447
 8582SOL    HW237383   2.038   0.219  15.287  0.0712 -0.6968  0.6743
 8583SOL     OW37384   1.737   4.349   0.512 -0.1300 -0.3325 -0.2245
 8583SOL    HW137385   1.732   4.253   0.513  1.1426 -0.4074 -0.5582
 8583SOL    HW237386   1.807   4.372   0.573  0.9336 -0.4883 -1.3756
 8584SOL     OW37387   0.450   3.416   3.609  0.1939 -0.5334 -0.1149
 8584SOL    HW137388   0.477   3.423   3.701  1.8273  0.2491 -0.6517
 8584SOL    HW237389   0.369   3.466   3.620 -0.8799 -2.3941  0.5392
 8585SOL     OW37390   0.294   0.883   4.053 -0.1949 -0.5538  0.0195
 8585SOL    HW137391   0.299   0.890   4.148  0.2537 -1.4330  0.0631
 8585SOL    HW237392   0.308   0.974   4.025 -0.6864 -0.9830 -1.6422
 8586SOL     OW37393   4.553   4.384  14.978 -0.2916 -0.3444  0.0023
 8586SOL    HW137394   4.601   4.407  14.899  0.3325 -1.1940  0.1365
 8586SOL    HW237395   4.564   4.289  14.975  2.7166 -0.0310  1.1991
 8587SOL     OW37396   2.907   3.274   3.837 -0.0541  0.0381 -0.1073
 8587SOL    HW137397   2.883   3.326   3.914  0.2730 -1.6258  1.1351
 8587SOL    HW237398   2.871   3.188   3.860 -1.6113  0.2758 -1.6208
 8588SOL     OW37399   1.850   0.417   2.083 -0.3328  0.0986  0.0817
 8588SOL    HW137400   1.800   0.498   2.072  0.3253  1.0933  4.4167
 8588SOL    HW237401   1.836   0.372   2.000 -1.9939  2.4599 -0.9041
 8589SOL     OW37402   1.563   4.451   8.114  0.2451  0.1122  0.3488
 8589SOL    HW137403   1.611   4.495   8.185 -0.2567 -1.9571  1.9727
 8589SOL    HW237404   1.638   4.415   8.067  1.6327  1.6181  1.3901
 8590SOL     OW37405   3.797   1.580  13.351 -0.2437 -0.0876 -0.9015
 8590SOL    HW137406   3.804   1.511  13.285  1.8457 -2.2036  1.5384
 8590SOL    HW237407   3.703   1.578  13.366 -0.6154 -3.6302 -3.5073
 8591SOL     OW37408   3.381   2.496   8.269  0.2606  0.3885  0.4043
 8591SOL    HW137409   3.373   2.414   8.318 -1.0463  0.4628  0.3136
 8591SOL    HW237410   3.390   2.457   8.182  1.4220  1.8624 -0.1224
 8592SOL     OW37411   0.431   3.903   3.260 -0.0167  0.0112 -0.7146
 8592SOL    HW137412   0.486   3.826   3.274 -1.1955 -0.3186  2.0730
 8592SOL    HW237413   0.347   3.867   3.230  0.2787  0.1249 -1.6831
 8593SOL     OW37414   0.841   2.378   7.131  0.9319  0.2662  0.5487
 8593SOL    HW137415   0.887   2.335   7.059 -1.0079  0.8085 -0.9924
 8593SOL    HW237416   0.906   2.381   7.201 -0.7636  0.8174  2.0891
 8594SOL     OW37417   4.164   2.356   7.748 -0.0245  0.0954  0.1245
 8594SOL    HW137418   4.086   2.386   7.702  0.9581 -1.0223 -2.3175
 8594SOL    HW237419   4.194   2.436   7.790 -2.8448 -0.4907  3.2206
 8595SOL     OW37420   4.385   2.890   0.023 -0.3651 -0.5522 -0.4742
 8595SOL    HW137421   4.388   2.811   0.078 -0.4013  0.8205  1.5063
 8595SOL    HW237422   4.328   2.858  17.697 -2.3332  0.7878  0.5079
 8596SOL     OW37423   4.213   3.375   6.058 -0.4754 -0.0732  0.2987
 8596SOL    HW137424   4.129   3.418   6.072 -1.0063 -0.5289 -1.5091
 8596SOL    HW237425   4.265   3.412   6.129  0.4123 -1.6676  0.4754
 8597SOL     OW37426   4.218   0.698   7.625 -0.1115 -0.5633  0.8250
 8597SOL    HW137427   4.311   0.690   7.647  0.0098  0.7173  0.7583
 8597SOL    HW237428   4.185   0.709   7.714  0.6185 -0.1299  1.0433
 8598SOL     OW37429   1.177   4.232   6.099 -0.4200  0.2350  0.0466
 8598SOL    HW137430   1.142   4.171   6.035  0.9018  1.8552 -2.2194
 8598SOL    HW237431   1.247   4.276   6.051  0.6887 -1.5028  0.0623
 8599SOL     OW37432   4.370   0.619  16.258  0.6094  0.3314 -0.2994
 8599SOL    HW137433   4.383   0.694  16.317 -0.5144  0.4560 -0.2157
 8599SOL    HW237434   4.454   0.574  16.267  0.4876  0.3247  0.7457
 8600SOL     OW37435   2.118   3.368  13.576 -0.2194 -0.3987  0.8792
 8600SOL    HW137436   2.179   3.360  13.503 -1.1235  0.4268  0.0311
 8600SOL    HW237437   2.072   3.449  13.554  0.5676 -0.4401 -0.9036
 8601SOL     OW37438   3.574   3.420   3.240  0.2360  0.3354  0.8952
 8601SOL    HW137439   3.550   3.512   3.234  3.3721  1.1378  0.6643
 8601SOL    HW237440   3.667   3.437   3.228  0.2460 -1.3928 -1.4300
 8602SOL     OW37441   2.278   3.643   7.057 -0.1536  0.0205 -0.0206
 8602SOL    HW137442   2.360   3.686   7.084 -0.1548  1.2674 -2.0163
 8602SOL    HW237443   2.298   3.551   7.072  2.0283  0.4609 -0.2017
 8603SOL     OW37444   0.287   3.671   2.448 -0.7363  0.0234 -0.0580
 8603SOL    HW137445   0.299   3.579   2.473 -2.1170 -0.0763  0.2533
 8603SOL    HW237446   0.191   3.674   2.447 -0.6939  1.3774 -0.6455
 8604SOL     OW37447   0.630   2.115  16.527  0.2949  0.6164 -0.2306
 8604SOL    HW137448   0.696   2.178  16.556  1.0673 -0.4640  0.3705
 8604SOL    HW237449   0.549   2.145  16.569  2.0569 -0.6246  4.0586
 8605SOL     OW37450   2.649   3.287   7.965  0.1084 -0.5135  0.0476
 8605SOL    HW137451   2.583   3.311   7.900 -0.1952  0.9767  0.9115
 8605SOL    HW237452   2.594   3.271   8.041  0.1433 -1.1362 -0.0613
 8606SOL     OW37453   3.569   3.565   8.224 -0.5757  0.0249 -0.1196
 8606SOL    HW137454   3.527   3.485   8.190 -2.9605  0.6012  1.4268
 8606SOL    HW237455   3.622   3.591   8.149  0.2003  2.0763  1.1425
 8607SOL     OW37456   2.713   1.605   4.644  0.3922  0.1797 -0.0960
 8607SOL    HW137457   2.650   1.618   4.715 -0.5799 -1.2680 -0.6893
 8607SOL    HW237458   2.674   1.665   4.580  0.2545  1.0313  0.7939
 8608SOL     OW37459   0.354   3.115  16.554 -0.4496 -0.6739 -0.3988
 8608SOL    HW137460   0.285   3.065  16.597  0.7177 -1.6631  0.3036
 8608SOL    HW237461   0.354   3.190  16.615  1.4029  0.9480 -2.3743
 8609SOL     OW37462   2.149   1.444   3.216  0.3316 -0.4141 -0.6072
 8609SOL    HW137463   2.061   1.408   3.227 -0.2485  0.6672 -1.7151
 8609SOL    HW237464   2.188   1.429   3.302 -1.1347  0.6868  0.2540
 8610SOL     OW37465   0.822   1.839   6.731 -0.4425 -0.1071  0.6125
 8610SOL    HW137466   0.881   1.890   6.674  0.6517  0.6128  2.4039
 8610SOL    HW237467   0.820   1.891   6.811  0.7119 -0.0562  0.6204
 8611SOL     OW37468   4.681   1.318  17.514  0.3326  0.5595 -0.5923
 8611SOL    HW137469   4.684   1.238  17.460  0.3300  0.6225 -0.6854
 8611SOL    HW237470   0.005   1.372  17.463  2.1942 -0.5560  0.4207
 8612SOL     OW37471   3.981   1.680   9.886  0.7322  0.4271  0.0133
 8612SOL    HW137472   4.070   1.714   9.882  1.2407 -0.8138  0.8099
 8612SOL    HW237473   3.938   1.715   9.808 -0.6915  0.8087  0.9723
 8613SOL     OW37474   1.031   0.022   8.369 -0.4876  0.1730 -0.3579
 8613SOL    HW137475   0.951   4.716   8.402 -0.1906 -2.2311 -2.6926
 8613SOL    HW237476   1.050   4.706   8.291  1.5687 -0.8479  0.8316
 8614SOL     OW37477   0.893   4.018   5.006 -0.0923 -0.9115  0.4773
 8614SOL    HW137478   0.865   4.071   4.931  2.8745 -0.6494 -0.4493
 8614SOL    HW237479   0.899   3.933   4.962  2.3072 -0.2295 -0.5132
 8615SOL     OW37480   2.017   2.579   7.399  0.1494  0.5749 -0.0206
 8615SOL    HW137481   1.937   2.534   7.427  1.0655 -1.2879 -0.3919
 8615SOL    HW237482   2.082   2.527   7.446  1.0310 -0.3776 -2.2943
 8616SOL     OW37483   0.834   3.676  16.550 -0.1288  0.3827  0.6260
 8616SOL    HW137484   0.798   3.736  16.484  2.5195  0.3756 -0.8518
 8616SOL    HW237485   0.798   3.720  16.627  2.3781  1.7469  1.0544
 8617SOL     OW37486   1.108   2.762   7.681  0.7706 -0.5253 -0.8730
 8617SOL    HW137487   1.152   2.692   7.730  0.2915  0.2833  0.7013
 8617SOL    HW237488   1.162   2.838   7.702 -1.0251  0.9093 -1.5030
 8618SOL     OW37489   3.745   3.988   0.459 -0.2657  0.8734 -0.3164
 8618SOL    HW137490   3.813   4.056   0.459  1.9012 -1.2828 -1.0467
 8618SOL    HW237491   3.792   3.925   0.404  0.5310  1.6589 -0.5391
 8619SOL     OW37492   0.552   4.002   1.599  0.7746 -0.3252 -0.2888
 8619SOL    HW137493   0.524   3.925   1.550 -1.8078 -0.4776  1.3967
 8619SOL    HW237494   0.473   4.056   1.598 -0.6754 -2.3777  3.4738
 8620SOL     OW37495   1.352   0.042   6.538 -0.7987  0.1508 -0.4934
 8620SOL    HW137496   1.400   4.696   6.533 -1.4567 -0.2544 -0.1536
 8620SOL    HW237497   1.301   0.034   6.619 -0.2302  2.3568  0.0798
 8621SOL     OW37498   0.540   0.394  10.998 -0.6107 -0.2366  0.8210
 8621SOL    HW137499   0.578   0.332  10.935 -3.4429  0.1457 -1.2483
 8621SOL    HW237500   0.601   0.468  10.999 -2.2871  1.1382  0.0679
 8622SOL     OW37501   3.268   2.247  13.554  0.3030 -0.6755  0.0571
 8622SOL    HW137502   3.222   2.296  13.485  2.0510 -1.0695 -1.3837
 8622SOL    HW237503   3.352   2.293  13.556  0.1814 -0.3823 -1.2668
 8623SOL     OW37504   1.573   2.609  15.392  0.2697  0.0772  0.3599
 8623SOL    HW137505   1.544   2.700  15.399 -1.5875 -0.7373  3.0872
 8623SOL    HW237506   1.495   2.566  15.358 -0.4276  0.3643  1.6026
 8624SOL     OW37507   4.378   0.969   9.482  0.1461 -0.6536  0.1498
 8624SOL    HW137508   4.324   0.891   9.466 -1.1536  0.9674 -3.4531
 8624SOL    HW237509   4.303   1.027   9.471  0.0990 -0.8879 -0.7604
 8625SOL     OW37510   2.221   2.113   3.756  0.1264  0.5572  0.3026
 8625SOL    HW137511   2.238   2.083   3.667 -0.1839  1.1759  0.0358
 8625SOL    HW237512   2.288   2.182   3.758  0.6991  0.0212 -1.0611
 8626SOL     OW37513   1.604   1.876   0.597 -0.3821  0.1616  0.7401
 8626SOL    HW137514   1.599   1.853   0.690 -0.4610 -0.1499  0.6575
 8626SOL    HW237515   1.614   1.790   0.557  1.7343  0.8171 -0.1285
 8627SOL     OW37516   3.827   2.463   6.181 -0.3890 -0.2669  0.0107
 8627SOL    HW137517   3.893   2.443   6.115  0.7246 -1.1012  1.3756
 8627SOL    HW237518   3.786   2.545   6.151 -1.0899 -1.1471 -1.4660
 8628SOL     OW37519   2.691   0.312   2.767 -0.2930  0.2762 -0.1461
 8628SOL    HW137520   2.638   0.291   2.691 -0.1059  2.0796 -0.7698
 8628SOL    HW237521   2.623   0.326   2.833 -0.3976 -1.6213  0.1361
 8629SOL     OW37522   3.896   3.966   8.307 -0.9340  0.1110 -0.0498
 8629SOL    HW137523   3.856   4.004   8.386 -1.9516 -1.0974  0.0155
 8629SOL    HW237524   3.839   3.892   8.286 -1.5736  0.4696  0.3926
 8630SOL     OW37525   3.835   4.236  11.363 -0.1938  0.6571 -0.0897
 8630SOL    HW137526   3.831   4.221  11.269  0.8206 -1.7596  0.2598
 8630SOL    HW237527   3.880   4.321  11.364  0.4172  0.3417 -0.6722
 8631SOL     OW37528   0.314   4.254   7.255  0.2921 -0.5767  0.3633
 8631SOL    HW137529   0.318   4.191   7.183 -0.0755  0.5778 -0.6467
 8631SOL    HW237530   0.356   4.327   7.209 -0.1573 -1.1171 -0.9105
 8632SOL     OW37531   2.888   1.154   9.966 -0.2490 -0.0018  0.0190
 8632SOL    HW137532   2.911   1.188  10.052  2.3256 -1.9681  0.1266
 8632SOL    HW237533   2.971   1.160   9.918 -1.5155  2.1529 -1.8866
 8633SOL     OW37534   4.579   3.274   8.775  0.4059 -0.2872  0.4365
 8633SOL    HW137535   4.557   3.353   8.825 -0.8292  0.9967 -2.1819
 8633SOL    HW237536   4.668   3.295   8.746 -0.3851  2.4240  0.0531
 8634SOL     OW37537   0.530   0.008   8.301  0.1110 -0.0241  0.2011
 8634SOL    HW137538   0.533   4.655   8.266 -0.2753  0.3230 -0.7243
 8634SOL    HW237539   0.514   0.061   8.223  1.8326  1.5949  0.9713
 8635SOL     OW37540   3.975   4.643  11.596 -0.0483 -0.3669  0.0927
 8635SOL    HW137541   3.996   4.574  11.533 -0.8498 -1.1861  0.7140
 8635SOL    HW237542   4.026   4.712  11.554  0.8117  0.2125  2.0770
 8636SOL     OW37543   2.130   2.565   6.363 -0.0725 -0.4341 -0.1201
 8636SOL    HW137544   2.129   2.657   6.390 -0.2811  0.2805 -2.6082
 8636SOL    HW237545   2.200   2.559   6.298  0.1600 -2.0327  0.2910
 8637SOL     OW37546   3.445   2.115   3.198  0.1381  0.3480  0.3562
 8637SOL    HW137547   3.434   2.091   3.290  0.7001  1.3849  0.6941
 8637SOL    HW237548   3.539   2.134   3.197  0.0477  0.6912 -0.6662
 8638SOL     OW37549   0.834   0.878   7.786  0.4762  0.1877 -0.4085
 8638SOL    HW137550   0.757   0.903   7.838  0.0846 -0.2464 -0.7693
 8638SOL    HW237551   0.801   0.919   7.706  0.2610  0.4604 -0.1802
 8639SOL     OW37552   3.494   0.286   7.045  0.0193 -0.1146 -0.0816
 8639SOL    HW137553   3.431   0.353   7.020 -0.1235 -0.6153 -1.0409
 8639SOL    HW237554   3.562   0.335   7.091  0.6917  0.6441 -1.8831
 8640SOL     OW37555   1.553   3.803   7.202  0.1515  0.1574  0.2821
 8640SOL    HW137556   1.629   3.834   7.251  0.1351  0.0809  0.3559
 8640SOL    HW237557   1.597   3.810   7.117 -2.8589  1.0678 -1.2200
 8641SOL     OW37558   1.748   1.823   9.115 -0.3591 -0.0704 -0.1295
 8641SOL    HW137559   1.694   1.898   9.088  0.7538  0.1430 -1.7245
 8641SOL    HW237560   1.834   1.831   9.075  0.4259 -3.3698  0.9068
 8642SOL     OW37561   4.120   0.098  15.996  0.4693  0.0598  0.2933
 8642SOL    HW137562   4.053   0.167  15.991  0.6190  0.2293  0.6185
 8642SOL    HW237563   4.096   0.058  16.079  0.5586  2.0886  1.2967
 8643SOL     OW37564   3.528   0.082   4.007  0.1173  0.2174 -0.5345
 8643SOL    HW137565   3.498   0.146   3.942 -1.0087 -0.4083 -0.6285
 8643SOL    HW237566   3.515   0.130   4.089 -0.7276  1.9584 -1.7051
 8644SOL     OW37567   1.719   3.324   0.352  0.7484 -0.0056  0.2389
 8644SOL    HW137568   1.702   3.246   0.405 -0.5014  0.0328 -0.0991
 8644SOL    HW237569   1.650   3.312   0.286  1.2457 -2.3631  0.1317
 8645SOL     OW37570   0.173   1.416  12.000  0.2638  0.1018 -0.5518
 8645SOL    HW137571   0.129   1.422  12.085  1.1553 -1.8680  0.0443
 8645SOL    HW237572   0.249   1.363  12.023 -0.1565 -0.7730 -1.2080
 8646SOL     OW37573   0.073   2.092   9.256 -0.8268  0.8221  0.4047
 8646SOL    HW137574   0.038   2.045   9.180  0.2572  0.6788 -0.0101
 8646SOL    HW237575   0.013   2.056   9.321 -0.6624 -1.9381 -0.9488
 8647SOL     OW37576   2.058   4.395   7.859  0.1990  0.2860 -0.5194
 8647SOL    HW137577   2.141   4.396   7.907  0.0030 -0.0791 -0.1712
 8647SOL    HW237578   2.001   4.358   7.927 -0.4969 -1.5566 -2.1011
 8648SOL     OW37579   1.778   2.643   1.755 -0.7237 -0.0749 -0.1950
 8648SOL    HW137580   1.722   2.716   1.782  0.6100  0.0208  2.3097
 8648SOL    HW237581   1.728   2.613   1.680 -1.2679  1.5438 -0.4891
 8649SOL     OW37582   4.521   1.795   6.963 -0.0609  0.4320  0.3605
 8649SOL    HW137583   4.542   1.738   7.038 -1.7012 -2.3987 -1.3031
 8649SOL    HW237584   4.470   1.864   7.006 -0.6290  0.9766 -1.1938
 8650SOL     OW37585   1.908   0.926   7.497  0.6923 -0.3969  0.2029
 8650SOL    HW137586   1.869   1.013   7.510 -0.2831 -0.7299 -0.5517
 8650SOL    HW237587   1.911   0.905   7.590  2.4795  1.1573  0.4926
 8651SOL     OW37588   4.374   2.689   4.857  0.2789  0.5207  0.2619
 8651SOL    HW137589   4.378   2.770   4.806  1.6005 -0.7077 -1.5839
 8651SOL    HW237590   4.392   2.719   4.945 -1.0252  0.6084  0.4946
 8652SOL     OW37591   1.205   3.225  15.205  0.5080  0.4191  0.4954
 8652SOL    HW137592   1.196   3.189  15.117 -1.4135  0.1154  0.8129
 8652SOL    HW237593   1.115   3.259  15.212 -0.5930 -2.2629 -0.6535
 8653SOL     OW37594   1.247   1.301  15.825 -0.0721  0.4102 -0.1639
 8653SOL    HW137595   1.316   1.368  15.827 -0.1879  0.5376 -0.5243
 8653SOL    HW237596   1.208   1.304  15.912  2.7736  2.7794  1.0688
 8654SOL     OW37597   4.475   3.545   9.091  0.1458 -0.2378 -0.0774
 8654SOL    HW137598   4.400   3.596   9.059  0.6191 -0.3101 -1.2875
 8654SOL    HW237599   4.439   3.456   9.084  0.2000 -0.3505  1.0747
 8655SOL     OW37600   2.987   2.854   3.962 -0.3857 -0.2827 -0.3890
 8655SOL    HW137601   2.990   2.841   4.057  1.1452 -0.4226 -0.4480
 8655SOL    HW237602   3.076   2.850   3.928 -0.7193  1.5084 -1.4975
 8656SOL     OW37603   4.318   0.749   9.061  0.1005  0.5110  0.2179
 8656SOL    HW137604   4.302   0.842   9.075 -2.2933 -0.4675  3.7084
 8656SOL    HW237605   4.401   0.755   9.014  0.6521 -3.1099  0.7436
 8657SOL     OW37606   1.913   3.869   5.057  0.6174  0.0842 -0.2143
 8657SOL    HW137607   1.975   3.821   5.112  2.3624  0.6068 -1.7039
 8657SOL    HW237608   1.886   3.935   5.121  1.2472  2.8290 -2.7226
 8658SOL     OW37609   1.142   0.041   3.696 -0.4079 -0.0624  0.1218
 8658SOL    HW137610   1.082   0.010   3.763 -0.6078  0.0992  0.0159
 8658SOL    HW237611   1.160   4.702   3.639 -0.7309  0.8464 -1.1608
 8659SOL     OW37612   0.754   3.804  16.332  0.1240 -0.4127  0.4216
 8659SOL    HW137613   0.710   3.882  16.299 -1.3957 -1.3413  0.2815
 8659SOL    HW237614   0.771   3.760  16.249 -0.0237  0.5380 -0.1127
 8660SOL     OW37615   2.009   1.362   8.717 -0.3068  0.2248  0.3595
 8660SOL    HW137616   2.050   1.414   8.786  0.7610  0.3726 -0.3888
 8660SOL    HW237617   1.917   1.354   8.741 -0.1018  0.0347  1.0716
 8661SOL     OW37618   2.156   4.467  14.892 -0.3877 -0.7348 -0.2541
 8661SOL    HW137619   2.080   4.439  14.943  0.7483 -0.2634  1.6918
 8661SOL    HW237620   2.227   4.413  14.927  1.8605  1.6099 -1.2222
 8662SOL     OW37621   4.395   1.458   3.911 -0.1413 -0.3104 -0.1962
 8662SOL    HW137622   4.402   1.503   3.995  2.1191  0.1146 -0.6191
 8662SOL    HW237623   4.481   1.419   3.897 -0.8036 -1.6436 -0.5871
 8663SOL     OW37624   1.224   1.320   0.662  0.3528 -0.5883 -0.3864
 8663SOL    HW137625   1.196   1.271   0.740 -2.2855 -1.1514 -1.6941
 8663SOL    HW237626   1.156   1.291   0.602 -1.1601  1.7613  0.1999
 8664SOL     OW37627   3.430   3.317  11.549  0.8511 -0.1000  0.9316
 8664SOL    HW137628   3.492   3.246  11.563  2.6345  0.7712 -2.4468
 8664SOL    HW237629   3.376   3.323  11.628 -1.5314 -1.7968 -0.5697
 8665SOL     OW37630   4.637   4.077   1.497 -0.4794 -0.1050  0.5672
 8665SOL    HW137631   4.703   4.143   1.517  0.9729 -1.3708  0.0159
 8665SOL    HW237632   4.624   4.082   1.403  1.6189  0.1830  0.2934
 8666SOL     OW37633   4.386   3.379  16.855  0.3288  0.0300  0.4088
 8666SOL    HW137634   4.400   3.403  16.946 -1.5274  1.4746  0.3073
 8666SOL    HW237635   4.472   3.368  16.816  0.3926 -0.3506  0.6550
 8667SOL     OW37636   2.278   3.544  12.803 -0.0265  0.0007  0.3753
 8667SOL    HW137637   2.310   3.581  12.721 -2.3019 -1.0179 -0.9970
 8667SOL    HW237638   2.269   3.451  12.783 -2.6184 -0.0379  1.6618
 8668SOL     OW37639   0.521   1.274  13.722  0.2966  0.0340  0.9021
 8668SOL    HW137640   0.528   1.333  13.797  2.6818  0.0072  0.7124
 8668SOL    HW237641   0.429   1.275  13.695  1.2169 -0.1517 -2.2752
 8669SOL     OW37642   4.092   2.448   3.657 -0.5608 -0.2584  0.2736
 8669SOL    HW137643   4.049   2.506   3.719 -0.4492 -1.0147  1.0558
 8669SOL    HW237644   4.086   2.511   3.585  0.4549 -1.4784 -0.8976
 8670SOL     OW37645   1.460   2.385   9.906  0.2053 -0.2908 -0.0580
 8670SOL    HW137646   1.525   2.359   9.971 -2.2789 -1.1119  2.0789
 8670SOL    HW237647   1.507   2.461   9.872  0.3808  0.2651  1.4120
 8671SOL     OW37648   3.736   0.608   9.215 -0.1475  0.3886 -0.1393
 8671SOL    HW137649   3.703   0.673   9.277 -1.0598 -0.6328  0.4605
 8671SOL    HW237650   3.819   0.649   9.191  0.3059  0.7700  2.1133
 8672SOL     OW37651   2.773   2.334   4.139 -0.4170 -0.5394 -0.3899
 8672SOL    HW137652   2.778   2.417   4.188  1.7431 -1.3062  0.6752
 8672SOL    HW237653   2.761   2.272   4.211 -0.3449 -0.0573  0.0404
 8673SOL     OW37654   1.061   0.388   6.898 -0.4498  0.3719  0.6572
 8673SOL    HW137655   1.123   0.348   6.837 -2.3137  0.9711 -1.6331
 8673SOL    HW237656   0.975   0.375   6.857 -0.1340  1.1787 -0.2503
 8674SOL     OW37657   3.450   2.408  13.120  0.1492  0.0185  0.1879
 8674SOL    HW137658   3.522   2.425  13.059  0.0031 -0.5355 -0.1366
 8674SOL    HW237659   3.505   2.408  13.198 -1.0717  0.1596  1.0541
 8675SOL     OW37660   2.170   0.029  16.743 -0.5501 -0.6464  0.1134
 8675SOL    HW137661   2.147   4.673  16.745 -3.1548  0.0191  1.2810
 8675SOL    HW237662   2.163   0.055  16.651  1.5918  1.4117  0.5067
 8676SOL     OW37663   4.564   4.131  14.721 -0.2628  0.3186  0.0512
 8676SOL    HW137664   4.572   4.103  14.812 -0.3357  2.4957  0.7222
 8676SOL    HW237665   4.656   4.155  14.708 -0.2457 -0.1689 -0.7432
 8677SOL     OW37666   0.182   3.880  12.387  0.0170 -0.7553  0.0169
 8677SOL    HW137667   0.114   3.928  12.340 -0.5460 -1.4326  0.1356
 8677SOL    HW237668   0.128   3.829  12.447 -1.7319  0.2290 -0.7100
 8678SOL     OW37669   3.720   1.631   5.463  0.1843 -0.0280 -0.0695
 8678SOL    HW137670   3.741   1.638   5.369  0.3962 -0.8350 -0.0872
 8678SOL    HW237671   3.807   1.639   5.502  0.9523  0.9921 -1.9747
 8679SOL     OW37672   3.019   2.898   6.668 -0.7049 -0.2635  0.6275
 8679SOL    HW137673   2.960   2.966   6.637  0.1455 -0.2664 -1.0336
 8679SOL    HW237674   3.047   2.856   6.586 -0.8492  1.4500 -0.2910
 8680SOL     OW37675   1.693   4.058   6.420 -0.1740  0.2269  0.3371
 8680SOL    HW137676   1.745   3.999   6.475  0.8898 -0.6259 -1.5899
 8680SOL    HW237677   1.630   4.100   6.479 -0.6242  0.0339 -0.0024
 8681SOL     OW37678   2.859   3.181   2.343 -0.1094  0.3124 -0.5968
 8681SOL    HW137679   2.766   3.169   2.365 -0.3236  2.7470 -0.1686
 8681SOL    HW237680   2.858   3.119   2.270 -0.1155 -2.9747  2.1865
 8682SOL     OW37681   4.038   3.560   0.600 -0.0132  0.5290  0.3094
 8682SOL    HW137682   4.108   3.559   0.665 -1.4394 -1.4967  1.8305
 8682SOL    HW237683   4.054   3.649   0.570  0.2348 -0.0281 -1.2313
 8683SOL     OW37684   0.858   1.554   2.586  0.4911 -0.3279 -0.0774
 8683SOL    HW137685   0.871   1.476   2.641 -0.8105  2.2830  3.9550
 8683SOL    HW237686   0.774   1.585   2.618  0.7061  0.9716 -0.7799
 8684SOL     OW37687   4.091   4.453  12.273 -0.1086  0.3380 -0.3303
 8684SOL    HW137688   4.109   4.538  12.232 -2.3353  0.8308 -0.2527
 8684SOL    HW237689   4.053   4.406  12.199 -1.6625 -0.6140  1.0838
 8685SOL     OW37690   3.404   4.370  16.762  0.3955 -0.4908 -0.3460
 8685SOL    HW137691   3.496   4.349  16.778 -0.3304 -0.7446  3.3951
 8685SOL    HW237692   3.353   4.331  16.833 -0.1262  1.5366  0.3822
 8686SOL     OW37693   4.227   4.698   7.655 -0.2124 -0.3116 -0.3352
 8686SOL    HW137694   4.175   0.030   7.613 -0.9872 -0.9265 -0.3767
 8686SOL    HW237695   4.176   4.621   7.629 -0.9641 -0.3562  1.2358
 8687SOL     OW37696   1.482   4.654   5.889  0.1354 -0.1555 -0.2936
 8687SOL    HW137697   1.550   4.622   5.949 -1.0029  0.2328  1.1927
 8687SOL    HW237698   1.509   0.008   5.906 -1.9470  0.4395 -0.2484
 8688SOL     OW37699   1.016   2.550   5.732  0.4275  0.1413 -0.6953
 8688SOL    HW137700   0.981   2.487   5.795  0.6008 -2.3954 -3.1564
 8688SOL    HW237701   1.097   2.508   5.704 -0.2216 -1.2975 -0.4175
 8689SOL     OW37702   4.642   1.445   4.874 -0.0043  0.2752 -0.4221
 8689SOL    HW137703   4.610   1.485   4.955 -2.2377 -0.4908 -0.9284
 8689SOL    HW237704   4.634   1.353   4.901  1.5975  0.2077 -0.2139
 8690SOL     OW37705   0.026   2.581   4.268  0.2459 -0.1984 -0.1616
 8690SOL    HW137706   4.731   2.645   4.205  1.4068 -1.3805 -1.9602
 8690SOL    HW237707   0.112   2.562   4.230  0.2366 -1.0766  0.2298
 8691SOL     OW37708   2.945   1.522   4.403  0.4496 -0.0054  0.2903
 8691SOL    HW137709   2.948   1.597   4.344  0.4842 -2.3788 -2.7213
 8691SOL    HW237710   2.938   1.444   4.348 -2.1847 -0.3438  1.1051
 8692SOL     OW37711   2.125   2.177   7.674 -0.5739  0.3827 -0.3774
 8692SOL    HW137712   2.167   2.153   7.757  0.7360  0.7511 -0.9221
 8692SOL    HW237713   2.189   2.133   7.618 -0.4376  0.3886 -0.2256
 8693SOL     OW37714   2.715   0.565   1.104  0.6445 -0.4880  0.6287
 8693SOL    HW137715   2.791   0.548   1.161  0.2118 -0.0596  1.3361
 8693SOL    HW237716   2.727   0.660   1.102  0.1142 -0.4005  1.6927
 8694SOL     OW37717   1.202   4.622   4.349  0.5129  0.2858  0.3755
 8694SOL    HW137718   1.149   4.681   4.401 -0.1077  0.2143 -0.1757
 8694SOL    HW237719   1.268   4.600   4.415 -0.3180 -1.9575  0.4797
 8695SOL     OW37720   2.940   4.512   8.084  0.0259 -0.0327  0.3236
 8695SOL    HW137721   2.888   4.439   8.051 -1.8865  0.7213  1.7012
 8695SOL    HW237722   2.953   4.488   8.176  0.2143  2.2952  0.8848
 8696SOL     OW37723   2.179   0.510  10.324  0.2161 -0.0101 -0.2958
 8696SOL    HW137724   2.270   0.505  10.296  0.3427  1.9385 -0.2139
 8696SOL    HW237725   2.138   0.556  10.251  0.2029  1.0564  0.3786
 8697SOL     OW37726   3.692   4.282   6.551 -0.4438  0.0881  0.1995
 8697SOL    HW137727   3.785   4.298   6.564 -0.1932 -3.2152  2.3031
 8697SOL    HW237728   3.695   4.188   6.568  0.4677  0.2782  1.0224
 8698SOL     OW37729   1.760   3.955   4.131 -0.1691 -0.1612 -0.7353
 8698SOL    HW137730   1.849   3.953   4.167 -0.2830 -1.3933 -0.5239
 8698SOL    HW237731   1.714   3.991   4.207 -0.3007  1.1506 -1.4375
 8699SOL     OW37732   1.177   4.088  17.656 -1.0162 -0.0911  0.9988
 8699SOL    HW137733   1.097   4.134  17.627 -0.8875  1.0827  2.4811
 8699SOL    HW237734   1.245   4.155  17.658  1.6108 -2.7398  0.1520
 8700SOL     OW37735   0.301   3.089   5.706 -0.0793  0.1019 -0.3871
 8700SOL    HW137736   0.219   3.126   5.737  0.4869  1.4141 -0.4540
 8700SOL    HW237737   0.260   3.035   5.638  0.0492 -0.1154 -0.2912
 8701SOL     OW37738   3.742   2.000   6.155 -0.3053  0.5313 -0.0196
 8701SOL    HW137739   3.701   1.958   6.230 -2.0741  2.8036  0.2879
 8701SOL    HW237740   3.704   1.969   6.073  1.8420 -3.2326  0.4051
 8702SOL     OW37741   1.510   2.056   4.927  0.2541  0.4469  0.3454
 8702SOL    HW137742   1.518   2.053   5.022 -0.2667 -0.0149  0.3723
 8702SOL    HW237743   1.511   1.962   4.910 -0.5173 -0.0898  3.1865
 8703SOL     OW37744   2.360   3.681  14.938 -0.8879 -0.8225 -0.0620
 8703SOL    HW137745   2.449   3.714  14.940 -1.6917  1.3747 -0.3192
 8703SOL    HW237746   2.367   3.597  14.983  1.4460 -1.3050 -1.3487
 8704SOL     OW37747   4.581   2.610   1.463  0.5828  0.6589 -0.7065
 8704SOL    HW137748   4.641   2.575   1.397  1.5568  0.0580  0.4764
 8704SOL    HW237749   4.623   2.690   1.495 -1.3419  1.2916  0.2115
 8705SOL     OW37750   4.220   2.921  17.494  0.3831  0.0423 -0.1780
 8705SOL    HW137751   4.300   2.944  17.447 -0.0881  1.7241 -0.1535
 8705SOL    HW237752   4.196   3.009  17.522 -0.8567 -0.1247 -0.7169
 8706SOL     OW37753   4.311   0.986   2.641  0.2946  0.3466  0.4934
 8706SOL    HW137754   4.315   0.972   2.546 -1.9846  2.7558  0.0519
 8706SOL    HW237755   4.219   0.968   2.656  0.7338  0.2171  3.0447
 8707SOL     OW37756   2.349   3.149   4.693  0.5847 -0.1716 -0.6905
 8707SOL    HW137757   2.415   3.162   4.761 -0.7920  3.9053 -0.1120
 8707SOL    HW237758   2.409   3.132   4.621  0.6797  1.1472 -0.9166
 8708SOL     OW37759   2.347   3.101   7.054 -0.0335 -0.1602 -0.3271
 8708SOL    HW137760   2.420   3.132   7.000  0.8664  0.4057  1.2275
 8708SOL    HW237761   2.373   3.010   7.070  1.3501  0.2504 -0.2427
 8709SOL     OW37762   1.183   1.491   2.257  0.0745 -0.0571  0.5879
 8709SOL    HW137763   1.172   1.448   2.342  3.9047 -0.6490  0.8175
 8709SOL    HW237764   1.105   1.546   2.254 -0.3629 -0.6662  0.6943
 8710SOL     OW37765   3.971   4.305   6.539  0.0070 -0.4076 -0.1364
 8710SOL    HW137766   4.011   4.222   6.564  1.1081  0.6476  1.5906
 8710SOL    HW237767   4.049   4.359   6.547 -0.3262 -0.0842  0.9119
 8711SOL     OW37768   1.666   2.215   0.192 -0.5407  0.2581  0.2682
 8711SOL    HW137769   1.626   2.159   0.125 -0.9774  1.3707 -0.4186
 8711SOL    HW237770   1.657   2.160   0.269 -4.1406  0.1821 -0.2212
 8712SOL     OW37771   4.431   0.767   8.286  0.4298  0.7206  0.1234
 8712SOL    HW137772   4.420   0.803   8.374  0.2158 -1.6685  1.0772
 8712SOL    HW237773   4.501   0.815   8.241  1.0728 -2.6448 -2.5114
 8713SOL     OW37774   3.043   3.446   3.402 -0.1536  0.6774 -0.3248
 8713SOL    HW137775   3.053   3.364   3.355 -0.3244  0.2950  0.3049
 8713SOL    HW237776   2.965   3.440   3.458 -0.2762  3.6031 -0.1712
 8714SOL     OW37777   0.771   0.137   5.132  0.2342  0.0386  0.1259
 8714SOL    HW137778   0.690   0.187   5.144  1.3125  1.3812  1.7627
 8714SOL    HW237779   0.836   0.207   5.145 -0.7065  1.0466 -0.5645
 8715SOL     OW37780   4.730   1.141  16.252  0.0924 -0.1909  0.3195
 8715SOL    HW137781   4.680   1.218  16.226 -0.1961 -0.5431 -0.1500
 8715SOL    HW237782   4.683   1.116  16.332 -1.8143 -0.7350 -1.0027
 8716SOL     OW37783   4.119   1.659  10.176  0.2484  0.1349  0.4011
 8716SOL    HW137784   4.023   1.663  10.180  0.2801  1.3457  0.0097
 8716SOL    HW237785   4.133   1.637  10.267 -0.9835  0.3575  0.6454
 8717SOL     OW37786   0.629   3.356   1.873 -0.7142 -0.3908  0.4650
 8717SOL    HW137787   0.559   3.295   1.895 -0.1008 -0.9247  0.9168
 8717SOL    HW237788   0.644   3.396   1.959 -2.4987  1.3583 -0.0314
 8718SOL     OW37789   3.616   3.911   1.789 -0.0489 -0.6657 -0.3170
 8718SOL    HW137790   3.645   3.905   1.697 -2.4366 -0.0001 -1.1047
 8718SOL    HW237791   3.563   3.990   1.783  2.3631  0.9075 -1.1290
 8719SOL     OW37792   0.041   2.113   8.446 -0.3468  0.6181 -0.2601
 8719SOL    HW137793   4.704   2.155   8.492 -0.6438  0.0808 -0.2487
 8719SOL    HW237794   0.085   2.061   8.513 -0.5412  0.8377  0.0406
 8720SOL     OW37795   0.726   2.806  15.834  0.1518 -0.2714  0.5610
 8720SOL    HW137796   0.708   2.738  15.899  1.4121 -0.4957  0.6876
 8720SOL    HW237797   0.730   2.753  15.755  0.8691  0.6996 -0.0657
 8721SOL     OW37798   1.367   0.989   2.071  0.5859 -0.0932 -0.4822
 8721SOL    HW137799   1.419   0.931   2.016 -0.4797  0.1054 -1.6826
 8721SOL    HW237800   1.426   1.016   2.142  1.4911 -1.1293 -0.8526
 8722SOL     OW37801   0.836   3.125   7.340  0.1485  0.1168 -0.0173
 8722SOL    HW137802   0.849   3.117   7.245  1.1391  2.2823 -0.0693
 8722SOL    HW237803   0.912   3.072   7.367 -1.2934 -1.4704  0.9267
 8723SOL     OW37804   4.416   3.288   2.840  0.1139 -0.0529  0.7056
 8723SOL    HW137805   4.390   3.281   2.932  0.7635  1.0064  0.9647
 8723SOL    HW237806   4.475   3.213   2.832 -0.5856 -0.7312  1.7676
 8724SOL     OW37807   1.125   4.425  11.995 -0.4414  0.1159  0.0840
 8724SOL    HW137808   1.168   4.434  11.910 -2.7544  2.6857 -0.8314
 8724SOL    HW237809   1.054   4.489  11.988 -0.3555  0.1082 -0.9233
 8725SOL     OW37810   4.446   0.744  15.304 -0.2304 -0.5015 -0.1512
 8725SOL    HW137811   4.442   0.836  15.275 -1.2501 -1.0974 -1.8970
 8725SOL    HW237812   4.373   0.703  15.259 -0.0100 -1.0815  0.0143
 8726SOL     OW37813   2.777   2.858  17.368 -0.2116  0.3301 -0.2814
 8726SOL    HW137814   2.858   2.851  17.419 -0.5129  1.7397  0.3779
 8726SOL    HW237815   2.760   2.766  17.348 -0.0883  0.1369  0.4908
 8727SOL     OW37816   4.557   3.848   5.898  0.1763  0.5271 -0.0005
 8727SOL    HW137817   4.551   3.924   5.841  0.8766  0.0587 -0.7113
 8727SOL    HW237818   4.602   3.887   5.973 -2.2949  0.3784  1.5387
 8728SOL     OW37819   2.143   2.289   4.134 -0.5382 -0.3017 -0.0916
 8728SOL    HW137820   2.144   2.317   4.225  0.2147 -2.2597  0.4852
 8728SOL    HW237821   2.150   2.371   4.084 -3.5235 -1.0875 -1.8157
 8729SOL     OW37822   0.353   3.390   6.331  0.4162  0.8647  0.7369
 8729SOL    HW137823   0.326   3.308   6.372 -1.4588  0.9699 -0.2888
 8729SOL    HW237824   0.437   3.394   6.377  0.2114 -1.1749  1.2695
 8730SOL     OW37825   2.427   2.808  16.878  0.5496 -0.2815  0.1411
 8730SOL    HW137826   2.422   2.849  16.791 -1.3814  1.6362  1.1601
 8730SOL    HW237827   2.431   2.719  16.844  0.7266 -0.2352  0.0388
 8731SOL     OW37828   3.374   0.770   4.728 -0.0512  0.1078  0.0355
 8731SOL    HW137829   3.341   0.771   4.818 -2.1933  0.4628 -0.7662
 8731SOL    HW237830   3.358   0.858   4.694  0.4108  0.8341  1.7300
 8732SOL     OW37831   3.512   4.228   5.991 -0.0987  0.2106  0.3602
 8732SOL    HW137832   3.430   4.231   5.942 -0.4132  1.0945  0.9379
 8732SOL    HW237833   3.534   4.135   5.983  0.0364  0.6078 -3.5042
 8733SOL     OW37834   1.282   1.038  11.966 -0.1476 -0.1832  0.1189
 8733SOL    HW137835   1.253   1.071  12.051  0.2118 -2.3752  1.1100
 8733SOL    HW237836   1.285   0.944  11.983 -1.7388 -0.4856 -1.1594
 8734SOL     OW37837   4.688   4.638  15.044 -0.1990 -0.1239  0.0302
 8734SOL    HW137838   4.618   4.583  15.011  0.2941 -1.3629  1.0509
 8734SOL    HW237839   4.658   4.725  15.017 -1.2309 -0.6224 -0.4074
 8735SOL     OW37840   3.412   0.683   8.195 -0.1493  0.4445 -0.2167
 8735SOL    HW137841   3.338   0.723   8.150 -0.7546 -0.2479  0.1662
 8735SOL    HW237842   3.476   0.679   8.124  0.9190 -0.7595  0.8247
 8736SOL     OW37843   1.799   2.390  16.117 -0.2797 -0.0785 -0.2765
 8736SOL    HW137844   1.774   2.478  16.089 -0.6810 -1.1008 -3.1704
 8736SOL    HW237845   1.891   2.414  16.128 -1.4809  4.4516  0.1476
 8737SOL     OW37846   3.203   3.151   1.211 -0.4136 -0.6826  0.0994
 8737SOL    HW137847   3.209   3.107   1.127 -0.3127 -0.1248 -0.1877
 8737SOL    HW237848   3.109   3.166   1.224  0.1552  1.6618  1.6359
 8738SOL     OW37849   2.118   1.034   8.455 -0.2917 -0.1476  0.0136
 8738SOL    HW137850   2.185   0.971   8.481 -1.1156 -1.2140 -0.4434
 8738SOL    HW237851   2.168   1.090   8.396 -1.5525  1.4532  0.4761
 8739SOL     OW37852   2.583   3.172  16.235 -0.1855  0.5815  0.3970
 8739SOL    HW137853   2.661   3.176  16.180  0.4194 -3.0999  1.0365
 8739SOL    HW237854   2.570   3.267  16.238 -1.3325  0.4428 -0.3469
 8740SOL     OW37855   4.642   0.740   3.252 -0.6629 -0.2251 -0.0759
 8740SOL    HW137856   4.611   0.713   3.166 -5.0652 -1.7755  1.9583
 8740SOL    HW237857   4.580   0.680   3.295 -0.1502 -2.8233 -3.0401
 8741SOL     OW37858   2.309   4.728   8.431  0.2630  0.3038  0.1280
 8741SOL    HW137859   2.356   0.069   8.460  0.0346  0.6872 -0.5361
 8741SOL    HW237860   2.255   4.715   8.509  0.1740  1.5927  0.2718
 8742SOL     OW37861   0.401   3.291   0.468 -0.5403  0.4487  0.0430
 8742SOL    HW137862   0.486   3.249   0.456 -1.7182 -2.3215  1.1833
 8742SOL    HW237863   0.391   3.282   0.563  1.7213 -1.2040  0.1327
 8743SOL     OW37864   3.376   3.158   9.341  0.0484  0.2440 -0.1576
 8743SOL    HW137865   3.291   3.171   9.299  0.3264  1.3805 -0.3629
 8743SOL    HW237866   3.434   3.177   9.268 -0.0365  3.2498  0.5726
 8744SOL     OW37867   4.506   3.321   8.522 -0.1516  0.0698  0.3808
 8744SOL    HW137868   4.522   3.284   8.609  2.2372 -0.5549 -0.3406
 8744SOL    HW237869   4.423   3.369   8.522 -0.9668 -1.3191  2.1438
 8745SOL     OW37870   4.105   3.269  16.798  0.0114 -0.6544 -0.2611
 8745SOL    HW137871   4.185   3.316  16.823  0.0564 -1.6938  1.5746
 8745SOL    HW237872   4.068   3.236  16.880 -1.0284 -2.1933 -1.3506
 8746SOL     OW37873   1.778   4.035   3.847 -0.0666 -0.2122  0.2033
 8746SOL    HW137874   1.795   3.942   3.831  0.0776 -0.1542  0.0200
 8746SOL    HW237875   1.785   4.038   3.942  0.8800  0.1540  0.1219
 8747SOL     OW37876   1.038   2.525   2.895  0.0213 -0.1801 -0.1891
 8747SOL    HW137877   1.054   2.597   2.957 -3.1250  0.4861 -0.1497
 8747SOL    HW237878   1.057   2.447   2.947 -2.3747  0.2167  1.3071
 8748SOL     OW37879   3.743   2.871   3.647 -0.3147 -0.0940 -0.5948
 8748SOL    HW137880   3.835   2.846   3.634 -0.0575  0.7294 -0.3821
 8748SOL    HW237881   3.707   2.788   3.677  2.2863 -0.7541  0.7438
 8749SOL     OW37882   2.560   3.589  14.011  0.2352 -0.3732 -0.1273
 8749SOL    HW137883   2.466   3.581  13.997  0.6084 -2.4596 -1.4767
 8749SOL    HW237884   2.557   3.684  14.022  0.4997 -0.4697  0.7795
 8750SOL     OW37885   1.983   3.357  12.040  0.3011 -0.2809  0.0403
 8750SOL    HW137886   1.932   3.430  12.076  2.8147  1.2113  0.5546
 8750SOL    HW237887   2.066   3.401  12.023 -0.1374  0.9193  1.0569
 8751SOL     OW37888   2.779   1.896   2.144 -0.5732  1.1725  0.2962
 8751SOL    HW137889   2.828   1.910   2.063  2.6352  0.8387  2.1619
 8751SOL    HW237890   2.849   1.892   2.210 -0.9173 -1.0687  0.5363
 8752SOL     OW37891   4.711   3.515   5.290  0.6597 -0.3605 -0.4044
 8752SOL    HW137892   4.735   3.607   5.287 -2.4891  0.4506 -0.4288
 8752SOL    HW237893   0.010   3.485   5.373 -0.8399  2.2965  1.1810
 8753SOL     OW37894   1.235   4.546   3.552  0.1910 -0.2302 -0.2607
 8753SOL    HW137895   1.195   4.477   3.606  2.3695 -1.7890 -0.6321
 8753SOL    HW237896   1.230   4.499   3.469  0.4563 -2.2942  0.8849
 8754SOL     OW37897   1.457   2.294   8.961  0.0850 -0.1792 -0.3451
 8754SOL    HW137898   1.393   2.286   8.890  0.6596 -1.5155 -0.7059
 8754SOL    HW237899   1.403   2.275   9.038 -0.2361  3.6090  0.3602
 8755SOL     OW37900   1.413   1.304   2.724 -0.1916  0.6838 -0.0901
 8755SOL    HW137901   1.476   1.362   2.682 -0.3584 -0.5596 -2.0641
 8755SOL    HW237902   1.374   1.374   2.776  0.5394  1.2040 -0.2440
 8756SOL     OW37903   2.341   4.050   4.022 -0.5165 -0.5516  0.7085
 8756SOL    HW137904   2.381   4.035   4.108  1.9139 -0.9490 -0.4819
 8756SOL    HW237905   2.317   4.142   4.031 -0.5003 -0.5215  0.4452
 8757SOL     OW37906   1.634   2.823   9.089 -0.1458 -0.1388 -0.4145
 8757SOL    HW137907   1.643   2.738   9.047 -0.7859 -0.1098 -0.6145
 8757SOL    HW237908   1.540   2.841   9.080 -0.3884 -1.2341 -0.0267
 8758SOL     OW37909   3.084   0.968   7.115 -0.8518  0.3005  0.5141
 8758SOL    HW137910   3.142   0.896   7.092  0.4901  1.2131  1.0302
 8758SOL    HW237911   3.145   1.039   7.137 -1.0408  0.7724 -0.4807
 8759SOL     OW37912   2.159   2.809   7.271 -0.0985 -0.2110 -0.6230
 8759SOL    HW137913   2.122   2.727   7.304 -0.8860  0.8293  1.0330
 8759SOL    HW237914   2.210   2.767   7.201  0.3458 -3.4157  1.6153
 8760SOL     OW37915   2.868   2.721  14.536  0.2478 -0.1137  0.4045
 8760SOL    HW137916   2.775   2.743  14.544  0.2446 -0.1050  0.3424
 8760SOL    HW237917   2.891   2.777  14.463  1.9602 -0.9310  0.3130
 8761SOL     OW37918   3.074   1.667   1.719  0.8080 -0.1024 -0.6165
 8761SOL    HW137919   3.029   1.741   1.760 -0.4431 -1.1430 -0.0988
 8761SOL    HW237920   3.157   1.654   1.764  0.8071 -1.4999 -1.0077
 8762SOL     OW37921   3.844   0.922   7.857 -0.1062  0.6101 -0.3606
 8762SOL    HW137922   3.912   0.872   7.810 -0.7726 -0.8534  0.2164
 8762SOL    HW237923   3.899   0.947   7.931  0.1824 -1.5352  0.1639
 8763SOL     OW37924   3.876   0.825   2.177 -0.1834 -0.1605 -1.1300
 8763SOL    HW137925   3.903   0.734   2.179 -0.3377 -0.2171 -1.9251
 8763SOL    HW237926   3.781   0.814   2.173  0.0695 -1.5960 -2.8717
 8764SOL     OW37927   2.577   2.266   9.888  0.3310 -0.5869 -0.1258
 8764SOL    HW137928   2.598   2.226   9.804 -0.0826 -0.2780 -0.3765
 8764SOL    HW237929   2.484   2.280   9.871  0.5575  0.0137 -0.8763
 8765SOL     OW37930   2.884   0.582   4.491  0.0114 -0.2991 -0.4133
 8765SOL    HW137931   2.835   0.595   4.410  0.3991  0.9378 -0.4488
 8765SOL    HW237932   2.889   0.673   4.521 -2.0526 -0.3240  0.0017
 8766SOL     OW37933   4.681   3.642   6.567  0.1109 -0.3408 -0.2330
 8766SOL    HW137934   4.607   3.590   6.537 -1.4946  2.2261 -0.7463
 8766SOL    HW237935   0.022   3.591   6.545  1.2234  1.1044  0.3022
 8767SOL     OW37936   0.311   1.404  11.620 -0.1355  0.2696  0.0370
 8767SOL    HW137937   0.335   1.495  11.634  0.6843 -0.0350  0.5911
 8767SOL    HW237938   0.222   1.394  11.653  0.1648 -1.5356  0.3133
 8768SOL     OW37939   2.645   0.981   8.530  0.1316  0.1483 -0.2949
 8768SOL    HW137940   2.620   1.070   8.556 -1.3879  0.1215 -1.6430
 8768SOL    HW237941   2.589   0.925   8.584 -0.4622 -0.4948 -1.5724
 8769SOL     OW37942   3.535   3.443   0.307  0.0166 -0.7823 -0.1189
 8769SOL    HW137943   3.617   3.413   0.347 -0.4161  0.2692  1.5770
 8769SOL    HW237944   3.575   3.522   0.271  0.9483 -0.4281  1.6687
 8770SOL     OW37945   1.959   2.997   3.932  0.4726 -0.1295  0.2581
 8770SOL    HW137946   1.887   2.963   3.879 -0.9560  2.1650  0.7275
 8770SOL    HW237947   2.022   3.027   3.866 -1.9601 -0.7793 -2.3826
 8771SOL     OW37948   0.780   2.415   7.808  0.2110  0.4053  0.1983
 8771SOL    HW137949   0.789   2.328   7.845 -1.8941 -0.4660 -1.3899
 8771SOL    HW237950   0.866   2.452   7.832  0.3521  0.0308  0.2630
 8772SOL     OW37951   3.040   3.299  11.442  0.1651  0.3575 -0.3176
 8772SOL    HW137952   2.963   3.245  11.426 -0.8434  1.3381  1.2668
 8772SOL    HW237953   3.005   3.364  11.504 -0.6243  0.5661 -0.9868
 8773SOL     OW37954   1.833   0.593   9.221 -0.3617 -0.7744 -0.3938
 8773SOL    HW137955   1.806   0.576   9.130 -1.7096  0.4613 -0.2280
 8773SOL    HW237956   1.915   0.545   9.228 -0.4242 -1.0643 -1.5436
 8774SOL     OW37957   2.978   1.492  10.545 -0.0555  0.5880  0.0559
 8774SOL    HW137958   3.041   1.424  10.521 -1.0632 -0.4169  0.2116
 8774SOL    HW237959   2.925   1.506  10.467 -0.7567  1.3824  0.6748
 8775SOL     OW37960   2.354   1.223  12.608  0.1960 -0.0409 -0.2396
 8775SOL    HW137961   2.269   1.225  12.565 -0.9012  1.6015  2.0199
 8775SOL    HW237962   2.392   1.156  12.551  2.8211  0.9351  0.3250
 8776SOL     OW37963   0.647   2.315  12.276  0.2709  0.1156 -0.2699
 8776SOL    HW137964   0.634   2.383  12.210 -0.7358  0.8254  0.6636
 8776SOL    HW237965   0.675   2.237  12.228 -0.1573 -1.3869  1.9213
 8777SOL     OW37966   1.157   3.515  13.405  0.2609 -0.0137 -0.5292
 8777SOL    HW137967   1.091   3.578  13.375  1.1024  0.3630 -1.5719
 8777SOL    HW237968   1.156   3.532  13.499  1.7983  1.7950 -0.8538
 8778SOL     OW37969   2.735   0.672   2.983  0.2506 -0.4646  0.0409
 8778SOL    HW137970   2.820   0.652   2.943  0.2957 -0.1408 -0.0208
 8778SOL    HW237971   2.763   0.674   3.074 -2.0084  1.3338  0.6648
 8779SOL     OW37972   2.563   1.921   9.467  0.0655 -0.8858 -0.3424
 8779SOL    HW137973   2.596   1.883   9.385 -1.1662 -1.1537 -0.7229
 8779SOL    HW237974   2.536   1.845   9.518  0.1400  0.6207  1.9136
 8780SOL     OW37975   1.168   3.241   9.386  0.3528 -0.2395  0.1681
 8780SOL    HW137976   1.183   3.334   9.401  3.0545 -0.7954  0.9666
 8780SOL    HW237977   1.158   3.240   9.291 -1.8480 -2.1066  0.4204
 8781SOL     OW37978   4.538   1.424   4.479 -0.6320 -0.1527 -0.3632
 8781SOL    HW137979   4.523   1.332   4.457  0.8533 -0.0988 -1.5506
 8781SOL    HW237980   4.455   1.439   4.525 -0.6235 -0.5753 -0.2149
 8782SOL     OW37981   0.897   3.449   2.589 -0.2876  0.2849 -0.0755
 8782SOL    HW137982   0.977   3.437   2.538 -0.8807 -1.4899 -0.5862
 8782SOL    HW237983   0.898   3.544   2.605 -0.3436 -0.0930  2.1185
 8783SOL     OW37984   0.732   2.285   3.127 -0.5013 -0.2147  0.6963
 8783SOL    HW137985   0.719   2.379   3.115  1.7585 -0.0266 -0.1956
 8783SOL    HW237986   0.778   2.281   3.211  0.4669 -1.8444  0.0857
 8784SOL     OW37987   1.824   4.031  16.376 -0.4934  0.0503 -0.4013
 8784SOL    HW137988   1.919   4.036  16.369 -0.4656 -0.7681 -0.6101
 8784SOL    HW237989   1.821   3.945  16.335  2.7922 -0.1534 -0.1643
 8785SOL     OW37990   4.628   2.181   6.494 -0.0229  0.3015  0.2308
 8785SOL    HW137991   4.546   2.213   6.457 -0.7450 -1.0746  0.6602
 8785SOL    HW237992   4.604   2.182   6.586  2.0052  0.1130  0.7571
 8786SOL     OW37993   3.054   3.612  17.333  0.1414 -0.5636  0.0161
 8786SOL    HW137994   3.003   3.682  17.293  0.3529  0.2244  1.1270
 8786SOL    HW237995   3.142   3.646  17.317 -1.3053  1.1482 -4.4016
 8787SOL     OW37996   2.381   4.097  11.119  0.8264 -0.1617  0.1648
 8787SOL    HW137997   2.292   4.062  11.128  0.6447  0.5971  1.4283
 8787SOL    HW237998   2.380   4.158  11.192  1.0036 -0.0056  0.0360
 8788SOL     OW37999   4.668   1.369   8.242  0.1023  0.4265  0.1443
 8788SOL    HW138000   4.683   1.455   8.280 -1.2778  0.7371  0.0057
 8788SOL    HW238001   4.631   1.398   8.159 -0.0122 -3.6945 -1.2651
 8789SOL     OW38002   4.436   4.217   1.613  0.1526  0.6995  0.5370
 8789SOL    HW138003   4.382   4.231   1.535 -0.7292  1.4198  1.2772
 8789SOL    HW238004   4.518   4.184   1.577 -0.4140 -0.0233 -0.1002
 8790SOL     OW38005   4.609   1.078   9.396 -0.3075 -0.0308 -0.2862
 8790SOL    HW138006   4.546   1.010   9.419 -1.0172  0.1145 -1.8287
 8790SOL    HW238007   4.664   1.084   9.475 -0.1054 -2.2899 -0.2558
 8791SOL     OW38008   4.284   4.718  10.433 -0.4151  0.4126 -0.3334
 8791SOL    HW138009   4.339   0.024  10.500 -1.3790 -2.1217  2.0688
 8791SOL    HW238010   4.214   4.670  10.478 -0.1721 -0.1359 -0.5407
 8792SOL     OW38011   3.426   2.068   8.926 -0.1531  0.1105 -0.2273
 8792SOL    HW138012   3.356   2.045   8.988  0.5426  0.9454  0.8506
 8792SOL    HW238013   3.493   2.018   8.972 -2.1869 -2.0129  0.4595
 8793SOL     OW38014   1.551   4.059   2.171  0.6268  0.0806 -0.0592
 8793SOL    HW138015   1.555   4.023   2.083 -0.2903  2.0949 -0.9101
 8793SOL    HW238016   1.462   4.058   2.206  2.0852  0.1552  3.7421
 8794SOL     OW38017   1.779   2.835   3.785  0.5204  0.0611  0.2652
 8794SOL    HW138018   1.719   2.762   3.799  1.2012 -0.2367  1.6711
 8794SOL    HW238019   1.849   2.781   3.748 -2.3325 -1.7278 -2.5076
 8795SOL     OW38020   3.327   1.948   2.456 -0.4339  0.1826  0.4682
 8795SOL    HW138021   3.310   1.860   2.489 -0.0682  0.1952  0.6907
 8795SOL    HW238022   3.395   1.981   2.515 -0.6835 -1.2195  1.5251
 8796SOL     OW38023   2.573   2.358   1.000 -0.4323  0.4353 -0.4011
 8796SOL    HW138024   2.526   2.308   0.934 -1.7216 -0.1605  0.9523
 8796SOL    HW238025   2.510   2.429   1.012 -1.8296 -1.1939  1.8969
 8797SOL     OW38026   2.612   4.537   2.860 -0.0645  0.6559 -0.1122
 8797SOL    HW138027   2.634   4.453   2.902 -1.3750  0.0263 -0.6761
 8797SOL    HW238028   2.699   4.575   2.870 -0.1239  0.7660 -0.0167
 8798SOL     OW38029   3.395   1.984  16.744  0.3951 -0.0136 -0.2209
 8798SOL    HW138030   3.373   1.909  16.799 -3.1327  1.9492  1.0290
 8798SOL    HW238031   3.490   1.984  16.754  0.3690 -1.0717  0.0228
 8799SOL     OW38032   3.497   2.270   5.960  0.1794  0.0926  0.3587
 8799SOL    HW138033   3.462   2.352   5.926  0.5457 -0.3848 -1.1830
 8799SOL    HW238034   3.424   2.208   5.955 -0.7707  1.2323  0.2481
 8800SOL     OW38035   1.068   2.705  11.738 -0.5755  0.4619 -0.5558
 8800SOL    HW138036   1.061   2.778  11.676  0.7490  0.5810 -0.5622
 8800SOL    HW238037   0.990   2.720  11.792 -1.3322  0.7445 -1.7290
 8801SOL     OW38038   2.010   0.550   6.238  0.5063  0.1642  0.8373
 8801SOL    HW138039   2.066   0.547   6.316 -0.4540  0.0029  1.5240
 8801SOL    HW238040   2.065   0.612   6.191 -0.9084  1.0084  0.3250
 8802SOL     OW38041   4.069   3.816  15.275 -0.0348 -0.3879 -0.2463
 8802SOL    HW138042   4.005   3.752  15.244  1.0272 -1.4319 -0.2682
 8802SOL    HW238043   4.141   3.794  15.215  0.9627  1.2507  0.3725
 8803SOL     OW38044   2.323   0.137   7.027  0.7118 -0.6117 -0.2012
 8803SOL    HW138045   2.230   0.114   7.037  0.7912 -1.4404 -1.3128
 8803SOL    HW238046   2.337   0.196   7.101  0.5366 -0.1130 -0.5738
 8804SOL     OW38047   0.752   3.099   5.579 -0.1697  0.3038  0.0433
 8804SOL    HW138048   0.799   3.179   5.557  1.7116  0.0726  3.2816
 8804SOL    HW238049   0.709   3.128   5.660  2.2635  1.9976  0.7201
 8805SOL     OW38050   3.834   1.222   5.331 -0.2555 -0.0479  0.2599
 8805SOL    HW138051   3.744   1.202   5.357 -0.7994  1.4435 -0.4744
 8805SOL    HW238052   3.866   1.134   5.312 -2.3155 -0.6341 -0.4198
 8806SOL     OW38053   1.886   3.097   4.540  0.1827 -0.2042  0.1007
 8806SOL    HW138054   1.880   3.192   4.530  0.7401 -0.0968  0.7264
 8806SOL    HW238055   1.975   3.085   4.574  0.3048  2.1782  0.6512
 8807SOL     OW38056   1.866   3.379   3.791  0.2669  0.1069  0.0375
 8807SOL    HW138057   1.891   3.338   3.709  0.5662  1.1254 -0.3896
 8807SOL    HW238058   1.931   3.449   3.782 -0.1635  0.6964  1.4707
 8808SOL     OW38059   4.505   0.282   5.814 -0.5543  0.6143  0.1943
 8808SOL    HW138060   4.493   0.376   5.826  1.2285  0.9982 -0.9321
 8808SOL    HW238061   4.578   0.278   5.751 -0.1930  1.4753  0.5457
 8809SOL     OW38062   3.307   1.794  13.686 -0.0035  0.3608 -0.3221
 8809SOL    HW138063   3.271   1.870  13.640  0.0993  0.2221 -0.6307
 8809SOL    HW238064   3.248   1.721  13.669  3.4974 -2.4994 -0.1728
 8810SOL     OW38065   3.120   4.307  11.724  0.0526  0.4261  0.6942
 8810SOL    HW138066   3.096   4.366  11.653  2.4344  0.4527 -0.0754
 8810SOL    HW238067   3.113   4.228  11.670  0.4128  0.3172  0.8015
 8811SOL     OW38068   3.995   2.052   3.974  0.7668  0.3371  0.0243
 8811SOL    HW138069   4.029   2.095   3.895 -1.3636 -0.2635 -1.2127
 8811SOL    HW238070   4.041   2.105   4.039  0.0504  0.2427  0.6089
 8812SOL     OW38071   4.381   4.705   8.389 -0.1532 -0.0539 -0.1093
 8812SOL    HW138072   4.430   4.730   8.467 -0.2274  0.4525 -0.2265
 8812SOL    HW238073   4.318   4.639   8.417 -0.0357  1.0370  2.7195
 8813SOL     OW38074   3.094   4.111   7.616 -0.0634  0.2052  0.6779
 8813SOL    HW138075   3.165   4.158   7.573  0.1006 -2.3247 -1.8613
 8813SOL    HW238076   3.152   4.058   7.670 -0.6879 -0.3880  0.7664
 8814SOL     OW38077   4.150   2.886   4.036  0.4575 -0.1809 -0.0328
 8814SOL    HW138078   4.187   2.935   3.962 -0.8240  0.5984 -0.1407
 8814SOL    HW238079   4.072   2.937   4.057 -0.0761 -0.3244 -1.6338
 8815SOL     OW38080   3.690   2.639   5.138  0.4412  0.6811 -0.0001
 8815SOL    HW138081   3.619   2.618   5.079  0.3058  2.3937 -0.4485
 8815SOL    HW238082   3.766   2.639   5.080  0.5838  1.2880  0.1858
 8816SOL     OW38083   3.567   0.045  13.342 -0.3994  0.0099 -0.2781
 8816SOL    HW138084   3.492   0.031  13.401  0.5903 -0.7554  0.8084
 8816SOL    HW238085   3.609   4.696  13.331 -0.5511 -0.0902 -0.0867
 8817SOL     OW38086   0.297   0.301   4.259 -0.1175 -0.1287  0.3530
 8817SOL    HW138087   0.314   0.376   4.203  1.0786  0.4831  1.5359
 8817SOL    HW238088   0.306   0.231   4.194  3.0244 -0.3134  0.9954
 8818SOL     OW38089   4.266   3.224   4.883 -0.5660  0.2581 -0.2498
 8818SOL    HW138090   4.202   3.294   4.885  0.6138  1.3511 -0.8440
 8818SOL    HW238091   4.347   3.272   4.901 -0.9349  0.8121 -0.1039
 8819SOL     OW38092   0.124   3.167  15.450 -0.2116  0.1914 -0.1879
 8819SOL    HW138093   0.029   3.166  15.453 -0.2677 -0.7000 -2.0451
 8819SOL    HW238094   0.147   3.113  15.526  1.5532  0.6248 -0.4227
 8820SOL     OW38095   0.810   1.541   6.677 -0.5532  0.1649 -0.0390
 8820SOL    HW138096   0.747   1.603   6.712  0.9281  2.6599 -1.7576
 8820SOL    HW238097   0.752   1.466   6.663  0.8978 -1.5580  2.9737
 8821SOL     OW38098   4.476   1.734   9.411 -0.3548  0.4145  0.3738
 8821SOL    HW138099   4.444   1.781   9.488  2.6209  2.5305  0.3345
 8821SOL    HW238100   4.501   1.656   9.461 -1.9989 -0.9127 -0.8954
 8822SOL     OW38101   2.507   2.298   8.099  0.0900 -0.2214  0.1855
 8822SOL    HW138102   2.575   2.270   8.037  1.3894  2.6039  0.3400
 8822SOL    HW238103   2.489   2.386   8.065  0.4183 -0.4635 -0.6194
 8823SOL     OW38104   3.214   3.391   7.405  0.2737  0.1720  0.3780
 8823SOL    HW138105   3.119   3.391   7.414  0.4494 -0.4516  2.4238
 8823SOL    HW238106   3.221   3.466   7.347  0.9818  0.2568  0.5734
 8824SOL     OW38107   3.001   0.593   3.534  0.0023  1.0587 -0.1814
 8824SOL    HW138108   2.932   0.617   3.597  0.6346 -1.8191  1.5921
 8824SOL    HW238109   3.084   0.623   3.571 -0.1106  1.6285 -0.3900
 8825SOL     OW38110   1.806   3.184   0.033 -0.3174  0.1320  0.3316
 8825SOL    HW138111   1.816   3.091   0.012 -2.7559  0.1021 -0.6507
 8825SOL    HW238112   1.725   3.183   0.083  0.8267  0.0309  2.1957
 8826SOL     OW38113   4.701   1.918   5.717  0.8216 -0.4593 -0.1431
 8826SOL    HW138114   4.615   1.916   5.759  1.5273 -1.0569  1.2772
 8826SOL    HW238115   4.692   1.844   5.656 -0.5082  1.1192 -1.8624
 8827SOL     OW38116   0.947   4.235   1.846  0.0661  0.2575  0.3696
 8827SOL    HW138117   0.956   4.235   1.941 -1.3201 -0.9483  0.4937
 8827SOL    HW238118   0.879   4.169   1.837 -0.3759  0.7488  0.1200
 8828SOL     OW38119   4.628   2.366   7.753 -0.3792  0.4584  0.2011
 8828SOL    HW138120   4.559   2.365   7.820 -1.4360 -1.7115 -0.9252
 8828SOL    HW238121   4.698   2.328   7.808  0.6093  2.6162  0.4334
 8829SOL     OW38122   3.472   1.847   6.657  0.9600 -0.0486  0.6871
 8829SOL    HW138123   3.542   1.805   6.706  0.8566 -0.3036  0.6129
 8829SOL    HW238124   3.395   1.789   6.658  0.4685  0.5673 -1.2965
 8830SOL     OW38125   2.200   4.112   8.371 -0.2426  0.1425  0.3075
 8830SOL    HW138126   2.144   4.035   8.383  1.1611 -0.6588  1.6423
 8830SOL    HW238127   2.208   4.098   8.276 -0.4776 -0.7055  0.4145
 8831SOL     OW38128   4.654   3.932   9.535 -0.1401  0.3076  0.4391
 8831SOL    HW138129   4.624   3.978   9.457  0.8957  2.1138  1.1071
 8831SOL    HW238130   4.638   3.995   9.606 -1.3756 -0.6768  1.0401
 8832SOL     OW38131   2.158   2.579   5.147 -0.0752  0.1696 -0.0872
 8832SOL    HW138132   2.229   2.619   5.097 -0.4343  2.0392  0.9091
 8832SOL    HW238133   2.077   2.619   5.117  0.3424 -0.8726 -2.5999
 8833SOL     OW38134   0.087   4.375  15.118  0.5290 -0.3069 -1.0332
 8833SOL    HW138135   0.147   4.301  15.106  0.3685 -0.5256 -0.4663
 8833SOL    HW238136   0.079   4.418  15.033  3.0201  0.0282 -1.0889
 8834SOL     OW38137   0.942   2.609   9.709  0.2090 -0.0513  0.2163
 8834SOL    HW138138   1.015   2.575   9.760 -0.3186 -3.1821 -1.1133
 8834SOL    HW238139   0.896   2.669   9.768 -0.7401 -0.6264  0.0662
 8835SOL     OW38140   4.385   4.589  10.021  0.5720 -0.1481 -0.1765
 8835SOL    HW138141   4.382   4.612   9.928  0.7657  0.8543  0.0635
 8835SOL    HW238142   4.322   4.518  10.027 -0.2349  0.7063  1.6746
 8836SOL     OW38143   0.843   2.111   6.220 -0.1306 -0.2907  0.1068
 8836SOL    HW138144   0.929   2.096   6.260 -1.9239 -2.2328  3.1895
 8836SOL    HW238145   0.796   2.038   6.259  0.5902 -0.9835 -0.3063
 8837SOL     OW38146   2.438   1.949   6.597  0.5019 -0.2454  0.3216
 8837SOL    HW138147   2.385   2.014   6.644  0.9679 -0.1277  0.6825
 8837SOL    HW238148   2.380   1.916   6.529  0.5032  0.4492 -0.0133
 8838SOL     OW38149   2.896   0.335  12.431  0.7214  0.2333  0.9014
 8838SOL    HW138150   2.968   0.397  12.422  0.2963  0.6337  0.2713
 8838SOL    HW238151   2.939   0.263  12.478  1.4201 -0.8717 -1.4271
 8839SOL     OW38152   4.363   3.692   7.487 -0.1380 -0.2312  0.0101
 8839SOL    HW138153   4.458   3.701   7.479 -0.1972 -0.2871 -0.7279
 8839SOL    HW238154   4.347   3.625   7.553 -1.8217  0.3001  0.1385
 8840SOL     OW38155   3.150   3.348   6.136 -0.0882  0.0016  0.4421
 8840SOL    HW138156   3.066   3.373   6.097 -0.6781 -0.5122  1.3783
 8840SOL    HW238157   3.135   3.255   6.119 -0.1353 -0.4079  2.6051
 8841SOL     OW38158   0.775   0.556   7.431  0.3845  0.8421  0.2085
 8841SOL    HW138159   0.788   0.563   7.525  1.6025  0.2755  0.0818
 8841SOL    HW238160   0.721   0.477   7.431  1.3717  0.1648  1.4202
 8842SOL     OW38161   3.224   1.286   2.888 -0.6479 -0.1918  0.2687
 8842SOL    HW138162   3.253   1.288   2.980 -1.6265 -0.7578  0.5893
 8842SOL    HW238163   3.275   1.212   2.856  0.7292  1.6108 -1.7441
 8843SOL     OW38164   1.988   0.651   1.025  0.0718  0.5277 -0.0684
 8843SOL    HW138165   2.002   0.647   0.931 -0.9733  0.7939 -0.2316
 8843SOL    HW238166   2.079   0.651   1.054  0.0503 -1.1814  0.0050
 8844SOL     OW38167   4.199   2.794   0.646 -0.3188  0.0222  0.4027
 8844SOL    HW138168   4.141   2.720   0.661 -1.2427  0.3292 -1.6695
 8844SOL    HW238169   4.186   2.845   0.726  0.2939 -0.6744  0.9536
 8845SOL     OW38170   0.646   1.406  12.585  0.1526  0.1065 -0.0836
 8845SOL    HW138171   0.605   1.446  12.662  0.4038  0.1865  0.0077
 8845SOL    HW238172   0.724   1.461  12.578 -1.1704  2.2015  1.5124
 8846SOL     OW38173   1.031   1.981   8.785 -0.2689  0.1060  0.6742
 8846SOL    HW138174   0.942   1.959   8.813 -0.4129  0.4419  0.4828
 8846SOL    HW238175   1.010   1.990   8.692 -1.6345 -0.7819  0.9013
 8847SOL     OW38176   2.791   0.057   2.718  0.3138  0.0049 -0.2966
 8847SOL    HW138177   2.782   0.135   2.773  0.7168 -1.6322  2.0818
 8847SOL    HW238178   2.822   4.725   2.777 -1.4812 -1.7294 -1.3678
 8848SOL     OW38179   3.474   0.430   6.208 -0.2827 -0.4568 -0.4378
 8848SOL    HW138180   3.427   0.439   6.125 -0.4579 -0.3185 -0.3245
 8848SOL    HW238181   3.560   0.467   6.190 -1.2360  1.5529 -0.9012
 8849SOL     OW38182   2.784   0.076   1.889  0.1535  0.1794  0.2170
 8849SOL    HW138183   2.859   0.059   1.832  0.8078  0.1352  1.1077
 8849SOL    HW238184   2.820   0.159   1.919 -0.5336  0.5378  0.0507
 8850SOL     OW38185   1.403   4.243  12.091  0.2170 -0.1078 -0.1620
 8850SOL    HW138186   1.316   4.277  12.068 -0.0400 -1.0317 -0.5253
 8850SOL    HW238187   1.380   4.164  12.139 -2.2408  0.2263 -0.7677
 8851SOL     OW38188   2.179   4.717   4.110 -0.5826  0.3385 -0.9687
 8851SOL    HW138189   2.151   4.625   4.118 -4.0160  1.5283  0.7505
 8851SOL    HW238190   2.171   4.736   4.017 -0.3488  2.1620 -0.6156
 8852SOL     OW38191   1.305   0.177   7.157 -0.6856  0.3012 -0.2260
 8852SOL    HW138192   1.251   0.255   7.173 -0.7620  0.0750  0.5985
 8852SOL    HW238193   1.347   0.161   7.241 -1.5204  1.7571  0.4678
 8853SOL     OW38194   4.275   3.025   5.470 -0.0447  0.2257 -0.3985
 8853SOL    HW138195   4.185   3.008   5.441  0.1366  2.1758 -2.1373
 8853SOL    HW238196   4.265   3.019   5.565  0.9802  0.3245 -0.2918
 8854SOL     OW38197   1.329   0.235  16.565 -0.1067  0.5501 -0.4586
 8854SOL    HW138198   1.347   0.219  16.658 -0.5510 -1.4609 -0.7215
 8854SOL    HW238199   1.241   0.273  16.571 -0.9009 -0.8817 -2.9816
 8855SOL     OW38200   3.783   2.401   8.245  0.4477  0.5256  0.1811
 8855SOL    HW138201   3.734   2.449   8.178  1.6878  0.9666 -0.3923
 8855SOL    HW238202   3.726   2.324   8.239  1.4341 -0.0413 -1.6884
 8856SOL     OW38203   3.306   3.989  16.627  0.0267  0.1337 -0.3570
 8856SOL    HW138204   3.380   4.050  16.625  0.1976 -0.0426  0.4791
 8856SOL    HW238205   3.282   3.999  16.720 -1.4808 -0.5721 -0.6659
 8857SOL     OW38206   1.518   4.685   0.910  0.1589 -0.2539  0.6177
 8857SOL    HW138207   1.481   0.011   0.847 -0.0405 -0.3700  0.6208
 8857SOL    HW238208   1.477   4.726   0.986 -2.1719 -1.6931  0.1359
 8858SOL     OW38209   4.722   1.336  10.315 -0.0059  0.0080  0.2781
 8858SOL    HW138210   0.027   1.253  10.293  1.0339  0.2080  1.4795
 8858SOL    HW238211   4.645   1.334  10.258  1.5044  0.9844 -1.7730
 8859SOL     OW38212   0.299   0.942   5.386  0.6669 -0.2723  0.0615
 8859SOL    HW138213   0.286   0.854   5.353 -0.7001 -0.2058  0.4451
 8859SOL    HW238214   0.382   0.963   5.342  0.9077 -2.7388 -0.6128
 8860SOL     OW38215   3.327   4.353   2.320 -0.1470  0.4419 -0.2721
 8860SOL    HW138216   3.327   4.448   2.324 -0.3786  0.3490  2.2912
 8860SOL    HW238217   3.236   4.327   2.307 -0.5604  1.2766  0.8978
 8861SOL     OW38218   0.492   1.060   1.111  0.2269 -0.2948  0.7237
 8861SOL    HW138219   0.458   1.144   1.142 -1.1928 -0.7089  0.3147
 8861SOL    HW238220   0.462   1.065   1.020  1.0927 -1.3233  0.3895
 8862SOL     OW38221   4.726   1.368  12.214  0.0116 -0.2935  0.3113
 8862SOL    HW138222   4.686   1.288  12.181  2.5730 -1.1399 -0.7706
 8862SOL    HW238223   4.664   1.432  12.181  0.7247 -0.2211 -0.8941
 8863SOL     OW38224   2.947   4.567   3.342  0.4655  0.0904 -0.1474
 8863SOL    HW138225   2.858   4.600   3.359  0.1168 -1.5333  1.1766
 8863SOL    HW238226   2.939   4.474   3.360  1.1151  0.2062  0.7360
 8864SOL     OW38227   0.172   3.088   6.682 -0.1119  0.3484 -0.0163
 8864SOL    HW138228   0.132   3.019   6.735  0.4805 -0.7286 -0.9603
 8864SOL    HW238229   0.144   3.166   6.730  1.8695  0.6379  0.6963
 8865SOL     OW38230   3.671   4.422   3.420 -0.2291 -0.4296  0.4611
 8865SOL    HW138231   3.762   4.412   3.392 -0.0928 -0.6550  0.9934
 8865SOL    HW238232   3.649   4.333   3.391  1.7099 -1.2231  1.4468
 8866SOL     OW38233   1.756   2.967  10.132 -0.2322  0.3439  0.4378
 8866SOL    HW138234   1.719   3.055  10.120 -0.0163  0.0566 -2.3025
 8866SOL    HW238235   1.834   2.990  10.184 -0.9903  1.0289  1.2856
 8867SOL     OW38236   4.140   1.320   3.994  0.2009  1.0053 -0.1829
 8867SOL    HW138237   4.210   1.368   3.950  0.7159  0.9745  0.6015
 8867SOL    HW238238   4.082   1.396   3.998  0.7202  1.3255  1.0684
 8868SOL     OW38239   3.365   0.758  15.506 -0.4242 -0.3684  0.2035
 8868SOL    HW138240   3.277   0.753  15.545  0.5825 -1.0777  2.3956
 8868SOL    HW238241   3.332   0.792  15.423 -0.1134  0.7479  0.5412
 8869SOL     OW38242   3.499   3.608  14.050  0.0045  0.0469  0.0010
 8869SOL    HW138243   3.486   3.687  13.999 -2.3181 -0.7722 -0.6786
 8869SOL    HW238244   3.456   3.635  14.131  2.7704  2.1824  0.7609
 8870SOL     OW38245   1.100   2.518  12.125  0.9759 -0.3658  0.2662
 8870SOL    HW138246   1.163   2.562  12.067  1.1215 -0.6097  0.2402
 8870SOL    HW238247   1.069   2.453  12.062  2.2602 -2.0092  1.3548
 8871SOL     OW38248   0.593   2.582   6.268 -0.2781 -0.0810 -0.1879
 8871SOL    HW138249   0.663   2.517   6.273  0.6873  0.9868  0.1562
 8871SOL    HW238250   0.577   2.593   6.174  0.1140 -0.1057 -0.2561
 8872SOL     OW38251   0.547   2.213   4.136  0.2219  0.2125  0.3463
 8872SOL    HW138252   0.527   2.183   4.048 -0.4030  0.3428  0.4495
 8872SOL    HW238253   0.640   2.234   4.121 -0.0462 -0.5890 -2.3610
 8873SOL     OW38254   3.270   0.469  12.247 -0.0061  0.2218  0.5602
 8873SOL    HW138255   3.352   0.430  12.217  0.4835  1.4771  0.2509
 8873SOL    HW238256   3.270   0.557  12.208  1.9202  0.5840  1.3850
 8874SOL     OW38257   2.911   2.008   5.126 -0.3191  0.3084 -0.1087
 8874SOL    HW138258   2.925   2.101   5.105  0.5712  0.1715 -0.1288
 8874SOL    HW238259   2.934   1.975   5.039 -0.9525 -1.1415  0.2705
 8875SOL     OW38260   0.555   3.966   1.934  0.5545  0.1058  0.5830
 8875SOL    HW138261   0.615   4.031   1.972  1.7730 -0.6713 -0.0037
 8875SOL    HW238262   0.605   3.888   1.957  0.1105 -0.7714 -1.4727
 8876SOL     OW38263   0.726   3.987   2.504 -0.1086  0.1143  0.2997
 8876SOL    HW138264   0.701   3.955   2.591  0.7180 -1.2219  0.0498
 8876SOL    HW238265   0.821   3.982   2.500 -0.1352  1.4870 -2.0733
 8877SOL     OW38266   1.875   2.618   4.777 -0.0513 -0.1342 -0.0106
 8877SOL    HW138267   1.794   2.669   4.774  1.3304  2.0546 -0.0620
 8877SOL    HW238268   1.930   2.668   4.717  0.2881  0.5918  0.8966
 8878SOL     OW38269   1.276   1.993   8.499 -0.2451 -0.1634 -0.0288
 8878SOL    HW138270   1.351   2.022   8.448 -0.9569 -1.2453 -1.6694
 8878SOL    HW238271   1.303   2.005   8.590  0.2470  1.1892 -0.3493
 8879SOL     OW38272   4.463   4.505  15.431  0.4757 -0.1450  0.2011
 8879SOL    HW138273   4.402   4.533  15.362 -0.9252 -1.7954  0.7585
 8879SOL    HW238274   4.506   4.431  15.390 -1.9913 -2.4400  1.7794
 8880SOL     OW38275   4.025   0.629   8.420 -0.0912 -0.5206  0.5009
 8880SOL    HW138276   4.018   0.663   8.509  0.4989 -0.1014  0.3960
 8880SOL    HW238277   4.095   0.564   8.420  0.3141 -0.0839  1.0205
 8881SOL     OW38278   1.073   2.088   7.660 -0.0739 -0.4165  0.8496
 8881SOL    HW138279   1.075   2.152   7.731  0.8014 -0.5093  0.9033
 8881SOL    HW238280   1.151   2.039   7.685 -0.2079 -0.0786  1.9405
 8882SOL     OW38281   1.126   0.457   2.402 -0.0409 -0.1710  0.4471
 8882SOL    HW138282   1.168   0.371   2.397  1.5501  0.6620 -0.5318
 8882SOL    HW238283   1.128   0.479   2.495  0.3994  0.8088  0.1997
 8883SOL     OW38284   0.569   2.840  16.379  0.1376 -0.1132 -0.3921
 8883SOL    HW138285   0.530   2.753  16.377  0.6834 -0.3117 -2.4492
 8883SOL    HW238286   0.649   2.833  16.327 -0.6475  1.1072 -1.7502
 8884SOL     OW38287   1.482   3.298   3.906 -0.3659 -0.0119  0.1101
 8884SOL    HW138288   1.558   3.336   3.951  2.2022 -1.8710 -2.5945
 8884SOL    HW238289   1.477   3.363   3.836  1.2970  0.7763  0.7141
 8885SOL     OW38290   2.939   4.086  16.308  0.1791  0.0597 -0.1426
 8885SOL    HW138291   2.849   4.053  16.307  0.9406 -2.0130 -0.1736
 8885SOL    HW238292   2.919   4.174  16.340 -1.2607 -0.5214  0.5883
 8886SOL     OW38293   3.205   1.406   9.608  0.1646  0.4736  0.2982
 8886SOL    HW138294   3.235   1.347   9.678 -1.9021 -2.1154 -0.9924
 8886SOL    HW238295   3.123   1.436   9.647  0.4769 -0.9661  2.0796
 8887SOL     OW38296   4.680   2.250  12.461  0.4448  0.5969 -0.2363
 8887SOL    HW138297   0.005   2.209  12.400  1.0026 -1.9690  2.0300
 8887SOL    HW238298   4.596   2.248  12.416  0.2189  2.2495  0.1185
 8888SOL     OW38299   3.098   2.914   5.697  0.9209 -0.1341  0.3008
 8888SOL    HW138300   3.157   2.892   5.769 -2.9887 -3.6189  2.4385
 8888SOL    HW238301   3.155   2.978   5.655  1.7944 -2.2374 -1.7203
 8889SOL     OW38302   0.124   1.146   8.455  0.2120 -0.7509  0.0629
 8889SOL    HW138303   0.165   1.124   8.372 -1.3982 -0.0907 -0.8951
 8889SOL    HW238304   0.196   1.180   8.509 -0.1937 -1.2983  0.9574
 8890SOL     OW38305   1.083   0.434   2.982  0.1047  0.1189  0.8278
 8890SOL    HW138306   1.058   0.508   2.927  1.9293 -2.3278 -3.2264
 8890SOL    HW238307   1.173   0.447   3.013  0.0798  1.9052  0.1507
 8891SOL     OW38308   1.933   3.715   4.699  0.8588  0.1917  0.0317
 8891SOL    HW138309   2.017   3.712   4.655 -0.0492  1.0090 -1.7569
 8891SOL    HW238310   1.956   3.683   4.786  1.5973 -1.4680 -0.7738
 8892SOL     OW38311   4.032   2.439   4.733  0.1205  0.1454  0.2777
 8892SOL    HW138312   3.975   2.474   4.664 -0.7630  0.4814  1.1879
 8892SOL    HW238313   4.057   2.354   4.698 -2.0322 -0.3638  0.0248
 8893SOL     OW38314   0.722   4.154   0.564 -0.0889  0.2787  0.0955
 8893SOL    HW138315   0.660   4.218   0.598 -0.6251 -0.0550 -0.2541
 8893SOL    HW238316   0.782   4.166   0.638 -2.1921 -2.9181  2.3568
 8894SOL     OW38317   3.580   0.310   2.465 -0.1982 -0.2929  0.4157
 8894SOL    HW138318   3.610   0.399   2.445  0.1138 -0.5871 -0.4016
 8894SOL    HW238319   3.484   0.318   2.470 -0.3249 -1.7727  0.3833
 8895SOL     OW38320   1.906   0.933   2.552  0.0965 -0.0763  0.1332
 8895SOL    HW138321   1.999   0.952   2.564  0.5059 -0.8625 -1.8308
 8895SOL    HW238322   1.908   0.890   2.467  2.0078  1.0633 -0.3885
 8896SOL     OW38323   0.598   3.169   0.318 -0.1171  0.1648 -0.0733
 8896SOL    HW138324   0.636   3.191   0.233 -2.4369 -0.6954 -1.3554
 8896SOL    HW238325   0.542   3.096   0.292 -0.9391  1.0094 -0.6794
 8897SOL     OW38326   4.360   3.284   5.343  0.0344 -0.1957  0.1063
 8897SOL    HW138327   4.297   3.221   5.378 -1.7415  1.5135 -0.0083
 8897SOL    HW238328   4.301   3.358   5.330  0.2490 -0.3278 -1.6211
 8898SOL     OW38329   0.933   2.044  16.566 -0.1335 -0.3772  0.8804
 8898SOL    HW138330   0.971   1.956  16.562  2.4873  0.8424 -1.5933
 8898SOL    HW238331   0.839   2.045  16.584 -0.1187 -0.1308  0.9435
 8899SOL     OW38332   2.294   0.669  10.747  0.4867  0.4295  0.1461
 8899SOL    HW138333   2.306   0.575  10.737  1.8725  0.8883 -2.4309
 8899SOL    HW238334   2.273   0.659  10.840  0.4415  1.6924  0.2747
 8900SOL     OW38335   0.180   3.959   7.805 -0.0171 -0.1148  0.0393
 8900SOL    HW138336   0.172   4.052   7.785 -0.3625  0.0218  0.8144
 8900SOL    HW238337   0.089   3.930   7.814  0.3156 -1.4842 -0.8457
 8901SOL     OW38338   4.478   2.409   8.826  0.2339  0.3585 -0.5201
 8901SOL    HW138339   4.478   2.362   8.909  0.6381 -0.3922 -0.9439
 8901SOL    HW238340   4.399   2.376   8.784  0.2306 -0.5754  0.2064
 8902SOL     OW38341   0.083   3.365   3.000  0.0354 -0.3379 -0.5171
 8902SOL    HW138342   0.113   3.426   3.068 -3.6123  0.3267  0.5232
 8902SOL    HW238343   0.003   3.345   3.049  0.3273 -0.0574  0.0751
 8903SOL     OW38344   3.198   2.304   2.469  0.2569 -0.3240  0.5304
 8903SOL    HW138345   3.261   2.298   2.397 -0.2871 -0.7819  0.0908
 8903SOL    HW238346   3.207   2.219   2.512 -0.3178 -1.2337 -1.1685
 8904SOL     OW38347   1.470   4.440   8.412 -0.0910 -0.7125  0.6140
 8904SOL    HW138348   1.425   4.468   8.492  0.6119  0.6897  0.5261
 8904SOL    HW238349   1.552   4.403   8.445  0.9973  0.8012 -0.3880
 8905SOL     OW38350   0.846   0.761   1.706 -0.3405 -0.0997 -0.3330
 8905SOL    HW138351   0.825   0.826   1.773 -0.8042 -0.3616 -0.2287
 8905SOL    HW238352   0.900   0.701   1.758 -0.5067 -0.0602 -0.1126
 8906SOL     OW38353   4.541   4.355   8.545 -0.2276  0.0013 -0.4545
 8906SOL    HW138354   4.467   4.298   8.523  1.6639 -3.4186  2.0170
 8906SOL    HW238355   4.598   4.295   8.592  0.3426  1.4641  0.7182
 8907SOL     OW38356   0.196   0.665  15.301  0.2169 -0.0797  0.6627
 8907SOL    HW138357   0.126   0.676  15.366  2.0299  0.7342  2.4668
 8907SOL    HW238358   0.206   0.754  15.269 -0.3597  0.4987  2.0633
 8908SOL     OW38359   3.251   4.695   4.500 -0.1111 -0.2611 -0.1976
 8908SOL    HW138360   3.340   4.679   4.532 -0.0293 -0.5287 -0.5695
 8908SOL    HW238361   3.274   0.037   4.449 -1.6781 -1.5730 -2.8707
 8909SOL     OW38362   1.244   3.091  16.462 -0.5838  0.2425 -0.0441
 8909SOL    HW138363   1.228   3.088  16.556  0.4123 -2.4975  0.0502
 8909SOL    HW238364   1.174   3.143  16.421 -1.5362 -0.7958  0.2409
 8910SOL     OW38365   2.627   1.653   5.916 -0.0225  0.0462  0.0712
 8910SOL    HW138366   2.539   1.687   5.930  1.2749  2.3477  2.4771
 8910SOL    HW238367   2.659   1.661   6.005  0.5580  4.0923 -0.5294
 8911SOL     OW38368   2.917   2.610   5.764  0.0637  0.2736 -0.2830
 8911SOL    HW138369   2.878   2.525   5.743 -0.4409  0.3182  0.4674
 8911SOL    HW238370   2.852   2.649   5.822 -0.4435 -1.4446  0.3038
 8912SOL     OW38371   1.281   1.054   6.927  0.0296  0.4237  0.8663
 8912SOL    HW138372   1.253   1.135   6.884 -0.4801  0.2073  0.7898
 8912SOL    HW238373   1.219   0.997   6.881  0.2544  1.5095 -0.7922
 8913SOL     OW38374   2.186   3.714   4.588 -0.2153 -0.0491 -0.1296
 8913SOL    HW138375   2.278   3.697   4.608 -0.7030  0.6294  2.6926
 8913SOL    HW238376   2.190   3.727   4.493 -0.2494  2.2397  0.1916
 8914SOL     OW38377   0.628   4.276   2.951 -0.3280 -0.6019 -0.3976
 8914SOL    HW138378   0.602   4.210   3.014  0.5839 -0.5934 -0.0041
 8914SOL    HW238379   0.558   4.283   2.886 -0.3501 -1.3801 -0.4533
 8915SOL     OW38380   2.185   0.512   9.463 -0.1514 -0.6540  0.0930
 8915SOL    HW138381   2.106   0.501   9.517 -0.7532  0.6239 -0.5000
 8915SOL    HW238382   2.148   0.493   9.377  0.2584  1.7519 -0.6326
 8916SOL     OW38383   3.332   4.186  12.926  0.4032 -0.0482 -0.2750
 8916SOL    HW138384   3.267   4.256  12.912  0.2166 -0.3107 -0.7309
 8916SOL    HW238385   3.357   4.170  12.835  1.4086  1.0744 -0.1864
 8917SOL     OW38386   3.278   3.310   8.695  0.2972 -0.2025 -0.3151
 8917SOL    HW138387   3.368   3.341   8.682 -0.0648  1.5778  1.4320
 8917SOL    HW238388   3.234   3.374   8.639  0.1096 -0.5139 -0.5213
 8918SOL     OW38389   1.611   0.424   1.744  0.3993 -0.0185  0.2275
 8918SOL    HW138390   1.543   0.398   1.682 -0.4155  0.1868  1.0372
 8918SOL    HW238391   1.576   0.505   1.782  0.6994  0.5749 -0.7552
 8919SOL     OW38392   1.159   1.968   5.105  0.4998 -0.1601  0.0846
 8919SOL    HW138393   1.209   1.961   5.187  0.4887 -0.7366  0.0462
 8919SOL    HW238394   1.213   2.036   5.065 -0.8685  0.0380 -1.3864
 8920SOL     OW38395   3.519   1.431   5.521 -0.5450 -0.1691  0.1289
 8920SOL    HW138396   3.577   1.496   5.481  0.2269 -0.7582  0.2902
 8920SOL    HW238397   3.530   1.453   5.614  0.5334 -1.0622  0.2116
 8921SOL     OW38398   4.223   2.853  16.168  0.1212 -0.1578  0.2069
 8921SOL    HW138399   4.139   2.872  16.211  0.1846 -0.1529  0.3290
 8921SOL    HW238400   4.244   2.769  16.208 -0.5787 -0.5498 -0.2653
 8922SOL     OW38401   0.672   2.898  17.724  0.3562  0.5560 -0.0606
 8922SOL    HW138402   0.710   2.891   0.067  0.9180 -1.2749 -0.4615
 8922SOL    HW238403   0.637   2.987  17.734 -1.1630  0.0535 -0.9437
 8923SOL     OW38404   3.286   0.409  14.994 -0.3219 -0.0836  0.4139
 8923SOL    HW138405   3.213   0.466  14.969 -0.6240 -0.2087  1.0125
 8923SOL    HW238406   3.333   0.403  14.911 -0.7149  2.8523 -0.0178
 8924SOL     OW38407   0.614   3.991  11.561  0.1764 -0.2716  0.1865
 8924SOL    HW138408   0.634   4.040  11.481  0.7613 -2.0214 -0.7292
 8924SOL    HW238409   0.520   3.978  11.561  0.4271 -2.0694  1.3416
 8925SOL     OW38410   2.731   2.796   9.514 -0.0242  0.5510 -0.5574
 8925SOL    HW138411   2.647   2.789   9.470  0.0743 -0.7489 -0.5547
 8925SOL    HW238412   2.697   2.846   9.588  0.2454 -1.2927  0.8310
 8926SOL     OW38413   4.126   0.054   0.142  0.2997  0.1624 -0.5169
 8926SOL    HW138414   4.140   4.697   0.126  3.2126  0.6767 -1.0879
 8926SOL    HW238415   4.031   0.055   0.150  0.3780  0.1794  0.4465
 8927SOL     OW38416   1.202   3.544   6.440 -0.6344 -0.5101  0.1750
 8927SOL    HW138417   1.171   3.580   6.357  1.0891 -1.7474 -1.0229
 8927SOL    HW238418   1.202   3.451   6.414  0.5841 -0.4244 -0.1433
 8928SOL     OW38419   2.507   2.488   5.028  0.4713  0.1547  0.0032
 8928SOL    HW138420   2.452   2.563   5.006 -0.1401 -0.1717  0.4182
 8928SOL    HW238421   2.463   2.429   4.967 -3.2902  0.5600  2.3495
 8929SOL     OW38422   0.636   0.673   5.804 -0.3354 -0.5065 -0.0085
 8929SOL    HW138423   0.644   0.706   5.893  3.1550 -0.9510 -0.1681
 8929SOL    HW238424   0.544   0.694   5.786 -0.9694 -1.1933  2.4326
 8930SOL     OW38425   4.543   0.706   1.216 -1.1123  0.0924 -0.1160
 8930SOL    HW138426   4.556   0.643   1.287 -1.6684 -1.2095 -1.2045
 8930SOL    HW238427   4.510   0.647   1.149 -0.6431 -0.1484 -0.1357
 8931SOL     OW38428   0.176   0.042   3.200 -0.4797  0.6223 -0.4580
 8931SOL    HW138429   0.175   4.683   3.200 -0.0084  0.6222  1.1285
 8931SOL    HW238430   0.227   0.054   3.119 -0.3890 -1.5865 -0.7261
 8932SOL     OW38431   1.804   3.604   4.437  0.5284 -0.7743 -0.5920
 8932SOL    HW138432   1.833   3.651   4.359  1.0995 -0.4030 -0.1578
 8932SOL    HW238433   1.856   3.646   4.506 -0.3229  1.2268 -1.1444
 8933SOL     OW38434   4.094   2.317   2.983  0.2109  0.0761  0.0350
 8933SOL    HW138435   4.119   2.227   3.002  1.2564 -0.2213 -2.7571
 8933SOL    HW238436   4.176   2.359   3.009  0.2446 -0.6103  1.0268
 8934SOL     OW38437   4.649   2.925  11.106  0.1778  0.3315  0.7270
 8934SOL    HW138438   4.688   2.869  11.039  0.3745  1.2467  0.0723
 8934SOL    HW238439   4.731   2.934  11.156  0.0305 -3.1921  1.6015
 8935SOL     OW38440   4.695   4.664   1.609 -0.1630 -0.4829 -0.0666
 8935SOL    HW138441   4.697   4.646   1.703  1.1261 -1.2843 -0.2519
 8935SOL    HW238442   0.017   4.593   1.582  1.4906  0.7428  0.3135
 8936SOL     OW38443   3.951   1.556   1.462 -0.1201 -0.3579 -0.0574
 8936SOL    HW138444   4.046   1.546   1.475 -0.0740  0.5338  0.2529
 8936SOL    HW238445   3.939   1.646   1.491  1.4788 -0.5950  1.3378
 8937SOL     OW38446   1.344   0.673  13.358 -0.2044 -0.4066 -0.1220
 8937SOL    HW138447   1.303   0.759  13.347  1.3912  0.3351 -0.3945
 8937SOL    HW238448   1.279   0.621  13.405 -2.1036  2.5544  0.5040
 8938SOL     OW38449   1.300   1.056   9.523 -0.1176 -0.8644 -0.1756
 8938SOL    HW138450   1.372   1.014   9.475  0.1287  0.5451 -1.0347
 8938SOL    HW238451   1.234   1.063   9.454  0.0247 -3.0105 -0.5305
 8939SOL     OW38452   3.722   4.067  16.954  0.1077 -0.0177 -0.5297
 8939SOL    HW138453   3.677   4.072  17.038  0.0405  0.1776 -0.5764
 8939SOL    HW238454   3.801   4.018  16.977  0.5818  0.5924 -0.8250
 8940SOL     OW38455   1.949   2.374   3.364  0.2698  0.2316 -0.2421
 8940SOL    HW138456   1.951   2.287   3.323 -0.3663 -0.4900  1.2571
 8940SOL    HW238457   2.043   2.386   3.378  0.2422 -0.8646  0.9614
 8941SOL     OW38458   2.858   1.879   8.530 -0.6615 -0.2668 -0.9616
 8941SOL    HW138459   2.773   1.882   8.575  0.5591  0.8267  1.2991
 8941SOL    HW238460   2.834   1.858   8.440 -0.6252  0.8814 -1.2440
 8942SOL     OW38461   3.893   2.876   1.915  0.5236  0.0427  0.3662
 8942SOL    HW138462   3.891   2.951   1.856  1.6607 -0.8651 -0.8247
 8942SOL    HW238463   3.986   2.873   1.936  0.2440 -0.2014  1.5762
 8943SOL     OW38464   4.468   2.706   7.375 -0.5998  0.1767  0.2454
 8943SOL    HW138465   4.506   2.747   7.452  1.1358  0.9922 -1.0267
 8943SOL    HW238466   4.378   2.696   7.405 -0.0913  0.6074  1.9038
 8944SOL     OW38467   1.006   4.431   6.933 -0.1104  0.0140 -0.2939
 8944SOL    HW138468   0.930   4.442   6.991  0.3131  1.4944 -0.0273
 8944SOL    HW238469   1.071   4.476   6.986 -1.8192  0.3717  1.4997
 8945SOL     OW38470   2.333   1.869   4.396  0.3804  0.4160  0.8612
 8945SOL    HW138471   2.297   1.930   4.332 -0.3259 -2.1680 -1.1957
 8945SOL    HW238472   2.320   1.789   4.345 -0.0868  1.4907 -0.7079
 8946SOL     OW38473   1.622   4.442   2.539 -0.0190  0.3234 -0.2637
 8946SOL    HW138474   1.672   4.523   2.549  1.2643 -0.4075 -0.7455
 8946SOL    HW238475   1.610   4.437   2.444 -0.4682 -4.5592  0.0578
 8947SOL     OW38476   0.254   0.635   2.795  0.5029  0.2402  0.5216
 8947SOL    HW138477   0.288   0.546   2.799  0.4909  0.2659  1.1727
 8947SOL    HW238478   0.239   0.646   2.889  0.2205  1.1689  0.3687
 8948SOL     OW38479   2.428   3.031  14.844  0.4391 -0.1099 -0.1585
 8948SOL    HW138480   2.391   3.108  14.801 -1.4336 -1.7437 -1.5141
 8948SOL    HW238481   2.385   3.038  14.929  2.4203 -0.2282  0.8677
 8949SOL     OW38482   0.629   4.099   5.641  0.0902  1.1115 -0.3732
 8949SOL    HW138483   0.565   4.170   5.651 -0.1113  0.6884  1.4132
 8949SOL    HW238484   0.574   4.022   5.630 -0.7879  1.6138  0.4226
 8950SOL     OW38485   2.132   3.568  17.036 -0.6004  0.1141  0.0027
 8950SOL    HW138486   2.185   3.490  17.051  1.7994  1.8534  0.5990
 8950SOL    HW238487   2.126   3.550  16.942  0.2087  2.2919 -0.4555
 8951SOL     OW38488   2.102   0.560   0.796 -0.1606 -0.0714 -0.2880
 8951SOL    HW138489   2.176   0.560   0.735  1.9810 -1.9829  2.2859
 8951SOL    HW238490   2.148   0.518   0.869 -2.3561  1.2709  1.8465
 8952SOL     OW38491   0.173   2.468   0.020  0.2229  0.1316 -0.5366
 8952SOL    HW138492   0.260   2.503   0.003 -0.0684  0.5732 -1.1426
 8952SOL    HW238493   0.165   2.401  17.696  0.7674 -1.3138  0.8335
 8953SOL     OW38494   1.262   0.307   6.699  0.0458 -0.2001 -0.2835
 8953SOL    HW138495   1.192   0.342   6.644 -0.2885 -0.9059 -0.3119
 8953SOL    HW238496   1.338   0.334   6.648 -1.0010  0.5371 -1.4452
 8954SOL     OW38497   1.746   3.696  17.659 -0.3588  0.5411  0.2888
 8954SOL    HW138498   1.677   3.672  17.596  1.2328 -2.7745 -0.1964
 8954SOL    HW238499   1.711   3.649  17.735 -0.5281 -1.2217 -0.8754
 8955SOL     OW38500   3.756   1.900   3.150 -0.1344 -0.1423 -0.5890
 8955SOL    HW138501   3.800   1.883   3.233 -3.6589 -0.8823  1.1330
 8955SOL    HW238502   3.814   1.965   3.110 -0.5756 -0.0637 -1.1129
 8956SOL     OW38503   2.456   2.971   9.022 -0.2209  0.6270  0.4364
 8956SOL    HW138504   2.434   3.021   9.100  2.8267 -0.0071  1.6933
 8956SOL    HW238505   2.523   2.914   9.058 -2.2742 -1.0761  1.5267
 8957SOL     OW38506   3.941   2.551   5.841  0.7359  0.3128 -0.2428
 8957SOL    HW138507   4.012   2.513   5.894  0.7488  0.3321 -0.2460
 8957SOL    HW238508   3.867   2.492   5.852 -0.8153  2.2805 -0.2565
 8958SOL     OW38509   3.675   2.935   4.461  0.0795 -0.0355  0.1758
 8958SOL    HW138510   3.612   2.866   4.437 -1.4994  1.4075  0.1744
 8958SOL    HW238511   3.664   3.002   4.394  0.9685 -1.1232 -1.0442
 8959SOL     OW38512   1.112   1.972   5.924 -0.3001  0.2990 -0.2800
 8959SOL    HW138513   1.024   2.009   5.913 -0.4583  0.3151  1.0472
 8959SOL    HW238514   1.149   2.004   5.841 -0.8955  1.3289 -0.1526
 8960SOL     OW38515   4.677   4.156   6.354  0.3030  0.3961 -0.0880
 8960SOL    HW138516   4.650   4.078   6.305 -0.5292  0.9440 -0.5041
 8960SOL    HW238517   4.735   4.201   6.293  0.5413  0.5550  0.2550
 8961SOL     OW38518   0.458   2.453   9.862  0.3336 -0.1918 -0.0718
 8961SOL    HW138519   0.509   2.378   9.893 -2.1554 -1.1191  1.7929
 8961SOL    HW238520   0.444   2.502   9.943  1.9318 -1.9023  1.2224
 8962SOL     OW38521   0.256   2.711   6.272 -0.2073  0.1406 -0.7946
 8962SOL    HW138522   0.207   2.635   6.302  0.5556  0.0311  0.1704
 8962SOL    HW238523   0.257   2.682   6.181 -0.5204  0.7580 -0.9972
 8963SOL     OW38524   1.905   2.245   9.407  0.3173 -0.4762  0.3166
 8963SOL    HW138525   1.827   2.205   9.445 -0.8664  1.0948 -0.4660
 8963SOL    HW238526   1.869   2.305   9.342 -0.6020  1.0095  2.2075
 8964SOL     OW38527   2.947   0.334   6.802 -0.2246  0.0403  0.0354
 8964SOL    HW138528   2.998   0.415   6.812  0.8189 -0.6538  0.3920
 8964SOL    HW238529   2.992   0.279   6.866 -1.3585 -0.1266  0.6804
 8965SOL     OW38530   2.629   3.768  10.767 -0.0002 -0.2758  0.0768
 8965SOL    HW138531   2.669   3.726  10.690  2.1913 -1.7306  2.0122
 8965SOL    HW238532   2.596   3.698  10.823  2.3777  0.1447  2.0087
 8966SOL     OW38533   0.129   2.693   6.940 -0.2251  0.3560 -0.2538
 8966SOL    HW138534   0.039   2.661   6.942  0.2140 -0.9422 -0.7373
 8966SOL    HW238535   0.126   2.715   6.847 -1.2684 -2.2839 -0.8496
 8967SOL     OW38536   1.627   4.720   2.881  0.1713 -0.4115 -0.1718
 8967SOL    HW138537   1.712   4.728   2.924  0.3369  0.7675 -0.7062
 8967SOL    HW238538   1.571   0.047   2.925  0.4294 -0.3244  0.0334
 8968SOL     OW38539   3.441   1.773   7.828 -0.0492  0.2329 -0.3914
 8968SOL    HW138540   3.521   1.753   7.780  0.5945  0.7349  0.4794
 8968SOL    HW238541   3.403   1.686   7.812  0.2950 -0.0143  0.1191
 8969SOL     OW38542   2.664   0.741   5.757  0.1623  0.2896 -0.2395
 8969SOL    HW138543   2.622   0.657   5.738  0.1013  0.5025 -1.0806
 8969SOL    HW238544   2.750   0.717   5.723  0.1571  0.2023 -0.1908
 8970SOL     OW38545   1.202   4.295   8.625 -0.1131 -0.5510  0.0647
 8970SOL    HW138546   1.146   4.231   8.670 -0.8843  0.0810  0.0026
 8970SOL    HW238547   1.134   4.348   8.583  0.7344 -0.2512 -0.9280
 8971SOL     OW38548   2.252   0.932  12.725  0.2648  0.1765 -0.4159
 8971SOL    HW138549   2.206   1.015  12.735  2.4346  1.3962 -0.3861
 8971SOL    HW238550   2.296   0.930  12.640  0.0331  0.3527 -0.5397
 8972SOL     OW38551   2.037   2.540   7.796  0.0356  0.2574  0.0532
 8972SOL    HW138552   2.113   2.482   7.796 -0.3048 -0.2165 -1.8168
 8972SOL    HW238553   1.976   2.494   7.853 -0.6445  1.7698  0.5437
 8973SOL     OW38554   3.860   1.951  16.238 -0.0556 -0.0007 -0.4055
 8973SOL    HW138555   3.798   2.008  16.284 -1.4954  0.1961 -2.5789
 8973SOL    HW238556   3.808   1.946  16.157  0.9240 -1.4156 -0.9476
 8974SOL     OW38557   4.466   4.619   6.871  0.2122 -0.5383  0.0570
 8974SOL    HW138558   4.385   4.568   6.874  0.9017 -1.5091  2.1985
 8974SOL    HW238559   4.480   4.610   6.777 -1.9618 -1.8110 -0.1667
 8975SOL     OW38560   0.855   4.241   4.385 -0.1785  0.0820  0.1094
 8975SOL    HW138561   0.833   4.332   4.367  4.0300  1.0280 -0.4504
 8975SOL    HW238562   0.855   4.252   4.480 -0.7838 -0.8920  0.2144
 8976SOL     OW38563   3.795   2.116   3.642 -0.2979  0.1990 -0.8901
 8976SOL    HW138564   3.858   2.096   3.572  1.5379 -0.9687  1.0830
 8976SOL    HW238565   3.734   2.175   3.598 -0.7733 -1.0776 -1.9470
 8977SOL     OW38566   4.111   1.148  14.883 -0.1251  0.3478 -0.1703
 8977SOL    HW138567   4.017   1.166  14.874 -0.8306 -2.9909  0.3854
 8977SOL    HW238568   4.154   1.230  14.859  1.8425 -0.8413 -0.6976
 8978SOL     OW38569   0.379   1.822  12.197  0.2039  0.5241 -0.0717
 8978SOL    HW138570   0.294   1.794  12.232  0.3312  1.9044  1.3679
 8978SOL    HW238571   0.359   1.866  12.115  2.7487  2.1589  0.1903
 8979SOL     OW38572   4.620   3.667   9.420  0.0617  0.4462  0.6251
 8979SOL    HW138573   4.527   3.646   9.427 -0.0765  0.6702 -0.6424
 8979SOL    HW238574   4.633   3.747   9.471 -1.2506  1.2406 -0.3216
 8980SOL     OW38575   3.669   3.080  10.082  0.1260 -0.3472  0.4132
 8980SOL    HW138576   3.736   3.058  10.017  0.1012  1.2699 -0.1713
 8980SOL    HW238577   3.716   3.136  10.143  2.6592 -2.2674  0.1784
 8981SOL     OW38578   1.574   0.248   5.625  0.2162  0.6278  0.0654
 8981SOL    HW138579   1.619   0.332   5.615 -0.1956  0.6606 -1.4932
 8981SOL    HW238580   1.507   0.254   5.556  1.1723 -0.9508 -0.9983
 8982SOL     OW38581   0.806   1.188   6.585  0.4846 -0.2698  0.1381
 8982SOL    HW138582   0.729   1.240   6.561  0.7485 -0.9498 -2.1501
 8982SOL    HW238583   0.814   1.123   6.515 -2.6001 -0.3004 -0.2175
 8983SOL     OW38584   0.732   0.950  16.909 -0.2881 -0.2607 -0.2748
 8983SOL    HW138585   0.726   1.003  16.830  0.2467 -0.2079 -0.2778
 8983SOL    HW238586   0.814   0.904  16.892 -0.0084  0.7878 -1.6712
 8984SOL     OW38587   3.135   3.821   3.221  0.2967  0.0991  0.1671
 8984SOL    HW138588   3.183   3.754   3.270  0.0300  0.1850  0.5476
 8984SOL    HW238589   3.073   3.756   3.190  1.4083 -0.3437 -1.1555
 8985SOL     OW38590   0.029   2.139  10.805  0.4927 -0.7411 -0.3776
 8985SOL    HW138591   0.045   2.048  10.778 -2.3610 -1.9926  2.1389
 8985SOL    HW238592   0.055   2.183  10.724  1.1176  0.8295  0.6894
 8986SOL     OW38593   1.230   1.305   9.054  0.0313  0.5833 -0.3300
 8986SOL    HW138594   1.214   1.237   9.119 -0.6661 -0.1455 -1.2648
 8986SOL    HW238595   1.147   1.351   9.063  0.5893  1.8431 -1.5214
 8987SOL     OW38596   2.814   1.637   6.447 -0.3915  0.2222  0.0139
 8987SOL    HW138597   2.825   1.664   6.538 -2.5540  1.3856 -0.0666
 8987SOL    HW238598   2.871   1.561   6.435  0.4271  0.9235 -0.6374
 8988SOL     OW38599   2.423   2.221  10.775 -0.6079 -0.2374  0.2464
 8988SOL    HW138600   2.466   2.279  10.713 -2.6488  0.8242 -0.1884
 8988SOL    HW238601   2.481   2.229  10.850  0.7628  0.8585 -0.9560
 8989SOL     OW38602   2.860   3.602   8.336 -0.0203 -0.0687 -0.3006
 8989SOL    HW138603   2.834   3.535   8.399  0.8722 -0.7091 -0.6204
 8989SOL    HW238604   2.778   3.650   8.324  0.3476  0.8071  0.7012
 8990SOL     OW38605   1.555   1.725   2.937  0.4655 -0.0435 -0.4931
 8990SOL    HW138606   1.617   1.798   2.939 -0.7318  0.9433  0.1592
 8990SOL    HW238607   1.480   1.775   2.969  1.3474  0.7010  0.3954
 8991SOL     OW38608   4.029   0.988   9.163  0.5152  0.1496 -0.4006
 8991SOL    HW138609   4.015   1.081   9.148 -3.7327 -0.0183  2.4949
 8991SOL    HW238610   3.971   0.976   9.238 -0.4433 -1.2982 -1.3850
 8992SOL     OW38611   1.277   3.977   7.133 -0.3725 -0.2146  0.0700
 8992SOL    HW138612   1.314   4.055   7.091 -0.7311  0.1033  0.3448
 8992SOL    HW238613   1.347   3.965   7.198  0.5549  2.1663 -0.4789
 8993SOL     OW38614   0.774   4.452   7.081 -0.1813  0.1499 -0.4647
 8993SOL    HW138615   0.744   4.400   7.156  4.3448 -2.1911 -0.2480
 8993SOL    HW238616   0.696   4.456   7.026 -0.2027 -0.3779 -0.4788
 8994SOL     OW38617   2.279   1.326  11.012  0.0909  0.7429 -0.5277
 8994SOL    HW138618   2.374   1.337  11.000  0.0641 -0.6133 -1.9329
 8994SOL    HW238619   2.274   1.232  10.997  0.8314  0.4823  0.7771
 8995SOL     OW38620   3.671   1.945  12.222 -0.2792  0.0758  0.1812
 8995SOL    HW138621   3.706   1.860  12.249 -1.7721 -0.0635  1.6840
 8995SOL    HW238622   3.696   1.941  12.130  1.2119 -0.5233  0.6047
 8996SOL     OW38623   2.097   3.965  10.061 -0.3768  0.8715  0.0815
 8996SOL    HW138624   2.111   3.872  10.080  0.2197  0.8578 -0.4492
 8996SOL    HW238625   2.113   3.989  10.153 -0.1524 -1.0778  0.5494
 8997SOL     OW38626   1.842   2.542   9.964  0.1081 -0.2289 -0.3076
 8997SOL    HW138627   1.890   2.576  10.040 -0.5640 -2.7134  1.2152
 8997SOL    HW238628   1.915   2.522   9.906  1.3078  1.4202  0.6509
 8998SOL     OW38629   0.360   3.228   3.166  0.1290  0.2008  0.2492
 8998SOL    HW138630   0.398   3.209   3.253  0.4003 -0.8463 -0.0941
 8998SOL    HW238631   0.422   3.189   3.104 -0.0616  0.0190  0.1734
 8999SOL     OW38632   0.898   0.591   7.201 -0.2236  0.0374 -0.2456
 8999SOL    HW138633   0.846   0.512   7.192 -0.0866 -0.0892  0.0741
 8999SOL    HW238634   0.868   0.613   7.289 -0.9696 -1.9736 -0.0127
 9000SOL     OW38635   3.687   4.190   6.913 -0.6739  0.5332 -0.4051
 9000SOL    HW138636   3.666   4.231   6.830 -1.1363  0.7935 -0.1583
 9000SOL    HW238637   3.775   4.154   6.900 -0.1772  1.9445 -0.9455
 9001SOL     OW38638   0.840   1.028   5.872  0.1389 -0.3358 -0.1241
 9001SOL    HW138639   0.906   1.012   5.939  1.1331 -0.1641 -1.0623
 9001SOL    HW238640   0.835   1.123   5.865 -0.2412 -0.3765 -0.4137
 9002SOL     OW38641   1.369   1.673   6.543  0.1951  0.2885  0.6479
 9002SOL    HW138642   1.403   1.738   6.605 -0.6195 -1.0620  2.4959
 9002SOL    HW238643   1.295   1.726   6.513 -0.9463 -1.2154  0.8169
 9003SOL     OW38644   1.247   1.941   5.356 -0.7129  0.9844 -0.0877
 9003SOL    HW138645   1.198   1.915   5.435  2.1868 -1.2220  0.9853
 9003SOL    HW238646   1.327   1.889   5.354 -0.7064  0.9226  1.5751
 9004SOL     OW38647   1.096   1.494   3.412  0.7802  0.1947 -0.1950
 9004SOL    HW138648   1.136   1.426   3.357  0.6077  0.9520 -1.2676
 9004SOL    HW238649   1.124   1.463   3.498 -0.0094  0.8420  0.2960
 9005SOL     OW38650   1.451   1.754   2.104 -0.2296  0.2205 -0.5032
 9005SOL    HW138651   1.462   1.666   2.069  2.0548  0.0392  0.6847
 9005SOL    HW238652   1.521   1.773   2.167  1.5040 -2.6799 -1.5772
 9006SOL     OW38653   3.689   2.452   7.209 -0.1719  0.7917 -1.0904
 9006SOL    HW138654   3.763   2.391   7.217 -2.5261 -2.3057 -3.3569
 9006SOL    HW238655   3.734   2.528   7.172  0.8835  0.8180  0.2223
 9007SOL     OW38656   2.459   2.558   6.040 -0.1021 -0.0044 -0.3034
 9007SOL    HW138657   2.438   2.502   5.965  1.0882 -1.6109  0.5731
 9007SOL    HW238658   2.371   2.583   6.066  0.7283  0.5090  2.0022
 9008SOL     OW38659   2.704   3.778   5.574  0.3274  0.0855 -0.4114
 9008SOL    HW138660   2.721   3.757   5.482  0.9656  1.0968 -0.5289
 9008SOL    HW238661   2.786   3.823   5.594  1.3326 -1.9855  0.1007
 9009SOL     OW38662   0.990   1.647   5.303 -0.0396  0.4137  0.5454
 9009SOL    HW138663   0.981   1.622   5.211 -3.2890 -0.3771  1.0750
 9009SOL    HW238664   0.962   1.737   5.294  0.6393  0.6282  0.5669
 9010SOL     OW38665   2.649   4.601   4.280  0.3172 -0.6340 -0.2336
 9010SOL    HW138666   2.560   4.633   4.262  0.2554  0.7237  2.4072
 9010SOL    HW238667   2.643   4.547   4.359 -0.0607 -0.2172  0.0269
 9011SOL     OW38668   3.198   2.759   8.862  0.6229 -0.3718 -0.0681
 9011SOL    HW138669   3.242   2.786   8.781  1.6855 -0.9097  0.3195
 9011SOL    HW238670   3.246   2.679   8.886 -0.4098 -1.2235 -0.8177
 9012SOL     OW38671   3.305   0.918  11.147 -0.3073 -0.0335  0.3782
 9012SOL    HW138672   3.219   0.933  11.106  0.9046  1.1742 -1.7343
 9012SOL    HW238673   3.358   0.855  11.099  0.5074 -0.2636  1.5856
 9013SOL     OW38674   4.096   0.207  14.430 -0.4197  0.3309 -0.4154
 9013SOL    HW138675   4.010   0.244  14.413 -0.9569 -0.7378 -0.0090
 9013SOL    HW238676   4.143   0.260  14.366  1.5560 -0.2566  0.5519
 9014SOL     OW38677   2.993   0.130   1.684 -0.0949  0.2291  0.0094
 9014SOL    HW138678   3.052   0.185   1.736 -2.9609  2.1615  1.2397
 9014SOL    HW238679   3.047   0.067   1.637  0.4735  0.6759  0.0522
 9015SOL     OW38680   0.104   0.233   5.983  0.0395 -0.6696  0.3507
 9015SOL    HW138681   0.131   0.238   5.892 -0.9991  0.7662  0.1131
 9015SOL    HW238682   0.165   0.167   6.017  0.3623 -0.1508  0.7771
 9016SOL     OW38683   2.753   3.656   2.294 -0.1474 -0.7364 -0.4776
 9016SOL    HW138684   2.808   3.630   2.220 -0.4293  0.4869 -1.1030
 9016SOL    HW238685   2.690   3.704   2.242  2.3395  0.8599 -2.0391
 9017SOL     OW38686   0.814   0.777   9.122  0.2394 -0.3185 -0.0226
 9017SOL    HW138687   0.734   0.825   9.143 -0.0331 -0.8343  0.0992
 9017SOL    HW238688   0.833   0.812   9.034 -2.0738 -0.1958 -0.4667
 9018SOL     OW38689   0.751   2.946   5.343  0.3544  0.2800  0.2243
 9018SOL    HW138690   0.751   3.031   5.387 -0.3621  0.0955  0.5907
 9018SOL    HW238691   0.836   2.917   5.375 -2.2001 -4.6104  2.6389
 9019SOL     OW38692   1.121   2.379   7.666 -0.1056 -0.3962  0.6000
 9019SOL    HW138693   1.204   2.337   7.689  0.2788 -1.3391 -2.5834
 9019SOL    HW238694   1.147   2.442   7.599  2.4606 -1.1326  0.8886
 9020SOL     OW38695   1.794   3.784   3.806  0.6227  0.4476 -0.0738
 9020SOL    HW138696   1.815   3.724   3.735  0.7110  2.0239 -1.3826
 9020SOL    HW238697   1.703   3.769   3.830  0.4428 -0.1902 -1.1825
 9021SOL     OW38698   2.322   3.161   6.240  0.1459 -0.3528  0.1663
 9021SOL    HW138699   2.230   3.153   6.264 -0.4232 -2.0087 -2.5165
 9021SOL    HW238700   2.314   3.212   6.159  2.4516  0.9892  0.7755
 9022SOL     OW38701   2.346   1.029   2.752  0.1853 -0.1012 -0.2388
 9022SOL    HW138702   2.334   1.027   2.847 -2.1033  1.1756 -0.5168
 9022SOL    HW238703   2.328   1.120   2.728 -2.2587 -0.2869  0.9104
 9023SOL     OW38704   3.176   1.512  13.569 -0.6118  0.1857  0.4178
 9023SOL    HW138705   3.238   1.457  13.521  2.8062  4.8804 -0.4961
 9023SOL    HW238706   3.095   1.476  13.532  0.8965 -0.8758 -1.8316
 9024SOL     OW38707   3.826   3.628   2.947  0.2448  0.5589 -0.2133
 9024SOL    HW138708   3.891   3.574   2.901  1.3628  1.0033  0.8220
 9024SOL    HW238709   3.788   3.563   3.006 -0.1715 -0.4363 -1.5882
 9025SOL     OW38710   1.012   3.312   2.865 -0.5919  0.0420 -0.0414
 9025SOL    HW138711   0.966   3.228   2.864 -0.7382  0.1157  1.1463
 9025SOL    HW238712   1.010   3.330   2.771 -0.2351 -1.0781 -0.2685
 9026SOL     OW38713   0.440   3.798   9.701  0.1757 -0.3325  0.1470
 9026SOL    HW138714   0.374   3.824   9.637  2.3493  1.1463 -1.4888
 9026SOL    HW238715   0.430   3.867   9.766  0.6717 -1.1398  1.0745
 9027SOL     OW38716   2.303   2.233  11.631  0.4362  0.1309 -0.2481
 9027SOL    HW138717   2.323   2.184  11.711  1.6109 -0.7238 -1.0830
 9027SOL    HW238718   2.229   2.187  11.590  0.6724  0.4362 -1.0108
 9028SOL     OW38719   1.584   4.295   7.768 -0.4451  0.3630  0.6447
 9028SOL    HW138720   1.666   4.323   7.808  0.5200 -1.4522 -0.0552
 9028SOL    HW238721   1.591   4.200   7.769 -1.7931  0.2271 -1.0614
 9029SOL     OW38722   0.043   0.874   6.453  0.0224 -0.5948  0.0482
 9029SOL    HW138723   4.684   0.870   6.446 -0.0397 -0.6281  0.8963
 9029SOL    HW238724   0.050   0.841   6.543 -0.7252  0.3573  0.4586
 9030SOL     OW38725   4.055   4.017   8.792 -0.3658 -0.6148 -0.3960
 9030SOL    HW138726   4.093   3.977   8.871  2.1877  0.8229 -0.8651
 9030SOL    HW238727   4.083   4.107   8.806  1.9751 -1.3842 -0.0983
 9031SOL     OW38728   2.233   3.895  13.932 -0.2103  0.4746  0.0832
 9031SOL    HW138729   2.308   3.913  13.876  0.0746 -2.9155 -0.5997
 9031SOL    HW238730   2.194   3.817  13.893  1.9810 -0.9822  0.8389
 9032SOL     OW38731   1.719   2.730   3.485 -0.2395  0.2411 -0.4018
 9032SOL    HW138732   1.749   2.677   3.412 -2.2651  2.0791 -2.5816
 9032SOL    HW238733   1.804   2.768   3.508 -0.0280  0.5231 -1.6830
 9033SOL     OW38734   1.443   1.267   2.414  0.1685  0.1131 -0.3444
 9033SOL    HW138735   1.478   1.223   2.491 -1.3580 -1.5585 -0.6180
 9033SOL    HW238736   1.351   1.272   2.437  0.1109 -2.4189 -0.0339
 9034SOL     OW38737   2.806   4.450  12.155 -0.3143  0.1534 -0.4365
 9034SOL    HW138738   2.717   4.473  12.128 -0.6097 -1.7343 -1.1026
 9034SOL    HW238739   2.860   4.472  12.079  0.6163 -0.7874 -0.0419
 9035SOL     OW38740   4.417   1.422   8.387 -0.1896  0.3118  0.1761
 9035SOL    HW138741   4.436   1.332   8.359 -0.4407  0.1774  0.4513
 9035SOL    HW238742   4.487   1.439   8.450  1.3196 -1.4533 -1.0103
 9036SOL     OW38743   0.756   3.020  15.065  0.0835 -1.2028  0.0867
 9036SOL    HW138744   0.798   3.049  14.985 -0.8941  1.3395  0.4930
 9036SOL    HW238745   0.667   3.053  15.054  0.5962 -0.4323 -1.6422
 9037SOL     OW38746   3.435   3.092   8.960  0.1100 -0.0229  0.7240
 9037SOL    HW138747   3.343   3.069   8.944 -0.3374  1.3539  1.3398
 9037SOL    HW238748   3.487   3.014   8.940 -0.5384 -0.4614  0.7278
 9038SOL     OW38749   0.420   2.885   7.365 -0.0867  0.3757  0.3899
 9038SOL    HW138750   0.347   2.839   7.325 -0.5123  1.2880  0.1143
 9038SOL    HW238751   0.481   2.813   7.379 -0.6096 -0.9832 -4.2317
 9039SOL     OW38752   2.385   2.918   7.616  0.0613 -0.4178 -0.3270
 9039SOL    HW138753   2.320   2.958   7.558  1.1090 -0.1971 -1.3332
 9039SOL    HW238754   2.321   2.862   7.659  0.8308 -1.4942 -0.5766
 9040SOL     OW38755   1.511   0.711   5.087 -0.2845 -0.1471  0.1293
 9040SOL    HW138756   1.541   0.720   5.177  1.6966 -2.0877 -0.3232
 9040SOL    HW238757   1.424   0.669   5.091  0.6385 -2.5033 -3.8378
 9041SOL     OW38758   2.605   0.865   4.285  0.2019  0.0013  0.2037
 9041SOL    HW138759   2.681   0.821   4.248 -0.2456 -0.3851 -0.2586
 9041SOL    HW238760   2.591   0.798   4.352  2.0833 -0.0343  0.5514
 9042SOL     OW38761   4.047   0.372   7.070  0.1227  0.0370  0.0721
 9042SOL    HW138762   3.970   0.333   7.111  0.4434  0.0137  0.6554
 9042SOL    HW238763   4.046   0.347   6.977 -0.7253 -2.2097  0.7043
 9043SOL     OW38764   2.626   3.871   3.794  0.0782  0.1533  0.3035
 9043SOL    HW138765   2.667   3.791   3.828 -0.9700 -0.4355  0.1944
 9043SOL    HW238766   2.536   3.845   3.777  0.2881 -0.1730 -0.3332
 9044SOL     OW38767   1.557   4.622   4.306 -0.0612  0.1368  0.0894
 9044SOL    HW138768   1.646   4.655   4.308 -0.5191  1.4213 -0.6587
 9044SOL    HW238769   1.545   4.586   4.393 -0.0234 -1.1974 -0.4603
 9045SOL     OW38770   2.077   2.862  14.965 -1.1360 -0.9229  0.9253
 9045SOL    HW138771   1.988   2.881  14.936 -1.4426 -3.2722  0.3648
 9045SOL    HW238772   2.106   2.792  14.906  1.6598  0.6753  0.3825
 9046SOL     OW38773   2.790   4.077   6.554 -0.2878 -0.2220  0.0770
 9046SOL    HW138774   2.754   3.988   6.559 -0.0389 -0.2998  0.5012
 9046SOL    HW238775   2.798   4.088   6.459  1.9960 -0.6141  0.2444
 9047SOL     OW38776   3.275   3.260  11.343 -0.0533 -0.1685 -0.1455
 9047SOL    HW138777   3.334   3.297  11.409  0.4516  1.3987 -1.4892
 9047SOL    HW238778   3.189   3.288  11.377 -1.1634 -1.9558 -1.5154
 9048SOL     OW38779   2.601   0.653  11.163 -0.0634  0.4091 -0.1241
 9048SOL    HW138780   2.595   0.653  11.067 -1.7879 -0.1271 -0.0188
 9048SOL    HW238781   2.572   0.562  11.175 -2.5968  1.2749  0.2775
 9049SOL     OW38782   3.301   4.699   1.920  0.0621  0.3233  0.1831
 9049SOL    HW138783   3.264   4.619   1.883 -1.5570  0.9459  0.4649
 9049SOL    HW238784   3.372   4.670   1.977  0.5953  1.7143  0.2137
 9050SOL     OW38785   1.782   2.183   7.369  0.0275  0.7182  0.7888
 9050SOL    HW138786   1.829   2.102   7.349 -0.3970  0.4604  0.8214
 9050SOL    HW238787   1.749   2.212   7.284  0.2296 -2.7577 -0.4881
 9051SOL     OW38788   3.700   4.504  16.588  0.0408  0.2697 -0.2081
 9051SOL    HW138789   3.661   4.458  16.514 -0.7809  2.4802 -1.1816
 9051SOL    HW238790   3.636   4.479  16.655 -1.1229  0.4163 -1.2616
 9052SOL     OW38791   0.729   1.137   7.419 -0.0670  0.9751 -0.5411
 9052SOL    HW138792   0.646   1.174   7.389 -0.9818  0.9932  2.0685
 9052SOL    HW238793   0.744   1.205   7.485  1.0749  0.8452 -0.6661
 9053SOL     OW38794   1.223   4.718   6.784 -0.3889  0.0880  0.3123
 9053SOL    HW138795   1.199   4.634   6.745  0.0174  0.6543 -1.1573
 9053SOL    HW238796   1.146   0.012   6.831  0.8597  3.2591  0.2975
 9054SOL     OW38797   2.373   3.502   8.726  0.2120 -0.7316 -0.6687
 9054SOL    HW138798   2.387   3.543   8.811  0.1324 -0.1618 -0.9300
 9054SOL    HW238799   2.336   3.416   8.748  2.5692 -2.0688 -2.0318
 9055SOL     OW38800   3.227   2.197  10.106  0.2838 -0.0070  0.1631
 9055SOL    HW138801   3.259   2.219  10.194  0.5377  1.0455 -0.1924
 9055SOL    HW238802   3.133   2.193  10.126  0.3189  0.5925  0.4461
 9056SOL     OW38803   1.546   1.789   5.488  0.3986  0.2925 -0.0860
 9056SOL    HW138804   1.625   1.735   5.485  0.5628  0.4291  1.9681
 9056SOL    HW238805   1.526   1.801   5.395 -2.8706  1.5073  0.7540
 9057SOL     OW38806   0.059   3.136   1.464 -0.1427  0.1223  0.1109
 9057SOL    HW138807   0.012   3.123   1.546 -1.4874 -0.6999 -0.7708
 9057SOL    HW238808   0.148   3.147   1.495  0.0767 -1.4284  0.0290
 9058SOL     OW38809   3.631   0.221   8.795 -0.5098  0.0303  0.2303
 9058SOL    HW138810   3.616   0.290   8.858 -1.1390  0.7754 -0.7347
 9058SOL    HW238811   3.543   0.203   8.762 -0.1254 -0.0855 -0.7323
 9059SOL     OW38812   4.615   2.322   6.887 -0.2005 -0.0255  0.2035
 9059SOL    HW138813   4.598   2.411   6.854 -0.9547 -1.1474 -2.4676
 9059SOL    HW238814   4.604   2.267   6.810  0.4099 -0.8814  0.7293
 9060SOL     OW38815   1.766   0.339   7.334 -0.5982  0.1833  0.1126
 9060SOL    HW138816   1.775   0.352   7.239 -0.1724  0.4686  0.1947
 9060SOL    HW238817   1.753   0.428   7.365  1.2916  1.6559 -3.2971
 9061SOL     OW38818   0.864   4.562  11.946 -0.6315  0.2492  0.3461
 9061SOL    HW138819   0.789   4.621  11.937 -0.4909  0.8063  2.9555
 9061SOL    HW238820   0.872   4.542  12.039  1.7739  0.5017  0.1993
 9062SOL     OW38821   0.173   0.006   6.431 -0.5704 -0.3882  0.3145
 9062SOL    HW138822   0.110   0.074   6.454  1.6427  1.8675 -0.1576
 9062SOL    HW238823   0.243   0.057   6.389 -2.3414  1.7489  0.0043
 9063SOL     OW38824   3.671   0.748  11.089  0.1190 -0.5620  0.1720
 9063SOL    HW138825   3.589   0.730  11.043  0.5549 -1.4731 -0.2635
 9063SOL    HW238826   3.727   0.673  11.070  0.8732 -0.1898  0.9164
 9064SOL     OW38827   0.627   2.987   3.309  0.2320  0.1044 -0.3510
 9064SOL    HW138828   0.618   3.081   3.291  0.4474 -0.0092 -1.0483
 9064SOL    HW238829   0.535   2.964   3.320 -0.5413  2.8823 -0.8862
 9065SOL     OW38830   2.987   2.641   2.936 -0.1793 -0.4090  0.0199
 9065SOL    HW138831   2.954   2.682   3.016  1.7979  1.4522 -0.1425
 9065SOL    HW238832   2.946   2.555   2.951 -0.1084 -0.3319  0.6881
 9066SOL     OW38833   1.410   2.861   8.966  0.0629 -0.5317  0.2943
 9066SOL    HW138834   1.319   2.846   8.940  0.3768  1.8425 -2.2169
 9066SOL    HW238835   1.409   2.957   8.967 -0.9754 -0.5551  0.9249
 9067SOL     OW38836   0.464   1.704   9.661 -0.0807 -0.4129 -0.5008
 9067SOL    HW138837   0.422   1.685   9.745 -0.0201  2.3095  0.1542
 9067SOL    HW238838   0.546   1.739   9.697 -0.9753  1.2904 -0.1128
 9068SOL     OW38839   1.402   4.245   4.391 -0.2794 -0.4419 -0.1661
 9068SOL    HW138840   1.324   4.189   4.392 -0.2467 -0.5135 -1.0888
 9068SOL    HW238841   1.458   4.203   4.456  0.3498 -0.2099 -0.5589
 9069SOL     OW38842   1.935   0.515  17.115  0.4370 -0.5756 -0.0263
 9069SOL    HW138843   1.981   0.506  17.198 -0.4740  0.6472  0.6094
 9069SOL    HW238844   1.864   0.452  17.131 -0.5147  0.0329 -1.8264
 9070SOL     OW38845   0.843   2.495  11.991 -0.1126 -0.2842 -0.0819
 9070SOL    HW138846   0.789   2.461  12.062  0.8722 -1.8530 -0.0882
 9070SOL    HW238847   0.813   2.586  11.987  0.0139 -0.2967 -1.5803
 9071SOL     OW38848   0.411   0.456   1.875 -0.0918  0.0185  0.1174
 9071SOL    HW138849   0.466   0.394   1.828  0.4410 -0.4143  1.3103
 9071SOL    HW238850   0.347   0.489   1.812 -0.8606 -1.1443  0.2822
 9072SOL     OW38851   2.135   3.759   8.817 -0.5014 -0.3348 -0.5361
 9072SOL    HW138852   2.222   3.720   8.804 -0.3919 -0.9660  1.9778
 9072SOL    HW238853   2.070   3.698   8.785 -1.9998  1.1369 -0.2886
 9073SOL     OW38854   3.860   1.311   9.427  0.0870 -0.4498  0.2573
 9073SOL    HW138855   3.947   1.342   9.402 -0.2041  0.0448 -0.1523
 9073SOL    HW238856   3.871   1.318   9.522  0.5792  0.9331  0.0848
 9074SOL     OW38857   1.350   0.887   7.875 -0.1895 -0.6207 -0.0073
 9074SOL    HW138858   1.258   0.862   7.868  0.3534 -2.4997 -0.4811
 9074SOL    HW238859   1.393   0.833   7.810  1.2354 -0.0511  0.4547
 9075SOL     OW38860   0.374   3.547   5.727  0.0359 -0.0997 -0.5533
 9075SOL    HW138861   0.396   3.550   5.821 -1.8126  0.0042 -0.1276
 9075SOL    HW238862   0.451   3.510   5.684 -0.0265 -1.5696  0.5852
 9076SOL     OW38863   0.274   2.283   9.242  0.2209  0.2225  0.4139
 9076SOL    HW138864   0.203   2.220   9.252  0.3537  0.1828  1.1159
 9076SOL    HW238865   0.283   2.277   9.147 -3.9005 -0.4521  0.0749
 9077SOL     OW38866   3.471   2.807   4.005 -0.4917 -0.3794  0.6073
 9077SOL    HW138867   3.455   2.842   3.918  0.8703 -0.1159  0.4673
 9077SOL    HW238868   3.450   2.882   4.061  0.6684 -1.2020  2.1461
 9078SOL     OW38869   1.022   4.104   3.782 -0.2465 -0.1457 -0.2426
 9078SOL    HW138870   0.963   4.091   3.856  1.1101 -1.7286  0.5479
 9078SOL    HW238871   1.032   4.014   3.751  2.9252  0.6899 -1.6154
 9079SOL     OW38872   4.138   2.866  14.426 -0.0454  0.5780 -0.3678
 9079SOL    HW138873   4.077   2.792  14.426  0.5557  0.0840  0.9536
 9079SOL    HW238874   4.073   2.934  14.409  0.4312  0.8129 -1.2464
 9080SOL     OW38875   4.204   0.575   6.758 -0.0401  0.3466  0.2024
 9080SOL    HW138876   4.279   0.532   6.800 -0.1569  1.2483  1.3483
 9080SOL    HW238877   4.214   0.653   6.813  1.7572 -0.5544  1.1697
 9081SOL     OW38878   0.453   2.134   7.818 -0.6546  0.3505 -0.3143
 9081SOL    HW138879   0.390   2.114   7.749  0.4284  1.8519 -1.7454
 9081SOL    HW238880   0.487   2.211   7.772 -0.1575  0.7728  0.7627
 9082SOL     OW38881   4.293   3.739   5.244 -0.5557  0.6042 -0.3365
 9082SOL    HW138882   4.328   3.707   5.161 -1.7067 -2.6152  0.4045
 9082SOL    HW238883   4.275   3.658   5.293  0.1334  0.0272 -1.0302
 9083SOL     OW38884   3.404   2.452   9.072  0.1235 -0.0843  0.6270
 9083SOL    HW138885   3.411   2.545   9.092 -0.1251  0.7748 -3.2731
 9083SOL    HW238886   3.342   2.462   8.999  0.1219  0.6272  0.7295
 9084SOL     OW38887   2.417   2.874   2.655  0.2019  0.3008  0.7785
 9084SOL    HW138888   2.434   2.963   2.624  0.5583  0.3131  1.0087
 9084SOL    HW238889   2.386   2.833   2.574  0.7837  1.4463 -0.0206
 9085SOL     OW38890   2.611   0.978   4.777  0.3666 -0.1102 -0.5001
 9085SOL    HW138891   2.539   1.023   4.823  0.3086  0.4895 -1.1731
 9085SOL    HW238892   2.644   0.918   4.843  1.2427  0.7421 -0.1759
 9086SOL     OW38893   1.809   3.245   6.622 -0.2296  0.0489 -0.6831
 9086SOL    HW138894   1.762   3.301   6.683  1.6507  0.4942  0.3670
 9086SOL    HW238895   1.826   3.310   6.553 -0.8748  1.0307  0.0903
 9087SOL     OW38896   0.135   0.353   7.764  0.1008  0.0927  0.2437
 9087SOL    HW138897   0.213   0.346   7.709  0.0803 -1.1125  0.3764
 9087SOL    HW238898   0.105   0.265   7.743  0.7041  0.7415 -3.3682
 9088SOL     OW38899   1.158   3.521  16.378  0.1052  0.2946  0.6570
 9088SOL    HW138900   1.217   3.559  16.313 -3.0691  0.0707 -2.3273
 9088SOL    HW238901   1.170   3.429  16.354  2.2158  0.1101  2.3547
 9089SOL     OW38902   2.960   3.541   5.821 -0.0505 -0.2387  0.0359
 9089SOL    HW138903   3.000   3.553   5.734 -0.9430  1.1314 -0.1856
 9089SOL    HW238904   2.966   3.446   5.832 -1.4016 -0.3834 -0.5209
 9090SOL     OW38905   3.511   4.419   4.268  0.5687  0.3291 -0.3222
 9090SOL    HW138906   3.571   4.490   4.294 -1.0934  1.4271  0.5594
 9090SOL    HW238907   3.455   4.411   4.346  0.2190  0.1002 -0.5988
 9091SOL     OW38908   4.610   0.138   6.104 -0.6755  0.3359 -0.4948
 9091SOL    HW138909   4.549   0.211   6.097 -0.4496  0.6367  0.6796
 9091SOL    HW238910   4.688   0.164   6.055 -0.7449  0.4293 -0.5557
 9092SOL     OW38911   0.987   3.060   7.659 -0.0811 -0.1644 -0.0549
 9092SOL    HW138912   0.963   2.974   7.693  0.0328 -0.2054 -0.0755
 9092SOL    HW238913   1.082   3.046   7.658 -0.2180 -1.1681  1.0566
 9093SOL     OW38914   0.067   2.996   2.582 -0.6610  0.1448 -0.3207
 9093SOL    HW138915   4.718   3.033   2.606 -1.1648 -0.8123 -0.6368
 9093SOL    HW238916   0.111   2.997   2.667  0.6394  2.1656 -1.0130
 9094SOL     OW38917   2.264   0.394  12.798 -0.1120  0.7278  0.5712
 9094SOL    HW138918   2.241   0.482  12.768  1.9007  1.4656  1.1890
 9094SOL    HW238919   2.238   0.393  12.890 -0.2669 -0.2163  0.5221
 9095SOL     OW38920   2.983   2.738   9.447  0.5609  0.1980 -0.1336
 9095SOL    HW138921   2.988   2.653   9.490 -2.2191  0.1121  0.0157
 9095SOL    HW238922   2.889   2.746   9.463  0.6192 -0.7416  0.6616
 9096SOL     OW38923   0.560   2.267   7.554  0.6792  0.1844 -0.2063
 9096SOL    HW138924   0.635   2.248   7.497 -0.8763  0.5581 -2.3775
 9096SOL    HW238925   0.539   2.360   7.550 -0.2872 -0.0687 -1.0559
 9097SOL     OW38926   1.395   0.339  12.857 -0.0164  0.0625  0.0494
 9097SOL    HW138927   1.484   0.360  12.886 -0.4003  3.3185 -1.2026
 9097SOL    HW238928   1.343   0.328  12.937  0.7550 -2.7928  0.1800
 9098SOL     OW38929   1.188   2.374   9.703  0.1452  0.6250 -0.2279
 9098SOL    HW138930   1.175   2.454   9.753 -0.5369  0.4829 -0.1846
 9098SOL    HW238931   1.284   2.379   9.699  0.2744 -1.7235 -0.4654
 9099SOL     OW38932   3.751   4.232  12.582 -0.0931 -0.3646  0.2921
 9099SOL    HW138933   3.691   4.286  12.633 -0.7542  1.1345 -2.0748
 9099SOL    HW238934   3.768   4.167  12.651  0.1201 -1.4890 -0.8139
 9100SOL     OW38935   4.369   2.727   7.763  0.3807  0.4789  0.2130
 9100SOL    HW138936   4.452   2.774   7.777  0.4062  0.5328 -0.1178
 9100SOL    HW238937   4.360   2.737   7.668 -0.5111  0.6904  0.3194
 9101SOL     OW38938   3.784   4.541   1.729 -0.0241 -0.9513 -0.5715
 9101SOL    HW138939   3.707   4.596   1.744  0.5435 -0.3788  0.2135
 9101SOL    HW238940   3.836   4.590   1.665 -0.4606  1.2817  0.8211
 9102SOL     OW38941   1.008   0.291  12.027 -0.2650 -0.6405  0.5008
 9102SOL    HW138942   0.931   0.346  12.014  0.5365  0.2659 -0.3961
 9102SOL    HW238943   0.992   0.263  12.117  0.2757 -1.7379  0.2460
 9103SOL     OW38944   0.961   1.461  13.954  0.4737  0.1946  0.2475
 9103SOL    HW138945   0.929   1.540  13.995 -0.6268 -0.2970  0.3365
 9103SOL    HW238946   0.998   1.405  14.023  2.3450  2.8911  1.4039
 9104SOL     OW38947   0.103   0.346   8.474  0.4004  0.4208 -0.1847
 9104SOL    HW138948   0.167   0.296   8.424  3.0454 -1.0023  4.6214
 9104SOL    HW238949   0.130   0.322   8.563 -1.5447  0.6890  0.4606
 9105SOL     OW38950   0.400   2.365   7.319 -0.5818 -0.0984  0.7068
 9105SOL    HW138951   0.415   2.293   7.257 -2.0795  0.3611 -0.1982
 9105SOL    HW238952   0.484   2.406   7.297 -0.7252  0.8627  1.9785
 9106SOL     OW38953   1.324   2.978   5.713  0.4171  0.4617  0.5194
 9106SOL    HW138954   1.317   3.012   5.624  0.4277  3.6035  1.7197
 9106SOL    HW238955   1.341   3.058   5.762  1.4851  1.0226 -0.7638
 9107SOL     OW38956   3.947   3.114   1.716  0.2909  0.7777  0.0979
 9107SOL    HW138957   3.898   3.088   1.638 -2.9046  1.9508  1.7199
 9107SOL    HW238958   4.022   3.160   1.678  0.2740 -0.5685 -1.5288
 9108SOL     OW38959   2.169   3.184   2.600  0.3106 -0.0925 -0.0506
 9108SOL    HW138960   2.205   3.248   2.538 -1.4647  3.1979  2.3266
 9108SOL    HW238961   2.098   3.140   2.554 -0.5405 -1.3476  2.4662
 9109SOL     OW38962   3.110   0.417   3.056 -0.4018  0.0617  0.3521
 9109SOL    HW138963   3.071   0.492   3.011 -1.4706 -0.1575  0.9177
 9109SOL    HW238964   3.139   0.447   3.142  2.2833 -0.8645 -0.2275
 9110SOL     OW38965   0.365   4.562  16.683  0.6424  0.2386  0.2581
 9110SOL    HW138966   0.378   4.632  16.747  0.4586 -0.1530  0.7202
 9110SOL    HW238967   0.380   4.613  16.603  2.1871  2.3447  1.8693
 9111SOL     OW38968   1.746   2.458   6.153  0.1019  0.4411  0.3639
 9111SOL    HW138969   1.777   2.545   6.126  0.1545 -0.1646 -1.4984
 9111SOL    HW238970   1.804   2.400   6.104  1.3091 -0.6029  3.0347
 9112SOL     OW38971   3.862   0.288   7.233  0.1295 -0.7671  0.2151
 9112SOL    HW138972   3.847   0.305   7.326  0.2233  0.7632 -0.0480
 9112SOL    HW238973   3.792   0.225   7.215  0.1116 -0.6710 -0.0404
 9113SOL     OW38974   1.144   3.646   6.183 -0.5927  0.5610 -0.0988
 9113SOL    HW138975   1.149   3.683   6.095  0.1890  0.1443 -0.2372
 9113SOL    HW238976   1.118   3.718   6.241  0.1528 -0.8637  2.0211
 9114SOL     OW38977   0.900   1.406   4.398 -0.0165  0.0352  0.0881
 9114SOL    HW138978   0.947   1.488   4.382  0.4913 -0.1785  0.4594
 9114SOL    HW238979   0.853   1.399   4.316  2.7797 -0.1996 -1.4931
 9115SOL     OW38980   3.827   1.893  15.457 -0.9455  0.0536  0.2151
 9115SOL    HW138981   3.889   1.965  15.449 -2.1775  0.9414 -1.3415
 9115SOL    HW238982   3.873   1.824  15.410 -0.5393  0.9336 -0.6762
 9116SOL     OW38983   2.802   3.727   9.380 -0.9145  0.2054  0.2854
 9116SOL    HW138984   2.846   3.807   9.410 -0.3567  0.6360 -1.6146
 9116SOL    HW238985   2.852   3.710   9.300 -2.4382 -0.8208 -0.4463
 9117SOL     OW38986   3.584   2.019   2.555 -0.2311 -0.4688  0.6891
 9117SOL    HW138987   3.582   2.052   2.465  0.5013 -2.0585  0.0835
 9117SOL    HW238988   3.644   1.944   2.554 -0.3769 -0.5857  1.0715
 9118SOL     OW38989   0.998   1.062   4.077 -0.0997  0.5277  0.0175
 9118SOL    HW138990   0.972   0.974   4.102 -2.0578  1.2772  0.6422
 9118SOL    HW238991   0.915   1.102   4.102 -1.1536 -2.0893  0.6550
 9119SOL     OW38992   3.847   0.210  14.589  0.4509  0.1833  0.1557
 9119SOL    HW138993   3.795   0.143  14.633  1.5373 -0.7399  0.0292
 9119SOL    HW238994   3.932   0.194  14.630  0.5737  1.5257  0.4423
 9120SOL     OW38995   2.744   1.185   5.772 -0.4069  0.3790  1.1488
 9120SOL    HW138996   2.672   1.128   5.747  1.4655 -1.3264 -0.3079
 9120SOL    HW238997   2.682   1.257   5.786 -0.7235  0.3593 -0.1799
 9121SOL     OW38998   1.223   3.539   5.673 -0.2934  0.5674 -0.1526
 9121SOL    HW138999   1.173   3.615   5.703  1.1287  2.1642 -1.8786
 9121SOL    HW239000   1.311   3.571   5.693  0.5230 -1.7321 -0.0144
 9122SOL     OW39001   3.056   3.400   4.696 -0.4759 -0.5586 -0.6433
 9122SOL    HW139002   3.039   3.389   4.603 -0.0675  1.3791 -0.9318
 9122SOL    HW239003   3.151   3.404   4.703 -0.4041  0.6377 -2.3638
 9123SOL     OW39004   4.465   0.682   7.756 -0.6682  0.2049 -0.6810
 9123SOL    HW139005   4.532   0.653   7.694  0.0859 -2.1834  1.2769
 9123SOL    HW239006   4.450   0.600   7.803 -1.7757  1.6347  1.4997
 9124SOL     OW39007   0.434   4.141  12.989 -0.3633 -0.6352 -0.0583
 9124SOL    HW139008   0.409   4.231  12.968  2.5934 -0.0661 -1.0454
 9124SOL    HW239009   0.363   4.127  13.052 -0.2815  1.1708  0.4310
 9125SOL     OW39010   3.755   0.795   8.936 -0.0484  0.0951  0.0948
 9125SOL    HW139011   3.661   0.794   8.954  0.3105  2.1751  2.0471
 9125SOL    HW239012   3.748   0.891   8.930  0.7256  0.1706  0.3834
 9126SOL     OW39013   0.457   2.327   6.334 -0.3911  0.5382 -0.0352
 9126SOL    HW139014   0.481   2.411   6.373 -3.4911  0.6716  1.5868
 9126SOL    HW239015   0.378   2.307   6.385 -0.6926  2.5844  0.3183
 9127SOL     OW39016   4.538   2.872   7.920 -0.5224  0.1877 -0.0675
 9127SOL    HW139017   4.451   2.873   7.959 -1.6055  1.1846 -2.5300
 9127SOL    HW239018   4.524   2.961   7.889  0.2776  0.4843  0.4058
 9128SOL     OW39019   3.049   1.908   6.863 -0.1389 -0.4692 -0.8689
 9128SOL    HW139020   3.092   1.992   6.880 -1.3881 -0.0015  0.0056
 9128SOL    HW239021   2.985   1.900   6.934  0.3346 -0.9500 -0.4937
 9129SOL     OW39022   4.402   2.071   5.958  0.1368 -0.1970  0.2662
 9129SOL    HW139023   4.396   2.043   5.867 -0.8137  0.9403 -0.0166
 9129SOL    HW239024   4.485   2.032   5.986  0.6198  1.5581  1.2310
 9130SOL     OW39025   1.950   3.959   4.518  0.2353 -0.4303 -0.1119
 9130SOL    HW139026   1.985   4.038   4.477  0.5630 -0.9688 -0.8541
 9130SOL    HW239027   1.971   3.973   4.611 -1.6650  1.9372 -0.0412
 9131SOL     OW39028   0.521   2.237   5.669  0.1057 -0.1800 -0.2518
 9131SOL    HW139029   0.475   2.197   5.595 -0.7831 -0.0255  0.2119
 9131SOL    HW239030   0.588   2.287   5.623  1.0441 -0.4083  0.8869
 9132SOL     OW39031   0.176   1.532   8.480  0.2958  0.2999 -0.1180
 9132SOL    HW139032   0.192   1.464   8.545  3.5280  0.4113 -0.7774
 9132SOL    HW239033   0.259   1.579   8.492  1.6791 -1.7988 -1.5005
 9133SOL     OW39034   1.274   3.503   4.438 -0.1816  0.4522  0.1392
 9133SOL    HW139035   1.247   3.593   4.421  1.1431  0.5447 -1.4968
 9133SOL    HW239036   1.348   3.522   4.496 -1.8654  0.3869  2.3233
 9134SOL     OW39037   0.551   3.046   9.064  0.1895  0.1507 -0.0563
 9134SOL    HW139038   0.457   3.061   9.077 -0.0306 -0.6507 -0.7418
 9134SOL    HW239039   0.574   3.055   9.157 -0.6211 -0.6824  0.2325
 9135SOL     OW39040   3.653   4.655   3.067  0.5351  0.4462 -0.0840
 9135SOL    HW139041   3.575   4.671   3.120  1.8473 -0.9862  2.3198
 9135SOL    HW239042   3.716   4.620   3.130  1.5238  0.6357 -0.9783
 9136SOL     OW39043   4.134   0.285  10.667  0.2268  0.2370 -0.2688
 9136SOL    HW139044   4.167   0.333  10.591 -2.0432  0.6266 -1.0400
 9136SOL    HW239045   4.186   0.322  10.738 -0.4344  0.5963  0.0384
 9137SOL     OW39046   0.076   2.359  15.215 -0.3561  0.0632  0.1221
 9137SOL    HW139047   0.074   2.282  15.271  1.4843 -0.7115 -0.8817
 9137SOL    HW239048   0.005   2.411  15.251 -0.1035  0.6557 -0.2292
 9138SOL     OW39049   3.474   1.721   2.753  0.4078 -0.6912 -0.1976
 9138SOL    HW139050   3.523   1.780   2.811  0.5212 -0.0651 -0.9278
 9138SOL    HW239051   3.385   1.751   2.769  1.3466  1.1013  1.7336
 9139SOL     OW39052   1.838   4.689   6.950 -0.2818  0.5825  0.2025
 9139SOL    HW139053   1.874   4.637   6.878  2.8111 -0.5526  2.5506
 9139SOL    HW239054   1.820   0.035   6.906  2.1460  1.5615  1.0384
 9140SOL     OW39055   0.493   1.910   7.269 -0.0456 -0.3167 -0.3067
 9140SOL    HW139056   0.580   1.902   7.307 -0.4064 -1.9084  0.2066
 9140SOL    HW239057   0.499   1.875   7.180 -1.0857 -0.0888 -0.4707
 9141SOL     OW39058   4.368   4.266   0.871 -0.3443 -0.0890  0.0235
 9141SOL    HW139059   4.411   4.188   0.835  0.6410  0.1824  0.6154
 9141SOL    HW239060   4.444   4.321   0.852 -0.7065  0.6432  0.7107
 9142SOL     OW39061   2.060   3.744  14.143  0.2327 -0.1615 -0.0905
 9142SOL    HW139062   2.146   3.702  14.144  1.6007  2.5925 -1.1708
 9142SOL    HW239063   2.016   3.677  14.195  0.2248 -0.3832 -0.3781
 9143SOL     OW39064   0.999   1.936  15.795 -0.1278  0.0855 -0.5929
 9143SOL    HW139065   0.907   1.965  15.794 -0.0995  0.1880 -0.2498
 9143SOL    HW239066   1.013   1.898  15.708 -0.9540  0.9947 -1.1289
 9144SOL     OW39067   2.246   2.381   0.255 -0.2220  0.0667 -0.0610
 9144SOL    HW139068   2.326   2.428   0.231  0.0336 -0.8998 -1.1038
 9144SOL    HW239069   2.174   2.442   0.272  0.5822  0.6767  1.1680
 9145SOL     OW39070   3.160   0.903   4.935 -0.2829  0.1342 -0.1806
 9145SOL    HW139071   3.237   0.854   4.964 -0.8683 -0.7710 -0.1495
 9145SOL    HW239072   3.158   0.965   5.008 -0.7593 -0.8406  0.6331
 9146SOL     OW39073   0.991   3.025   6.309 -0.0728  0.0889 -0.2181
 9146SOL    HW139074   1.028   3.033   6.397 -2.0447 -0.5864  0.6533
 9146SOL    HW239075   0.910   2.976   6.322  0.4181 -0.2608  1.4850
 9147SOL     OW39076   2.457   4.177  13.451  0.0813  0.3626  0.0596
 9147SOL    HW139077   2.544   4.202  13.480  0.5885 -1.2745 -0.0558
 9147SOL    HW239078   2.442   4.225  13.369 -3.0549  1.0632  1.0205
 9148SOL     OW39079   2.203   2.607   5.425  0.3716 -0.1495  0.1776
 9148SOL    HW139080   2.286   2.635   5.385  0.1237  0.9639  0.4465
 9148SOL    HW239081   2.155   2.636   5.348  1.0462  0.3551 -0.0484
 9149SOL     OW39082   2.400   1.526   9.997 -0.3722 -0.2008  0.0884
 9149SOL    HW139083   2.364   1.442   9.966  1.6969 -0.3974 -1.7827
 9149SOL    HW239084   2.348   1.584   9.942  0.4081 -0.7108 -1.1812
 9150SOL     OW39085   4.464   2.783   2.628 -0.1709  0.4772  0.7148
 9150SOL    HW139086   4.532   2.769   2.562 -0.8032 -2.8623  0.7813
 9150SOL    HW239087   4.426   2.695   2.625  1.8566 -0.4446  2.0779
 9151SOL     OW39088   3.286   4.433  13.721 -0.0951 -0.5911 -0.1816
 9151SOL    HW139089   3.218   4.387  13.673  0.3295 -1.8845  0.4253
 9151SOL    HW239090   3.231   4.490  13.774 -0.3130 -1.7942  0.9083
 9152SOL     OW39091   1.861   1.769   9.348 -0.0027 -0.5472  0.2688
 9152SOL    HW139092   1.867   1.673   9.351 -0.7016 -0.5700  0.8442
 9152SOL    HW239093   1.809   1.777   9.269 -1.7209  0.1002  1.4793
 9153SOL     OW39094   4.714   3.854   2.295  0.3466 -0.2220 -0.0495
 9153SOL    HW139095   4.666   3.785   2.249  1.0379 -1.5222  1.1892
 9153SOL    HW239096   0.061   3.844   2.248  1.0742  0.1895  1.1622
 9154SOL     OW39097   2.121   4.299   5.382 -0.3582 -0.3937 -0.7525
 9154SOL    HW139098   2.079   4.291   5.467 -0.7671  1.8599 -0.7309
 9154SOL    HW239099   2.201   4.253   5.407 -1.2155 -1.4516  0.0254
 9155SOL     OW39100   0.936   0.824   5.720  0.0282  0.0301 -0.2420
 9155SOL    HW139101   1.005   0.884   5.694  0.4331 -0.4687 -0.3090
 9155SOL    HW239102   0.886   0.891   5.768 -1.7494 -0.2481 -1.6896
 9156SOL     OW39103   3.753   2.156   4.553  0.2997 -0.2738  0.5543
 9156SOL    HW139104   3.828   2.096   4.553  1.2236  0.8868  0.4218
 9156SOL    HW239105   3.791   2.226   4.500  0.0903 -0.4169  0.2157
 9157SOL     OW39106   0.039   1.379   4.626  0.0710 -0.5819  0.2775
 9157SOL    HW139107   0.005   1.358   4.713  0.3802 -1.8334  0.0956
 9157SOL    HW239108   4.705   1.421   4.576 -0.7770  0.2615  2.1609
 9158SOL     OW39109   2.160   3.193   3.494 -0.4262 -0.4057  0.0281
 9158SOL    HW139110   2.255   3.178   3.495 -0.7712 -2.6831 -1.0291
 9158SOL    HW239111   2.127   3.181   3.405  1.1466 -1.4986 -0.4129
 9159SOL     OW39112   4.149   3.009   7.461  0.4058  0.2860 -0.0764
 9159SOL    HW139113   4.104   2.983   7.381 -2.2288  1.7133  0.9386
 9159SOL    HW239114   4.086   3.073   7.495 -1.4270 -1.2166 -0.6779
 9160SOL     OW39115   1.311   3.583   8.254  0.0751  0.1527  0.1004
 9160SOL    HW139116   1.284   3.638   8.180  0.6793  0.1765 -0.1004
 9160SOL    HW239117   1.292   3.634   8.333  1.4273 -1.4056  1.4191
 9161SOL     OW39118   4.285   2.352  11.481 -0.5404 -0.0266  0.3374
 9161SOL    HW139119   4.194   2.367  11.458 -0.5746 -2.0501 -0.8503
 9161SOL    HW239120   4.327   2.351  11.395  2.8751 -2.9703  2.0225
 9162SOL     OW39121   3.139   4.506   7.035 -0.3048 -0.3152  0.0317
 9162SOL    HW139122   3.130   4.419   6.996 -0.0846  0.1030 -0.9508
 9162SOL    HW239123   3.181   4.491   7.119 -1.2991 -2.7811  0.0891
 9163SOL     OW39124   4.040   3.427   4.998 -0.0634 -0.7016 -0.4834
 9163SOL    HW139125   4.039   3.513   4.956 -1.5474  0.3711  1.7124
 9163SOL    HW239126   3.946   3.407   5.004 -0.3781 -0.0866 -3.2299
 9164SOL     OW39127   2.340   4.144   5.474 -0.5114  0.5731  0.0110
 9164SOL    HW139128   2.427   4.119   5.443 -0.8065  0.7897 -0.9935
 9164SOL    HW239129   2.355   4.237   5.493 -1.2339  0.2448  2.2067
 9165SOL     OW39130   2.601   3.458   7.570  0.1049  0.1891 -0.3740
 9165SOL    HW139131   2.672   3.469   7.633 -0.6334  1.8377  0.1470
 9165SOL    HW239132   2.540   3.526   7.599  2.3322  1.8025  0.4939
 9166SOL     OW39133   1.906   1.651   5.790  0.5006  0.0813  0.0892
 9166SOL    HW139134   1.909   1.746   5.773 -1.0740 -0.1462 -1.3979
 9166SOL    HW239135   1.952   1.628   5.710 -2.0177 -0.8009 -1.1144
 9167SOL     OW39136   2.258   2.235   7.277 -0.2280  0.2035 -0.3630
 9167SOL    HW139137   2.246   2.295   7.351 -0.7751  0.0218 -0.3010
 9167SOL    HW239138   2.257   2.146   7.313 -0.8042 -0.1485 -1.2600
 9168SOL     OW39139   2.037   0.109  10.846 -0.8467  0.6447 -0.2852
 9168SOL    HW139140   2.000   0.186  10.804 -1.8148  0.1733 -0.2947
 9168SOL    HW239141   2.109   0.147  10.896 -0.2910 -1.8709  0.8304
 9169SOL     OW39142   0.803   0.102  12.248 -0.1102 -0.2807  0.4196
 9169SOL    HW139143   0.775   0.074  12.160 -1.6344  0.1745  0.7633
 9169SOL    HW239144   0.725   0.080  12.299 -1.6714  0.7202 -1.5194
 9170SOL     OW39145   2.145   3.636   3.827  0.5938  0.3451 -0.3865
 9170SOL    HW139146   2.138   3.581   3.749 -2.1604  1.1724 -0.7088
 9170SOL    HW239147   2.126   3.724   3.793 -1.7629  0.3921  1.0537
 9171SOL     OW39148   1.686   3.488   3.960  0.3573  0.1534 -0.4354
 9171SOL    HW139149   1.734   3.437   3.894 -0.4385  1.1160 -1.7546
 9171SOL    HW239150   1.754   3.519   4.020  1.6923  0.7194 -2.2408
 9172SOL     OW39151   0.277   3.115   8.329  0.1692 -0.4907  0.0186
 9172SOL    HW139152   0.213   3.153   8.269 -0.4902 -0.8101  0.5165
 9172SOL    HW239153   0.247   3.025   8.340  0.0221 -0.4058  0.2981
 9173SOL     OW39154   3.216   2.711  10.695  0.0307  0.1696 -0.4100
 9173SOL    HW139155   3.171   2.723  10.779 -1.2162  0.8696 -1.1695
 9173SOL    HW239156   3.195   2.795  10.654 -2.8394 -0.3126  0.0473
 9174SOL     OW39157   3.356   0.009  11.295  0.2809  0.0790  0.2331
 9174SOL    HW139158   3.361   0.069  11.220  1.7568 -0.3074  0.0333
 9174SOL    HW239159   3.421   0.041  11.357  0.8805  1.3435 -1.0331
 9175SOL     OW39160   4.551   2.369   5.784  0.9572 -0.3911 -0.2047
 9175SOL    HW139161   4.529   2.453   5.743  1.2412 -0.5322 -0.6464
 9175SOL    HW239162   4.516   2.306   5.721  0.5258 -0.3101 -0.0429
 9176SOL     OW39163   0.437   1.093   6.415 -0.2966 -0.0249  0.5074
 9176SOL    HW139164   0.521   1.110   6.371  0.5023 -2.3537  1.1452
 9176SOL    HW239165   0.388   1.165   6.375 -0.8837 -0.1441  1.0214
 9177SOL     OW39166   3.926   3.772   8.031 -0.5431  0.3265  0.2470
 9177SOL    HW139167   3.840   3.812   8.020 -0.9037 -0.0659  1.5918
 9177SOL    HW239168   3.971   3.807   7.954 -0.9036 -0.5779 -0.3786
 9178SOL     OW39169   4.668   0.247   4.167 -0.1600  0.4239 -0.5525
 9178SOL    HW139170   4.608   0.321   4.154  0.4240  0.8238 -0.9709
 9178SOL    HW239171   4.735   0.285   4.110  0.4018  0.6572  0.2650
 9179SOL     OW39172   4.120   1.466   8.946 -0.2138 -0.0045  0.0348
 9179SOL    HW139173   4.159   1.470   8.859 -0.6358 -1.8082 -0.2295
 9179SOL    HW239174   4.192   1.448   9.007  0.1615 -0.5389 -0.5781
 9180SOL     OW39175   0.328   0.423   1.316  0.0951  0.4317  0.8923
 9180SOL    HW139176   0.363   0.369   1.387 -0.8885 -1.4951 -0.0792
 9180SOL    HW239177   0.356   0.511   1.343  0.8293  0.2148  0.8435
 9181SOL     OW39178   2.170   0.267   6.571 -0.3929 -0.4831 -0.7765
 9181SOL    HW139179   2.093   0.284   6.626 -0.1012 -1.9163  0.0902
 9181SOL    HW239180   2.226   0.245   6.646  0.1372 -0.4063 -1.1569
 9182SOL     OW39181   3.657   2.248   8.611  0.1398  0.1301  0.3089
 9182SOL    HW139182   3.692   2.203   8.688  1.8304  1.0468  0.0619
 9182SOL    HW239183   3.729   2.255   8.549 -0.8746  1.7809 -0.6859
 9183SOL     OW39184   0.005   3.026   3.416 -0.7466 -0.1607 -0.5237
 9183SOL    HW139185   4.719   3.096   3.355  0.1219  0.6555  0.0966
 9183SOL    HW239186   4.711   3.059   3.501 -0.4023 -0.3340 -0.3338
 9184SOL     OW39187   2.851   2.750   8.972  0.0229  0.0669 -0.0094
 9184SOL    HW139188   2.785   2.788   8.914  0.3489 -0.8373 -0.9700
 9184SOL    HW239189   2.920   2.718   8.913  0.1462  1.6520 -0.7194
 9185SOL     OW39190   0.993   3.041   9.443  0.0781 -0.4655 -0.0369
 9185SOL    HW139191   0.980   3.134   9.423 -4.5123 -1.2908 -0.8456
 9185SOL    HW239192   1.083   3.052   9.474 -0.2445  1.7918  0.1420
 9186SOL     OW39193   0.591   2.510   4.580 -0.3419  0.0380  0.0643
 9186SOL    HW139194   0.579   2.580   4.645  0.5368  0.6054 -0.3778
 9186SOL    HW239195   0.558   2.562   4.507  1.3045  1.2775  0.1972
 9187SOL     OW39196   1.253   0.943   4.248 -0.1692  0.0589  0.4006
 9187SOL    HW139197   1.322   0.957   4.314 -0.6755  2.8014  0.3227
 9187SOL    HW239198   1.173   0.934   4.299 -0.2121  0.8211  0.4677
 9188SOL     OW39199   3.630   4.542   7.044 -0.4116  0.4115  0.5521
 9188SOL    HW139200   3.647   4.623   6.996 -1.8183  0.8564  0.8021
 9188SOL    HW239201   3.534   4.540   7.045 -0.4099  0.4300  0.7071
 9189SOL     OW39202   2.942   2.034   2.884  0.0881 -0.1769  0.3880
 9189SOL    HW139203   2.954   2.113   2.831  0.4357  0.1393  0.9392
 9189SOL    HW239204   3.003   2.042   2.957  1.9961 -0.9260 -1.1236
 9190SOL     OW39205   0.656   4.647   7.519 -0.1965  0.3934 -0.2500
 9190SOL    HW139206   0.669   4.710   7.590  0.1071 -1.7377  1.5908
 9190SOL    HW239207   0.741   4.650   7.474 -0.0696  0.2212 -0.0222
 9191SOL     OW39208   1.380   0.481  13.120  0.5025  0.4279  0.5512
 9191SOL    HW139209   1.364   0.553  13.182  1.1239  2.0153 -1.1312
 9191SOL    HW239210   1.462   0.437  13.142 -0.6043 -1.5135  0.7777
 9192SOL     OW39211   1.868   4.667   3.550 -0.4522  0.4509  0.3448
 9192SOL    HW139212   1.864   4.728   3.624  2.2962  1.3457 -0.2438
 9192SOL    HW239213   1.848   4.584   3.595  1.6220 -0.0114  0.4200
 9193SOL     OW39214   0.638   0.846   1.499  0.1600 -0.5393 -0.2970
 9193SOL    HW139215   0.710   0.812   1.552 -1.2755 -2.5148  0.3861
 9193SOL    HW239216   0.680   0.911   1.443  0.3167  0.4917  1.0106
 9194SOL     OW39217   2.584   3.144  11.649  0.0448  0.1776  0.3525
 9194SOL    HW139218   2.579   3.189  11.733 -0.2299  1.5123 -0.3704
 9194SOL    HW239219   2.621   3.058  11.669 -0.9582 -0.6785 -1.3703
 9195SOL     OW39220   3.981   4.127   1.757 -0.5628  0.1256 -0.6678
 9195SOL    HW139221   4.041   4.150   1.685  1.0525 -1.1650  0.2776
 9195SOL    HW239222   3.897   4.150   1.717  0.2448  2.4689 -1.0704
 9196SOL     OW39223   0.798   1.483  17.170  0.4047 -0.3120 -0.2587
 9196SOL    HW139224   0.731   1.468  17.103  1.2368 -1.5061 -0.8245
 9196SOL    HW239225   0.811   1.578  17.159 -1.0569 -0.1070 -0.2634
 9197SOL     OW39226   3.597   0.230   6.677 -0.3806 -0.2023 -0.3616
 9197SOL    HW139227   3.553   0.295   6.732  1.7302 -0.7035  1.9384
 9197SOL    HW239228   3.534   0.227   6.605  0.1406 -0.6130 -0.7993
 9198SOL     OW39229   3.896   3.999  13.683 -0.1341 -0.3181 -0.9284
 9198SOL    HW139230   3.852   3.924  13.724  3.3604 -1.9024 -0.0855
 9198SOL    HW239231   3.899   3.980  13.590 -0.9846  2.4898 -1.5109
 9199SOL     OW39232   1.559   2.532   1.632  0.0876  0.4141 -0.2743
 9199SOL    HW139233   1.510   2.524   1.550  0.7018 -0.6866 -0.5306
 9199SOL    HW239234   1.588   2.442   1.646  2.7565  1.1880 -0.8045
 9200SOL     OW39235   0.636   1.520   5.607 -0.3879  0.2487 -0.0662
 9200SOL    HW139236   0.688   1.599   5.619  1.1095 -0.6734 -0.5930
 9200SOL    HW239237   0.673   1.479   5.529 -0.4411 -0.4460  0.2773
 9201SOL     OW39238   2.851   2.349   7.845  0.8391  0.4628  0.0190
 9201SOL    HW139239   2.875   2.381   7.932 -0.7960  2.9787 -0.4511
 9201SOL    HW239240   2.889   2.261   7.845  0.9933  0.5279  0.0795
 9202SOL     OW39241   1.181   4.563   8.835  0.0427 -0.1593 -0.1185
 9202SOL    HW139242   1.167   4.499   8.904 -0.6541  1.3627  1.1525
 9202SOL    HW239243   1.216   4.641   8.880 -0.6776  0.3236 -0.4055
 9203SOL     OW39244   2.932   4.735   3.124  0.2033 -0.2257 -0.0544
 9203SOL    HW139245   3.022   0.022   3.099  0.2646 -0.1045  0.2735
 9203SOL    HW239246   2.948   4.667   3.189 -0.9876 -0.4239  0.0290
 9204SOL     OW39247   1.353   2.141   6.764 -0.3154 -0.4045 -0.1085
 9204SOL    HW139248   1.362   2.118   6.857  3.4140  2.0930  0.1670
 9204SOL    HW239249   1.259   2.147   6.752  0.0315  0.7441 -2.1653
 9205SOL     OW39250   3.526   4.353   5.318  0.7786 -0.2914 -0.0869
 9205SOL    HW139251   3.548   4.385   5.230  2.4803  0.2052  0.5355
 9205SOL    HW239252   3.529   4.439   5.360 -1.5980 -0.1798 -0.1177
 9206SOL     OW39253   1.135   3.528  13.684  0.2672  0.2207 -0.2382
 9206SOL    HW139254   1.076   3.597  13.716 -0.9241 -0.6424 -0.5808
 9206SOL    HW239255   1.219   3.573  13.696  0.6939 -0.8656  0.8037
 9207SOL     OW39256   2.505   1.355   1.923  0.0463 -0.3035 -0.1290
 9207SOL    HW139257   2.534   1.358   1.832  1.0555 -1.6474  0.1466
 9207SOL    HW239258   2.570   1.412   1.964  0.2306 -2.2295  2.2442
 9208SOL     OW39259   2.791   0.718   8.862 -0.2472 -0.1443 -0.1938
 9208SOL    HW139260   2.846   0.795   8.848  0.0101 -0.4239 -0.7323
 9208SOL    HW239261   2.824   0.653   8.799  1.7274 -0.9704  1.6795
 9209SOL     OW39262   1.952   3.820   8.394  0.1674  0.4261  0.3912
 9209SOL    HW139263   1.901   3.774   8.461  1.3258 -0.8439  0.4048
 9209SOL    HW239264   2.024   3.763   8.365  0.1234  0.9020 -0.6779
 9210SOL     OW39265   0.818   1.121  13.218 -0.1573 -1.0907 -0.1571
 9210SOL    HW139266   0.824   1.066  13.296 -0.4962  0.7012  1.1282
 9210SOL    HW239267   0.898   1.107  13.166  0.6905 -3.2120  1.7288
 9211SOL     OW39268   1.806   3.508  16.862 -0.0352 -0.2176  0.1713
 9211SOL    HW139269   1.776   3.442  16.800  1.8934  0.3429 -1.3476
 9211SOL    HW239270   1.897   3.512  16.835 -0.0269  0.4817  0.2889
 9212SOL     OW39271   2.048   3.953   2.641  0.3919 -0.1458 -0.3419
 9212SOL    HW139272   1.989   4.027   2.653  1.6114  0.5319  1.4986
 9212SOL    HW239273   2.047   3.930   2.548 -0.4970  0.7646 -0.5588
 9213SOL     OW39274   0.402   1.364   5.600 -0.1491  0.5803  0.3283
 9213SOL    HW139275   0.490   1.393   5.625  1.9111 -4.4169 -1.0495
 9213SOL    HW239276   0.429   1.321   5.519  0.0317 -1.1142  1.2841
 9214SOL     OW39277   2.712   0.090   1.588 -0.1435 -0.7437  0.3998
 9214SOL    HW139278   2.633   0.104   1.640  0.5319 -0.3648  1.3388
 9214SOL    HW239279   2.770   0.159   1.620  0.5446 -0.0152 -2.4624
 9215SOL     OW39280   3.713   3.178   3.583 -0.4318  0.7083  0.1373
 9215SOL    HW139281   3.636   3.208   3.534 -0.6980 -1.9279 -1.0636
 9215SOL    HW239282   3.720   3.089   3.548 -1.4457  1.3991 -1.8158
 9216SOL     OW39283   2.756   1.960   4.604 -0.1453  0.2587  0.1433
 9216SOL    HW139284   2.740   1.937   4.695 -0.0215 -0.1641  0.0609
 9216SOL    HW239285   2.710   2.043   4.601 -0.7434 -0.0776 -0.0840
 9217SOL     OW39286   1.951   4.334   5.600 -0.0407 -0.1621 -0.3490
 9217SOL    HW139287   1.910   4.336   5.687  1.7112 -3.7628  0.5812
 9217SOL    HW239288   1.935   4.424   5.572 -2.0809  0.4494  2.7420
 9218SOL     OW39289   3.935   3.876   0.782  0.1921  0.3391 -0.1123
 9218SOL    HW139290   4.015   3.897   0.831 -1.4065  3.0393  1.3520
 9218SOL    HW239291   3.969   3.837   0.701 -2.0525 -0.3476 -0.7118
 9219SOL     OW39292   0.248   0.542   4.926  0.2062 -0.7361  0.1743
 9219SOL    HW139293   0.331   0.503   4.953  0.9296  1.7702  1.5675
 9219SOL    HW239294   0.196   0.514   5.001 -1.9432 -1.4514 -1.5656
 9220SOL     OW39295   0.336   4.238   5.340 -0.0109 -0.9051  0.0140
 9220SOL    HW139296   0.265   4.284   5.295  0.0857  1.4714  2.2922
 9220SOL    HW239297   0.417   4.287   5.322  0.4806 -1.7959 -0.2154
 9221SOL     OW39298   1.307   0.477  15.866  0.2527 -0.2679 -0.2801
 9221SOL    HW139299   1.363   0.554  15.865 -0.0455 -0.0632 -1.4936
 9221SOL    HW239300   1.225   0.508  15.904  0.9849  1.6649 -0.2906
 9222SOL     OW39301   0.639   2.860   5.634  0.2837  0.0527  0.2986
 9222SOL    HW139302   0.568   2.850   5.571 -0.8783 -1.7971  1.8946
 9222SOL    HW239303   0.685   2.935   5.596 -1.8125  1.1118 -0.1396
 9223SOL     OW39304   2.822   4.547   1.169  0.2157 -0.1515 -0.1876
 9223SOL    HW139305   2.738   4.559   1.126 -0.8451 -1.2023  1.5747
 9223SOL    HW239306   2.869   4.497   1.102  1.6812 -0.0921  0.7765
 9224SOL     OW39307   0.149   3.739  16.154  0.1665  0.3161  0.8498
 9224SOL    HW139308   0.187   3.653  16.171  1.0896  0.4382 -0.6037
 9224SOL    HW239309   0.109   3.761  16.238 -1.4021  0.8204 -0.0417
 9225SOL     OW39310   4.293   1.678   0.104 -0.4131  0.5729 -0.8043
 9225SOL    HW139311   4.339   1.666   0.021 -1.1523 -0.2678 -1.0928
 9225SOL    HW239312   4.348   1.625   0.162  0.6421  2.0369 -0.4703
 9226SOL     OW39313   1.156   0.823   6.205  0.4690 -0.1251 -0.0583
 9226SOL    HW139314   1.151   0.898   6.265  2.1199  1.1504 -1.5316
 9226SOL    HW239315   1.251   0.815   6.203  0.4227 -0.8486  0.6031
 9227SOL     OW39316   3.811   4.554   5.157  0.0042 -0.2740  0.7696
 9227SOL    HW139317   3.721   4.529   5.136 -0.0353 -0.5398  1.2472
 9227SOL    HW239318   3.830   4.625   5.096 -2.3139 -0.4961 -0.1951
 9228SOL     OW39319   0.012   0.626   5.367  0.1231  0.1818 -0.3386
 9228SOL    HW139320   4.720   0.715   5.344 -0.4395  0.3665  1.0883
 9228SOL    HW239321   4.713   0.625   5.456  0.4733  0.9148 -0.1893
 9229SOL     OW39322   2.950   3.929   5.428 -0.4215 -0.0812 -0.3118
 9229SOL    HW139323   2.958   3.941   5.523  0.9387 -2.0814 -0.1718
 9229SOL    HW239324   3.020   3.988   5.402  0.3460 -0.5949  0.5739
 9230SOL     OW39325   3.235   3.390   8.989 -0.2718 -0.2125  0.6184
 9230SOL    HW139326   3.286   3.386   8.908 -0.3208  0.6819  0.5463
 9230SOL    HW239327   3.292   3.352   9.055 -0.0838 -1.5928 -0.3295
 9231SOL     OW39328   2.895   1.895  13.087 -0.2890  0.4127  0.1116
 9231SOL    HW139329   2.936   1.892  13.174  2.3110 -0.7066 -1.1439
 9231SOL    HW239330   2.959   1.847  13.036 -1.8493 -0.7344 -0.7529
 9232SOL     OW39331   1.686   3.791   5.554  0.2689  0.0064 -0.0768
 9232SOL    HW139332   1.730   3.855   5.610  0.6779  1.6628 -2.2982
 9232SOL    HW239333   1.725   3.708   5.582 -0.1945 -0.5773 -1.1517
 9233SOL     OW39334   2.027   0.770  17.168  0.2730  0.1837  0.0790
 9233SOL    HW139335   1.998   0.683  17.143 -1.7467  0.7850  0.3061
 9233SOL    HW239336   2.084   0.795  17.095 -0.0084 -0.7251 -0.4512
 9234SOL     OW39337   2.102   3.756  12.889  0.4790  0.2049  0.3157
 9234SOL    HW139338   2.173   3.821  12.891 -1.0127  1.7892  1.9995
 9234SOL    HW239339   2.156   3.678  12.878  0.7515  0.5419 -0.8255
 9235SOL     OW39340   1.918   2.351   5.904 -0.2248 -0.3770 -0.2504
 9235SOL    HW139341   1.975   2.275   5.889  0.7790  0.6077 -1.3675
 9235SOL    HW239342   1.889   2.362   5.814  1.1762  0.0158 -0.6578
 9236SOL     OW39343   2.801   2.694   6.175  0.2025 -0.0072 -0.8263
 9236SOL    HW139344   2.856   2.620   6.149  1.7493  0.1805  1.9953
 9236SOL    HW239345   2.748   2.697   6.095  0.5698 -1.9318 -1.1445
 9237SOL     OW39346   4.419   2.917   1.721  0.4218 -0.1845  0.0747
 9237SOL    HW139347   4.447   2.872   1.800 -1.6337 -0.9729  0.3745
 9237SOL    HW239348   4.506   2.921   1.681  0.8539 -0.6634  0.9807
 9238SOL     OW39349   0.370   2.198  16.716  0.2616  0.5700  0.4944
 9238SOL    HW139350   0.387   2.104  16.720 -1.4993  0.2160 -0.3909
 9238SOL    HW239351   0.304   2.206  16.784 -0.1534 -0.7385  0.2510
 9239SOL     OW39352   1.394   2.978  13.875  0.1989 -0.7413 -0.1084
 9239SOL    HW139353   1.354   3.012  13.955  2.2143  2.2615 -0.3861
 9239SOL    HW239354   1.360   3.047  13.818  0.6905 -0.6049 -0.2304
 9240SOL     OW39355   0.327   2.458  17.345 -0.5597 -0.2834  0.3233
 9240SOL    HW139356   0.415   2.495  17.352 -0.2187 -1.1501  0.6182
 9240SOL    HW239357   0.280   2.540  17.332 -1.0442 -0.6372 -0.1028
 9241SOL     OW39358   4.592   2.732   2.885 -0.2921  1.0923  0.5658
 9241SOL    HW139359   4.645   2.653   2.878 -0.2665  1.0620  1.1294
 9241SOL    HW239360   4.576   2.744   2.791  1.1225 -1.1928  0.0223
 9242SOL     OW39361   2.850   3.524  14.461 -0.3824  0.0040  0.4798
 9242SOL    HW139362   2.913   3.471  14.510  1.2798  0.1977 -1.4261
 9242SOL    HW239363   2.764   3.498  14.493  0.6129 -1.9828  1.4880
 9243SOL     OW39364   0.727   1.043   1.300  0.0336  0.5157  0.0904
 9243SOL    HW139365   0.668   1.032   1.225 -3.0723 -2.0217  2.9611
 9243SOL    HW239366   0.697   1.128   1.333  0.0559  0.5551  0.0108
 9244SOL     OW39367   4.677   3.284   9.278  0.1773 -0.0264 -0.2109
 9244SOL    HW139368   0.032   3.311   9.265  0.2770  0.9169  2.4724
 9244SOL    HW239369   4.683   3.218   9.346 -0.6763  0.7327  0.6028
 9245SOL     OW39370   0.819   4.165   4.768  0.0754 -0.0313 -0.2719
 9245SOL    HW139371   0.782   4.214   4.842  2.2329 -1.3462  1.6875
 9245SOL    HW239372   0.737   4.122   4.747  0.2797  0.3009 -1.7337
 9246SOL     OW39373   4.112   4.722   8.750 -0.4402  0.3146 -0.1555
 9246SOL    HW139374   4.028   0.027   8.771 -1.1917 -1.6729  0.7297
 9246SOL    HW239375   4.112   4.649   8.811 -0.1484 -0.1852 -0.7532
 9247SOL     OW39376   1.193   2.001  11.624  0.0924 -0.2325 -1.1731
 9247SOL    HW139377   1.259   2.020  11.557  0.6198  1.6764 -0.1200
 9247SOL    HW239378   1.213   2.067  11.690 -0.8838 -1.3249  0.2225
 9248SOL     OW39379   3.492   3.678   7.823 -0.2352  0.2963 -0.1569
 9248SOL    HW139380   3.534   3.748   7.874  0.1033 -0.9356  1.2727
 9248SOL    HW239381   3.466   3.612   7.887  1.3655  1.4559  1.7266
 9249SOL     OW39382   1.135   2.942   8.065  0.0853  0.0607 -0.1098
 9249SOL    HW139383   1.095   3.027   8.082 -1.3799 -0.4593 -0.9430
 9249SOL    HW239384   1.057   2.907   8.022  0.1447  0.4011 -0.5006
 9250SOL     OW39385   3.509   3.947  10.010 -0.2931 -0.4580  0.4370
 9250SOL    HW139386   3.443   3.888  10.046 -0.4895 -0.5826 -0.1268
 9250SOL    HW239387   3.488   3.938   9.917  1.4928 -2.8313  0.2532
 9251SOL     OW39388   4.097   3.151   7.828 -0.1237  0.6051  0.4160
 9251SOL    HW139389   4.005   3.146   7.800  0.6375  0.5279 -2.0774
 9251SOL    HW239390   4.100   3.242   7.797  1.9943  0.3830 -0.0204
 9252SOL     OW39391   2.576   1.364   5.831 -0.0894 -0.2742  0.1454
 9252SOL    HW139392   2.500   1.349   5.887  1.0450  1.3546  2.0953
 9252SOL    HW239393   2.601   1.450   5.863 -0.0842 -0.1413 -0.2156
 9253SOL     OW39394   4.031   0.567   2.955  0.3955  0.0782 -0.3199
 9253SOL    HW139395   4.053   0.494   3.013 -1.8606 -0.2566  0.0992
 9253SOL    HW239396   4.028   0.643   3.013  0.7355 -0.0585 -0.1225
 9254SOL     OW39397   4.139   2.396   6.936  0.0390  0.7183  0.3895
 9254SOL    HW139398   4.057   2.419   6.894 -2.1042 -2.1607  3.0321
 9254SOL    HW239399   4.139   2.302   6.952  0.7731  0.6997  0.3144
 9255SOL     OW39400   4.606   3.141  10.919  0.2659  0.0846 -0.4290
 9255SOL    HW139401   4.634   3.161  11.008  1.0289 -1.1442 -0.3968
 9255SOL    HW239402   4.544   3.071  10.937  1.8350 -0.1913  3.7846
 9256SOL     OW39403   4.617   1.969   2.529 -0.1091 -0.4264 -0.3917
 9256SOL    HW139404   4.601   1.875   2.534 -0.7463 -0.1674  2.0418
 9256SOL    HW239405   4.711   1.962   2.544 -0.1974 -1.8253 -0.4313
 9257SOL     OW39406   0.193   3.346   9.221 -0.1315  0.0471 -0.0035
 9257SOL    HW139407   0.244   3.414   9.177  1.7416 -1.3913 -0.0726
 9257SOL    HW239408   0.196   3.372   9.314  1.1613 -1.3896  0.3403
 9258SOL     OW39409   0.625   3.857  11.223 -0.5363  0.7620 -0.1116
 9258SOL    HW139410   0.549   3.821  11.269 -1.5777  2.8651 -0.2058
 9258SOL    HW239411   0.636   3.941  11.268 -0.4043  0.2983  0.7263
 9259SOL     OW39412   0.569   2.208   2.010 -0.3857 -0.0756 -0.3326
 9259SOL    HW139413   0.638   2.258   2.053 -0.1623  0.3034 -1.1443
 9259SOL    HW239414   0.618   2.153   1.950  2.4120  3.6588 -1.4308
 9260SOL     OW39415   1.821   4.674   4.360 -0.0473 -0.2794  0.1819
 9260SOL    HW139416   1.809   4.660   4.454  0.5570  0.0710  0.3143
 9260SOL    HW239417   1.914   4.655   4.348  0.0731  1.2029 -1.2038
 9261SOL     OW39418   1.723   2.134   8.317  0.2443  0.5622  0.3526
 9261SOL    HW139419   1.769   2.124   8.234  0.5924 -1.6380  0.8090
 9261SOL    HW239420   1.730   2.229   8.328 -0.4810  0.6350  0.1427
 9262SOL     OW39421   0.489   0.978   5.212  0.3787  0.1114 -0.2303
 9262SOL    HW139422   0.547   1.051   5.237  0.1881  1.2347 -3.0313
 9262SOL    HW239423   0.415   1.026   5.176 -1.1221 -1.5556  0.6763
 9263SOL     OW39424   1.151   2.736   6.600  0.0304  0.6323 -0.1804
 9263SOL    HW139425   1.091   2.767   6.668 -0.9341 -0.7121 -0.4241
 9263SOL    HW239426   1.222   2.800   6.606 -0.9118  1.8206 -1.4750
 9264SOL     OW39427   1.844   4.601   5.705 -0.0221  0.2405 -0.0081
 9264SOL    HW139428   1.764   4.558   5.675  1.1306 -0.4837 -2.1105
 9264SOL    HW239429   1.813   4.663   5.770 -2.4275  1.3928 -2.2588
 9265SOL     OW39430   0.512   1.542   6.351  0.4769  0.1136  0.1272
 9265SOL    HW139431   0.465   1.625   6.353 -0.5208 -0.4189 -0.6780
 9265SOL    HW239432   0.560   1.550   6.268 -2.6690  1.5135 -1.5734
 9266SOL     OW39433   4.269   3.142   1.750 -0.2864 -0.0891 -0.1528
 9266SOL    HW139434   4.349   3.194   1.739  0.0192 -0.4525  0.3314
 9266SOL    HW239435   4.308   3.055   1.760  1.5482  0.9873  2.0058
 9267SOL     OW39436   4.507   4.188  15.506 -0.5062  0.0759 -0.3193
 9267SOL    HW139437   4.551   4.186  15.421 -0.1076 -0.3768 -0.1047
 9267SOL    HW239438   4.428   4.230  15.472 -0.2094  0.6287 -0.3266
 9268SOL     OW39439   3.979   4.675   7.196  0.6698  0.7235  0.5468
 9268SOL    HW139440   3.967   4.716   7.110 -1.0776 -0.2852  0.3076
 9268SOL    HW239441   4.066   4.636   7.184 -0.1452 -0.3852 -1.9058
 9269SOL     OW39442   2.026   3.765   3.615  0.3635 -0.3863  0.5234
 9269SOL    HW139443   1.973   3.712   3.556  1.6161  0.0140 -0.9632
 9269SOL    HW239444   1.959   3.827   3.645 -0.5619 -1.1521  0.0417
 9270SOL     OW39445   2.925   2.565   8.407 -0.0282  0.1490 -0.2598
 9270SOL    HW139446   2.997   2.576   8.345  0.7527 -0.5223  0.5291
 9270SOL    HW239447   2.872   2.640   8.380 -1.1601 -0.8346 -0.7694
 9271SOL     OW39448   3.044   2.953   7.059  0.2523  0.1477  0.6094
 9271SOL    HW139449   3.031   2.935   7.152 -0.0600 -0.1649  0.5008
 9271SOL    HW239450   2.959   2.932   7.021  0.1866 -0.0982  0.8943
 9272SOL     OW39451   3.592   0.581   5.058  0.7106 -0.4745 -0.4677
 9272SOL    HW139452   3.608   0.522   4.984 -1.0972 -0.8868 -0.5150
 9272SOL    HW239453   3.567   0.516   5.123 -0.7531  0.6834  0.0992
 9273SOL     OW39454   4.233   3.825   2.834  0.1641 -0.3366 -0.6811
 9273SOL    HW139455   4.314   3.873   2.821  0.8045 -0.9675  0.8896
 9273SOL    HW239456   4.189   3.847   2.752  0.3318 -1.1275 -0.9842
 9274SOL     OW39457   2.419   4.703   2.240 -0.9775 -0.3681  0.2681
 9274SOL    HW139458   2.464   4.684   2.158  0.8073 -0.5681  1.3041
 9274SOL    HW239459   2.416   4.617   2.281  2.2317  0.8146  2.9452
 9275SOL     OW39460   4.343   2.122   1.692 -0.0016 -0.2660 -0.4609
 9275SOL    HW139461   4.331   2.028   1.679 -0.1746 -0.5171  1.5157
 9275SOL    HW239462   4.363   2.149   1.602  0.9691  2.0094  0.4445
 9276SOL     OW39463   4.451   3.536  16.559 -0.0364  0.5317 -0.5283
 9276SOL    HW139464   4.406   3.461  16.520 -0.3617  1.2553 -1.5577
 9276SOL    HW239465   4.512   3.495  16.621 -1.1915  0.2238  0.3988
 9277SOL     OW39466   4.034   0.901   2.752 -0.1250 -0.5800 -0.9523
 9277SOL    HW139467   4.006   0.845   2.680  1.6555  0.9035 -2.8290
 9277SOL    HW239468   3.956   0.909   2.807 -0.0373 -0.2358 -0.8787
 9278SOL     OW39469   0.179   3.779   3.241  0.8814 -0.1757  0.5116
 9278SOL    HW139470   0.143   3.701   3.199  1.9290 -1.3066  1.7048
 9278SOL    HW239471   0.125   3.780   3.320  2.1942  3.4213  1.3622
 9279SOL     OW39472   3.811   2.297   7.674  0.2261 -0.1640 -0.1008
 9279SOL    HW139473   3.785   2.258   7.590 -2.1023  2.4583 -0.6185
 9279SOL    HW239474   3.781   2.388   7.663 -0.7321 -0.7566 -2.4597
 9280SOL     OW39475   1.391   0.652  13.777  0.2827  0.0516 -0.0804
 9280SOL    HW139476   1.297   0.655  13.798  0.2276  0.4808 -0.3885
 9280SOL    HW239477   1.392   0.746  13.756  1.3344 -0.0069 -0.2540
 9281SOL     OW39478   2.365   3.126  15.564  0.0117 -0.2470 -0.1314
 9281SOL    HW139479   2.339   3.033  15.561  0.0096 -0.2850  1.4212
 9281SOL    HW239480   2.298   3.163  15.622 -0.3589 -0.3090 -0.5166
 9282SOL     OW39481   3.081   2.528   2.610 -0.1083  0.0871  0.5215
 9282SOL    HW139482   2.988   2.521   2.589  0.5218 -1.5982 -1.6674
 9282SOL    HW239483   3.113   2.459   2.552 -0.4701  1.0939 -0.8601
 9283SOL     OW39484   2.835   2.997  12.586  0.3540 -0.1191  0.1874
 9283SOL    HW139485   2.816   3.046  12.666 -1.3998  0.5740 -0.6704
 9283SOL    HW239486   2.876   2.916  12.618 -0.3881 -0.3028  0.6861
 9284SOL     OW39487   2.731   1.233   3.943 -0.4072  0.0204  0.4040
 9284SOL    HW139488   2.675   1.311   3.946  0.4719  0.7619 -2.8538
 9284SOL    HW239489   2.810   1.282   3.920 -1.2641  1.0449 -0.3766
 9285SOL     OW39490   0.119   2.283   2.319  0.3927 -0.0012  0.9611
 9285SOL    HW139491   0.174   2.293   2.241 -1.9073  1.1104 -0.5213
 9285SOL    HW239492   0.061   2.215   2.284 -0.1173  0.2012  1.4123
 9286SOL     OW39493   2.854   0.974   2.676  0.3830  0.2672  0.1638
 9286SOL    HW139494   2.776   0.928   2.707 -1.0779  2.0488 -0.8687
 9286SOL    HW239495   2.882   0.901   2.621  3.1097  1.2180  0.2818
 9287SOL     OW39496   4.422   3.906   5.412 -0.8648  0.6566  0.0551
 9287SOL    HW139497   4.511   3.871   5.405 -0.3380  2.2679 -1.4145
 9287SOL    HW239498   4.381   3.843   5.352 -2.8400  0.5229  1.5205
 9288SOL     OW39499   2.352   4.086  10.246 -0.2499  0.6364 -0.1036
 9288SOL    HW139500   2.399   4.074  10.329 -1.3666  1.6557  0.6835
 9288SOL    HW239501   2.261   4.078  10.275  0.3686 -1.2231  1.2859
 9289SOL     OW39502   0.594   0.643   7.075 -0.2953 -0.3545  0.0359
 9289SOL    HW139503   0.623   0.566   7.124  1.1726  0.3648  0.2845
 9289SOL    HW239504   0.675   0.685   7.046 -0.7376  1.1358  0.9469
 9290SOL     OW39505   0.557   2.258   2.820  0.0404 -0.1729  0.5633
 9290SOL    HW139506   0.601   2.254   2.735  0.1352 -0.1254  0.6099
 9290SOL    HW239507   0.613   2.317   2.872  2.5280 -0.0061 -2.3160
 9291SOL     OW39508   1.966   0.717  10.733 -0.1530  0.1498  0.0583
 9291SOL    HW139509   1.870   0.717  10.732 -0.1492  0.2999 -0.3337
 9291SOL    HW239510   1.990   0.662  10.658 -1.7349 -1.4391  0.6950
 9292SOL     OW39511   1.551   2.556   3.628  0.0204  0.0321 -0.2036
 9292SOL    HW139512   1.572   2.477   3.577 -0.4330 -1.1772  1.4797
 9292SOL    HW239513   1.603   2.620   3.579  0.2770 -1.7300 -2.2487
 9293SOL     OW39514   1.530   0.659   8.956  0.1731  0.4614 -0.8183
 9293SOL    HW139515   1.491   0.571   8.949  0.0584  0.5441 -1.2242
 9293SOL    HW239516   1.621   0.630   8.961  0.2032  0.6355 -0.4043
 9294SOL     OW39517   2.677   3.506   6.570  0.3725 -0.1329  0.6580
 9294SOL    HW139518   2.702   3.415   6.555  0.9437  0.2896 -1.0055
 9294SOL    HW239519   2.720   3.551   6.497 -1.0140 -0.8481 -0.6212
 9295SOL     OW39520   2.532   1.383   6.373  0.0256  0.6763 -0.4618
 9295SOL    HW139521   2.538   1.476   6.394  1.3473  0.6447 -0.6973
 9295SOL    HW239522   2.621   1.350   6.372 -0.1164  0.2722  1.2333
 9296SOL     OW39523   4.157   1.737   6.786 -0.1493 -0.3174 -0.3728
 9296SOL    HW139524   4.219   1.800   6.750  2.7908 -1.9665  1.8069
 9296SOL    HW239525   4.095   1.795   6.830  0.4776  0.9594 -1.1656
 9297SOL     OW39526   1.299   3.739   8.465 -0.0654 -0.4581  0.0358
 9297SOL    HW139527   1.350   3.699   8.535 -1.1712  0.1323  1.1739
 9297SOL    HW239528   1.275   3.826   8.495  1.7162 -0.0220  0.2385
 9298SOL     OW39529   1.900   2.270   8.656  0.2741 -0.3997  1.2206
 9298SOL    HW139530   1.838   2.199   8.670  1.7530 -2.0815 -0.8093
 9298SOL    HW239531   1.882   2.332   8.728  0.7229 -1.1325  1.9656
 9299SOL     OW39532   4.348   1.400  17.232  0.1454 -0.3733 -0.1661
 9299SOL    HW139533   4.437   1.392  17.266  0.4538 -1.6868 -1.2794
 9299SOL    HW239534   4.351   1.369  17.141  0.5938 -0.6924 -0.0428
 9300SOL     OW39535   2.467   0.934   5.262 -0.0338  0.1758  0.7781
 9300SOL    HW139536   2.416   0.857   5.288 -0.0995  0.7096  2.2102
 9300SOL    HW239537   2.538   0.891   5.213 -0.1925  2.1185 -1.1735
 9301SOL     OW39538   3.697   2.569   3.450 -0.9373 -0.5469 -0.3806
 9301SOL    HW139539   3.742   2.631   3.393 -0.2603 -0.1206  0.6085
 9301SOL    HW239540   3.603   2.590   3.459 -1.2178 -1.9152 -0.2049
 9302SOL     OW39541   4.707   1.619   8.324 -0.1245  0.3485  0.2700
 9302SOL    HW139542   4.650   1.694   8.341  0.9658  0.9372  1.2906
 9302SOL    HW239543   0.041   1.610   8.388  1.2162 -0.6726 -1.3530
 9303SOL     OW39544   3.084   2.921   5.171 -0.2521  0.1548 -0.7627
 9303SOL    HW139545   3.083   2.930   5.076  0.1093  0.7612 -0.7117
 9303SOL    HW239546   3.017   2.979   5.206 -2.1600 -2.2385 -0.4608
 9304SOL     OW39547   0.699   1.011   4.849 -0.5094 -0.2546  0.0748
 9304SOL    HW139548   0.676   1.094   4.891 -0.8675 -0.9207  1.1840
 9304SOL    HW239549   0.792   1.015   4.826 -0.4532  0.1504  0.3917
 9305SOL     OW39550   3.712   4.702   7.696 -0.4271  0.1248 -0.6660
 9305SOL    HW139551   3.678   0.002   7.614 -0.4599  2.0862  0.2025
 9305SOL    HW239552   3.699   0.039   7.756 -2.1977  0.3139 -1.2799
 9306SOL     OW39553   1.876   2.250   7.751 -0.6388 -0.1261  0.0798
 9306SOL    HW139554   1.964   2.220   7.729 -0.6341 -0.1362  0.1115
 9306SOL    HW239555   1.887   2.286   7.839  0.0079 -2.0158  0.7894
 9307SOL     OW39556   2.779   4.090   1.923 -0.1462  0.2011  0.3568
 9307SOL    HW139557   2.766   4.161   1.986 -0.2932  1.8111 -1.4645
 9307SOL    HW239558   2.831   4.121   1.849 -1.5223 -0.0316 -0.7043
 9308SOL     OW39559   3.222   3.552   9.972 -0.8953  0.0185  0.2283
 9308SOL    HW139560   3.254   3.531   9.885  1.4861  1.2255  0.8057
 9308SOL    HW239561   3.245   3.643   9.991 -1.9600  0.6672 -1.5895
 9309SOL     OW39562   0.137   1.581  14.516 -0.0305 -0.3035  0.2893
 9309SOL    HW139563   0.058   1.616  14.556  0.2568 -0.5447  1.0787
 9309SOL    HW239564   0.107   1.588  14.426 -0.6983 -0.9918  0.4585
 9310SOL     OW39565   4.181   0.377  15.796  0.0590  0.6177 -0.0027
 9310SOL    HW139566   4.091   0.355  15.821  0.2771  1.5440  1.5746
 9310SOL    HW239567   4.221   0.291  15.808 -1.5228 -0.1627 -0.3336
 9311SOL     OW39568   0.009   3.205  14.119 -0.2652  0.0200  0.7516
 9311SOL    HW139569   4.709   3.278  14.070 -0.3815  0.4907  1.5267
 9311SOL    HW239570   0.004   3.231  14.211 -2.1049 -0.8275  0.8852
 9312SOL     OW39571   3.233   1.360  10.793 -1.0225 -0.0901  0.0775
 9312SOL    HW139572   3.216   1.450  10.764 -2.5496 -0.5188 -0.3942
 9312SOL    HW239573   3.264   1.380  10.881 -1.8496  0.2500  0.2890
 9313SOL     OW39574   3.077   4.114  15.224  0.1389  0.5026 -0.1353
 9313SOL    HW139575   3.088   4.078  15.311 -1.6554  0.3968  0.0468
 9313SOL    HW239576   3.143   4.183  15.217  0.8892 -0.3910 -1.9859
 9314SOL     OW39577   1.756   2.959   5.149 -0.2155 -0.2973 -0.1709
 9314SOL    HW139578   1.695   3.032   5.157 -2.5248 -2.8721  5.8137
 9314SOL    HW239579   1.786   2.965   5.058 -1.0944 -1.2050 -0.5268
 9315SOL     OW39580   2.769   3.242  10.936  0.0937 -0.3970  0.1589
 9315SOL    HW139581   2.782   3.147  10.930 -2.3302 -0.6553 -1.0845
 9315SOL    HW239582   2.723   3.241  11.020  0.1852  2.4740  0.2323
 9316SOL     OW39583   0.009   4.502  17.362  0.7693 -0.5450 -0.1142
 9316SOL    HW139584   4.728   4.501  17.268  1.8958 -1.5609 -0.3052
 9316SOL    HW239585   4.691   4.579  17.383 -1.5564 -1.3737 -3.1441
 9317SOL     OW39586   4.486   0.425   0.140  0.2868  0.1999 -0.4698
 9317SOL    HW139587   4.543   0.351   0.120 -0.1267  0.1952 -1.6135
 9317SOL    HW239588   4.396   0.395   0.128  0.7639 -1.1703 -0.7111
 9318SOL     OW39589   0.618   1.775  10.053 -0.2915  0.2742 -0.2164
 9318SOL    HW139590   0.607   1.764  10.147  0.3814 -0.6400 -0.2463
 9318SOL    HW239591   0.615   1.687  10.016 -0.1764 -0.5761  1.8408
 9319SOL     OW39592   0.630   2.730   4.375  0.4764 -0.1469  0.0511
 9319SOL    HW139593   0.585   2.656   4.333  0.1589  0.1039 -0.0527
 9319SOL    HW239594   0.647   2.784   4.297 -1.5065 -0.1306 -0.3895
 9320SOL     OW39595   0.341   4.101   6.820 -0.1928 -0.1962  0.3850
 9320SOL    HW139596   0.317   4.045   6.894  0.8103 -0.7822  0.2562
 9320SOL    HW239597   0.275   4.065   6.760 -0.9210  0.9445  0.4949
 9321SOL     OW39598   2.561   0.977   7.806 -0.5014  0.4405  0.1457
 9321SOL    HW139599   2.572   0.982   7.711 -2.1489 -0.9902 -0.1246
 9321SOL    HW239600   2.611   0.897   7.822 -0.0844  0.6804  0.0531
 9322SOL     OW39601   1.247   3.863   4.905 -0.0641 -0.0023  0.3198
 9322SOL    HW139602   1.318   3.834   4.962 -0.6701  0.3994  1.2772
 9322SOL    HW239603   1.276   3.815   4.827 -0.1742 -1.1273  0.9836
 9323SOL     OW39604   4.326   3.125   7.647  0.8244 -0.1213 -0.2333
 9323SOL    HW139605   4.280   3.085   7.574 -0.0961 -1.8410  1.2847
 9323SOL    HW239606   4.260   3.117   7.716 -0.1870 -1.1671 -1.3370
 9324SOL     OW39607   2.574   2.640   7.078 -0.2588  0.0231  0.5763
 9324SOL    HW139608   2.538   2.563   7.036 -0.1038  0.2749 -0.0253
 9324SOL    HW239609   2.660   2.613   7.110  1.0118  2.1161 -1.0858
 9325SOL     OW39610   1.138   2.818   8.438  0.4423  0.1970  0.0815
 9325SOL    HW139611   1.130   2.771   8.355  0.4556 -0.8887  0.6934
 9325SOL    HW239612   1.095   2.900   8.415  0.1967 -0.3808 -1.5477
 9326SOL     OW39613   1.177   3.759  16.813  0.4825 -0.3111 -0.4079
 9326SOL    HW139614   1.131   3.700  16.754  0.2897  0.6954 -1.2709
 9326SOL    HW239615   1.154   3.843  16.772 -0.1989  0.3370  1.3111
 9327SOL     OW39616   4.545   2.573   6.823  0.1454  0.1967  0.2760
 9327SOL    HW139617   4.536   2.668   6.828  1.2651  0.2868  0.5991
 9327SOL    HW239618   4.452   2.559   6.804  0.2923  0.7610 -0.9057
 9328SOL     OW39619   2.711   3.874  16.811  0.3704  0.4652 -0.5825
 9328SOL    HW139620   2.690   3.827  16.730  0.6914 -0.5961 -0.0359
 9328SOL    HW239621   2.712   3.963  16.774 -0.7659  1.0837  0.8862
 9329SOL     OW39622   0.387   0.126   6.300 -0.4320 -0.2611 -0.6817
 9329SOL    HW139623   0.430   0.211   6.305  0.2370 -0.4310 -3.5660
 9329SOL    HW239624   0.448   0.083   6.360  0.4494 -1.4001 -2.3963
 9330SOL     OW39625   3.470   2.678   2.560  0.3041  0.0585  0.2978
 9330SOL    HW139626   3.488   2.593   2.518  1.6265  0.4199  0.1384
 9330SOL    HW239627   3.547   2.732   2.543  0.1292 -0.1458 -1.1412
 9331SOL     OW39628   1.287   2.249  10.508 -0.5258 -0.2696 -0.1894
 9331SOL    HW139629   1.350   2.182  10.482  2.3176  1.6826  1.6820
 9331SOL    HW239630   1.359   2.312  10.510  1.8423 -2.9393 -2.1185
 9332SOL     OW39631   0.307   0.136  10.144 -0.7585 -0.3480  0.5286
 9332SOL    HW139632   0.353   0.137  10.228  0.8194 -0.4286 -0.3272
 9332SOL    HW239633   0.265   0.222  10.147 -2.4684 -1.2683  2.8182
 9333SOL     OW39634   0.905   0.811   4.156  0.4290 -0.1064 -0.4796
 9333SOL    HW139635   0.814   0.790   4.176  0.4856  2.2230  2.3540
 9333SOL    HW239636   0.933   0.748   4.223 -0.0865  0.1282 -0.0399
 9334SOL     OW39637   0.589   3.241  10.048 -0.2129 -0.0589  0.6266
 9334SOL    HW139638   0.615   3.313   9.989 -1.3447 -0.5117 -0.4155
 9334SOL    HW239639   0.504   3.280  10.068 -0.7285  0.3703 -2.2945
 9335SOL     OW39640   3.740   3.458  13.962 -0.2063 -0.0495 -0.3065
 9335SOL    HW139641   3.677   3.528  13.950  0.1293  0.3046 -0.0034
 9335SOL    HW239642   3.733   3.453  14.058 -1.0853  0.2633 -0.3576
 9336SOL     OW39643   0.030   4.067  15.844 -0.4739  0.3386 -0.1685
 9336SOL    HW139644   0.009   4.141  15.788  0.2808 -0.1699 -1.1184
 9336SOL    HW239645   4.715   3.999  15.800  0.3003 -0.5946  0.3623
 9337SOL     OW39646   0.653   1.802   9.323 -0.2348 -0.5461 -0.1299
 9337SOL    HW139647   0.649   1.710   9.295 -0.2416  0.0196 -1.9978
 9337SOL    HW239648   0.562   1.826   9.339 -0.0146  0.9648 -1.1770
 9338SOL     OW39649   1.883   4.538  11.164  0.0106 -0.0374  0.3570
 9338SOL    HW139650   1.824   4.463  11.165 -0.8513  0.6500  0.3969
 9338SOL    HW239651   1.958   4.510  11.111 -0.6314 -2.0905  0.5475
 9339SOL     OW39652   4.091   2.597   3.926  0.5077  0.5528 -0.4872
 9339SOL    HW139653   4.002   2.601   3.963  1.3350 -0.1757  1.6040
 9339SOL    HW239654   4.126   2.675   3.969 -2.0050  0.4797  1.6947
 9340SOL     OW39655   4.699   3.754   2.960  1.1481 -0.6046  0.2111
 9340SOL    HW139656   0.010   3.837   2.955  0.3559 -0.2658 -1.5655
 9340SOL    HW239657   4.694   3.714   3.047 -1.5864 -1.5661 -0.4112
 9341SOL     OW39658   0.021   2.281   8.897  0.3360 -0.5387  0.2976
 9341SOL    HW139659   0.011   2.356   8.838  2.6141 -1.1765 -0.9057
 9341SOL    HW239660   4.676   2.280   8.947  0.2204  0.5563  0.1240
 9342SOL     OW39661   1.661   0.536   5.606  0.0804 -0.8674  0.5566
 9342SOL    HW139662   1.569   0.557   5.590  0.4184 -0.6811 -1.1289
 9342SOL    HW239663   1.679   0.545   5.699 -1.4986 -0.8601  0.8506
 9343SOL     OW39664   0.234   3.658   6.269 -0.0886  0.1264 -0.4081
 9343SOL    HW139665   0.293   3.586   6.246 -2.0019 -2.1895  1.9210
 9343SOL    HW239666   0.188   3.673   6.187 -2.3291 -0.4755  0.7457
 9344SOL     OW39667   0.843   4.573   4.764  0.8866 -0.4557 -0.2086
 9344SOL    HW139668   0.897   4.606   4.835  1.3979 -0.6622 -0.4972
 9344SOL    HW239669   0.762   4.621   4.781  1.1149 -0.4016  0.6932
 9345SOL     OW39670   1.325   1.112   8.191 -0.4290  0.5545 -0.0914
 9345SOL    HW139671   1.262   1.046   8.162  0.2360  0.8787 -2.2149
 9345SOL    HW239672   1.409   1.071   8.172 -1.4049 -1.1610 -0.6315
 9346SOL     OW39673   3.593   3.067   2.913  0.0958 -0.1865 -0.0104
 9346SOL    HW139674   3.515   3.031   2.872 -0.5871 -0.3615  1.4798
 9346SOL    HW239675   3.568   3.096   3.000 -1.3992  1.5417 -1.0123
 9347SOL     OW39676   4.509   2.474   3.223  0.1071 -0.1604  0.1375
 9347SOL    HW139677   4.517   2.381   3.245  1.6809 -0.6993 -2.7281
 9347SOL    HW239678   4.601   2.503   3.219  0.2480 -0.3807  1.7028
 9348SOL     OW39679   3.679   3.453   4.038 -0.0864 -0.6013 -0.1913
 9348SOL    HW139680   3.649   3.363   4.023 -0.9134 -0.4506  0.5735
 9348SOL    HW239681   3.613   3.491   4.095  0.5120  1.1796 -0.6860
 9349SOL     OW39682   0.486   3.710   8.467  0.3523  0.3947 -0.2087
 9349SOL    HW139683   0.434   3.743   8.539  1.0678 -1.5621  1.2093
 9349SOL    HW239684   0.494   3.792   8.418 -0.6283  0.8523  0.4050
 9350SOL     OW39685   1.537   4.135   5.648  0.6205 -0.1016 -0.1981
 9350SOL    HW139686   1.481   4.210   5.628  0.4044 -0.1957  0.0544
 9350SOL    HW239687   1.502   4.119   5.736  2.7749  1.0542  0.8577
 9351SOL     OW39688   0.603   0.851   6.600  0.3234  0.1889  0.2346
 9351SOL    HW139689   0.552   0.918   6.645  1.7145  0.4166  1.4757
 9351SOL    HW239690   0.575   0.772   6.646 -0.6125  0.2035 -0.3090
 9352SOL     OW39691   3.225   0.742   9.294 -0.3833  0.1904  0.2136
 9352SOL    HW139692   3.192   0.657   9.323 -1.2969  0.3172 -0.4432
 9352SOL    HW239693   3.211   0.802   9.366  0.8227 -0.5956  1.0989
 9353SOL     OW39694   1.760   2.334   7.119  0.3771  0.5294  0.6541
 9353SOL    HW139695   1.842   2.370   7.154  1.3108 -1.6208  0.7116
 9353SOL    HW239696   1.714   2.418   7.117 -0.3482  0.1306  0.5738
 9354SOL     OW39697   2.196   2.670   7.012  0.3145 -0.4195  0.4524
 9354SOL    HW139698   2.209   2.757   6.975  0.5285 -0.0383  1.4107
 9354SOL    HW239699   2.254   2.617   6.958  0.5003 -0.2902  0.5215
 9355SOL     OW39700   0.496   4.476  12.115  0.2279  0.3293  0.5472
 9355SOL    HW139701   0.475   4.524  12.035  0.5627  0.0619  0.3043
 9355SOL    HW239702   0.412   4.437  12.139  0.5705  0.8878  2.6588
 9356SOL     OW39703   4.097   0.608   3.301  0.0523  0.7001 -0.9538
 9356SOL    HW139704   4.051   0.634   3.381  0.5930 -1.2917  0.0099
 9356SOL    HW239705   4.072   0.515   3.295  1.3892  0.2328  0.7106
 9357SOL     OW39706   0.459   1.086   1.546  0.5167 -0.2990  0.0263
 9357SOL    HW139707   0.495   1.000   1.568  1.8211  0.1104 -0.5057
 9357SOL    HW239708   0.370   1.081   1.583 -0.0401  3.2918 -0.8121
 9358SOL     OW39709   2.827   4.624   6.514 -0.4785  0.4440 -0.1678
 9358SOL    HW139710   2.858   4.603   6.426 -3.0000 -1.4477 -0.5980
 9358SOL    HW239711   2.757   4.559   6.520  1.0216 -1.2553 -1.0830
 9359SOL     OW39712   3.814   0.519   1.476  0.0089  0.1901 -0.0634
 9359SOL    HW139713   3.733   0.566   1.490 -0.4458 -0.2346 -1.2200
 9359SOL    HW239714   3.877   0.585   1.505 -0.5765  0.8143 -0.2286
 9360SOL     OW39715   2.955   4.475   2.579 -0.3417  0.2954 -0.3041
 9360SOL    HW139716   2.997   4.406   2.631  0.8169 -0.0834 -1.7401
 9360SOL    HW239717   2.871   4.470   2.624 -0.6540 -1.6646 -1.1020
 9361SOL     OW39718   2.060   3.532  16.763  0.4668 -0.2310  0.5011
 9361SOL    HW139719   2.062   3.458  16.702 -0.7654  2.2375 -2.5639
 9361SOL    HW239720   2.062   3.606  16.702 -2.0943  0.1823  0.9413
 9362SOL     OW39721   1.726   3.520   8.489  0.3402 -0.1318  0.6336
 9362SOL    HW139722   1.805   3.570   8.507  0.9162 -1.0357  0.5933
 9362SOL    HW239723   1.678   3.588   8.440  0.1842 -0.1372  0.7822
 9363SOL     OW39724   3.917   3.385   6.443 -0.0246  0.0876 -0.0307
 9363SOL    HW139725   3.953   3.297   6.458 -1.3682 -0.6625 -1.1777
 9363SOL    HW239726   3.854   3.410   6.512 -0.9140 -1.4569 -0.2668
 9364SOL     OW39727   2.322   1.197   6.434  0.1189 -0.2382  0.4515
 9364SOL    HW139728   2.374   1.277   6.430 -1.4358  0.7007 -0.6268
 9364SOL    HW239729   2.235   1.226   6.458  0.2137  1.6658 -1.5705
 9365SOL     OW39730   3.973   4.161   8.140 -0.7724 -0.1202  0.2979
 9365SOL    HW139731   3.938   4.114   8.215  1.0049 -1.4973  0.2690
 9365SOL    HW239732   3.900   4.222   8.132  0.2550  1.3458  2.1147
 9366SOL     OW39733   3.275   2.062   2.235  0.1580  0.1249  0.4450
 9366SOL    HW139734   3.288   2.039   2.327  1.4024  1.6154  0.6442
 9366SOL    HW239735   3.343   2.130   2.234  2.3375 -2.0025  2.4162
 9367SOL     OW39736   4.073   2.151   4.220 -0.1801  0.1410 -0.5604
 9367SOL    HW139737   4.118   2.217   4.168 -0.0205  0.1198 -0.4477
 9367SOL    HW239738   4.147   2.132   4.277 -0.6098  1.2514  0.3518
 9368SOL     OW39739   3.084   4.460   1.747 -0.4274 -0.2198 -0.2209
 9368SOL    HW139740   3.098   4.534   1.688 -0.1733  0.6848  0.9912
 9368SOL    HW239741   2.997   4.426   1.727  0.2341 -3.0206  1.6798
 9369SOL     OW39742   1.219   1.482   3.983  0.3733 -0.3223 -0.1783
 9369SOL    HW139743   1.252   1.393   3.970  1.0887 -0.4277  2.1969
 9369SOL    HW239744   1.155   1.467   4.053  0.7832  3.2220  0.9832
 9370SOL     OW39745   1.361   3.786   5.403  0.1334  0.1564  0.6754
 9370SOL    HW139746   1.423   3.852   5.436  1.4408 -0.4491 -0.5864
 9370SOL    HW239747   1.406   3.710   5.438 -1.5706 -0.5262  1.3711
 9371SOL     OW39748   3.453   1.755   5.147  0.2870 -0.4799 -0.4013
 9371SOL    HW139749   3.537   1.790   5.175  0.3491 -0.8176 -0.1614
 9371SOL    HW239750   3.485   1.670   5.116 -0.3567 -0.4498 -1.1656
 9372SOL     OW39751   1.640   3.691   5.154  0.3245 -0.2986 -0.7229
 9372SOL    HW139752   1.616   3.608   5.196  1.0596 -1.2429 -2.1542
 9372SOL    HW239753   1.735   3.691   5.154  0.3253  3.2320 -4.3535
 9373SOL     OW39754   1.724   4.235   8.972  0.9884 -0.6693 -0.5783
 9373SOL    HW139755   1.769   4.316   8.996 -2.3720  0.3849  2.2044
 9373SOL    HW239756   1.654   4.262   8.913  1.1067 -0.0575 -0.4437
 9374SOL     OW39757   0.638   1.106  16.643 -0.3692  0.1956  0.4525
 9374SOL    HW139758   0.711   1.163  16.621 -2.3070  1.9207 -1.5524
 9374SOL    HW239759   0.568   1.143  16.589 -0.2582  1.1474  0.9545
 9375SOL     OW39760   0.102   3.672   0.933 -0.1659  0.5081 -0.0536
 9375SOL    HW139761   0.146   3.608   0.877 -2.0893 -0.6250 -0.2596
 9375SOL    HW239762   0.111   3.753   0.884  0.9219 -0.1288 -0.8975
 9376SOL     OW39763   4.118   1.458   5.014  0.1415  0.1591 -0.1634
 9376SOL    HW139764   4.115   1.363   5.018  3.4647  0.1415  1.1605
 9376SOL    HW239765   4.101   1.474   5.107 -0.2873 -1.4259  0.0227
 9377SOL     OW39766   1.781   3.176  14.046 -0.2507  0.3438  0.1039
 9377SOL    HW139767   1.822   3.111  14.103  0.9948  1.1078  0.0809
 9377SOL    HW239768   1.744   3.122  13.977 -0.2608  0.9999 -0.4037
 9378SOL     OW39769   4.416   4.190   5.433  0.7096  0.5180 -0.2341
 9378SOL    HW139770   4.400   4.101   5.400 -0.5804  0.8770 -0.5815
 9378SOL    HW239771   4.329   4.202   5.471  1.2632  0.5591  1.0018
 9379SOL     OW39772   3.763   1.388  13.175 -0.1234 -0.3253 -0.2566
 9379SOL    HW139773   3.828   1.378  13.106 -1.2511  1.2703 -1.5617
 9379SOL    HW239774   3.695   1.329  13.143 -1.6729  1.5458 -0.4604
 9380SOL     OW39775   0.927   1.552   5.038 -0.2106  0.4673  0.4450
 9380SOL    HW139776   0.926   1.536   4.943  1.2557  0.3905  0.4298
 9380SOL    HW239777   0.846   1.600   5.056  0.8838  1.9065  1.5431
 9381SOL     OW39778   1.570   1.004   2.248  0.6479 -0.3241  0.2247
 9381SOL    HW139779   1.541   0.913   2.258 -0.7125  0.1395  0.4552
 9381SOL    HW239780   1.602   1.020   2.337 -1.9504  2.9008  0.5804
 9382SOL     OW39781   0.852   0.844   9.631 -0.0020 -0.7266  0.6062
 9382SOL    HW139782   0.756   0.843   9.629  0.0373 -1.2875 -0.9210
 9382SOL    HW239783   0.869   0.937   9.618  2.0053 -1.1917 -0.1116
 9383SOL     OW39784   2.650   2.925  14.717 -0.3915 -0.2246 -0.0173
 9383SOL    HW139785   2.585   2.978  14.764 -0.2786 -0.5716  0.5266
 9383SOL    HW239786   2.656   2.846  14.771 -0.5692 -0.2964 -0.1023
 9384SOL     OW39787   1.347   1.068   2.642 -0.2055 -0.4773 -0.5082
 9384SOL    HW139788   1.411   1.021   2.696 -2.1113 -1.8772  0.5410
 9384SOL    HW239789   1.364   1.157   2.672  1.6260 -1.2308  0.7194
 9385SOL     OW39790   1.770   1.480   4.946  0.2224 -0.6244  0.7791
 9385SOL    HW139791   1.780   1.407   4.884 -0.2929 -0.7009  0.7898
 9385SOL    HW239792   1.758   1.558   4.892  0.0206 -0.9936  0.2963
 9386SOL     OW39793   1.907   3.931   5.669 -0.8393  0.0548 -0.2707
 9386SOL    HW139794   1.972   3.861   5.680 -1.3228 -0.4147 -0.3923
 9386SOL    HW239795   1.940   4.006   5.718  0.9192  0.2664 -1.7751
 9387SOL     OW39796   4.553   0.426   6.289  0.2706 -0.3346  0.1072
 9387SOL    HW139797   4.567   0.494   6.354  1.3991  0.0245 -0.5069
 9387SOL    HW239798   4.471   0.443   6.242  0.6661 -1.1812 -0.9100
 9388SOL     OW39799   3.876   4.368   5.669  0.4375  0.5055  0.2181
 9388SOL    HW139800   3.909   4.358   5.580  0.2954 -1.0673  0.3373
 9388SOL    HW239801   3.952   4.393   5.721 -1.4284 -0.0817  3.2210
 9389SOL     OW39802   2.940   1.769   1.369  0.1713 -0.0321 -0.3243
 9389SOL    HW139803   2.857   1.741   1.408 -0.6016  1.6536 -0.7687
 9389SOL    HW239804   2.999   1.698   1.395 -0.1521  0.7218  2.4547
 9390SOL     OW39805   1.657   0.713  17.519  0.4376 -0.3435  0.1084
 9390SOL    HW139806   1.610   0.647  17.570  3.8338 -1.5849  1.5897
 9390SOL    HW239807   1.576   0.738  17.474 -0.3730  0.4766  2.0164
 9391SOL     OW39808   4.369   1.243   7.974  0.8980 -0.1774 -0.0154
 9391SOL    HW139809   4.318   1.224   8.053 -0.4181  0.5853 -0.6855
 9391SOL    HW239810   4.444   1.185   7.990  1.3181  0.1472 -0.8200
 9392SOL     OW39811   1.278   1.340   9.368  0.7289  0.0683  0.1564
 9392SOL    HW139812   1.237   1.256   9.388 -2.1170  2.0675  2.6848
 9392SOL    HW239813   1.212   1.385   9.316  2.3834  2.6907  0.3048
 9393SOL     OW39814   0.509   1.833   3.171 -0.0639  0.4039  0.4997
 9393SOL    HW139815   0.435   1.826   3.231 -0.2629  0.8338  0.3111
 9393SOL    HW239816   0.501   1.916   3.124  0.3549 -0.0659 -0.3966
 9394SOL     OW39817   1.259   2.191   4.990  0.1019  0.1477  0.0489
 9394SOL    HW139818   1.234   2.253   4.921 -0.0858  0.5178  0.4496
 9394SOL    HW239819   1.349   2.210   5.015  0.2136 -0.7700  0.3425
 9395SOL     OW39820   2.745   4.362  13.802  0.3679 -0.0927  0.3158
 9395SOL    HW139821   2.709   4.278  13.829  1.8498 -0.5330  0.9213
 9395SOL    HW239822   2.837   4.342  13.782 -0.4399 -1.3706 -2.0542
 9396SOL     OW39823   3.617   1.810   1.925 -0.1082  0.4784 -0.1420
 9396SOL    HW139824   3.684   1.862   1.879 -1.4788  1.4148 -1.0845
 9396SOL    HW239825   3.660   1.799   2.010  2.0482 -1.7016 -1.5296
 9397SOL     OW39826   2.156   2.003  16.536  0.0012 -0.2422 -0.4634
 9397SOL    HW139827   2.106   1.944  16.592  1.5330 -0.9616  0.1517
 9397SOL    HW239828   2.095   2.077  16.532 -1.3589 -1.3598 -0.3340
 9398SOL     OW39829   4.591   1.474   6.838  0.3320 -0.2257 -0.1989
 9398SOL    HW139830   4.622   1.392   6.802  1.1721  0.0755 -0.1581
 9398SOL    HW239831   4.667   1.503   6.889 -0.3971 -1.2540  1.4687
 9399SOL     OW39832   4.039   3.095   3.312  0.2335 -0.2680 -0.4632
 9399SOL    HW139833   3.962   3.043   3.333 -1.0241  1.0417 -1.8359
 9399SOL    HW239834   4.100   3.041   3.262  2.6974  0.4064  1.8287
 9400SOL     OW39835   3.109   4.646   9.103 -0.4457  0.2946 -0.2030
 9400SOL    HW139836   3.043   4.706   9.068  0.2717  0.8878 -0.5499
 9400SOL    HW239837   3.190   4.668   9.057  1.3041 -2.6505  1.4822
 9401SOL     OW39838   2.370   0.767   1.332 -0.3768 -0.5428 -0.4676
 9401SOL    HW139839   2.354   0.752   1.426  0.0384 -0.4181 -0.3763
 9401SOL    HW239840   2.454   0.812   1.343  0.7312 -2.6258 -0.4207
 9402SOL     OW39841   2.926   1.308   5.924 -0.2861 -0.4515 -0.2705
 9402SOL    HW139842   2.869   1.286   5.851 -0.3497 -2.5642  0.4082
 9402SOL    HW239843   2.980   1.231   5.943 -1.9162 -0.9378  2.3995
 9403SOL     OW39844   3.546   1.980   8.441  0.0837  0.4077 -0.5401
 9403SOL    HW139845   3.592   1.945   8.517  0.8844 -1.8983 -2.0760
 9403SOL    HW239846   3.458   1.952   8.465  0.9210 -0.6426  1.3196
 9404SOL     OW39847   2.275   3.296  16.745  0.1886  0.6388  0.6966
 9404SOL    HW139848   2.231   3.211  16.737 -0.2556  1.0704 -1.5621
 9404SOL    HW239849   2.225   3.351  16.685 -1.5184 -1.7790 -0.0872
 9405SOL     OW39850   4.177   3.970   8.091 -0.5274 -0.6976 -0.0723
 9405SOL    HW139851   4.166   3.933   8.003  0.3428  0.9326 -0.8652
 9405SOL    HW239852   4.096   4.022   8.097 -0.8694 -1.1564 -0.7576
 9406SOL     OW39853   1.153   2.338   8.438 -0.0430 -0.1019  0.1259
 9406SOL    HW139854   1.202   2.403   8.389 -1.1834 -0.7712 -1.8993
 9406SOL    HW239855   1.064   2.373   8.438  0.7773  1.9475 -3.7379
 9407SOL     OW39856   4.001   3.669  16.410 -0.3076  0.6130  0.2637
 9407SOL    HW139857   3.959   3.611  16.347  0.6576  0.6329 -0.3979
 9407SOL    HW239858   4.017   3.743  16.352  1.0846 -0.4407 -0.6825
 9408SOL     OW39859   0.159   1.717   3.121  0.2612 -0.5755 -0.6145
 9408SOL    HW139860   0.175   1.625   3.101 -2.8233 -1.0581 -0.8209
 9408SOL    HW239861   0.222   1.754   3.059  0.3727 -1.8400 -1.2576
 9409SOL     OW39862   2.558   2.865   7.411 -0.7177  0.3527  0.0104
 9409SOL    HW139863   2.494   2.881   7.480  0.4305 -0.8485  1.3632
 9409SOL    HW239864   2.562   2.769   7.412  0.5850  0.4131  0.5945
 9410SOL     OW39865   2.603   0.892   3.347  0.4139  0.5837  0.2346
 9410SOL    HW139866   2.672   0.838   3.309 -1.2057 -0.2656 -1.4919
 9410SOL    HW239867   2.559   0.825   3.398 -0.8432 -0.3775 -2.0997
 9411SOL     OW39868   0.499   1.430   7.813  0.4227 -0.1899 -0.0488
 9411SOL    HW139869   0.522   1.482   7.736  0.3215 -2.0635 -1.3263
 9411SOL    HW239870   0.577   1.375   7.821 -0.9856 -2.1659 -0.1499
 9412SOL     OW39871   2.206   1.004   2.188  0.6049  0.4524 -0.0532
 9412SOL    HW139872   2.192   0.946   2.113  1.5573 -0.5952  0.5855
 9412SOL    HW239873   2.298   1.026   2.173  0.7490 -0.3776 -0.3823
 9413SOL     OW39874   2.949   1.924  10.083  0.0810  0.1827 -0.4456
 9413SOL    HW139875   2.972   2.006  10.126  0.0386 -0.1180  0.1614
 9413SOL    HW239876   2.856   1.910  10.103  0.5321  2.5656  3.2369
 9414SOL     OW39877   0.828   2.303  11.788 -0.0537  0.3210 -0.2879
 9414SOL    HW139878   0.855   2.374  11.730  2.1523  0.5942  1.0792
 9414SOL    HW239879   0.831   2.345  11.874 -0.4852 -0.1995 -0.0190
 9415SOL     OW39880   0.336   1.116   3.837  0.1454 -0.2168 -0.0507
 9415SOL    HW139881   0.325   1.079   3.750  3.3843 -0.2641 -0.4540
 9415SOL    HW239882   0.326   1.211   3.826 -1.0731 -0.2458  0.7729
 9416SOL     OW39883   2.009   2.905   4.182 -0.5429 -0.1997  0.8286
 9416SOL    HW139884   1.979   2.929   4.094 -2.7162 -0.3581  1.5196
 9416SOL    HW239885   2.096   2.868   4.169 -0.7381 -0.3686  0.0009
 9417SOL     OW39886   3.313   4.170  17.381 -0.0945 -0.2263 -0.0571
 9417SOL    HW139887   3.304   4.082  17.417 -2.4177  0.5546  1.3148
 9417SOL    HW239888   3.230   4.210  17.407 -0.3560 -1.3829  0.8740
 9418SOL     OW39889   2.971   3.876  16.648  0.3619 -0.3333  0.4591
 9418SOL    HW139890   2.876   3.882  16.639  0.3639 -1.5052 -0.3847
 9418SOL    HW239891   2.999   3.944  16.708  1.5058  0.2756 -0.7612
 9419SOL     OW39892   3.169   0.328   7.879  0.1235 -0.1710 -0.8792
 9419SOL    HW139893   3.120   0.279   7.944  0.3481  1.5835  0.6100
 9419SOL    HW239894   3.135   0.416   7.897  0.1724 -0.2720 -0.2969
 9420SOL     OW39895   1.873   2.277   6.582 -0.0188 -0.4550 -0.3196
 9420SOL    HW139896   1.804   2.254   6.520  1.1316  2.5437 -2.7007
 9420SOL    HW239897   1.953   2.279   6.529  0.7773 -1.4708  0.8582
 9421SOL     OW39898   3.071   0.613  15.937  0.0366  0.2425 -0.0061
 9421SOL    HW139899   3.055   0.706  15.955 -1.8418  0.0239 -0.5253
 9421SOL    HW239900   3.090   0.607  15.844 -1.0778 -1.4859 -0.1202
 9422SOL     OW39901   0.230   3.482   0.803 -0.0508  0.2039  1.0320
 9422SOL    HW139902   0.149   3.433   0.816 -0.4426  1.2097  2.3380
 9422SOL    HW239903   0.269   3.431   0.731  1.0647  1.7356  0.5463
 9423SOL     OW39904   4.463   3.631   9.790 -0.4321  0.2390  0.0753
 9423SOL    HW139905   4.484   3.538   9.780  1.3066  0.6085  0.2806
 9423SOL    HW239906   4.384   3.623   9.843  1.1299  1.2444  2.5762
 9424SOL     OW39907   4.632   4.525   7.591  0.2860  0.0359 -0.3179
 9424SOL    HW139908   4.562   4.492   7.535 -2.3385  0.5125  2.7086
 9424SOL    HW239909   4.591   4.522   7.677  2.3919  2.6124  0.7834
 9425SOL     OW39910   2.299   2.101  11.877  0.3797 -0.1595  0.5514
 9425SOL    HW139911   2.258   2.102  11.964 -1.3901  3.0192 -0.3259
 9425SOL    HW239912   2.373   2.040  11.880  2.1683  2.0513  1.2329
 9426SOL     OW39913   1.033   0.766   3.910  0.1447 -0.3302  0.6796
 9426SOL    HW139914   1.127   0.783   3.916 -0.2218  1.5889  0.8607
 9426SOL    HW239915   1.009   0.786   4.000  0.1005  1.1358  0.3394
 9427SOL     OW39916   0.511   2.151   0.196  0.7130 -0.3696 -0.0877
 9427SOL    HW139917   0.459   2.164   0.116 -0.5757  2.7537  1.2487
 9427SOL    HW239918   0.527   2.059   0.176 -0.0596 -0.3920 -0.5953
 9428SOL     OW39919   4.242   4.007   3.875  0.1387 -0.2315 -0.5571
 9428SOL    HW139920   4.294   4.043   3.947 -0.6174 -2.7417  1.2782
 9428SOL    HW239921   4.198   4.085   3.843  0.6575 -0.2776 -1.3651
 9429SOL     OW39922   2.414   3.396   7.071  0.2375 -0.5923 -0.0799
 9429SOL    HW139923   2.482   3.388   7.138 -0.4327 -0.3803  0.6258
 9429SOL    HW239924   2.466   3.365   6.997  1.1803  0.0941  0.3012
 9430SOL     OW39925   0.606   0.668   8.081  0.1494  0.3384  0.1659
 9430SOL    HW139926   0.571   0.706   8.162  3.4389 -0.8679  2.1554
 9430SOL    HW239927   0.585   0.576   8.096  0.4204  0.0904 -1.0159
 9431SOL     OW39928   1.947   4.690   2.332 -0.2804  0.0610 -0.4225
 9431SOL    HW139929   1.930   4.683   2.238 -1.9613  2.3044 -0.2793
 9431SOL    HW239930   1.985   0.041   2.337 -1.0218  0.2115  2.8797
 9432SOL     OW39931   3.338   4.521   7.686 -0.1299  0.3787  0.7760
 9432SOL    HW139932   3.278   4.531   7.760  0.2595 -2.1352  1.4291
 9432SOL    HW239933   3.417   4.472   7.709  1.4337  1.7410 -1.8566
 9433SOL     OW39934   0.090   4.029   8.660  0.2163  0.0638 -0.0037
 9433SOL    HW139935   0.114   4.117   8.689 -3.0135  0.9717 -0.0582
 9433SOL    HW239936   0.017   4.038   8.599  0.8397 -0.4451 -0.8288
 9434SOL     OW39937   1.290   0.184   4.461  0.0777  0.9549  0.2384
 9434SOL    HW139938   1.296   0.236   4.541  0.1776  1.4082 -0.0612
 9434SOL    HW239939   1.237   0.110   4.489  1.6577  0.9020  3.1119
 9435SOL     OW39940   0.662   4.471  16.752 -0.1931 -0.3356 -0.0695
 9435SOL    HW139941   0.614   4.404  16.704 -0.2160  0.2931 -0.9202
 9435SOL    HW239942   0.617   4.551  16.724  0.3860 -0.6289 -1.8115
 9436SOL     OW39943   2.993   3.665  14.677 -0.0717 -0.0328 -0.4411
 9436SOL    HW139944   2.935   3.696  14.746  0.8648 -0.8767  0.7423
 9436SOL    HW239945   2.939   3.634  14.604 -1.8386  0.2823  0.7591
 9437SOL     OW39946   2.963   0.227   8.085  0.1021  0.0471  0.2404
 9437SOL    HW139947   2.907   0.296   8.049 -1.2812 -0.7078  0.9206
 9437SOL    HW239948   2.939   0.150   8.032  0.2818 -0.4864  0.9314
 9438SOL     OW39949   2.310   0.390  16.953  0.6079  0.1255 -0.4440
 9438SOL    HW139950   2.321   0.320  17.018  2.1220  2.6291  2.0059
 9438SOL    HW239951   2.372   0.357  16.888  0.1900 -0.3984 -0.5806
 9439SOL     OW39952   2.032   3.801  12.614  0.3169 -0.1027 -0.1912
 9439SOL    HW139953   2.045   3.895  12.606  0.0065 -0.0773 -0.4088
 9439SOL    HW239954   2.042   3.785  12.708 -2.6564  1.7832  0.4400
 9440SOL     OW39955   0.987   3.549   8.578  0.3165 -0.0542  1.1727
 9440SOL    HW139956   1.028   3.595   8.651  3.0757  1.3188 -1.2581
 9440SOL    HW239957   1.037   3.469   8.595 -0.0903 -0.7953 -1.2221
 9441SOL     OW39958   0.471   0.991   4.479 -0.0005  0.2789 -0.0682
 9441SOL    HW139959   0.514   1.076   4.469  1.1111 -0.3661 -0.8069
 9441SOL    HW239960   0.489   0.957   4.567 -1.8091  0.3840  0.3370
 9442SOL     OW39961   2.471   1.718   9.135 -0.4885  0.0353  0.1911
 9442SOL    HW139962   2.414   1.751   9.204  1.0154 -2.7268  2.7265
 9442SOL    HW239963   2.462   1.623   9.140  0.6602 -0.1068 -0.4308
 9443SOL     OW39964   1.045   3.906  10.949 -0.3565  0.0936  0.0937
 9443SOL    HW139965   0.955   3.937  10.948 -0.8381 -1.3137 -0.6892
 9443SOL    HW239966   1.051   3.839  10.881 -4.3414 -0.7346  0.6063
 9444SOL     OW39967   2.128   4.529   7.062 -0.1874  0.2377  0.5028
 9444SOL    HW139968   2.103   4.620   7.047  1.1341  0.2153 -1.8119
 9444SOL    HW239969   2.120   4.529   7.158 -1.7365 -2.9340  0.3782
 9445SOL     OW39970   4.494   2.408   7.978  0.3591 -0.3092 -0.1150
 9445SOL    HW139971   4.411   2.449   7.957 -0.9288 -2.9402 -0.1578
 9445SOL    HW239972   4.464   2.323   8.010  1.0058 -0.8388 -0.9123
 9446SOL     OW39973   0.343   1.686   4.445 -0.8747  0.0889  0.7124
 9446SOL    HW139974   0.299   1.612   4.403  0.2753 -1.1368  1.6734
 9446SOL    HW239975   0.268   1.739   4.473  1.8578  3.9496  0.7542
 9447SOL     OW39976   2.628   3.560  14.621 -0.0498 -0.0006  0.0401
 9447SOL    HW139977   2.573   3.538  14.697 -0.3079 -1.0096 -0.4397
 9447SOL    HW239978   2.612   3.654  14.614  0.4843 -0.0252 -1.4695
 9448SOL     OW39979   3.195   4.493   2.972  0.0733 -0.1942 -0.0406
 9448SOL    HW139980   3.213   4.449   3.055  2.6921 -0.4759 -0.7668
 9448SOL    HW239981   3.285   4.489   2.941 -0.2190 -0.4959 -0.8442
 9449SOL     OW39982   2.070   1.343   5.435  0.0684 -0.5131 -0.7455
 9449SOL    HW139983   2.143   1.294   5.398  2.6194  1.7527  1.3403
 9449SOL    HW239984   2.024   1.369   5.354 -1.1790 -0.9490 -0.1800
 9450SOL     OW39985   3.177   3.443   6.801 -0.1003  0.1676 -0.0059
 9450SOL    HW139986   3.175   3.538   6.787 -2.1953 -0.0104 -0.9430
 9450SOL    HW239987   3.124   3.421   6.724 -2.0640  0.8765  1.1432
 9451SOL     OW39988   2.984   2.532   6.382  0.3385  0.5691  0.3488
 9451SOL    HW139989   3.012   2.455   6.432 -0.2793 -0.4882 -0.9259
 9451SOL    HW239990   2.966   2.491   6.298  4.0215  0.4976 -0.4146
 9452SOL     OW39991   4.632   1.879  15.309 -0.5432  0.1864  0.0138
 9452SOL    HW139992   4.624   1.795  15.354 -1.3388  0.3484  0.1656
 9452SOL    HW239993   4.547   1.875  15.267 -1.9578  1.4375  2.7695
 9453SOL     OW39994   3.643   4.194  14.532  0.5412 -0.0637  0.0939
 9453SOL    HW139995   3.710   4.250  14.493  0.6193  0.5245  1.0737
 9453SOL    HW239996   3.577   4.262  14.543  0.4271 -0.2507  0.5485
 9454SOL     OW39997   0.696   4.233   3.373 -0.1752 -0.1866 -0.6123
 9454SOL    HW139998   0.626   4.257   3.433  1.1730 -0.3088  1.0051
 9454SOL    HW239999   0.774   4.230   3.429 -0.1900 -1.3183 -0.6442
 9455SOL     OW40000   3.497   4.120   9.675  0.3352 -0.8294 -0.2362
 9455SOL    HW140001   3.576   4.133   9.623 -0.1651  4.5029  0.3025
 9455SOL    HW240002   3.447   4.061   9.619 -0.3316  0.8444 -1.4059
 9456SOL     OW40003   3.927   3.510  11.186  0.3367  0.4087 -0.2403
 9456SOL    HW140004   3.908   3.427  11.143  2.4093  0.6939 -1.6922
 9456SOL    HW240005   4.023   3.505  11.180  0.1594  0.0103 -2.5246
 9457SOL     OW40006   1.492   0.182   4.979 -0.2385  0.0901 -0.5157
 9457SOL    HW140007   1.432   0.229   5.035  1.0536 -1.0015  1.7796
 9457SOL    HW240008   1.468   0.095   5.010  1.7018  0.0292  0.8378
 9458SOL     OW40009   0.837   1.679   6.433 -0.3463  0.0270  0.3256
 9458SOL    HW140010   0.930   1.686   6.412 -0.4370  1.1290  0.3119
 9458SOL    HW240011   0.845   1.645   6.523 -2.3984  0.6604  0.7571
 9459SOL     OW40012   3.651   3.155  11.870  0.0671  0.0358  0.1974
 9459SOL    HW140013   3.620   3.145  11.960 -2.1619  0.1819 -0.5561
 9459SOL    HW240014   3.660   3.250  11.860 -1.6340  0.2196  0.4307
 9460SOL     OW40015   0.303   0.092   6.044  0.1987  0.1932 -0.4998
 9460SOL    HW140016   0.319   0.097   6.138 -3.9417  0.3015  0.2210
 9460SOL    HW240017   0.282   4.735   6.038  0.7304  0.1415 -1.7713
 9461SOL     OW40018   2.870   3.594   7.231  0.1331  0.3408  0.0799
 9461SOL    HW140019   2.912   3.553   7.155 -0.6681  2.1956 -1.3604
 9461SOL    HW240020   2.855   3.517   7.285  0.6412  0.3863  0.2911
 9462SOL     OW40021   0.970   3.047   2.914 -0.1606  0.4804 -0.0992
 9462SOL    HW140022   0.961   2.972   2.855 -2.1099  0.0730  0.7292
 9462SOL    HW240023   0.937   3.018   2.999 -3.0287 -2.5523 -2.2473
 9463SOL     OW40024   2.537   1.385  10.940 -0.7901  0.2608  0.4864
 9463SOL    HW140025   2.562   1.305  10.893 -1.0871  0.1445  0.5224
 9463SOL    HW240026   2.610   1.446  10.929 -0.3388 -0.1737  1.0545
 9464SOL     OW40027   4.329   3.313  17.468  0.3075 -0.1809  0.2247
 9464SOL    HW140028   4.414   3.329  17.508  0.5650  0.0286 -0.4066
 9464SOL    HW240029   4.353   3.260  17.392  0.4281 -0.7422  0.6507
 9465SOL     OW40030   0.044   2.597   3.246 -0.7506 -0.0678  0.5283
 9465SOL    HW140031   0.095   2.673   3.218  0.2979 -0.8806  0.2309
 9465SOL    HW240032   0.065   2.533   3.178  1.2754  1.5198 -0.3298
 9466SOL     OW40033   2.459   2.586   0.857 -0.0114 -0.6432  0.2671
 9466SOL    HW140034   2.458   2.649   0.785  1.0158 -0.1959  0.6332
 9466SOL    HW240035   2.496   2.509   0.814  0.1738 -0.1191 -0.4983
 9467SOL     OW40036   3.739   1.628   2.691 -0.0250  0.2445  0.0361
 9467SOL    HW140037   3.644   1.637   2.698 -0.0255 -0.2264  0.6734
 9467SOL    HW240038   3.753   1.605   2.783 -1.2049 -0.1578  0.1203
 9468SOL     OW40039   2.011   0.641   8.216 -0.5198 -0.3083  0.3410
 9468SOL    HW140040   1.997   0.702   8.143 -1.1031  1.9755  2.3437
 9468SOL    HW240041   1.936   0.662   8.270 -0.4768 -1.8816  1.0056
 9469SOL     OW40042   3.139   4.079   9.569  0.2277 -0.0200  0.1605
 9469SOL    HW140043   3.153   4.162   9.523 -0.6710  0.4010  0.6472
 9469SOL    HW240044   3.176   4.101   9.655 -3.7469  2.0075  1.3181
 9470SOL     OW40045   1.314   4.041   8.569 -0.4077  0.0278  0.3282
 9470SOL    HW140046   1.276   4.128   8.555 -0.8262 -0.4419 -1.4990
 9470SOL    HW240047   1.288   4.029   8.660 -0.4169  1.6912  0.5421
 9471SOL     OW40048   0.702   1.571   7.463  0.3371 -0.0699  0.2748
 9471SOL    HW140049   0.756   1.594   7.387 -1.2196  0.8938 -0.5452
 9471SOL    HW240050   0.739   1.483   7.475  0.3944 -0.1096 -0.1719
 9472SOL     OW40051   3.517   1.666   8.861  0.2333  0.1003  0.0722
 9472SOL    HW140052   3.584   1.636   8.800  2.9769  1.7587  2.3205
 9472SOL    HW240053   3.444   1.670   8.799 -0.2427 -1.5123  0.5150
 9473SOL     OW40054   1.979   3.824  17.605 -0.1303  0.3840 -0.4189
 9473SOL    HW140055   1.898   3.777  17.625  1.1076 -0.8637  1.6557
 9473SOL    HW240056   2.039   3.762  17.647 -0.0847 -0.5329 -1.8190
 9474SOL     OW40057   0.083   4.663  10.013  0.0496  0.2736 -0.2223
 9474SOL    HW140058   0.037   4.712  10.081  1.4277 -0.3717  1.1788
 9474SOL    HW240059   0.176   4.685  10.027  0.1383 -0.1158 -0.1990
 9475SOL     OW40060   0.815   1.004   3.861 -0.1543 -0.1122  0.3512
 9475SOL    HW140061   0.786   0.913   3.865 -1.5386  0.3290  0.5901
 9475SOL    HW240062   0.896   0.999   3.912  1.0904  1.1193 -1.5282
 9476SOL     OW40063   1.325   2.758  11.766 -0.0010 -0.0478 -0.0307
 9476SOL    HW140064   1.240   2.718  11.750 -1.0943  1.8881  0.9106
 9476SOL    HW240065   1.374   2.734  11.688 -0.1723  1.0454 -0.4712
 9477SOL     OW40066   3.231   4.496   7.281 -0.2906  0.0610  0.2601
 9477SOL    HW140067   3.165   4.469   7.344 -1.4385 -2.5997 -2.0710
 9477SOL    HW240068   3.284   4.555   7.336 -2.2134  0.8495  1.2621
 9478SOL     OW40069   4.063   4.161   0.114 -0.2519  0.5040  0.0176
 9478SOL    HW140070   4.151   4.178   0.149  0.7244 -2.0100 -1.2219
 9478SOL    HW240071   4.072   4.169   0.019  1.9352 -1.5883  0.0473
 9479SOL     OW40072   1.608   2.068   9.011 -0.5763  0.2264  0.3270
 9479SOL    HW140073   1.524   2.029   9.035  0.2140 -1.4284  0.3872
 9479SOL    HW240074   1.582   2.152   8.973  0.1976 -1.2660 -3.5025
 9480SOL     OW40075   2.007   2.474   7.124  0.3376  0.0452 -0.2952
 9480SOL    HW140076   2.093   2.488   7.084 -0.7475  1.6608 -2.1390
 9480SOL    HW240077   2.022   2.488   7.217  0.0182  2.0353 -0.5265
 9481SOL     OW40078   1.311   4.392  11.309 -0.4734  0.0224 -0.9839
 9481SOL    HW140079   1.300   4.453  11.236 -0.7695  1.4244  0.2376
 9481SOL    HW240080   1.244   4.327  11.291 -0.6417  0.0094 -0.2756
 9482SOL     OW40081   4.580   1.422   2.362  0.3491  0.2850 -0.5043
 9482SOL    HW140082   4.657   1.367   2.381 -2.0640 -2.0176  2.7270
 9482SOL    HW240083   4.513   1.364   2.399  0.5443 -0.0186 -0.6275
 9483SOL     OW40084   2.804   1.000   2.131 -0.0300  0.4080 -0.0743
 9483SOL    HW140085   2.776   1.027   2.044 -1.0704  0.9019  0.4095
 9483SOL    HW240086   2.829   0.912   2.103  1.3675  0.0318  2.3049
 9484SOL     OW40087   3.468   3.841   6.506 -0.6957  0.1187 -0.6913
 9484SOL    HW140088   3.415   3.800   6.437  0.4939  0.3597 -1.7528
 9484SOL    HW240089   3.409   3.910   6.537  0.3065  1.1008 -0.9242
 9485SOL     OW40090   4.170   3.106   6.152 -0.4056  0.3078  0.8927
 9485SOL    HW140091   4.096   3.108   6.092  2.1166  0.0178 -2.2475
 9485SOL    HW240092   4.183   3.200   6.162 -0.9402  0.2104  2.4956
 9486SOL     OW40093   1.775   0.524   8.972  0.3873 -0.5525  0.2418
 9486SOL    HW140094   1.760   0.437   8.936 -0.7887  0.0291 -0.6899
 9486SOL    HW240095   1.821   0.580   8.910  0.2243 -0.6201  0.0588
 9487SOL     OW40096   0.574   1.800   3.630 -0.3498 -0.1225 -0.6669
 9487SOL    HW140097   0.500   1.775   3.685  0.8381 -3.0927 -0.3915
 9487SOL    HW240098   0.564   1.732   3.564 -0.3208 -0.0333 -0.7622
 9488SOL     OW40099   3.508   0.210   4.324  0.2338 -0.0602  0.1427
 9488SOL    HW140100   3.509   0.174   4.413 -3.2363  0.4889  0.3952
 9488SOL    HW240101   3.594   0.245   4.300  1.0333 -0.5662  2.2561
 9489SOL     OW40102   2.596   3.500   4.965 -0.0669 -0.3661 -0.2460
 9489SOL    HW140103   2.660   3.483   5.034  1.3945 -0.7777 -1.6966
 9489SOL    HW240104   2.552   3.579   4.996  0.3252 -0.4970  0.6446
 9490SOL     OW40105   3.325   0.914   4.187  0.5376 -0.2166  0.6637
 9490SOL    HW140106   3.325   1.009   4.197 -2.2216 -0.0459 -1.0705
 9490SOL    HW240107   3.263   0.879   4.251  1.5022 -0.5369  1.4242
 9491SOL     OW40108   3.301   2.420   6.321  0.4319  0.1167  0.2235
 9491SOL    HW140109   3.386   2.408   6.278  1.3426  0.7686  1.8387
 9491SOL    HW240110   3.314   2.443   6.413  1.6606  1.9916 -0.4238
 9492SOL     OW40111   0.611   2.288   9.998  0.0828 -0.2999 -0.9095
 9492SOL    HW140112   0.579   2.209  10.041  1.3166 -0.4569 -0.2957
 9492SOL    HW240113   0.696   2.298  10.039 -1.6445  2.0577  2.1378
 9493SOL     OW40114   3.838   2.037   8.066  0.4364  0.0876 -0.2531
 9493SOL    HW140115   3.765   2.027   8.005  1.4814 -3.2640 -0.9342
 9493SOL    HW240116   3.910   2.075   8.016  1.7955  0.9715  2.3532
 9494SOL     OW40117   0.778   0.656   5.305 -0.1419  0.2347 -0.0499
 9494SOL    HW140118   0.693   0.642   5.263 -0.2894 -1.3672  0.7899
 9494SOL    HW240119   0.751   0.693   5.389  1.5770  1.8979 -0.2243
 9495SOL     OW40120   0.734   1.925   7.409 -0.3949  0.2305 -0.2955
 9495SOL    HW140121   0.772   2.013   7.406  0.4711 -0.2055 -2.0445
 9495SOL    HW240122   0.756   1.889   7.495  1.8883  0.0241 -0.9777
 9496SOL     OW40123   0.229   4.184   3.946 -0.0587 -0.2816  0.2362
 9496SOL    HW140124   0.289   4.242   3.899 -1.4173  0.0755 -1.0559
 9496SOL    HW240125   0.191   4.247   4.007  1.3102 -0.2541  1.0652
 9497SOL     OW40126   0.454   1.292   9.660 -0.2011 -0.5691 -0.0729
 9497SOL    HW140127   0.367   1.260   9.638  0.6776 -3.3877  0.4787
 9497SOL    HW240128   0.441   1.327   9.748  0.8720  1.1379 -0.5925
 9498SOL     OW40129   2.076   4.067  12.592  0.1493 -0.0491  0.3611
 9498SOL    HW140130   2.106   4.112  12.670 -2.9218  1.4471  0.6783
 9498SOL    HW240131   2.161   4.052  12.550 -0.8680  2.0463 -2.4907
 9499SOL     OW40132   0.298   2.348   9.566  0.8377 -0.2189 -0.1239
 9499SOL    HW140133   0.267   2.337   9.656 -1.1679 -0.9744 -0.9306
 9499SOL    HW240134   0.285   2.260   9.531 -0.8068 -0.4411  1.0135
 9500SOL     OW40135   3.661   2.854  12.362  0.6605  0.5376  0.2009
 9500SOL    HW140136   3.732   2.817  12.416  1.8561 -1.5502 -2.7611
 9500SOL    HW240137   3.707   2.933  12.335 -1.8856  2.7263  2.3474
 9501SOL     OW40138   2.538   4.655   3.452 -0.3595 -0.8039 -0.6014
 9501SOL    HW140139   2.546   4.664   3.357  2.1049  1.3770 -0.1873
 9501SOL    HW240140   2.481   4.579   3.444  0.9166 -1.7254 -1.0494
 9502SOL     OW40141   2.543   2.406   4.729  0.2211  0.1123 -0.0103
 9502SOL    HW140142   2.613   2.406   4.794  1.3453  3.2779 -1.2047
 9502SOL    HW240143   2.584   2.429   4.645  1.3709  0.3908  0.6330
 9503SOL     OW40144   0.099   2.031  10.431  0.0263  0.5003 -0.1306
 9503SOL    HW140145   0.024   2.048  10.373  0.0383  3.1127  0.6523
 9503SOL    HW240146   0.149   1.969  10.378 -1.7183 -2.1811  1.3208
 9504SOL     OW40147   0.521   1.859   0.227  0.1890  0.4418  0.5111
 9504SOL    HW140148   0.429   1.881   0.216  0.8000  2.6549 -0.0809
 9504SOL    HW240149   0.533   1.767   0.252 -0.0784  0.2884  0.0613
 9505SOL     OW40150   4.241   2.970   7.962  0.0350 -0.3636 -0.2383
 9505SOL    HW140151   4.184   3.031   7.915  1.3636  0.4125 -0.8562
 9505SOL    HW240152   4.282   3.027   8.028 -1.8322  0.0984  0.5283
 9506SOL     OW40153   2.058   0.156   4.695  0.9149 -0.6484  0.1609
 9506SOL    HW140154   2.015   0.241   4.681 -0.1871 -1.1992  0.2080
 9506SOL    HW240155   2.127   0.185   4.755 -1.2853 -3.5135  4.0776
 9507SOL     OW40156   1.225   0.422  17.129 -0.3157  0.0410 -0.0822
 9507SOL    HW140157   1.205   0.343  17.179  3.4350 -1.0355 -0.3092
 9507SOL    HW240158   1.196   0.380  17.049  1.2993  1.1045 -1.2266
 9508SOL     OW40159   3.232   1.651  10.720 -0.3298 -0.1238 -0.2572
 9508SOL    HW140160   3.231   1.743  10.692 -2.6043 -0.8001 -2.3786
 9508SOL    HW240161   3.305   1.657  10.783  1.4104  0.4414 -2.3341
 9509SOL     OW40162   0.809   1.078  17.556  0.3611  0.3555  0.2834
 9509SOL    HW140163   0.896   1.041  17.545 -0.7556 -1.5354 -2.2259
 9509SOL    HW240164   0.812   1.164  17.513 -0.0103  0.8327  1.2125
 9510SOL     OW40165   0.369   0.860   1.275  0.3137 -0.3810 -0.6381
 9510SOL    HW140166   0.409   0.932   1.226  2.3774 -1.0304  0.0955
 9510SOL    HW240167   0.295   0.835   1.220  0.7020 -1.6759 -0.5630
 9511SOL     OW40168   2.110   1.612   4.991  0.2602  0.7947  0.0682
 9511SOL    HW140169   2.128   1.519   5.006  0.2443  0.7409 -0.2625
 9511SOL    HW240170   2.022   1.613   4.952 -0.0775  0.5841  0.8056
 9512SOL     OW40171   3.885   4.637   5.659 -0.0004  0.1594 -0.5217
 9512SOL    HW140172   3.862   4.547   5.680 -0.9021  0.7316  0.9771
 9512SOL    HW240173   3.852   4.676   5.740  0.7273  0.2187 -0.2466
 9513SOL     OW40174   2.877   0.458   7.244  0.9037 -0.0794 -0.0906
 9513SOL    HW140175   2.833   0.435   7.325  0.6030 -0.6062 -0.4018
 9513SOL    HW240176   2.834   0.403   7.178  3.3550 -2.4348  0.2678
 9514SOL     OW40177   4.354   0.449   2.889 -0.1327 -0.0218 -0.0483
 9514SOL    HW140178   4.361   0.424   2.797 -0.2195 -0.5671  0.0909
 9514SOL    HW240179   4.291   0.386   2.923  1.1091 -0.6657  1.0579
 9515SOL     OW40180   1.636   1.506   9.048  0.2428  0.2452 -0.1874
 9515SOL    HW140181   1.595   1.589   9.026 -1.2396 -0.3141  0.3994
 9515SOL    HW240182   1.617   1.503   9.142 -0.4808 -2.0334 -0.4100
 9516SOL     OW40183   3.808   2.551   4.579 -0.2671  0.1619  0.3606
 9516SOL    HW140184   3.807   2.485   4.511  2.3882  0.7764 -0.2658
 9516SOL    HW240185   3.718   2.552   4.613 -0.2203 -0.6703  0.4959
 9517SOL     OW40186   1.333   4.397   7.304 -0.0071 -0.0748  0.0749
 9517SOL    HW140187   1.408   4.338   7.295 -0.2188 -0.6232  1.7237
 9517SOL    HW240188   1.261   4.337   7.322 -1.2587  0.8740 -1.7732
 9518SOL     OW40189   4.265   2.908   6.441 -0.3707  0.1557  0.4301
 9518SOL    HW140190   4.315   2.913   6.359 -1.1100 -3.0201 -0.1885
 9518SOL    HW240191   4.312   2.974   6.492  0.7714 -0.3111 -0.0272
 9519SOL     OW40192   0.758   3.804  13.245  0.1316 -0.0538 -0.4371
 9519SOL    HW140193   0.752   3.886  13.295 -1.9212  0.3856 -1.4034
 9519SOL    HW240194   0.667   3.777  13.257  0.1108 -0.9284 -2.5215
 9520SOL     OW40195   2.712   1.624   3.463  0.2165 -0.2143 -0.1830
 9520SOL    HW140196   2.696   1.587   3.549  0.3796 -0.6242 -0.3264
 9520SOL    HW240197   2.807   1.615   3.459  0.4353  1.5879  0.9661
 9521SOL     OW40198   3.878   1.114   1.486  0.1693  0.3241  0.3278
 9521SOL    HW140199   3.950   1.071   1.532 -0.7495 -0.2951  1.1780
 9521SOL    HW240200   3.857   1.192   1.538 -1.1131  1.1203 -1.4030
 9522SOL     OW40201   1.161   4.223   7.409  0.6524  0.9337 -0.2358
 9522SOL    HW140202   1.140   4.152   7.349  0.7580  0.5250  0.2089
 9522SOL    HW240203   1.128   4.188   7.492 -0.4729  1.4332 -0.4672
 9523SOL     OW40204   0.040   3.574  11.093  0.2808 -0.4608 -0.2060
 9523SOL    HW140205   0.106   3.624  11.141 -1.5859  2.2162 -0.4742
 9523SOL    HW240206   0.060   3.577  11.000 -0.4930  0.9363 -0.3138
 9524SOL     OW40207   1.994   2.346   1.432 -0.4664 -0.2350 -0.4415
 9524SOL    HW140208   1.973   2.291   1.508  0.1391 -1.4012 -1.1202
 9524SOL    HW240209   2.051   2.408   1.477 -0.3973  0.4533 -1.4706
 9525SOL     OW40210   1.698   0.211   2.500  0.2428 -0.4670 -0.3416
 9525SOL    HW140211   1.763   0.275   2.471 -1.6946  1.4178 -0.5626
 9525SOL    HW240212   1.697   0.166   2.416  0.4377 -1.7331  0.3319
 9526SOL     OW40213   4.613   2.617  13.729  0.0069  0.6166 -0.3336
 9526SOL    HW140214   4.705   2.643  13.721 -0.0358  1.5429  2.0976
 9526SOL    HW240215   4.580   2.685  13.787 -0.4072  1.6205 -1.7523
 9527SOL     OW40216   2.940   2.146   2.381  0.1645  0.1029  0.5564
 9527SOL    HW140217   2.990   2.228   2.379 -2.0603  1.4302 -0.0521
 9527SOL    HW240218   2.850   2.177   2.381 -0.2925 -1.1922  0.3006
 9528SOL     OW40219   1.977   0.490   2.574 -0.4469  0.0545  0.1878
 9528SOL    HW140220   2.049   0.523   2.521 -0.2679 -2.5038 -1.1442
 9528SOL    HW240221   1.937   0.432   2.509  0.1681 -1.1183  0.8608
 9529SOL     OW40222   3.966   0.570   2.200  0.1340  0.1132  0.8080
 9529SOL    HW140223   3.980   0.501   2.266  0.7141  0.0152  0.5862
 9529SOL    HW240224   3.931   0.520   2.127 -1.5987  0.7916  1.1711
 9530SOL     OW40225   1.092   4.548  12.228 -0.0933 -0.1404  0.3094
 9530SOL    HW140226   1.130   4.485  12.166 -0.1243 -1.0626  1.2108
 9530SOL    HW240227   1.175   4.573  12.270  0.0670 -1.1593  0.6164
 9531SOL     OW40228   4.600   4.174   7.437 -0.0968  0.8895 -0.2077
 9531SOL    HW140229   4.593   4.153   7.343 -0.1990 -1.2062  0.2629
 9531SOL    HW240230   4.519   4.225   7.436 -1.8750 -1.9880 -2.8212
 9532SOL     OW40231   4.068   3.933  10.312 -0.0267  1.0174 -0.5592
 9532SOL    HW140232   4.127   3.971  10.377 -2.8811  1.4344  1.8064
 9532SOL    HW240233   4.114   3.851  10.293 -0.3108  0.8149 -0.3683
 9533SOL     OW40234   0.553   2.786   0.559  0.4907 -0.3809  0.6684
 9533SOL    HW140235   0.502   2.746   0.489  0.2462  1.5124 -0.2314
 9533SOL    HW240236   0.605   2.855   0.519 -1.2188  0.3909 -0.2184
 9534SOL     OW40237   0.214   2.307   4.552  0.4323 -0.1962  0.1443
 9534SOL    HW140238   0.278   2.308   4.623 -0.4390 -1.0838  0.9479
 9534SOL    HW240239   0.271   2.292   4.476 -0.8975  2.3862 -1.3574
 9535SOL     OW40240   3.195   4.035   2.826 -0.1699  0.0133  0.2611
 9535SOL    HW140241   3.242   4.065   2.748 -0.6284 -0.3562 -0.1568
 9535SOL    HW240242   3.245   4.075   2.896 -0.1105 -1.3656  0.9870
 9536SOL     OW40243   2.505   1.102   7.390  0.1141 -0.3878 -0.3933
 9536SOL    HW140244   2.584   1.129   7.342  1.5258 -0.5486  1.8314
 9536SOL    HW240245   2.491   1.034   7.324  2.5356 -2.7712  1.5321
 9537SOL     OW40246   2.395   2.753   5.225  0.0607  0.0830 -0.4332
 9537SOL    HW140247   2.470   2.714   5.270  0.5972  1.3342 -0.2587
 9537SOL    HW240248   2.415   2.732   5.134  0.1089  0.7636 -0.5764
 9538SOL     OW40249   4.188   0.993   4.417  0.0257  0.5933 -0.2752
 9538SOL    HW140250   4.113   1.014   4.362  1.4844  0.7238 -2.2121
 9538SOL    HW240251   4.148   0.985   4.503  2.5666  0.3793  0.8920
 9539SOL     OW40252   3.713   3.867  10.317  0.6984 -0.0781 -0.4262
 9539SOL    HW140253   3.666   3.930  10.372 -1.3117  0.4723 -2.7454
 9539SOL    HW240254   3.674   3.786  10.348  1.2386 -0.9356 -1.9739
 9540SOL     OW40255   3.911   3.088  10.868 -0.2387  0.1998 -0.2634
 9540SOL    HW140256   3.824   3.090  10.828 -0.5009 -0.9971  0.2338
 9540SOL    HW240257   3.938   3.179  10.879 -1.2471  0.6864 -1.7764
 9541SOL     OW40258   0.486   4.541  14.556  0.2465 -0.8165  0.0559
 9541SOL    HW140259   0.542   4.554  14.480  1.6722  0.9040  1.4124
 9541SOL    HW240260   0.494   4.625  14.601  1.6496 -1.2468  0.5945
 9542SOL     OW40261   2.713   2.986   6.741  0.0451 -0.4943 -0.2431
 9542SOL    HW140262   2.688   2.910   6.793  0.2908 -1.6614 -1.8500
 9542SOL    HW240263   2.681   2.960   6.655 -0.3942  0.8784 -0.4984
 9543SOL     OW40264   3.522   0.565   6.521 -0.2529  0.9824 -0.3363
 9543SOL    HW140265   3.575   0.501   6.474  0.2821  1.0643  0.1572
 9543SOL    HW240266   3.471   0.514   6.584  1.1645 -0.4563 -0.3614
 9544SOL     OW40267   1.932   2.804   2.212  0.3751 -0.4667 -0.5975
 9544SOL    HW140268   1.972   2.742   2.273 -0.6527  0.2799  0.8303
 9544SOL    HW240269   1.984   2.775   2.137 -0.1623 -0.7354 -0.8648
 9545SOL     OW40270   1.641   3.696   6.615 -0.1790 -0.1207  0.1154
 9545SOL    HW140271   1.565   3.687   6.557  0.4531 -4.1058 -0.0791
 9545SOL    HW240272   1.626   3.771   6.673 -1.4203 -0.8336  0.7233
 9546SOL     OW40273   2.418   1.356   4.319  0.4323  0.9407  0.1072
 9546SOL    HW140274   2.367   1.306   4.255 -0.3566  0.4225  1.1506
 9546SOL    HW240275   2.477   1.292   4.359 -0.2999 -0.5526 -1.1833
 9547SOL     OW40276   2.837   2.989  10.905 -0.1231  0.1425 -0.5344
 9547SOL    HW140277   2.908   2.949  10.854  1.1254  0.2352  1.1308
 9547SOL    HW240278   2.826   2.913  10.962 -1.5430  0.5100 -0.3332
 9548SOL     OW40279   1.026   1.026  10.999  0.0859  0.4560 -0.1686
 9548SOL    HW140280   1.016   0.948  11.053 -1.1967 -0.2103 -1.3575
 9548SOL    HW240281   1.038   0.991  10.910 -2.4031 -0.2880 -0.2166
 9549SOL     OW40282   2.217   1.115  16.955  0.6418 -0.9196  0.4559
 9549SOL    HW140283   2.127   1.150  16.958  0.6569 -0.7678 -0.6519
 9549SOL    HW240284   2.252   1.178  16.891 -2.3049  0.1985 -0.1033
 9550SOL     OW40285   1.311   2.340   9.207 -0.1994  0.2894 -0.3844
 9550SOL    HW140286   1.391   2.379   9.241 -1.1340 -0.7024  2.9726
 9550SOL    HW240287   1.277   2.317   9.294 -2.5420 -1.1209 -1.6794
 9551SOL     OW40288   4.194   1.909   5.066 -0.4946  0.7374  0.8686
 9551SOL    HW140289   4.112   1.896   5.020 -0.5023 -0.4953  1.2143
 9551SOL    HW240290   4.230   1.983   5.017  0.3668 -0.4238 -0.2568
 9552SOL     OW40291   0.828   0.582   9.946  0.7306 -0.0259 -0.8903
 9552SOL    HW140292   0.887   0.555  10.016  1.9306 -0.7845 -2.1806
 9552SOL    HW240293   0.831   0.519   9.873 -1.3452 -0.1899 -0.8378
 9553SOL     OW40294   4.159   2.544   4.962 -0.5996  0.0397 -0.1419
 9553SOL    HW140295   4.240   2.578   4.924 -0.9831  2.1119  0.8924
 9553SOL    HW240296   4.123   2.499   4.885  0.9190  1.3731 -1.6449
 9554SOL     OW40297   2.226   4.585  16.401  0.0874  0.3065 -0.5189
 9554SOL    HW140298   2.170   4.647  16.448 -1.0344 -1.4373  0.4568
 9554SOL    HW240299   2.309   4.575  16.448 -0.5399 -1.0627  0.3158
 9555SOL     OW40300   4.488   1.478  14.920 -0.3862 -0.1716 -0.1403
 9555SOL    HW140301   4.540   1.423  14.860 -2.5220  1.3571 -3.4065
 9555SOL    HW240302   4.563   1.515  14.966 -0.4105 -0.3210  0.0205
 9556SOL     OW40303   3.869   4.392   7.089 -0.0820  0.4689 -0.4384
 9556SOL    HW140304   3.783   4.429   7.069 -0.1027  1.0187  0.7333
 9556SOL    HW240305   3.904   4.449   7.157  1.2673 -0.0420 -0.7071
 9557SOL     OW40306   3.379   0.029   9.882 -0.2462  0.1892  0.6288
 9557SOL    HW140307   3.379   4.672   9.902 -1.2259  0.0371 -0.0866
 9557SOL    HW240308   3.430   0.075   9.949 -0.2658 -0.1577  0.8814
 9558SOL     OW40309   2.849   0.916   7.612  0.1371  0.2887 -0.5121
 9558SOL    HW140310   2.791   0.859   7.562  2.9229 -3.7525  0.7857
 9558SOL    HW240311   2.912   0.846   7.632  1.0726  1.5808  1.0664
 9559SOL     OW40312   0.509   3.386   8.904  0.5120  0.0553  0.2246
 9559SOL    HW140313   0.517   3.303   8.857 -1.1107  0.6171 -1.0450
 9559SOL    HW240314   0.591   3.433   8.894  0.3504  0.5693  1.2631
 9560SOL     OW40315   0.084   4.197   7.634 -0.2556  0.6076 -0.1011
 9560SOL    HW140316   0.166   4.159   7.602  0.2360  1.3284  0.3134
 9560SOL    HW240317   0.022   4.166   7.569  0.1997  1.3464 -0.8814
 9561SOL     OW40318   2.298   1.740   3.313  0.1053  0.3459 -0.0880
 9561SOL    HW140319   2.239   1.669   3.287 -0.8447  0.4642  1.7616
 9561SOL    HW240320   2.288   1.811   3.249 -0.1368 -1.8385 -2.4743
 9562SOL     OW40321   4.101   4.420   7.407  0.4707 -0.4364 -0.2679
 9562SOL    HW140322   4.028   4.360   7.391  1.3872 -1.6582  0.0710
 9562SOL    HW240323   4.056   4.464   7.478  0.2900 -2.3665  0.8228
 9563SOL     OW40324   1.733   2.391   9.090 -0.1886 -0.0036 -0.4319
 9563SOL    HW140325   1.765   2.365   9.004  2.0834 -1.4572  0.8781
 9563SOL    HW240326   1.806   2.449   9.111 -0.2512 -0.0420 -0.0991
 9564SOL     OW40327   4.281   0.810  15.609 -0.1701  0.2294  0.8761
 9564SOL    HW140328   4.245   0.738  15.558 -2.0373  0.0373  2.4575
 9564SOL    HW240329   4.373   0.783  15.620  0.3898  1.7274 -0.1676
 9565SOL     OW40330   1.655   3.445   9.023 -0.0248 -0.3888  0.4672
 9565SOL    HW140331   1.748   3.456   9.005 -0.6599  1.8541 -1.4059
 9565SOL    HW240332   1.628   3.378   8.961  0.3990 -0.7266  0.6540
 9566SOL     OW40333   2.816   3.085   8.482  0.1379  0.2140 -0.5683
 9566SOL    HW140334   2.854   3.098   8.395 -1.4002  0.6006 -1.1786
 9566SOL    HW240335   2.750   3.154   8.488 -0.1844  0.0841 -2.5206
 9567SOL     OW40336   1.830   1.366   1.562 -0.1477  0.1432  0.1946
 9567SOL    HW140337   1.791   1.427   1.624 -0.3305  1.6186 -1.3850
 9567SOL    HW240338   1.904   1.419   1.533  0.3517 -0.2897  0.6806
 9568SOL     OW40339   3.581   3.574   3.657  0.2426 -0.1229  0.1828
 9568SOL    HW140340   3.551   3.662   3.633  0.7489 -1.1959 -4.4023
 9568SOL    HW240341   3.517   3.552   3.724 -1.3044  0.9681 -0.9140
 9569SOL     OW40342   4.284   3.614   8.923 -0.8879 -0.2350  0.9143
 9569SOL    HW140343   4.261   3.601   8.831  0.2196  2.3482  0.2600
 9569SOL    HW240344   4.332   3.695   8.906  0.6950 -1.3841 -0.0559
   4.73634   4.73634  17.74387
