Membrane in water
40344
    1TMC1    C1    1   3.210   2.509  11.051  0.3908  0.0584 -0.0877
    1TMC1    C2    2   3.194   2.611  11.140 -0.1670 -0.2702  0.6989
    1TMC1    C3    3   3.263   2.720  11.111 -0.1356  0.1972 -0.7861
    1TMC1    C4    4   3.270   2.519  10.927 -0.0114 -0.2432  0.6833
    1TMC1    C5    5   3.315   2.640  10.900  0.5123 -0.2870 -0.4938
    1TMC1    C6    6   3.324   2.744  10.988 -0.9526  0.7247  0.0493
    1TMC1     C    7   3.141   2.379  11.083 -0.1462 -0.3124 -0.0330
    1TMC1     O    8   3.041   2.377  11.150 -0.2508 -0.2846 -0.1660
    1TMC1     H    9   3.151   2.600  11.239  1.1110 -0.5092  1.2255
    1TMC1    H1   10   3.271   2.442  10.851 -1.8507  0.5135 -0.0996
    1TMC1    H2   11   3.359   2.842  10.960  1.8282 -0.2116  0.3054
    1TMC1    C7   12   3.365   2.676  10.773  0.2944  0.1101 -0.1667
    1TMC1    C8   13   3.236   2.834  11.192 -0.7534  0.1730  0.3747
    1TMC1    O1   14   3.476   2.641  10.735 -0.2628 -0.5479 -0.3807
    1TMC1    O2   15   3.135   2.852  11.256  0.6562  0.1784  0.0343
    1TMC1    O3   16   3.309   2.792  10.748  0.6361  0.6202 -0.4638
    1TMC1    H3   17   3.215   2.800  10.774  0.8698 -1.0104  0.8669
    1TMC1    O5   18   3.358   2.903  11.205 -0.2019  0.1689 -0.1153
    1TMC1    H5   19   3.427   2.851  11.159  0.0926 -2.7646  3.6303
    2MPD2     C   20   3.131   1.850  11.091  0.5813 -0.0091  0.5072
    2MPD2    C1   21   3.058   1.941  11.162  0.6279 -0.0187  0.1418
    2MPD2    C2   22   3.081   2.074  11.145  0.7927  0.2776  0.4232
    2MPD2    C3   23   3.182   2.128  11.062  0.3751 -0.2882  0.3768
    2MPD2    C4   24   3.254   2.036  11.003 -0.0908  0.1150 -0.2467
    2MPD2    C5   25   3.232   1.900  11.013  0.4123 -0.2871 -0.2589
    2MPD2     H   26   3.026   2.145  11.206 -3.1061 -1.3267 -1.2505
    2MPD2    H1   27   3.333   2.062  10.932  1.0396  1.7224  1.5831
    2MPD2    H2   28   3.124   1.743  11.109 -1.0290  0.4068  2.4572
    2MPD2    H3   29   3.310   1.841  10.966  2.3172 -1.3765  4.3512
    2MPD2     N   30   3.215   2.266  11.039 -0.2351  0.1333  0.0151
    2MPD2    H5   31   3.301   2.286  10.988  0.1703 -1.5292  0.0429
    2MPD2    N1   32   2.970   1.896  11.260  0.2149 -0.7895 -0.8845
    2MPD2    H7   33   2.925   1.972  11.311 -1.8945 -0.5401 -3.1343
    3TMC1    C1   34   1.761   2.512  10.697  1.0233  0.2325 -0.0248
    3TMC1    C2   35   1.760   2.390  10.632 -0.3890  0.1111  0.5946
    3TMC1    C3   36   1.855   2.362  10.537  0.3205  0.6060 -0.1006
    3TMC1    C4   37   1.844   2.612  10.648  0.1008 -0.5468 -0.4191
    3TMC1    C5   38   1.932   2.586  10.550 -0.2722 -0.7082  0.0221
    3TMC1    C6   39   1.944   2.460  10.492  0.3939 -0.3112 -0.2550
    3TMC1     C   40   1.649   2.534  10.790  0.0075  0.0468  0.1604
    3TMC1     O   41   1.568   2.442  10.805  0.5104  0.2385 -0.7785
    3TMC1     H   42   1.699   2.311  10.673 -0.1002 -0.3268  0.1902
    3TMC1    H1   43   1.834   2.715  10.680  2.8686 -0.3284 -0.2086
    3TMC1    H2   44   2.027   2.435  10.427 -0.4766 -1.8036 -0.7845
    3TMC1    C7   45   1.962   2.702  10.459 -0.1972  0.1920 -0.2292
    3TMC1    C8   46   1.848   2.233  10.471  0.3571  0.5040 -0.3126
    3TMC1    O1   47   1.912   2.813  10.467 -0.2831  0.3965 -0.3721
    3TMC1    O2   48   1.776   2.139  10.502 -0.2554  0.1896  0.1151
    3TMC1    O3   49   2.087   2.692  10.412 -0.1949  0.7953 -0.9017
    3TMC1    H3   50   2.130   2.607  10.437  0.6050  1.2269 -0.8090
    3TMC1    O5   51   1.912   2.242  10.349 -0.4768  0.6590  0.1928
    3TMC1    H5   52   1.932   2.335  10.327  2.4447  0.1822  0.9454
    4MPD2     C   53   1.313   2.804  11.040  0.6408 -0.6195 -0.3482
    4MPD2    C1   54   1.407   2.892  10.984 -0.4826  0.3599  0.1684
    4MPD2    C2   55   1.525   2.842  10.938  0.5451 -0.2509 -0.3006
    4MPD2    C3   56   1.538   2.705  10.928 -0.4637 -0.1998 -0.3274
    4MPD2    C4   57   1.448   2.615  10.984  0.1800  0.6869  0.3186
    4MPD2    C5   58   1.336   2.668  11.035  0.1232 -0.9691  0.4443
    4MPD2     H   59   1.588   2.908  10.880  0.1850  3.8742  4.0107
    4MPD2    H1   60   1.469   2.509  10.987  2.1794  1.1203  2.0833
    4MPD2    H2   61   1.222   2.838  11.087  0.6768 -0.8522 -0.1118
    4MPD2    H3   62   1.263   2.596  11.069 -0.6631  0.0454  0.9211
    4MPD2     N   63   1.645   2.658  10.847 -0.4410  0.6051 -0.3511
    4MPD2    H5   64   1.704   2.736  10.819 -1.9407  1.8186 -0.1255
    4MPD2    N1   65   1.385   3.030  10.982  0.0025 -0.3634 -0.1278
    4MPD2    H7   66   1.454   3.083  10.929  1.1452 -0.9398  0.7867
    5TCq1    O1   67   2.839   4.190  11.331  0.3258  0.1832  0.1316
    5TCq1    C1   68   2.756   4.208  11.437  0.5892  0.6207  0.3966
    5TCq1    O2   69   2.771   4.159  11.549  0.0166 -0.2301  0.1551
    5TCq1    C2   70   2.626   4.252  11.377 -0.8775  0.8464 -0.2267
    5TCq1    C3   71   2.549   4.331  11.461 -0.8902  0.8318  0.0446
    5TCq1    C4   72   2.443   4.397  11.409  0.4850  0.3109  0.2365
    5TCq1    C5   73   2.413   4.385  11.278  0.0293 -0.6278 -0.0979
    5TCq1    C6   74   2.483   4.306  11.201 -0.7379  0.2834 -0.4394
    5TCq1    C7   75   2.598   4.246  11.242 -0.5312  0.0546 -0.2996
    5TCq1    C8   76   2.461   4.320  11.057  0.3021  0.4767  0.1871
    5TCq1    O4   77   2.504   4.230  10.989  0.1210 -0.4990  0.3453
    5TCq1    C9   78   2.373   4.481  11.495 -0.4632 -0.2875  0.1293
    5TCq1    O5   79   2.402   4.483  11.623  0.6329 -0.0825 -0.0310
    5TCq1    O6   80   2.280   4.547  11.438 -0.1809  0.0199  0.1374
    5TCq1    H1   81   2.807   4.242  11.254 -1.3149 -2.3311 -0.8949
    5TCq1    H2   82   2.569   4.332  11.568  0.6286  0.7685 -0.2383
    5TCq1    H3   83   2.324   4.433  11.240 -0.9729 -0.0032  3.0445
    5TCq1    H4   84   2.658   4.197  11.166  1.2430 -0.8570  1.6856
    6MPD2     C   85   2.318   4.605  10.883  0.1853  0.2409 -0.1577
    6MPD2    C1   86   2.388   4.489  10.887 -0.3609 -1.0388  0.2786
    6MPD2    C2   87   2.430   4.424  10.767 -1.1297  0.0211  0.7118
    6MPD2    C3   88   2.397   4.489  10.645  0.5843  0.9088 -0.1856
    6MPD2    C4   89   2.335   4.614  10.646 -0.3629 -0.3744  0.6790
    6MPD2    C5   90   2.301   4.672  10.765 -0.4299  0.2881  0.9265
    6MPD2     H   91   2.491   4.335  10.767  0.7698  1.3015 -1.8570
    6MPD2    H1   92   2.324   4.668  10.553  2.1168 -0.6948  0.2049
    6MPD2    H2   93   2.279   4.650  10.974 -1.4886 -1.7894  0.1164
    6MPD2    H3   94   2.260   0.038  10.773  1.6329  1.1867  0.3179
    6MPD2     N   95   2.432   4.422  10.532 -0.4461 -0.1605  0.0604
    6MPD2    H5   96   2.473   4.330  10.543 -1.7263 -0.7766 -0.3552
    6MPD2    N1   97   2.412   4.438  11.015 -0.2509  0.3639  0.3844
    6MPD2    H7   98   2.388   4.503  11.089  0.0097  0.3724  0.4578
    7TCq1    O1   99   0.001   4.461  13.748  0.1341  0.0548 -0.5999
    7TCq1    C1  100   0.026   4.335  13.712  0.0881  0.1615 -0.3146
    7TCq1    O2  101   4.712   4.238  13.762  0.8762 -0.1529  0.1117
    7TCq1    C2  102   0.130   4.328  13.608  0.6561 -0.0528 -0.4579
    7TCq1    C3  103   0.221   4.429  13.594 -0.0817  0.1708 -0.2543
    7TCq1    C4  104   0.332   4.392  13.526  0.1009 -0.3487 -0.3906
    7TCq1    C5  105   0.350   4.262  13.476 -0.5424 -0.0504 -0.3091
    7TCq1    C6  106   0.244   4.178  13.482 -0.2730 -0.7977  0.6239
    7TCq1    C7  107   0.131   4.205  13.548 -0.2714  0.3098 -0.8245
    7TCq1    C8  108   0.234   4.066  13.396  0.7306 -0.4219 -0.5618
    7TCq1    O4  109   0.163   3.974  13.432 -0.2492 -0.7035 -0.0238
    7TCq1    C9  110   0.441   4.481  13.506  0.1023 -0.4888 -0.3325
    7TCq1    O5  111   0.437   4.589  13.569 -0.4328  0.2604 -0.0535
    7TCq1    O6  112   0.512   4.455  13.402 -0.3264  0.0214 -0.3658
    7TCq1    H1  113   0.004   4.523  13.673  0.7833  0.1281 -0.5053
    7TCq1    H2  114   0.219   4.526  13.643 -3.2300 -0.7264  1.3943
    7TCq1    H3  115   0.442   4.226  13.430 -0.3021  0.2295 -0.0485
    7TCq1    H4  116   0.049   4.136  13.564 -0.6758  1.0533  0.2741
    8MPD2     C  117   0.249   3.834  12.945  0.8488  0.0519 -0.0770
    8MPD2    C1  118   0.206   3.795  13.062  0.0282 -0.1296  0.2058
    8MPD2    C2  119   0.224   3.872  13.174 -0.6860 -0.3197 -0.1963
    8MPD2    C3  120   0.280   3.999  13.166 -0.1817  0.3478  0.3310
    8MPD2    C4  121   0.333   4.037  13.047 -0.1688  0.0159  0.0639
    8MPD2    C5  122   0.305   3.958  12.933 -0.1228 -0.6240 -0.0335
    8MPD2     H  123   0.175   3.839  13.265  0.5221 -3.4759 -0.6884
    8MPD2    H1  124   0.370   4.137  13.031  1.2799 -0.9012 -2.5153
    8MPD2    H2  125   0.242   3.777  12.853  2.2794 -0.8332  0.3519
    8MPD2    H3  126   0.341   3.987  12.835  0.7265 -1.5783 -0.0047
    8MPD2     N  127   0.296   4.085  13.274 -0.0433 -0.4697  0.8539
    8MPD2    H5  128   0.356   4.164  13.255 -0.6727 -1.0217 -3.3706
    8MPD2    N1  129   0.141   3.675  13.066 -0.2080  0.3472 -0.1125
    8MPD2    H7  130   0.121   3.639  13.159 -0.4942 -0.3077 -0.4273
    9TMC1    C1  131   2.576   2.818  10.726  0.0854  0.2507 -0.2577
    9TMC1    C2  132   2.454   2.757  10.730 -0.3927 -0.0961 -0.5005
    9TMC1    C3  133   2.439   2.652  10.643 -0.0007 -0.2689  0.6122
    9TMC1    C4  134   2.684   2.765  10.667 -0.7760 -0.0875 -0.6564
    9TMC1    C5  135   2.666   2.659  10.584 -0.7057 -0.3760  0.4368
    9TMC1    C6  136   2.541   2.599  10.567  0.3338 -0.4721 -0.3747
    9TMC1     C  137   2.603   2.925  10.822 -0.1030 -0.7063 -0.2251
    9TMC1     O  138   2.657   3.021  10.782 -0.3050  0.0086 -0.0015
    9TMC1     H  139   2.367   2.813  10.765  0.6725  1.1096  0.2423
    9TMC1    H1  140   2.780   2.817  10.665 -1.0117  0.3783  0.1304
    9TMC1    H2  141   2.519   2.527  10.488  2.6931 -2.8901  1.1679
    9TMC1    C7  142   2.775   2.625  10.488  0.5923 -0.0300  0.3161
    9TMC1    C8  143   2.310   2.581  10.631  0.9078 -0.0918  0.2110
    9TMC1    O1  144   2.756   2.574  10.380 -0.2084 -0.1314  0.0462
    9TMC1    O2  145   2.277   2.521  10.530 -0.0615  0.1663  0.5582
    9TMC1    O3  146   2.894   2.656  10.539 -0.5280  0.0996 -0.1603
    9TMC1    H3  147   2.895   2.638  10.636  0.1638 -1.3877 -0.4441
    9TMC1    O5  148   2.232   2.607  10.736  0.6416 -0.4982 -0.1365
    9TMC1    H5  149   2.276   2.667  10.800  0.9744  0.1430 -0.9625
   10MPD2     C  150   2.595   3.117  11.039  0.7839 -0.1736  0.0439
   10MPD2    C1  151   2.539   2.994  11.048  0.4126  0.0681 -0.2705
   10MPD2    C2  152   2.499   2.945  11.171 -0.2768  0.8507 -0.2975
   10MPD2    C3  153   2.507   3.023  11.288  0.4251  0.5746 -0.1066
   10MPD2    C4  154   2.561   3.144  11.272  0.0392 -0.6332 -0.2624
   10MPD2    C5  155   2.608   3.193  11.150 -0.5144 -0.1463  0.1107
   10MPD2     H  156   2.471   2.841  11.184 -0.8891  0.3497 -5.5123
   10MPD2    H1  157   2.560   3.219  11.350  0.4651 -1.3476  0.4320
   10MPD2    H2  158   2.629   3.167  10.950  0.8215  1.1840  0.8262
   10MPD2    H3  159   2.643   3.295  11.144  1.1277 -0.5818  2.2672
   10MPD2     N  160   2.500   2.976  11.420 -0.5239 -0.1054 -0.4020
   10MPD2    H5  161   2.540   3.026  11.499 -0.4925  0.5621 -0.8398
   10MPD2    N1  162   2.534   2.906  10.938  0.6326 -0.3490  0.4240
   10MPD2    H7  163   2.496   2.813  10.954  0.4589 -0.5194 -1.0153
   11TCq1    O1  164   3.921   2.535  13.608 -0.4997 -0.0598  0.3213
   11TCq1    C1  165   3.839   2.484  13.699  0.3541  0.2885  0.1645
   11TCq1    O2  166   3.817   2.361  13.709  0.3731  0.0964  0.0212
   11TCq1    C2  167   3.750   2.590  13.760 -0.4342 -0.0871  0.1657
   11TCq1    C3  168   3.797   2.712  13.771 -0.6208 -0.1568  0.1962
   11TCq1    C4  169   3.725   2.800  13.848  0.3180 -0.2026  0.2785
   11TCq1    C5  170   3.602   2.767  13.901  0.7257  0.4524  0.4582
   11TCq1    C6  171   3.556   2.638  13.882  0.0431 -0.3147 -0.2173
   11TCq1    C7  172   3.638   2.547  13.826  0.1540 -0.3208  0.0883
   11TCq1    C8  173   3.412   2.616  13.882 -0.0779  0.6319  0.0573
   11TCq1    O4  174   3.340   2.694  13.942  0.9402 -0.1160  0.2871
   11TCq1    C9  175   3.778   2.919  13.896  0.3972  0.2697  0.1282
   11TCq1    O5  176   3.877   2.967  13.828 -0.1042 -0.0301 -0.6005
   11TCq1    O6  177   3.709   2.994  13.967 -0.1105  0.1129 -0.2030
   11TCq1    H1  178   3.904   2.632  13.603  0.1317  0.1969  3.2499
   11TCq1    H2  179   3.895   2.745  13.736  0.0966 -0.2288  2.1318
   11TCq1    H3  180   3.551   2.839  13.964 -0.4917  2.1465 -2.4596
   11TCq1    H4  181   3.607   2.445  13.811  3.5421 -1.4454  0.7135
   12MPD2     C  182   3.144   2.488  13.909 -0.1053 -0.2153 -0.1216
   12MPD2    C1  183   3.249   2.434  13.838 -0.0834 -0.1091  0.1856
   12MPD2    C2  184   3.223   2.324  13.760  0.8578  0.0005  0.2462
   12MPD2    C3  185   3.093   2.267  13.757  0.6960 -0.2177 -0.6573
   12MPD2    C4  186   2.993   2.329  13.817 -0.3344  0.3201 -0.5645
   12MPD2    C5  187   3.019   2.431  13.897  0.5384 -0.0609 -0.2173
   12MPD2     H  188   3.309   2.284  13.708  0.6845 -1.6128  1.2180
   12MPD2    H1  189   2.895   2.284  13.808  0.2630 -1.1494  0.2473
   12MPD2    H2  190   3.160   2.560  13.988  1.1008 -2.8427  2.0282
   12MPD2    H3  191   2.945   2.490  13.951  0.4281 -1.4503  1.1355
   12MPD2     N  192   3.074   2.140  13.695  0.0578  0.4554  0.2511
   12MPD2    H5  193   2.978   2.108  13.693  0.7381 -1.6977  1.3833
   12MPD2    N1  194   3.373   2.493  13.828 -0.2975 -0.3641  0.7230
   12MPD2    H7  195   3.436   2.433  13.776 -1.9285 -2.3773  1.0702
   13TCq1    O1  196   2.907   3.050  11.285 -0.3958  0.0037  0.2567
   13TCq1    C1  197   2.905   3.046  11.155 -0.4154  0.0552 -0.0701
   13TCq1    O2  198   2.930   3.140  11.078  0.3210 -0.9161  0.6238
   13TCq1    C2  199   2.899   2.906  11.119  0.1574 -0.4240 -0.4208
   13TCq1    C3  200   2.954   2.861  10.998 -0.0652  0.3995 -0.0873
   13TCq1    C4  201   2.923   2.735  10.963 -0.1860  0.4090 -0.8280
   13TCq1    C5  202   2.839   2.659  11.034 -0.5199 -0.3105 -0.7915
   13TCq1    C6  203   2.797   2.700  11.161  0.2228 -0.0474 -0.6466
   13TCq1    C7  204   2.834   2.828  11.212  0.7984 -0.0203  0.1721
   13TCq1    C8  205   2.697   2.627  11.231 -0.5122 -0.3240 -0.1927
   13TCq1    O4  206   2.662   2.669  11.338 -0.2603 -0.1671  0.0029
   13TCq1    C9  207   2.980   2.686  10.841 -0.3814 -0.1628  0.6364
   13TCq1    O5  208   2.907   2.595  10.789 -0.2183 -0.0538  0.2631
   13TCq1    O6  209   3.053   2.764  10.774  0.1720  1.0756  0.2751
   13TCq1    H1  210   2.926   2.959  11.316  0.7297  0.2425  0.2778
   13TCq1    H2  211   3.013   2.922  10.931 -0.0615  1.2652  0.6978
   13TCq1    H3  212   2.808   2.565  10.989 -0.0520 -0.1174 -1.5117
   13TCq1    H4  213   2.788   2.853  11.307  1.5076 -2.1120  1.0744
   14MPD2     C  214   2.501   2.330  11.132  0.1135 -0.3839  0.5469
   14MPD2    C1  215   2.528   2.452  11.199 -0.9183  0.4778 -0.0687
   14MPD2    C2  216   2.433   2.507  11.283 -0.1403  0.0009 -0.1956
   14MPD2    C3  217   2.311   2.449  11.297 -0.0815  0.2461  0.1455
   14MPD2    C4  218   2.293   2.325  11.252  0.8620 -0.2398  0.1480
   14MPD2    C5  219   2.383   2.266  11.164 -0.5825  0.5996 -0.5804
   14MPD2     H  220   2.444   2.610  11.314  0.2849  0.0482 -0.4986
   14MPD2    H1  221   2.199   2.271  11.256  0.5079  0.4929  1.6528
   14MPD2    H2  222   2.575   2.283  11.068  1.4345  0.3990  1.5039
   14MPD2    H3  223   2.358   2.168  11.123 -1.8821 -0.1721  2.0493
   14MPD2     N  224   2.214   2.529  11.357 -0.0324  0.9831 -0.1026
   14MPD2    H5  225   2.241   2.624  11.380 -0.1906  1.8494 -3.6238
   14MPD2    N1  226   2.648   2.519  11.158  0.7917  0.3246 -0.1527
   14MPD2    H7  227   2.689   2.478  11.074  0.0089 -0.9788  0.0956
   15TCq1    O1  228   3.913   1.992   1.401  0.2843  0.1723 -0.4217
   15TCq1    C1  229   3.997   2.022   1.507  0.1547  0.2810  0.6306
   15TCq1    O2  230   4.009   2.133   1.554 -0.7053 -0.6821  0.6932
   15TCq1    C2  231   4.039   1.888   1.558 -0.5420 -0.3048 -0.8362
   15TCq1    C3  232   4.077   1.887   1.689 -0.5353  0.3786  0.7113
   15TCq1    C4  233   4.137   1.777   1.734 -0.1781  0.0319 -0.3890
   15TCq1    C5  234   4.178   1.680   1.655 -0.4347  0.7955 -0.2159
   15TCq1    C6  235   4.148   1.686   1.525  1.3381 -0.3302 -0.1226
   15TCq1    C7  236   4.080   1.788   1.472 -0.4853 -0.0990 -0.4424
   15TCq1    C8  237   4.167   1.569   1.449 -0.1282  0.1329 -0.5590
   15TCq1    O4  238   4.248   1.490   1.497 -0.0179  0.3753 -0.1744
   15TCq1    C9  239   4.189   1.783   1.868 -0.3113 -0.4112 -0.0235
   15TCq1    O5  240   4.201   1.893   1.921 -0.3355  0.2671 -0.0513
   15TCq1    O6  241   4.269   1.689   1.903 -0.1758 -0.5132  0.4709
   15TCq1    H1  242   3.897   1.899   1.374  0.5664 -0.0873  0.2957
   15TCq1    H2  243   4.051   1.970   1.754  0.6282  1.0221  0.3531
   15TCq1    H3  244   4.237   1.596   1.691  0.5523  1.0247 -1.3048
   15TCq1    H4  245   4.065   1.794   1.365  0.1486  0.9089 -0.4745
   16MPD2     C  246   3.986   1.412   1.162  0.0292  0.4420  0.0103
   16MPD2    C1  247   4.088   1.441   1.252 -0.2952  0.4110  0.1898
   16MPD2    C2  248   4.204   1.367   1.245 -0.6723 -0.6713  0.4110
   16MPD2    C3  249   4.216   1.269   1.146 -0.3212  0.3124 -0.4450
   16MPD2    C4  250   4.109   1.241   1.067  0.0951  0.1620 -0.2770
   16MPD2    C5  251   3.998   1.318   1.069  0.9630 -0.5621 -0.0118
   16MPD2     H  252   4.294   1.395   1.298 -0.7772 -0.9741  0.7522
   16MPD2    H1  253   4.110   1.152   1.006 -2.5709 -0.4048  0.5231
   16MPD2    H2  254   3.889   1.461   1.160 -0.6430 -0.9654 -1.6048
   16MPD2    H3  255   3.922   1.289   0.997  0.7850  0.0028 -0.0471
   16MPD2     N  256   4.336   1.198   1.138  0.0200 -0.5881 -0.3942
   16MPD2    H5  257   4.395   1.192   1.220  0.3356 -0.3497 -0.6039
   16MPD2    N1  258   4.075   1.549   1.349 -0.2954  0.2244  0.2152
   16MPD2    H7  259   3.991   1.607   1.350 -1.2404 -1.1962  3.1265
   17TMC1    C1  260   2.319   1.499  11.582  0.1966 -0.1766 -0.1279
   17TMC1    C2  261   2.278   1.385  11.521  0.4284 -0.0046 -0.2926
   17TMC1    C3  262   2.178   1.307  11.578  0.9287 -0.4471 -0.0739
   17TMC1    C4  263   2.275   1.524  11.710 -0.4691 -1.1317  0.6328
   17TMC1    C5  264   2.181   1.443  11.769 -0.3145 -0.0988 -0.0316
   17TMC1    C6  265   2.121   1.348  11.694  0.3965 -0.3142 -0.3501
   17TMC1     C  266   2.385   1.605  11.512 -0.0285  0.9627  0.1064
   17TMC1     O  267   2.373   1.721  11.551 -0.0925 -0.3100 -0.3959
   17TMC1     H  268   2.303   1.365  11.417  0.5312 -0.4709 -0.1774
   17TMC1    H1  269   2.315   1.607  11.767 -1.8060  0.1345 -0.2637
   17TMC1    H2  270   2.037   1.296  11.740  0.1499 -1.7661 -2.4289
   17TMC1    C7  271   2.152   1.437  11.911 -0.1022 -0.6759 -0.1577
   17TMC1    C8  272   2.116   1.209  11.501 -0.0344  0.5006  0.7509
   17TMC1    O1  273   2.100   1.339  11.968 -0.0666  0.3501  0.8999
   17TMC1    O2  274   2.102   1.211  11.379  0.2877 -0.2350 -0.3238
   17TMC1    O3  275   2.205   1.539  11.983 -0.1994 -0.0525  0.2163
   17TMC1    H3  276   2.200   1.616  11.923 -0.6979  0.1749  0.5518
   17TMC1    O5  277   2.095   1.106  11.585 -0.5625 -0.0391  0.1116
   17TMC1    H5  278   2.136   1.116  11.673 -0.1080  0.5917 -0.1703
   18MPD2     C  279   2.457   1.775  11.300 -0.0108  0.6156 -0.3478
   18MPD2    C1  280   2.510   1.651  11.305 -0.1447 -1.0545  0.0657
   18MPD2    C2  281   2.608   1.618  11.209 -0.0319 -0.1222 -0.6804
   18MPD2    C3  282   2.654   1.712  11.117 -0.1358  0.4113 -0.1957
   18MPD2    C4  283   2.602   1.842  11.125 -0.5736  0.1540 -0.0369
   18MPD2    C5  284   2.501   1.873  11.213  0.3976  0.2819 -0.0047
   18MPD2     H  285   2.654   1.520  11.214  2.2717  0.9342 -1.2749
   18MPD2    H1  286   2.633   1.928  11.067 -1.1206  0.1791 -0.2895
   18MPD2    H2  287   2.376   1.810  11.364  0.9950  0.7692  0.8387
   18MPD2    H3  288   2.456   1.972  11.217 -1.2995 -0.4298 -1.4798
   18MPD2     N  289   2.752   1.697  11.017 -0.9094 -0.0336 -0.6291
   18MPD2    H5  290   2.761   1.776  10.954 -3.4344 -0.3243 -1.3632
   18MPD2    N1  291   2.461   1.562  11.404 -0.2903 -0.6113  0.3505
   18MPD2    H7  292   2.485   1.465  11.392  0.0056 -0.6900  1.6499
   19TMC2    C1  293   4.358   2.463  13.502  0.4114 -0.4591  0.7751
   19TMC2    C2  294   4.309   2.551  13.600  0.3929 -0.2816 -0.3060
   19TMC2    C3  295   4.228   2.509  13.705 -0.2827  0.4696 -0.2670
   19TMC2    C4  296   4.325   2.328  13.516 -0.0806 -0.7102 -0.0762
   19TMC2    C5  297   4.237   2.299  13.617 -0.5383  0.2247  0.3275
   19TMC2    C6  298   4.183   2.380  13.710  0.1295 -0.2846  0.0662
   19TMC2     C  299   4.491   2.494  13.460 -0.2333 -0.1623  0.5330
   19TMC2     O  300   4.521   2.613  13.444 -0.1863  0.7583  0.5737
   19TMC2     H  301   4.344   2.653  13.589  1.8059 -0.8502 -1.0837
   19TMC2    H1  302   4.362   2.249  13.452 -2.5948 -0.3147 -2.0089
   19TMC2    H2  303   4.120   2.336  13.786 -1.5923  1.9433 -0.0537
   19TMC2    C7  304   4.205   2.157  13.634 -0.0682  0.3799 -0.7304
   19TMC2    C8  305   4.201   2.606  13.816 -0.3468 -0.0901 -0.0782
   19TMC2    O1  306   4.294   2.083  13.603  0.4169  0.0034  0.2069
   19TMC2    O2  307   4.106   2.608  13.891 -0.0772 -0.0876  0.7147
   19TMC2    O5  308   4.323   2.641  13.844  0.0158  0.0219  0.3105
   19TMC2    H5  309   4.380   2.620  13.767  0.7153 -0.7028  1.0382
   20MPD2     C  310   0.045   2.487  13.394  0.4781 -0.4146 -0.4172
   20MPD2    C1  311   4.714   2.375  13.441  0.3138 -0.9265 -0.0062
   20MPD2    C2  312   0.043   2.257  13.457  0.4129  0.1140  0.7719
   20MPD2    C3  313   0.182   2.257  13.462  0.0403 -0.1652 -0.0826
   20MPD2    C4  314   0.248   2.370  13.427 -0.5468 -0.0808  0.4751
   20MPD2    C5  315   0.183   2.488  13.390 -0.1594 -0.1979  1.1002
   20MPD2     H  316   4.711   2.180  13.496 -0.5155 -0.1808 -1.4094
   20MPD2    H1  317   0.357   2.373  13.425 -0.6624  1.3313 -3.2956
   20MPD2    H2  318   4.725   2.579  13.374  2.6127  0.9939  0.1741
   20MPD2    H3  319   0.237   2.574  13.352 -1.4093 -0.5335 -1.4457
   20MPD2     N  320   0.258   2.144  13.505  0.0367 -0.5476 -0.2799
   20MPD2    H5  321   0.358   2.153  13.519  0.0274 -1.4696  0.4567
   20MPD2    N1  322   4.570   2.380  13.458  0.4244 -0.3277  0.0390
   20MPD2    H7  323   4.522   2.296  13.487  0.5353 -0.8818 -1.3818
   21TMC2    C1  324   2.542   2.900  13.294  0.3386 -0.8808 -0.0092
   21TMC2    C2  325   2.443   2.915  13.199  0.0771 -0.2451  0.3137
   21TMC2    C3  326   2.321   2.945  13.245 -0.1425  0.8206 -0.1643
   21TMC2    C4  327   2.523   2.927  13.429 -0.2378 -0.1245  0.0597
   21TMC2    C5  328   2.401   2.960  13.470 -0.4665 -0.2392 -1.2165
   21TMC2    C6  329   2.299   2.972  13.377  0.4616 -0.1001  0.1999
   21TMC2     C  330   2.629   2.786  13.277  0.0930 -0.8452 -0.5667
   21TMC2     O  331   2.731   2.815  13.221  0.0698  0.0473 -0.1276
   21TMC2     H  332   2.453   2.888  13.094 -1.4143  1.8935 -0.3889
   21TMC2    H1  333   2.603   2.898  13.496  0.5858  1.2151 -0.3395
   21TMC2    H2  334   2.198   2.980  13.416  0.4063  1.0568 -0.1572
   21TMC2    C7  335   2.372   2.948  13.613 -0.3708 -0.3777  0.2260
   21TMC2    C8  336   2.206   2.916  13.169 -0.9043 -0.6413  0.1026
   21TMC2    O1  337   2.467   2.907  13.683  0.3795 -0.5090  0.4934
   21TMC2    O2  338   2.097   2.886  13.211  0.1002 -0.1579 -0.0138
   21TMC2    O5  339   2.239   2.931  13.039 -1.1485  0.2003 -0.4263
   21TMC2    H5  340   2.313   2.996  13.030 -2.0176  1.1977 -0.3816
   22MPD2     C  341   2.809   2.354  13.454 -0.9110  0.0927 -0.3773
   22MPD2    C1  342   2.676   2.352  13.485 -0.6840  0.1104 -0.7358
   22MPD2    C2  343   2.601   2.464  13.449  0.1865 -0.5442 -0.0624
   22MPD2    C3  344   2.658   2.562  13.369 -0.0001  0.2578 -0.3063
   22MPD2    C4  345   2.786   2.554  13.335 -0.8361  0.5601  0.0125
   22MPD2    C5  346   2.862   2.452  13.381  0.0370  0.7209  0.1345
   22MPD2     H  347   2.505   2.493  13.489  0.4015  2.2925 -1.6064
   22MPD2    H1  348   2.838   2.634  13.284 -0.2477  1.7054  2.4016
   22MPD2    H2  349   2.874   2.275  13.490 -1.4305 -0.3996 -0.5250
   22MPD2    H3  350   2.967   2.447  13.355 -0.0474  0.2544 -0.1226
   22MPD2     N  351   2.587   2.682  13.348 -0.6237 -0.0918  0.0351
   22MPD2    H5  352   2.497   2.690  13.395  0.1582  3.7918  0.8848
   22MPD2    N1  353   2.616   2.256  13.574 -0.1128 -0.2857 -0.1277
   22MPD2    H7  354   2.521   2.277  13.604  0.3612 -0.5659  1.6063
   23TMC2    C1  355   3.030   3.959  14.339  0.4896 -0.3987 -0.2147
   23TMC2    C2  356   2.971   4.053  14.251 -0.1837 -0.1712  0.2305
   23TMC2    C3  357   2.854   4.016  14.194  0.3149 -0.0501  0.0193
   23TMC2    C4  358   2.976   3.835  14.360  0.3730 -0.0802  0.3119
   23TMC2    C5  359   2.859   3.803  14.297  0.0715  0.5396 -0.0050
   23TMC2    C6  360   2.794   3.893  14.216 -0.8809  0.2491  0.0666
   23TMC2     C  361   3.145   3.992  14.430  0.1802 -0.1871 -0.2739
   23TMC2     O  362   3.215   3.899  14.463  0.1556 -0.2915 -0.0450
   23TMC2     H  363   3.025   4.147  14.246  2.4213 -1.5593  2.2119
   23TMC2    H1  364   3.018   3.761  14.427 -0.0799  0.4479  1.1793
   23TMC2    H2  365   2.707   3.863  14.159 -0.7150 -1.2821  0.6164
   23TMC2    C7  366   2.792   3.679  14.333  0.1064  0.4581  0.2365
   23TMC2    C8  367   2.775   4.111  14.115 -0.3973  0.4734 -0.3319
   23TMC2    O1  368   2.863   3.593  14.393  0.6974  0.0036  0.4855
   23TMC2    O2  369   2.832   4.195  14.043  0.2578  0.6153  0.0938
   23TMC2    O5  370   2.671   4.140  14.196  0.2126 -0.3221  0.3771
   23TMC2    H5  371   2.656   4.071  14.264  1.2212  0.3888  1.3324
   24MPD2     C  372   3.441   4.313  14.707 -0.3602 -0.6298 -0.8558
   24MPD2    C1  373   3.437   4.175  14.705  0.7500  0.2913  0.0780
   24MPD2    C2  374   3.346   4.115  14.617  0.1621  0.2810  0.4653
   24MPD2    C3  375   3.255   4.185  14.539 -0.7009 -0.2491  0.4204
   24MPD2    C4  376   3.262   4.324  14.542  0.5512 -0.3560 -0.6343
   24MPD2    C5  377   3.358   4.383  14.625  0.0283 -0.4471  0.8515
   24MPD2     H  378   3.345   4.006  14.618 -0.8232  0.3002  1.1000
   24MPD2    H1  379   3.200   4.390  14.482  0.1123  1.6971  2.0520
   24MPD2    H2  380   3.517   4.366  14.762 -0.7857  1.1215 -1.9706
   24MPD2    H3  381   3.371   4.490  14.636 -3.0065  0.1541 -1.3529
   24MPD2     N  382   3.157   4.127  14.462 -0.2651  0.1615 -0.1888
   24MPD2    H5  383   3.098   4.196  14.417 -0.9383 -0.0678  0.3286
   24MPD2    N1  384   3.528   4.106  14.790 -0.5264  0.6377  0.0645
   24MPD2    H7  385   3.586   4.165  14.848 -0.0742 -0.6983  0.9628
   25TMC2    C1  386   2.158   1.459  10.976  0.4605 -0.4229 -1.0141
   25TMC2    C2  387   2.217   1.555  10.904  0.0703  0.7567 -0.2852
   25TMC2    C3  388   2.238   1.673  10.964  0.0951 -0.1394 -0.1687
   25TMC2    C4  389   2.124   1.475  11.108 -0.0766 -0.0653 -0.1432
   25TMC2    C5  390   2.137   1.602  11.161  0.4067 -0.1916  0.1166
   25TMC2    C6  391   2.207   1.704  11.089 -0.7434  0.9710  0.2713
   25TMC2     C  392   2.156   1.330  10.913  0.0350  0.1665  0.3388
   25TMC2     O  393   2.234   1.308  10.819 -0.4765 -0.0397 -0.2788
   25TMC2     H  394   2.239   1.546  10.799  2.9178  2.2793  0.1938
   25TMC2    H1  395   2.067   1.395  11.155 -2.0093  1.9133  0.8577
   25TMC2    H2  396   2.214   1.808  11.115 -0.2967  1.0057  0.0221
   25TMC2    C7  397   2.068   1.626  11.288 -0.0732 -0.1653  0.4251
   25TMC2    C8  398   2.299   1.780  10.887  0.6973 -0.4167 -0.1972
   25TMC2    O1  399   1.998   1.535  11.333  0.4855  0.7317 -0.4080
   25TMC2    O2  400   2.231   1.876  10.850 -0.3242  0.4029 -0.3851
   25TMC2    O5  401   2.403   1.727  10.820 -0.4835  0.1862  0.2174
   25TMC2    H5  402   2.432   1.642  10.860 -3.8029 -0.3650  1.4472
   26MPD2     C  403   1.994   0.865  10.844  0.2404 -0.5193 -0.1111
   26MPD2    C1  404   1.901   0.931  10.913  0.3347  0.0546  0.4686
   26MPD2    C2  405   1.916   1.062  10.956  0.2159 -1.2444 -0.1492
   26MPD2    C3  406   2.036   1.119  10.928  0.1662  0.4728  0.2812
   26MPD2    C4  407   2.128   1.053  10.849 -0.0820  0.1556 -0.3064
   26MPD2    C5  408   2.115   0.922  10.823  0.9018  0.4443  0.4732
   26MPD2     H  409   1.831   1.121  10.988  1.3112  0.8911 -1.2190
   26MPD2    H1  410   2.220   1.085  10.800  0.0598 -0.8343 -0.6931
   26MPD2    H2  411   1.976   0.767  10.800 -1.3532 -0.1489 -0.2608
   26MPD2    H3  412   2.193   0.872  10.766  0.0547  0.7342 -0.9266
   26MPD2     N  413   2.057   1.251  10.959  0.1768 -0.3664  0.3404
   26MPD2    H5  414   1.988   1.289  11.024 -0.8857 -0.3145 -0.8070
   26MPD2    N1  415   1.784   0.860  10.922 -0.0223  0.7792 -0.1482
   26MPD2    H7  416   1.774   0.768  10.881 -1.7854  0.3025  1.3403
   27TMC2    C1  417   0.802   3.443  11.633 -0.0287  0.1559 -0.1176
   27TMC2    C2  418   0.704   3.445  11.542 -0.2615 -0.0984  0.1441
   27TMC2    C3  419   0.634   3.562  11.516 -0.2099 -0.3715  0.1371
   27TMC2    C4  420   0.836   3.560  11.693 -0.2315  0.2842 -0.6103
   27TMC2    C5  421   0.769   3.672  11.661  0.6667 -0.2683 -0.1298
   27TMC2    C6  422   0.656   3.679  11.587 -0.0460 -0.7924 -0.0448
   27TMC2     C  423   0.800   3.332  11.713  0.1520  0.0637 -0.3512
   27TMC2     O  424   0.804   3.223  11.659  0.3698  0.1287  0.0535
   27TMC2     H  425   0.667   3.353  11.497  0.2525 -0.1573 -0.1614
   27TMC2    H1  426   0.919   3.568  11.762  0.0337  1.5610 -1.0745
   27TMC2    H2  427   0.597   3.768  11.565  1.2808 -0.3666 -1.8674
   27TMC2    C7  428   0.760   3.748  11.785  0.2108  0.2176 -0.5926
   27TMC2    C8  429   0.513   3.564  11.445  0.3175 -0.4767 -0.3226
   27TMC2    O1  430   0.763   3.681  11.886 -0.3300  0.7512  0.3929
   27TMC2    O2  431   0.489   3.643  11.360 -0.0850 -0.4617 -0.3520
   27TMC2    O5  432   0.426   3.488  11.510 -0.4693 -0.0260 -0.6724
   27TMC2    H5  433   0.455   3.430  11.584 -1.3867 -1.4429 -1.4072
   28MPD2     C  434   0.659   3.131  12.167 -0.6196  0.5681  0.3581
   28MPD2    C1  435   0.636   3.266  12.168 -0.0417 -0.1776 -0.1859
   28MPD2    C2  436   0.680   3.348  12.058 -0.1052 -0.7231 -0.6235
   28MPD2    C3  437   0.732   3.287  11.952  0.1614 -0.1271 -0.0582
   28MPD2    C4  438   0.753   3.151  11.951  0.3873 -0.1590  0.5297
   28MPD2    C5  439   0.714   3.074  12.056  0.2158  0.5945  0.1226
   28MPD2     H  440   0.678   3.456  12.062  1.6515 -0.7392  0.5661
   28MPD2    H1  441   0.800   3.110  11.862 -1.2268  2.2605 -1.4207
   28MPD2    H2  442   0.639   3.072  12.255  0.0952  3.0096  2.1540
   28MPD2    H3  443   0.737   2.968  12.049 -1.6971  0.3291 -2.5021
   28MPD2     N  444   0.764   3.371  11.841  0.0575  0.0751  0.1815
   28MPD2    H5  445   0.759   3.472  11.851  1.6100  0.1242  0.4173
   28MPD2    N1  446   0.579   3.318  12.288 -0.3656 -0.0598  0.1972
   28MPD2    H7  447   0.544   3.246  12.350  2.1591 -0.4572  1.1552
   29TMC2    C1  448   0.343   1.266  13.984 -0.5774 -0.4142 -0.0155
   29TMC2    C2  449   0.376   1.294  14.111 -0.2001  0.0607  0.7066
   29TMC2    C3  450   0.456   1.400  14.134  0.4248  0.2392  0.1762
   29TMC2    C4  451   0.387   1.345  13.878 -0.4434 -0.2271  0.8073
   29TMC2    C5  452   0.475   1.444  13.905  0.8835  0.1217  0.3214
   29TMC2    C6  453   0.501   1.479  14.033  0.3398  0.1618 -0.5762
   29TMC2     C  454   0.294   1.131  13.966 -0.3102 -0.4039  0.5230
   29TMC2     O  455   0.310   1.052  14.056 -0.4902 -0.1715 -0.3418
   29TMC2     H  456   0.338   1.227  14.186 -1.6094 -0.3077 -0.3268
   29TMC2    H1  457   0.372   1.311  13.776 -0.4192 -1.3148  1.1611
   29TMC2    H2  458   0.554   1.569  14.063 -0.6800  0.8512 -0.8206
   29TMC2    C7  459   0.546   1.494  13.787  0.1377 -0.2361  0.1805
   29TMC2    C8  460   0.424   1.461  14.262  1.1762 -0.1047  0.1470
   29TMC2    O1  461   0.511   1.461  13.673 -0.4797  0.3803 -0.2419
   29TMC2    O2  462   0.376   1.392  14.347 -0.2964 -0.1208  0.9468
   29TMC2    O5  463   0.377   1.582  14.230 -0.2389 -0.6990 -0.2309
   29TMC2    H5  464   0.380   1.620  14.140 -0.9685 -0.9528 -0.3649
   30MPD2     C  465   0.037   0.758  13.752 -0.6675 -0.5862 -0.0492
   30MPD2    C1  466   0.157   0.749  13.816 -0.4401 -0.7882 -0.3272
   30MPD2    C2  467   0.220   0.863  13.855 -0.5165  0.2357  0.1030
   30MPD2    C3  468   0.167   0.985  13.810  0.4116 -0.4255 -0.5027
   30MPD2    C4  469   0.063   0.991  13.721 -0.4415 -0.1554 -0.2904
   30MPD2    C5  470   4.726   0.878  13.707 -0.3928 -0.2496 -0.0735
   30MPD2     H  471   0.310   0.864  13.915  1.1899  0.4852 -2.4454
   30MPD2    H1  472   0.017   1.079  13.679  2.3674  1.1977 -0.5615
   30MPD2    H2  473   4.725   0.668  13.714  1.0761 -1.0297 -1.1009
   30MPD2    H3  474   4.635   0.875  13.649 -0.4188 -1.4533  0.0262
   30MPD2     N  475   0.225   1.111  13.847  0.7561 -0.3462  0.4316
   30MPD2    H5  476   0.190   1.192  13.797  0.0190 -1.0023 -0.1336
   30MPD2    N1  477   0.223   0.625  13.841 -0.4349  0.3791  0.2630
   30MPD2    H7  478   0.311   0.634  13.891 -1.4198 -2.1741  2.4531
   31TMC2    C1  479   2.627   4.576  15.159 -0.1618 -0.0713  0.3742
   31TMC2    C2  480   2.508   4.636  15.185 -0.1162  0.1488  0.1271
   31TMC2    C3  481   2.474   4.660  15.314  0.6574  0.4213 -0.2006
   31TMC2    C4  482   2.696   4.516  15.257 -0.5478 -0.1739  0.0573
   31TMC2    C5  483   2.657   4.540  15.386  0.2047 -0.7007  0.5078
   31TMC2    C6  484   2.550   4.615  15.417 -0.2837 -0.6388  0.0840
   31TMC2     C  485   2.673   4.596  15.019 -0.1117 -0.6149  0.4851
   31TMC2     O  486   2.594   4.628  14.936 -0.0657  0.1544 -0.7131
   31TMC2     H  487   2.446   4.674  15.104  2.4343  0.8631 -1.5161
   31TMC2    H1  488   2.785   4.463  15.225 -0.7954 -1.0144  0.7587
   31TMC2    H2  489   2.512   4.629  15.518  0.0265 -1.0649  0.2592
   31TMC2    C7  490   2.746   4.497  15.490  0.4457  0.4033 -0.4969
   31TMC2    C8  491   2.342   4.714  15.339  0.6013 -0.4179 -0.1485
   31TMC2    O1  492   2.781   4.379  15.488 -0.5301 -0.2534 -0.2476
   31TMC2    O2  493   2.308   0.027  15.447 -0.3437  0.2236 -0.6554
   31TMC2    O5  494   2.257   4.707  15.236 -0.0871 -0.1217  0.3622
   31TMC2    H5  495   2.290   4.688  15.145  0.2461  1.2214  0.2033
   32MPD2     C  496   3.052   4.587  14.666 -0.0947 -0.1133 -0.1139
   32MPD2    C1  497   2.926   4.638  14.659 -0.7009 -0.4193  0.0202
   32MPD2    C2  498   2.843   4.630  14.775  0.2495 -0.0176  1.0765
   32MPD2    C3  499   2.887   4.562  14.883  0.2550  0.1756  0.6388
   32MPD2    C4  500   3.013   4.506  14.881 -0.1491  0.2206 -0.0562
   32MPD2    C5  501   3.095   4.517  14.776 -0.0377 -0.0260 -0.2635
   32MPD2     H  502   2.749   4.684  14.775  1.0575  1.4096  0.5081
   32MPD2    H1  503   3.047   4.468  14.976 -1.5985 -2.4673 -0.6134
   32MPD2    H2  504   3.129   4.611  14.594  1.4642 -2.7877  0.6620
   32MPD2    H3  505   3.198   4.487  14.794 -0.0034 -1.1992 -2.3941
   32MPD2     N  506   2.811   4.566  15.006  0.5622  0.4850  0.4586
   32MPD2    H5  507   2.859   4.533  15.089  1.5661  0.8680  0.0291
   32MPD2    N1  508   2.894   4.716  14.546  0.4107  0.4280  0.2886
   32MPD2    H7  509   2.979   0.001  14.493 -0.6579  1.5817 -0.9832
   33TMC2    C1  510   2.873   2.194  10.076  0.3233 -0.8624  0.1072
   33TMC2    C2  511   2.792   2.096  10.021  0.4269 -0.1477 -0.1093
   33TMC2    C3  512   2.793   2.097   9.886  0.0955  0.0901 -0.4059
   33TMC2    C4  513   2.957   2.280  10.011 -1.6545 -0.2629 -0.1967
   33TMC2    C5  514   2.954   2.260   9.876  0.0986  0.3757  0.1444
   33TMC2    C6  515   2.867   2.179   9.807  0.0689  0.2912 -0.2392
   33TMC2     C  516   2.898   2.164  10.218  0.3169 -1.0134  0.2757
   33TMC2     O  517   2.823   2.077  10.262  0.5517  0.0671  0.5743
   33TMC2     H  518   2.706   2.040  10.056 -0.0776  0.1363 -0.8937
   33TMC2    H1  519   3.013   2.363  10.053 -0.6066 -1.7751  1.4501
   33TMC2    H2  520   2.855   2.166   9.700  0.0598 -0.3156 -0.1671
   33TMC2    C7  521   3.044   2.343   9.799 -0.0026 -0.1126  0.7177
   33TMC2    C8  522   2.749   1.977   9.823 -0.5304  0.2759 -0.2915
   33TMC2    O1  523   3.126   2.395   9.869 -0.1517 -0.1278 -0.9068
   33TMC2    O2  524   2.732   1.977   9.700  0.5420 -0.1014  0.1160
   33TMC2    O5  525   2.827   1.883   9.878 -0.1941  0.3765  0.3837
   33TMC2    H5  526   2.835   1.884   9.976  1.6009  2.4514  0.2055
   34MPD2     C  527   3.041   2.214  10.709 -0.3898 -0.4308 -0.1308
   34MPD2    C1  528   3.012   2.099  10.633  0.3407 -0.1356  0.3360
   34MPD2    C2  529   2.977   2.109  10.496 -0.4692 -0.0124  0.3706
   34MPD2    C3  530   2.990   2.235  10.432 -0.2965  0.4660 -0.0715
   34MPD2    C4  531   3.028   2.345  10.508 -0.2251  0.5769 -0.0619
   34MPD2    C5  532   3.044   2.341  10.641 -0.0598  0.4102  0.5713
   34MPD2     H  533   2.955   2.024  10.432 -1.9244 -0.4408  1.4469
   34MPD2    H1  534   3.044   2.444  10.466 -0.4013  0.9740  0.8096
   34MPD2    H2  535   3.075   2.205  10.811 -1.9104 -1.4530  0.2740
   34MPD2    H3  536   3.097   2.424  10.687  1.8457 -0.7494  0.4734
   34MPD2     N  537   2.972   2.253  10.290 -0.3780  0.1886 -0.3425
   34MPD2    H5  538   3.001   2.343  10.251  0.1211 -0.1595 -0.7773
   34MPD2    N1  539   3.020   1.974  10.706 -0.2804 -0.9977 -0.3162
   34MPD2    H7  540   3.038   1.975  10.806 -2.2810 -1.6588  0.0385
   35TMC2    C1  541   3.984   3.540  11.140 -0.1567 -0.5214  0.6072
   35TMC2    C2  542   3.895   3.515  11.031 -0.2135  0.1013 -0.3928
   35TMC2    C3  543   3.787   3.440  11.051 -0.3686 -0.2715 -0.5227
   35TMC2    C4  544   3.959   3.500  11.267  0.2527 -0.1908 -0.6066
   35TMC2    C5  545   3.850   3.421  11.282 -0.4646 -0.0586 -0.5808
   35TMC2    C6  546   3.762   3.395  11.179 -0.2554  0.3247  0.2090
   35TMC2     C  547   4.088   3.633  11.103  0.6924 -0.0574  0.1725
   35TMC2     O  548   4.082   3.680  10.990  0.3715 -0.5317  0.9345
   35TMC2     H  549   3.914   3.554  10.931  0.6357 -1.1688 -0.7320
   35TMC2    H1  550   4.013   3.543  11.350  1.0726  0.5431 -1.5141
   35TMC2    H2  551   3.682   3.321  11.182 -1.3343  1.4483 -0.8235
   35TMC2    C7  552   3.873   3.303  11.356  0.2399 -0.7286 -0.5833
   35TMC2    C8  553   3.753   3.349  10.940 -0.5366 -0.5605  0.2707
   35TMC2    O1  554   3.783   3.223  11.363  0.1196  0.0688 -0.0183
   35TMC2    O2  555   3.828   3.302  10.861 -0.3091 -0.5084 -0.2256
   35TMC2    O5  556   3.620   3.345  10.929 -0.0686 -0.0361 -0.0209
   35TMC2    H5  557   3.570   3.410  10.983 -0.4662  0.3053 -0.8046
   36MPD2     C  558   4.533   3.888  11.179 -0.6842  0.5044 -0.0703
   36MPD2    C1  559   4.517   3.797  11.280 -0.3151  0.4849  0.0846
   36MPD2    C2  560   4.406   3.713  11.272  0.2915 -0.4362 -0.4490
   36MPD2    C3  561   4.302   3.726  11.179 -0.5394  0.0583 -0.7565
   36MPD2    C4  562   4.325   3.815  11.075  0.0100 -0.6356 -0.3059
   36MPD2    C5  563   4.439   3.889  11.076 -0.3937 -0.5360 -0.0948
   36MPD2     H  564   4.386   3.654  11.361 -3.5092  1.5448  0.0156
   36MPD2    H1  565   4.258   3.836  10.992  1.2678  0.1853 -1.1035
   36MPD2    H2  566   4.615   3.958  11.169  1.2610 -1.4436  2.3440
   36MPD2    H3  567   4.451   3.958  10.994 -0.2823 -0.0265  0.3498
   36MPD2     N  568   4.183   3.651  11.200 -0.4083 -0.1783  0.2997
   36MPD2    H5  569   4.193   3.580  11.272  0.6413 -0.0993  0.2354
   36MPD2    N1  570   4.610   3.807  11.384 -0.4400  0.6828  0.3735
   36MPD2    H7  571   4.689   3.868  11.366 -2.5359  3.4308  0.4468
   37TMC2    C1  572   2.337   3.583  11.425 -0.2392  0.3586  0.0363
   37TMC2    C2  573   2.446   3.549  11.494 -0.0894 -0.6800 -0.5551
   37TMC2    C3  574   2.561   3.527  11.427  0.8752  1.2899 -0.4511
   37TMC2    C4  575   2.332   3.607  11.296 -0.3423  0.2405  0.3417
   37TMC2    C5  576   2.445   3.587  11.230  0.0380  0.0376 -0.2424
   37TMC2    C6  577   2.562   3.549  11.291  0.5802  0.0429 -0.7776
   37TMC2     C  578   2.227   3.635  11.506  0.8713 -0.5292  0.2134
   37TMC2     O  579   2.125   3.672  11.454 -0.3076 -0.3875  0.0788
   37TMC2     H  580   2.438   3.497  11.589 -0.0112  0.4311  0.0553
   37TMC2    H1  581   2.242   3.648  11.252 -0.1932  1.6478  1.3331
   37TMC2    H2  582   2.645   3.538  11.223  1.2738  0.9436 -0.0698
   37TMC2    C7  583   2.427   3.610  11.081 -0.2149  0.0347 -0.2309
   37TMC2    C8  584   2.671   3.458  11.488 -0.0550 -0.0407  0.5193
   37TMC2    O1  585   2.315   3.623  11.039 -0.1522  0.0268 -0.3025
   37TMC2    O2  586   2.761   3.401  11.428 -0.3071 -0.3660  0.4825
   37TMC2    O5  587   2.676   3.503  11.617 -0.4258  0.3676 -0.4715
   37TMC2    H5  588   2.616   3.579  11.631 -1.4072 -0.3557 -0.7914
   38MPD2     C  589   2.048   3.829  11.945  0.2355  0.5910 -0.6203
   38MPD2    C1  590   2.167   3.758  11.970  0.4188  0.0387 -0.4070
   38MPD2    C2  591   2.232   3.701  11.863 -0.5404 -0.4387 -0.8532
   38MPD2    C3  592   2.181   3.705  11.738 -0.9223 -0.1045 -0.0184
   38MPD2    C4  593   2.060   3.764  11.720  0.2615  0.0616  0.4639
   38MPD2    C5  594   1.989   3.818  11.819 -0.2439 -0.1122 -0.3667
   38MPD2     H  595   2.327   3.650  11.876 -0.4931  0.5297  2.5523
   38MPD2    H1  596   2.004   3.768  11.627 -0.1118  1.0270  0.7289
   38MPD2    H2  597   2.004   3.887  12.025 -1.9333  0.9692 -2.1150
   38MPD2    H3  598   1.898   3.870  11.793 -0.8961  0.1536  2.4329
   38MPD2     N  599   2.257   3.655  11.636  0.1618  0.6531  0.1396
   38MPD2    H5  600   2.350   3.622  11.659  0.0896 -0.2062 -0.8203
   38MPD2    N1  601   2.224   3.756  12.097  0.0466  0.1824 -0.6952
   38MPD2    H7  602   2.299   3.690  12.112 -0.7232  0.0175  2.4109
   39TMC2    C1  603   0.281   0.847   1.245 -0.2097  0.2156 -0.2640
   39TMC2    C2  604   0.335   0.854   1.125  0.7500 -1.0763 -0.2274
   39TMC2    C3  605   0.457   0.915   1.119 -0.0238  0.0034  0.7687
   39TMC2    C4  606   0.330   0.910   1.352  0.2047  0.1138  0.3770
   39TMC2    C5  607   0.452   0.967   1.345 -0.4881  1.0434 -0.1391
   39TMC2    C6  608   0.515   0.978   1.226 -0.9827  0.2867 -0.1564
   39TMC2     C  609   0.160   0.769   1.254  0.2138  0.3053  0.5909
   39TMC2     O  610   0.130   0.698   1.155 -0.0414  0.3724  0.4844
   39TMC2     H  611   0.295   0.805   1.037  0.3703 -1.4576  0.1642
   39TMC2    H1  612   0.278   0.904   1.447 -2.2136 -0.4587 -0.9879
   39TMC2    H2  613   0.619   1.006   1.227 -0.6637 -0.9096 -0.2070
   39TMC2    C7  614   0.487   1.054   1.460  0.1670  0.3861 -0.1831
   39TMC2    C8  615   0.534   0.918   0.998 -0.1491  0.1788 -0.2748
   39TMC2    O1  616   0.455   1.025   1.573  0.3306 -0.1226 -0.2273
   39TMC2    O2  617   0.618   1.005   0.978 -0.5045 -0.7693 -0.0472
   39TMC2    O5  618   0.561   0.795   0.954 -0.2104  0.0842  0.4543
   39TMC2    H5  619   0.534   0.721   1.014 -4.1132  1.1549  0.0328
   40MPD2     C  620   4.631   0.824   1.494 -0.5295 -0.9754  0.1277
   40MPD2    C1  621   4.683   0.788   1.374  0.0343 -0.2733 -0.0025
   40MPD2    C2  622   4.592   0.747   1.278 -0.1033 -0.4599 -0.0864
   40MPD2    C3  623   4.453   0.743   1.303  0.0734  0.1328 -0.1628
   40MPD2    C4  624   4.408   0.774   1.431 -0.4434  0.2306 -0.1061
   40MPD2    C5  625   4.499   0.823   1.522  0.2543 -0.5947  0.9275
   40MPD2     H  626   4.627   0.735   1.176 -0.5167 -1.5837 -0.1032
   40MPD2    H1  627   4.302   0.773   1.453 -0.5760  0.1574 -0.7257
   40MPD2    H2  628   4.694   0.859   1.576 -1.2151  0.3051  0.1073
   40MPD2    H3  629   4.469   0.863   1.618 -0.3423  1.0476  0.0504
   40MPD2     N  630   4.353   0.705   1.208 -0.3021 -0.1190 -0.7971
   40MPD2    H5  631   4.256   0.702   1.237  0.5875  1.7608  2.4572
   40MPD2    N1  632   0.082   0.807   1.362  0.7247 -0.8878  0.0087
   40MPD2    H7  633   0.114   0.880   1.426  0.6022 -0.3641 -0.5237
   41TMC2    C1  634   4.064   4.219  13.310 -0.2041 -0.2153 -0.4725
   41TMC2    C2  635   3.950   4.229  13.239 -0.9910 -0.2840 -0.3432
   41TMC2    C3  636   3.946   4.259  13.111 -0.1953 -0.5815  0.8543
   41TMC2    C4  637   4.181   4.254  13.248 -0.1120  0.0379  0.3166
   41TMC2    C5  638   4.182   4.279  13.117 -0.0535 -0.6472  0.4478
   41TMC2    C6  639   4.067   4.284  13.044 -0.2903 -0.1380  0.3718
   41TMC2     C  640   4.070   4.165  13.440 -0.7345  0.3593 -0.3008
   41TMC2     O  641   4.180   4.169  13.491 -0.2837  0.2736 -0.4026
   41TMC2     H  642   3.860   4.229  13.299  0.4752 -0.7366  1.8580
   41TMC2    H1  643   4.275   4.250  13.301 -0.4076 -0.4319  0.7996
   41TMC2    H2  644   4.069   4.312  12.939 -0.4374 -0.6277  0.2376
   41TMC2    C7  645   4.302   4.318  13.051 -0.0805  0.4449 -0.3857
   41TMC2    C8  646   3.835   4.235  13.018  0.3289  0.0376 -0.3240
   41TMC2    O1  647   4.380   4.390  13.112 -0.1784  0.3907 -0.3544
   41TMC2    O2  648   3.839   4.265  12.899  0.2265 -0.4462 -0.3647
   41TMC2    O5  649   3.765   4.139  13.075  0.2515  1.2307  0.5050
   41TMC2    H5  650   3.780   4.128  13.171 -1.4538  1.6627  0.8171
   42MPD2     C  651   4.009   4.130  13.730 -0.5283 -0.2084 -0.1052
   42MPD2    C1  652   3.912   4.116  13.628 -0.0163 -0.1221  0.3584
   42MPD2    C2  653   3.782   4.093  13.668 -0.3498  0.3614 -0.0012
   42MPD2    C3  654   3.745   4.092  13.803  0.2699  0.2038  0.1101
   42MPD2    C4  655   3.844   4.098  13.896 -1.5281  0.1042  0.4663
   42MPD2    C5  656   3.974   4.131  13.863 -0.0419 -0.8687  0.4479
   42MPD2     H  657   3.706   4.087  13.591  0.3335  0.7663 -0.7018
   42MPD2    H1  658   3.827   4.093  14.003 -0.8700  0.8352  0.6096
   42MPD2    H2  659   4.112   4.154  13.707 -0.7431  0.0941 -0.7580
   42MPD2    H3  660   4.047   4.144  13.942  0.0278  0.5101  0.1663
   42MPD2     N  661   3.609   4.082  13.844 -0.3559 -0.1006  0.4212
   42MPD2    H5  662   3.581   4.100  13.939  0.9439 -0.4065  0.8643
   42MPD2    N1  663   3.942   4.148  13.492 -0.5861  0.1596  0.2927
   42MPD2    H7  664   3.864   4.143  13.428  0.1303  1.5424 -0.6835
   43TMC2    C1  665   0.467   2.051   0.696 -0.4223 -0.4426 -0.1030
   43TMC2    C2  666   0.386   1.956   0.756 -0.6808 -0.5189  0.6582
   43TMC2    C3  667   0.378   1.959   0.893 -0.4598 -0.8239  0.2655
   43TMC2    C4  668   0.558   2.128   0.767 -0.3974 -0.5617 -0.7490
   43TMC2    C5  669   0.557   2.111   0.908 -0.1509  0.6559 -0.3361
   43TMC2    C6  670   0.460   2.030   0.967 -0.3866 -0.4926 -0.1052
   43TMC2     C  671   0.450   2.086   0.547  0.7429 -0.3498 -0.6250
   43TMC2     O  672   0.391   2.004   0.480 -0.5176  1.0779  0.1015
   43TMC2     H  673   0.324   1.886   0.701 -0.8544  0.0364  0.1512
   43TMC2    H1  674   0.626   2.201   0.724  1.6800 -1.9827  0.0735
   43TMC2    H2  675   0.448   2.016   1.074 -2.3071 -2.0578 -0.5361
   43TMC2    C7  676   0.683   2.128   0.972  0.4246  0.8214 -0.0943
   43TMC2    C8  677   0.291   1.872   0.960  0.4341 -0.1620  0.2927
   43TMC2    O1  678   0.769   2.191   0.915 -0.0182  0.0829 -0.1575
   43TMC2    O2  679   0.333   1.782   1.030 -0.2118  0.0064 -0.1679
   43TMC2    O5  680   0.177   1.867   0.894  0.4093 -0.0376 -0.4577
   43TMC2    H5  681   0.155   1.947   0.842  2.5722  0.4614 -0.5881
   44MPD2     C  682   0.616   2.339   0.131 -0.3477  0.6561  0.0728
   44MPD2    C1  683   0.584   2.211   0.154  0.4640  1.2007 -0.7212
   44MPD2    C2  684   0.540   2.171   0.273  0.1400  1.0548  0.3012
   44MPD2    C3  685   0.543   2.252   0.383  0.4103 -0.6574 -1.3170
   44MPD2    C4  686   0.572   2.385   0.359 -0.3025 -0.1545  0.7008
   44MPD2    C5  687   0.620   2.424   0.238 -0.4749 -0.6904 -0.0679
   44MPD2     H  688   0.496   2.072   0.284 -0.8722  1.4045 -0.6344
   44MPD2    H1  689   0.566   2.454   0.442 -0.5378 -0.8240  1.2468
   44MPD2    H2  690   0.664   2.374   0.041 -1.9602  1.9719 -0.2687
   44MPD2    H3  691   0.654   2.526   0.225 -0.4225 -0.6978  0.0201
   44MPD2     N  692   0.499   2.211   0.513 -0.2553  0.6455  0.3011
   44MPD2    H5  693   0.513   2.275   0.590 -0.1612 -0.4188  1.1637
   44MPD2    N1  694   0.592   2.113   0.052  0.0273  0.0930  0.0302
   44MPD2    H7  695   0.561   2.022   0.082  0.0075 -0.0960 -0.5577
   45TMC2    C1  696   1.229   3.346  10.180 -0.0851  0.5049 -0.1284
   45TMC2    C2  697   1.320   3.261  10.229  0.0582 -0.3336  0.3214
   45TMC2    C3  698   1.433   3.316  10.279  1.1503  0.3744  0.1090
   45TMC2    C4  699   1.241   3.483  10.184 -0.0202 -1.1734 -0.1095
   45TMC2    C5  700   1.359   3.533  10.239 -0.9153  0.0885 -0.6960
   45TMC2    C6  701   1.459   3.454  10.282  0.2785  0.0916 -0.4585
   45TMC2     C  702   1.123   3.284  10.098  0.1840 -0.4192  0.7993
   45TMC2     O  703   1.121   3.160  10.097 -0.3054 -0.9390 -0.0211
   45TMC2     H  704   1.296   3.155  10.225  2.1932 -0.7541 -1.5211
   45TMC2    H1  705   1.166   3.553  10.149  0.3058 -1.7284 -1.9019
   45TMC2    H2  706   1.552   3.504  10.305  1.2571 -1.8190 -0.2495
   45TMC2    C7  707   1.374   3.678  10.259 -0.0401  0.0938  0.1862
   45TMC2    C8  708   1.535   3.218  10.304 -0.6975  0.2561 -0.3315
   45TMC2    O1  709   1.407   3.711  10.371  0.4515  0.3954 -0.4368
   45TMC2    O2  710   1.522   3.100  10.271  0.1194 -0.6336  0.3510
   45TMC2    O5  711   1.634   3.275  10.375  1.2381 -0.3167 -0.0877
   45TMC2    H5  712   1.615   3.357  10.425 -1.5047 -0.7342 -0.4246
   46MPD2     C  713   0.876   3.240   9.930 -0.1509 -0.2587  0.3093
   46MPD2    C1  714   0.930   3.363   9.955  0.0058  0.7376 -0.4070
   46MPD2    C2  715   0.875   3.479   9.890 -0.2609  0.5071 -0.1667
   46MPD2    C3  716   0.773   3.466   9.798 -0.1321  0.2443 -0.7310
   46MPD2    C4  717   0.720   3.343   9.778 -0.4289 -0.3389 -0.0437
   46MPD2    C5  718   0.770   3.231   9.841 -0.1542 -0.0475 -0.1362
   46MPD2     H  719   0.905   3.579   9.919 -0.2115  0.8699 -1.4762
   46MPD2    H1  720   0.632   3.333   9.714  0.1857  3.5324 -1.4781
   46MPD2    H2  721   0.905   3.144   9.970  1.3005  0.0106 -0.0859
   46MPD2    H3  722   0.715   3.141   9.819 -0.3384  0.5162 -2.0204
   46MPD2     N  723   0.727   3.585   9.733  0.2066 -0.2157 -0.1627
   46MPD2    H5  724   0.780   3.671   9.744  1.7480 -0.8706 -2.4956
   46MPD2    N1  725   1.045   3.379  10.035  0.0308  0.3303  0.6861
   46MPD2    H7  726   1.081   3.473  10.051 -0.0878  0.2650  1.3040
   47TMC2    C1  727   3.143   4.158   8.724  0.7174  0.0823 -0.2913
   47TMC2    C2  728   3.172   4.055   8.642  0.0031  0.1468 -0.2701
   47TMC2    C3  729   3.065   3.981   8.596  0.1945 -0.3465 -0.3854
   47TMC2    C4  730   3.012   4.190   8.768  0.0402  0.0125 -0.2607
   47TMC2    C5  731   2.912   4.112   8.719 -1.0415  0.0369 -0.0773
   47TMC2    C6  732   2.939   4.009   8.630 -0.1732 -0.2274 -0.5591
   47TMC2     C  733   3.254   4.233   8.780  0.1722 -0.4411  0.4571
   47TMC2     O  734   3.257   4.354   8.767  0.1029 -0.5653 -0.2129
   47TMC2     H  735   3.271   4.033   8.603 -1.0830 -3.4498 -0.9982
   47TMC2    H1  736   2.996   4.284   8.819  0.2416 -0.2939  0.3646
   47TMC2    H2  737   2.854   3.947   8.603 -0.1326  0.3121 -1.9054
   47TMC2    C7  738   2.782   4.118   8.785  0.5623  0.7177 -0.6930
   47TMC2    C8  739   3.091   3.867   8.516 -0.1790  0.5403  1.1176
   47TMC2    O1  740   2.693   4.058   8.729  0.3929  0.3110 -0.3955
   47TMC2    O2  741   3.180   3.860   8.436 -0.2984 -0.0660 -0.3439
   47TMC2    O5  742   3.056   3.772   8.606  0.1170  0.2865  0.7354
   47TMC2    H5  743   3.017   3.804   8.690 -1.6876 -0.6405  0.2385
   48MPD2     C  744   3.520   4.308   8.865 -0.9774  0.3014  0.6030
   48MPD2    C1  745   3.472   4.179   8.872 -0.3702 -0.1608 -0.6890
   48MPD2    C2  746   3.545   4.077   8.929  0.1743  0.3952 -0.1556
   48MPD2    C3  747   3.670   4.102   8.973  0.3757 -0.0711  0.0937
   48MPD2    C4  748   3.725   4.228   8.963  0.4411 -0.5001 -0.3873
   48MPD2    C5  749   3.647   4.329   8.907  0.3521  0.4730 -0.3518
   48MPD2     H  750   3.511   3.974   8.927 -2.7756  1.3387  0.1134
   48MPD2    H1  751   3.822   4.256   9.003  0.0039  0.1528  0.2021
   48MPD2    H2  752   3.476   4.392   8.813 -1.8867 -0.4422  0.1789
   48MPD2    H3  753   3.692   4.427   8.892  0.0473  0.6479 -0.1321
   48MPD2     N  754   3.742   3.992   9.027 -0.1720  0.9095 -0.1547
   48MPD2    H5  755   3.700   3.900   9.018 -1.8840  1.6212  0.3880
   48MPD2    N1  756   3.342   4.144   8.830  0.6361  0.0154 -0.2539
   48MPD2    H7  757   3.309   4.049   8.842 -1.6052  0.7162 -0.7932
   49TMC2    C1  758   2.373   1.796   9.808  0.1545 -1.4023 -0.3643
   49TMC2    C2  759   2.399   1.889   9.709 -0.2800 -0.8968  0.3413
   49TMC2    C3  760   2.340   1.878   9.588  0.7327 -0.1139 -0.6713
   49TMC2    C4  761   2.305   1.681   9.784  0.2072 -0.2076 -0.3470
   49TMC2    C5  762   2.261   1.667   9.654  0.5753 -0.3038  0.0020
   49TMC2    C6  763   2.262   1.766   9.559  0.1073  0.0120 -0.0987
   49TMC2     C  764   2.419   1.833   9.944  0.1990  0.7324 -0.1166
   49TMC2     O  765   2.473   1.942   9.959 -0.3992  0.0009  0.1740
   49TMC2     H  766   2.451   1.979   9.738 -0.9304 -1.2990  2.7536
   49TMC2    H1  767   2.311   1.599   9.855 -2.2103  0.0221  0.1308
   49TMC2    H2  768   2.201   1.751   9.471  0.7643  0.3327 -0.6161
   49TMC2    C7  769   2.209   1.538   9.608  0.1200 -0.0625  0.3807
   49TMC2    C8  770   2.343   1.986   9.495 -0.2831  0.1052 -0.0710
   49TMC2    O1  771   2.175   1.532   9.491  0.5603 -0.4634 -0.6091
   49TMC2    O2  772   2.439   2.061   9.479  0.1323 -0.5288  0.2102
   49TMC2    O5  773   2.256   1.961   9.397 -0.6031  0.4667  0.4351
   49TMC2    H5  774   2.170   1.931   9.433 -0.2810  0.0811  0.8786
   50MPD2     C  775   2.507   1.827  10.225  0.8243 -0.4958 -0.0994
   50MPD2    C1  776   2.386   1.783  10.177  0.2392 -0.9643  0.4671
   50MPD2    C2  777   2.289   1.746  10.267  0.4393  0.0340 -0.2446
   50MPD2    C3  778   2.299   1.760  10.405 -0.0236  0.9438  0.0206
   50MPD2    C4  779   2.414   1.813  10.449  0.2584  0.1033 -0.3518
   50MPD2    C5  780   2.513   1.844  10.359 -0.2513 -0.7849  0.2535
   50MPD2     H  781   2.193   1.731  10.220  0.8305 -0.4484 -0.9031
   50MPD2    H1  782   2.424   1.830  10.555 -3.8370 -0.0463  0.0523
   50MPD2    H2  783   2.599   1.843  10.170  1.6863 -1.1279  1.1505
   50MPD2    H3  784   2.611   1.870  10.396 -1.6898  2.9447  1.5641
   50MPD2     N  785   2.192   1.747  10.499 -0.5507  0.3629  0.3881
   50MPD2    H5  786   2.214   1.775  10.595 -1.5227 -1.8278  1.2368
   50MPD2    N1  787   2.356   1.761  10.044  0.0498  0.2258 -0.4462
   50MPD2    H7  788   2.272   1.708  10.022 -0.1286  0.4472 -0.3018
   51TMC2    C1  789   3.615   4.640   1.426 -0.9240 -0.1857  0.0170
   51TMC2    C2  790   3.706   4.633   1.524 -0.5416 -0.3192 -0.5479
   51TMC2    C3  791   3.721   0.008   1.605  0.7243 -0.0219  0.0162
   51TMC2    C4  792   3.533   0.013   1.403 -0.1152 -0.1029  0.1162
   51TMC2    C5  793   3.546   0.119   1.493  0.1304 -0.4456 -0.2195
   51TMC2    C6  794   3.643   0.123   1.590 -0.1883 -0.7532 -0.4201
   51TMC2     C  795   3.596   4.538   1.327 -0.5516  0.1232 -0.1726
   51TMC2     O  796   3.548   4.578   1.223 -0.4466  0.1112  0.7265
   51TMC2     H  797   3.777   4.552   1.540 -1.5092 -1.3095 -1.3259
   51TMC2    H1  798   3.452   0.010   1.331 -0.5981 -1.6672  0.7298
   51TMC2    H2  799   3.659   0.212   1.649  1.1628  0.1494 -2.1283
   51TMC2    C7  800   3.444   0.219   1.491  0.7051 -0.2910 -0.2808
   51TMC2    C8  801   3.840   0.013   1.696  0.2744 -0.3084 -0.2147
   51TMC2    O1  802   3.339   0.192   1.431 -0.2488  0.0784  0.1024
   51TMC2    O2  803   3.949   4.700   1.676 -0.3168  0.4783  0.0875
   51TMC2    O5  804   3.790   0.050   1.815  0.6686 -0.0198  0.0070
   51TMC2    H5  805   3.692   0.040   1.810  0.5517  1.0907  0.2237
   52MPD2     C  806   3.693   4.070   1.156  0.2217 -0.1907  0.7173
   52MPD2    C1  807   3.619   4.166   1.097 -0.5922 -0.2268  0.1434
   52MPD2    C2  808   3.606   4.287   1.163 -0.6569  0.3479  0.4995
   52MPD2    C3  809   3.658   4.301   1.294  0.1878  0.2894 -0.2035
   52MPD2    C4  810   3.726   4.200   1.351 -0.6405 -0.3728 -0.2271
   52MPD2    C5  811   3.743   4.088   1.282  0.2100  0.3521 -0.5714
   52MPD2     H  812   3.539   4.358   1.117 -0.3195  0.2561 -0.1375
   52MPD2    H1  813   3.745   4.191   1.457  0.2491  1.0979 -0.2668
   52MPD2    H2  814   3.705   3.974   1.106  0.9006  1.1434 -1.6912
   52MPD2    H3  815   3.799   4.008   1.330 -0.3626  0.7997  0.8545
   52MPD2     N  816   3.649   4.418   1.371  0.8170 -0.1459  0.1122
   52MPD2    H5  817   3.672   4.409   1.470 -2.6786  1.6917  1.0947
   52MPD2    N1  818   3.576   4.153   0.961  0.3447 -0.1790 -0.3009
   52MPD2    H7  819   3.534   4.235   0.918  0.9780  0.1009 -0.3821
   53TMC2    C1  820   2.208   4.148  10.692 -0.4425 -0.0379  0.5060
   53TMC2    C2  821   2.154   4.231  10.599 -0.6893  0.1051  0.4498
   53TMC2    C3  822   2.090   4.350  10.645 -0.1644  0.5104  0.3234
   53TMC2    C4  823   2.196   4.177  10.822  0.0591 -0.1575  0.4787
   53TMC2    C5  824   2.134   4.289  10.861  0.6613 -0.0668  0.2956
   53TMC2    C6  825   2.073   4.377  10.780 -0.3847 -0.2845  0.3143
   53TMC2     C  826   2.335   4.087  10.660 -0.1137 -0.0613 -0.1598
   53TMC2     O  827   2.404   4.122  10.567  0.5308 -0.0239  0.9929
   53TMC2     H  828   2.165   4.218  10.492  1.3003  0.5197  0.6091
   53TMC2    H1  829   2.265   4.134  10.895  1.6890  0.9701 -0.4041
   53TMC2    H2  830   2.033   4.466  10.826  0.1276  0.2218 -0.2298
   53TMC2    C7  831   2.099   4.300  11.003 -0.2095 -0.3163 -0.1936
   53TMC2    C8  832   2.001   4.418  10.553 -0.7156 -0.4237 -0.2249
   53TMC2    O1  833   2.071   4.412  11.043 -0.3454 -0.1789  0.3219
   53TMC2    O2  834   2.023   4.418  10.434 -0.6843  0.0210  0.2632
   53TMC2    O5  835   1.909   4.483  10.628 -0.1158  0.2275  0.1066
   53TMC2    H5  836   1.897   4.444  10.717 -0.1258  1.5432  0.6806
   54MPD2     C  837   2.545   3.877  10.670 -0.0409  0.3867  0.2269
   54MPD2    C1  838   2.436   3.890  10.755  0.0157 -0.6415 -0.0935
   54MPD2    C2  839   2.436   3.811  10.867  0.0287  1.0874  0.2903
   54MPD2    C3  840   2.531   3.709  10.886  0.9722 -0.0318 -0.6547
   54MPD2    C4  841   2.647   3.710  10.811 -0.3162 -0.3708 -0.0583
   54MPD2    C5  842   2.647   3.791  10.701 -0.3382 -0.8495  0.3653
   54MPD2     H  843   2.349   3.813  10.933 -0.5391  2.2985 -0.5018
   54MPD2    H1  844   2.729   3.640  10.821  3.6135  3.9724 -1.8096
   54MPD2    H2  845   2.555   3.950  10.591 -1.0019  0.0265 -0.2184
   54MPD2    H3  846   2.730   3.785  10.631  0.2176 -0.1829  0.9611
   54MPD2     N  847   2.542   3.639  11.012 -0.7309  0.0254 -0.5192
   54MPD2    H5  848   2.628   3.603  11.052 -0.9866 -0.5034 -0.4313
   54MPD2    N1  849   2.341   3.984  10.745 -0.6493  0.0860 -0.2153
   54MPD2    H7  850   2.262   3.966  10.805 -0.2224 -1.1201 -0.0053
   55TMC2    C1  851   3.512   1.922  17.437 -0.3031  0.3761  0.4718
   55TMC2    C2  852   3.573   1.904  17.314  0.3662 -0.5748 -0.6629
   55TMC2    C3  853   3.606   1.778  17.274 -0.1075  0.8158 -0.2564
   55TMC2    C4  854   3.484   1.822  17.525  0.6638 -1.1626  0.4371
   55TMC2    C5  855   3.517   1.695  17.475  0.3355  0.6068 -0.2500
   55TMC2    C6  856   3.577   1.669  17.355  0.4027 -0.2806 -0.2305
   55TMC2     C  857   3.451   2.051  17.465 -0.3997  0.0470  0.1177
   55TMC2     O  858   3.364   2.051  17.551  0.4963  0.2196  0.0604
   55TMC2     H  859   3.602   1.987  17.250  1.7003  1.5416  2.6819
   55TMC2    H1  860   3.445   1.851  17.622 -0.9305 -1.2206 -0.1746
   55TMC2    H2  861   3.596   1.566  17.327  0.0900  0.1344 -2.0180
   55TMC2    C7  862   3.489   1.584  17.561  0.5570 -0.3069  0.2945
   55TMC2    C8  863   3.702   1.775  17.161 -0.2951  0.3005  0.3771
   55TMC2    O1  864   3.532   1.474  17.532 -0.3297  0.5165 -0.4983
   55TMC2    O2  865   3.766   1.868  17.115  0.3501  0.2431 -0.1467
   55TMC2    O5  866   3.662   1.667  17.091  0.2209 -0.3725  0.0626
   55TMC2    H5  867   3.579   1.623  17.121  0.5413 -0.1319  1.3134
   56MPD2     C  868   3.489   2.372  17.282  0.4906  0.1802  0.3710
   56MPD2    C1  869   3.436   2.284  17.376  0.0542  0.3006  0.2282
   56MPD2    C2  870   3.356   2.337  17.474 -0.6141  0.5091 -0.9530
   56MPD2    C3  871   3.313   2.471  17.466  0.4956  0.1790 -0.6365
   56MPD2    C4  872   3.351   2.547  17.354  0.5103 -0.7050  0.4094
   56MPD2    C5  873   3.440   2.493  17.264 -0.3076 -0.4664  0.0725
   56MPD2     H  874   3.322   2.270  17.553 -2.1318  3.4584  0.8916
   56MPD2    H1  875   3.319   2.650  17.348  0.0596 -0.8125  1.0508
   56MPD2    H2  876   3.556   2.339  17.203  2.1954 -0.8451  2.2744
   56MPD2    H3  877   3.473   2.560  17.185  1.1793 -0.2413  0.8887
   56MPD2     N  878   3.220   2.527  17.549 -0.0306  0.1657  0.0907
   56MPD2    H5  879   3.181   2.617  17.521 -0.6080 -0.0546  0.1708
   56MPD2    N1  880   3.475   2.146  17.366  0.1162  0.0970  0.5928
   56MPD2    H7  881   3.549   2.119  17.301 -0.6874 -2.5647  0.7808
   57TMC2    C1  882   2.998   2.974  13.370 -0.7887 -1.1617 -0.2593
   57TMC2    C2  883   2.974   2.875  13.461 -0.3618  0.6134 -0.5152
   57TMC2    C3  884   3.043   2.759  13.446 -0.6947  0.4812 -0.4241
   57TMC2    C4  885   3.068   2.957  13.251  0.0788  0.3876  0.2729
   57TMC2    C5  886   3.117   2.824  13.234  0.1083 -0.4724  0.5100
   57TMC2    C6  887   3.108   2.731  13.332 -0.1090  0.0443  0.0473
   57TMC2     C  888   2.900   3.081  13.362 -0.0217 -1.1651 -0.1316
   57TMC2     O  889   2.870   3.108  13.247 -0.2106  0.0216  0.0349
   57TMC2     H  890   2.929   2.882  13.560  0.0787  1.7980 -0.4037
   57TMC2    H1  891   3.072   3.033  13.174 -1.3291 -0.9420 -1.1213
   57TMC2    H2  892   3.136   2.627  13.319  0.8403  0.3118 -0.0522
   57TMC2    C7  893   3.172   2.806  13.101 -0.2319  0.9859  0.2151
   57TMC2    C8  894   3.092   2.683  13.558  0.2549 -0.6869  0.7284
   57TMC2    O1  895   3.196   2.909  13.036  0.6036 -0.4154 -0.7404
   57TMC2    O2  896   3.202   2.625  13.549 -0.0827 -0.3178  0.0872
   57TMC2    O5  897   3.010   2.694  13.661 -0.5827  0.7333 -0.5911
   57TMC2    H5  898   2.919   2.717  13.630 -0.4221  1.5790 -0.4257
   58MPD2     C  899   2.491   3.314  13.563 -0.2445 -0.5921 -0.1142
   58MPD2    C1  900   2.521   3.278  13.435  0.2568  0.2766 -0.1107
   58MPD2    C2  901   2.642   3.216  13.407  0.2826  0.3970 -0.5867
   58MPD2    C3  902   2.730   3.188  13.507 -0.4091 -0.5219 -0.1435
   58MPD2    C4  903   2.700   3.227  13.642 -0.0320 -0.2258  0.3534
   58MPD2    C5  904   2.579   3.296  13.663 -0.1419 -0.4396 -0.0451
   58MPD2     H  905   2.651   3.179  13.305 -0.5345 -1.2253 -0.0733
   58MPD2    H1  906   2.770   3.212  13.723  2.4152  1.6125 -1.4350
   58MPD2    H2  907   2.398   3.364  13.585  0.3466  0.4969 -0.0655
   58MPD2    H3  908   2.567   3.338  13.762 -0.4747  0.7932 -0.6125
   58MPD2     N  909   2.846   3.108  13.491  0.2515  0.2835  0.6182
   58MPD2    H5  910   2.895   3.074  13.573  0.0024  0.8827  1.0127
   58MPD2    N1  911   2.430   3.298  13.323  0.1313  0.1581  0.3783
   58MPD2    H7  912   2.466   3.262  13.235 -1.0020  0.1879 -0.0978
   59TMC2    C1  913   0.102   2.971  12.576 -0.1448 -0.1440 -0.4218
   59TMC2    C2  914   0.053   2.847  12.608 -0.1949  0.1925  0.5242
   59TMC2    C3  915   0.010   2.768  12.501  0.3248  0.3341 -0.1582
   59TMC2    C4  916   0.108   3.014  12.442 -0.0426  0.5143  0.4240
   59TMC2    C5  917   0.060   2.927  12.345 -0.0924  0.0896  0.1530
   59TMC2    C6  918   4.734   2.806  12.370 -0.1880 -0.0073  0.0076
   59TMC2     C  919   0.176   3.035  12.681 -0.5885 -0.2533  0.3142
   59TMC2     O  920   0.220   2.972  12.780  0.3247 -0.1487  0.0241
   59TMC2     H  921   0.073   2.799  12.703 -1.0917 -1.7081 -0.2506
   59TMC2    H1  922   0.141   3.117  12.431 -0.5061  0.6227  0.0517
   59TMC2    H2  923   4.698   2.735  12.297  0.1386 -0.6001  0.4215
   59TMC2    C7  924   0.088   2.937  12.201  0.4772 -0.1282  0.3121
   59TMC2    C8  925   4.678   2.641  12.527  0.1260  0.5220 -0.3556
   59TMC2    O1  926   0.060   2.833  12.142 -0.6115 -0.0241  0.3032
   59TMC2    O2  927   4.724   2.549  12.593 -0.5508 -0.2936 -0.8690
   59TMC2    O5  928   4.546   2.663  12.506  0.2553 -0.4075  0.4377
   59TMC2    H5  929   4.524   2.746  12.457 -3.2705 -0.4590  1.9579
   60MPD2     C  930   0.252   3.394  12.707  0.8908 -0.0224  0.1361
   60MPD2    C1  931   0.278   3.258  12.730  0.0173 -0.1887 -0.4724
   60MPD2    C2  932   0.359   3.219  12.834  0.4753  0.0590 -0.1270
   60MPD2    C3  933   0.434   3.322  12.898 -0.0783  0.1126 -0.7074
   60MPD2    C4  934   0.416   3.459  12.858  0.0288 -0.3133 -0.3486
   60MPD2    C5  935   0.319   3.493  12.763 -0.1752  0.4426 -0.1920
   60MPD2     H  936   0.371   3.113  12.853 -0.4036  0.4118  2.3895
   60MPD2    H1  937   0.476   3.537  12.903  0.7539 -0.4127 -1.1342
   60MPD2    H2  938   0.163   3.414  12.648 -0.1915 -0.4650  1.6244
   60MPD2    H3  939   0.312   3.596  12.732  1.5961  0.9443  1.0281
   60MPD2     N  940   0.522   3.288  13.002 -0.4761  0.4581 -0.1794
   60MPD2    H5  941   0.528   3.190  13.027 -0.1007  0.4748 -0.2076
   60MPD2    N1  942   0.198   3.165  12.653  0.5159  0.4514  0.0419
   60MPD2    H7  943   0.156   3.200  12.568 -0.4077  0.0457  0.3265
   61TMC2    C1  944   4.089   4.258  15.579  0.6840 -0.2876  0.2878
   61TMC2    C2  945   4.211   4.268  15.636  0.6263 -0.5060  0.8180
   61TMC2    C3  946   4.256   4.391  15.670  0.7605 -0.4884 -0.8251
   61TMC2    C4  947   4.008   4.367  15.560 -0.8941 -0.2861 -0.2275
   61TMC2    C5  948   4.057   4.495  15.590 -0.7733  0.1031 -0.3706
   61TMC2    C6  949   4.183   4.505  15.642 -0.4989 -0.2100  0.5427
   61TMC2     C  950   4.075   4.152  15.481  0.7627 -0.3626  0.3814
   61TMC2     O  951   4.135   4.045  15.491  0.3062  0.5502  0.0665
   61TMC2     H  952   4.271   4.178  15.626 -2.1480 -2.1892 -0.6883
   61TMC2    H1  953   3.908   4.355  15.519 -1.5276  0.2032  1.1861
   61TMC2    H2  954   4.225   4.602  15.667  3.5322 -1.8021 -0.0846
   61TMC2    C7  955   4.042   4.588  15.482  0.2855  0.0251 -0.4714
   61TMC2    C8  956   4.392   4.407  15.727  0.6480  0.0990 -0.2634
   61TMC2    O1  957   4.142   4.657  15.466  0.2409 -0.7973 -0.1813
   61TMC2    O2  958   4.455   4.505  15.695 -0.3014  0.6351  0.1331
   61TMC2    O5  959   4.386   4.352  15.851 -0.4359 -0.5180  0.3228
   61TMC2    H5  960   4.310   4.291  15.858 -0.0564 -0.9059  1.0063
   62MPD2     C  961   4.062   4.025  15.192 -0.2819 -0.2458  0.3742
   62MPD2    C1  962   4.044   4.159  15.229  0.1256  0.1385 -0.4753
   62MPD2    C2  963   4.012   4.248  15.123 -0.5831  0.1931 -0.2255
   62MPD2    C3  964   3.993   4.210  14.991  0.0530  0.0742  0.6853
   62MPD2    C4  965   4.010   4.077  14.961 -0.4199  0.2903 -0.0256
   62MPD2    C5  966   4.043   3.989  15.061  0.1870 -0.4087 -0.2927
   62MPD2     H  967   3.998   4.355  15.140 -0.0099  0.3108 -0.5076
   62MPD2    H1  968   3.985   4.036  14.864 -0.8837  0.1830  0.1427
   62MPD2    H2  969   4.083   3.949  15.266  0.1674  0.5538  1.0617
   62MPD2    H3  970   4.060   3.886  15.034  0.8435  0.2475 -2.3956
   62MPD2     N  971   3.982   4.321  14.899  0.4055  0.0018  0.6873
   62MPD2    H5  972   4.010   4.409  14.940  0.0240  0.9725 -1.1634
   62MPD2    N1  973   4.045   4.212  15.358  0.0874  0.0101  0.0379
   62MPD2    H7  974   4.032   4.313  15.367  2.0737  0.1881  0.8642
   63TMC2    C1  975   3.526   4.343  10.189  0.7733 -0.0389 -0.1578
   63TMC2    C2  976   3.611   4.323  10.292  0.1758 -0.1457 -0.1103
   63TMC2    C3  977   3.648   4.437  10.359  0.2864 -0.1561  0.5058
   63TMC2    C4  978   3.467   4.458  10.157  0.3906  0.1689  0.1476
   63TMC2    C5  979   3.500   4.568  10.229 -0.0858  0.1249  0.1305
   63TMC2    C6  980   3.586   4.558  10.327  0.2988 -0.5275 -0.1681
   63TMC2     C  981   3.502   4.235  10.092  0.2379 -0.2991  0.0558
   63TMC2     O  982   3.493   4.269   9.973  0.2945 -0.0059  0.1865
   63TMC2     H  983   3.659   4.230  10.322 -2.2312 -2.1127 -2.3947
   63TMC2    H1  984   3.396   4.458  10.075 -0.1531 -0.6785  0.6216
   63TMC2    H2  985   3.622   4.639  10.389 -4.0681  0.6292  0.8197
   63TMC2    C7  986   3.525   4.679  10.136 -0.2816  0.9360 -0.0088
   63TMC2    C8  987   3.739   4.446  10.470  0.5908 -0.0996 -0.0495
   63TMC2    O1  988   3.517   4.648  10.015  0.3768 -1.2121 -0.1365
   63TMC2    O2  989   3.793   4.551  10.512 -0.2204  0.6843 -0.1357
   63TMC2    O5  990   3.736   4.333  10.545 -0.1030  0.2959 -0.0520
   63TMC2    H5  991   3.679   4.260  10.510  0.4843 -1.2669  2.2187
   64MPD2     C  992   3.361   3.781   9.950 -0.2578  0.0753 -0.1179
   64MPD2    C1  993   3.360   3.779  10.090  0.2201 -0.5975  0.1971
   64MPD2    C2  994   3.414   3.891  10.156  0.2860  0.0823 -0.1545
   64MPD2    C3  995   3.452   3.997  10.075 -0.4622  0.5944 -0.8614
   64MPD2    C4  996   3.449   3.997   9.935  0.5023 -0.3768  0.8268
   64MPD2    C5  997   3.400   3.886   9.878 -0.1087 -0.2391  0.1622
   64MPD2     H  998   3.420   3.903  10.264 -1.0396  0.4272 -0.1096
   64MPD2    H1  999   3.478   4.071   9.862  0.8657  0.9119  2.2651
   64MPD2    H2 1000   3.329   3.688   9.905 -1.0949  0.2815  0.0538
   64MPD2    H3 1001   3.400   3.879   9.770 -0.8735 -1.5439  0.2487
   64MPD2     N 1002   3.496   4.113  10.148 -0.7247  0.2962  0.4492
   64MPD2    H5 1003   3.495   4.127  10.249 -1.8700  0.8384  0.3595
   64MPD2    N1 1004   3.328   3.665  10.164  0.0981  0.4863 -0.1339
   64MPD2    H7 1005   3.349   3.672  10.263 -0.3246  2.9567 -0.2228
   65TMC2    C1 1006   0.364   3.850  15.150  0.5434 -0.0466  1.1164
   65TMC2    C2 1007   0.407   3.827  15.025  0.2837 -0.4853 -1.3640
   65TMC2    C3 1008   0.450   3.931  14.954  0.8008 -0.0999 -0.0220
   65TMC2    C4 1009   0.354   3.974  15.200 -0.5926  0.6902  0.6039
   65TMC2    C5 1010   0.406   4.078  15.128 -0.2471 -0.1977 -0.4729
   65TMC2    C6 1011   0.464   4.057  15.007 -0.4745  0.0536 -0.2974
   65TMC2     C 1012   0.334   3.745  15.244  1.4422  0.0310 -0.1488
   65TMC2     O 1013   0.299   3.780  15.357  0.8622 -0.3781  0.1162
   65TMC2     H 1014   0.411   3.733  14.971  1.6556 -1.2862  0.0980
   65TMC2    H1 1015   0.333   3.997  15.304  0.0810  0.6071  0.7600
   65TMC2    H2 1016   0.504   4.137  14.945  0.1286 -0.3249 -0.3941
   65TMC2    C7 1017   0.378   4.217  15.160 -0.1355 -0.2850  0.4613
   65TMC2    C8 1018   0.528   3.902  14.835  0.2812 -0.1230  0.3733
   65TMC2    O1 1019   0.371   4.289  15.057 -0.7832 -0.0556  0.3858
   65TMC2    O2 1020   0.597   3.802  14.818  0.3769 -0.2178 -0.3611
   65TMC2    O5 1021   0.509   4.001  14.746  0.4236 -0.1392 -0.2697
   65TMC2    H5 1022   0.439   4.064  14.776  1.4059  0.6333  0.3644
   66MPD2     C 1023   0.300   3.499  15.394  0.1314  0.5750  0.1095
   66MPD2    C1 1024   0.353   3.500  15.268 -0.7614  0.3118 -0.0886
   66MPD2    C2 1025   0.386   3.382  15.200  0.0107  0.6804 -0.2907
   66MPD2    C3 1026   0.383   3.263  15.273  0.1719  0.0236  0.2259
   66MPD2    C4 1027   0.329   3.267  15.395 -0.0580 -1.0538  0.6132
   66MPD2    C5 1028   0.284   3.382  15.454 -0.2523  0.7124  0.3931
   66MPD2     H 1029   0.419   3.376  15.097  0.5567 -1.3212 -0.0031
   66MPD2    H1 1030   0.306   3.173  15.442 -2.1981 -1.1957 -0.7625
   66MPD2    H2 1031   0.265   3.587  15.447  1.3098  1.7229 -1.0445
   66MPD2    H3 1032   0.232   3.378  15.549 -0.1733  0.0561  0.4091
   66MPD2     N 1033   0.419   3.142  15.219 -0.1674  0.3111 -0.6337
   66MPD2    H5 1034   0.392   3.065  15.280  1.9389  0.7763  0.8725
   66MPD2    N1 1035   0.370   3.622  15.200 -0.3874 -0.3378 -0.2369
   66MPD2    H7 1036   0.402   3.627  15.104  3.3055  0.0287  0.9883
   67TMC2    C1 1037   0.560   3.065  14.178  0.6151 -0.5011  0.5018
   67TMC2    C2 1038   0.495   3.188  14.217  0.3557 -0.1376  0.3729
   67TMC2    C3 1039   0.549   3.254  14.325  0.0117  0.8718 -0.3566
   67TMC2    C4 1040   0.682   3.041  14.235 -0.0959 -0.4446 -0.3665
   67TMC2    C5 1041   0.733   3.112  14.346  0.0623 -0.2330  0.2662
   67TMC2    C6 1042   0.667   3.224  14.388 -0.2499 -0.0546 -0.1943
   67TMC2     C 1043   0.514   2.990  14.067  0.9421 -0.2328 -1.0540
   67TMC2     O 1044   0.579   2.885  14.040  0.0012 -0.5870  0.3857
   67TMC2     H 1045   0.420   3.229  14.151  0.6144  0.9951  0.7825
   67TMC2    H1 1046   0.752   2.967  14.197 -0.2620 -0.0858 -1.3772
   67TMC2    H2 1047   0.678   3.279  14.480  2.3944  0.1622 -0.6395
   67TMC2    C7 1048   0.825   3.043  14.435 -0.2859  0.0317 -0.4785
   67TMC2    C8 1049   0.500   3.381  14.361 -0.5552 -0.6502  0.7615
   67TMC2    O1 1050   0.907   2.972  14.384 -0.4221  0.0973  0.4001
   67TMC2    O2 1051   0.567   3.453  14.433 -0.1481 -0.0607 -0.5565
   67TMC2    O5 1052   0.379   3.410  14.309  0.2832  0.2452  0.3213
   67TMC2    H5 1053   0.334   3.327  14.282 -1.5327  1.7228 -1.2280
   68MPD2     C 1054   0.387   2.911  13.814 -0.4295  0.1585 -0.2093
   68MPD2    C1 1055   0.317   2.972  13.917  0.4438  0.1049 -1.1076
   68MPD2    C2 1056   0.179   2.994  13.906  0.7456  0.0725  0.1355
   68MPD2    C3 1057   0.109   2.936  13.800 -0.3043 -0.5661 -0.1906
   68MPD2    C4 1058   0.191   2.885  13.697 -0.2434  0.1191  0.4991
   68MPD2    C5 1059   0.325   2.878  13.699  0.3295  0.1282 -0.2235
   68MPD2     H 1060   0.123   3.057  13.974 -0.6992 -0.9646 -0.1013
   68MPD2    H1 1061   0.144   2.844  13.609  1.3709  0.0579 -0.3346
   68MPD2    H2 1062   0.496   2.908  13.819 -0.4409 -0.5861 -0.5319
   68MPD2    H3 1063   0.376   2.838  13.611  1.1021 -2.2669  1.3031
   68MPD2     N 1064   4.699   2.941  13.783 -0.0162 -0.6634  0.2155
   68MPD2    H5 1065   4.665   2.902  13.696 -0.2544 -2.3729  1.0694
   68MPD2    N1 1066   0.380   3.025  14.035  0.0226  0.1384  0.4389
   68MPD2    H7 1067   0.320   3.076  14.098  2.0701  1.5555  1.2341
   69TMC2    C1 1068   2.437   4.177  12.060 -0.2515 -0.0756 -0.3142
   69TMC2    C2 1069   2.359   4.291  12.048 -0.8010  0.4339  0.6208
   69TMC2    C3 1070   2.330   4.333  11.923  0.8364  0.0883  0.8238
   69TMC2    C4 1071   2.481   4.095  11.959 -0.8368 -0.7728  0.0289
   69TMC2    C5 1072   2.435   4.132  11.835 -0.4635  0.2298 -0.4197
   69TMC2    C6 1073   2.363   4.247  11.817  0.0731  0.9755  0.2050
   69TMC2     C 1074   2.443   4.115  12.189  0.2681 -0.2616  0.4614
   69TMC2     O 1075   2.358   4.159  12.263 -0.1143 -0.0517 -0.4156
   69TMC2     H 1076   2.333   4.355  12.132 -3.8194 -2.2785  1.7718
   69TMC2    H1 1077   2.530   3.999  11.971  0.1048 -0.4257 -1.0497
   69TMC2    H2 1078   2.329   4.268  11.716  0.2516 -2.9629 -0.6487
   69TMC2    C7 1079   2.488   4.057  11.721 -0.0899 -0.5260  0.3301
   69TMC2    C8 1080   2.227   4.442  11.915 -0.5540 -0.0685  0.0484
   69TMC2    O1 1081   2.586   3.989  11.738 -0.8226  0.0485 -0.3010
   69TMC2    O2 1082   2.139   4.449  12.000 -0.1574  0.4347  0.1885
   69TMC2    O5 1083   2.204   4.479  11.790  0.1358 -0.0757 -0.3442
   69TMC2    H5 1084   2.274   4.459  11.725  0.4335  0.8792 -0.3123
   70MPD2     C 1085   2.733   3.941  12.346 -0.0750  0.1166  0.0216
   70MPD2    C1 1086   2.604   3.996  12.339  0.0874  0.6281 -0.5797
   70MPD2    C2 1087   2.526   4.002  12.457 -0.0575  0.8048 -0.2079
   70MPD2    C3 1088   2.583   3.962  12.580  0.2844  0.4110 -0.0781
   70MPD2    C4 1089   2.706   3.911  12.581 -0.3645 -0.4014  0.2158
   70MPD2    C5 1090   2.783   3.904  12.468 -0.9121 -0.7878  0.0049
   70MPD2     H 1091   2.423   4.035  12.447 -0.8467 -1.4855  0.2684
   70MPD2    H1 1092   2.743   3.874  12.676  0.4712 -2.2676 -0.8425
   70MPD2    H2 1093   2.791   3.937  12.254  0.4612  0.6842  0.3319
   70MPD2    H3 1094   2.876   3.850  12.481  0.1156  1.3927  1.8450
   70MPD2     N 1095   2.515   3.989  12.703  0.4095  0.2661 -0.1455
   70MPD2    H5 1096   2.568   3.964  12.786 -0.0885 -1.2478 -0.2838
   70MPD2    N1 1097   2.557   4.040  12.211  0.5314 -0.3383 -0.0680
   70MPD2    H7 1098   2.614   4.029  12.128  1.3211  4.7822 -0.2186
   71TMC2    C1 1099   0.089   4.167   1.341 -0.8538 -0.0919  0.8424
   71TMC2    C2 1100   0.149   4.171   1.470 -0.0250  0.4227 -0.1444
   71TMC2    C3 1101   0.098   4.098   1.568 -0.5678  0.8316  0.1717
   71TMC2    C4 1102   4.705   4.096   1.316 -0.0119 -0.4444 -0.2943
   71TMC2    C5 1103   4.649   4.033   1.429 -0.4126  0.2415 -0.1794
   71TMC2    C6 1104   4.712   4.032   1.557  0.7571  0.3938  0.2122
   71TMC2     C 1105   0.137   4.248   1.230  0.4349  0.1100 -0.0017
   71TMC2     O 1106   0.070   4.275   1.138 -0.1237  0.2301  0.4619
   71TMC2     H 1107   0.232   4.238   1.487 -0.6551  1.1334  0.1834
   71TMC2    H1 1108   4.659   4.083   1.219 -1.7359 -0.3267  0.5103
   71TMC2    H2 1109   4.669   3.989   1.647  0.1633  0.4435 -0.0483
   71TMC2    C7 1110   4.517   3.974   1.423  0.0297  0.2998 -0.2185
   71TMC2    C8 1111   0.150   4.132   1.702 -0.2672 -0.8305 -0.0031
   71TMC2    O1 1112   4.500   3.863   1.472  0.1436  0.2986  0.0514
   71TMC2    O2 1113   0.211   4.239   1.717  0.7505 -0.2883  1.1121
   71TMC2    O5 1114   0.198   4.016   1.743  0.3486  0.3696  0.5631
   71TMC2    H5 1115   0.144   3.941   1.709 -0.2275  1.5622 -1.1533
   72MPD2     C 1116   0.484   4.512   0.961 -0.3946 -0.6545 -0.1317
   72MPD2    C1 1117   0.349   4.515   0.966  0.3155 -0.1812  0.0506
   72MPD2    C2 1118   0.285   4.428   1.055 -0.6250 -0.2126  0.5721
   72MPD2    C3 1119   0.349   4.349   1.145 -0.3747  0.0025  0.0277
   72MPD2    C4 1120   0.483   4.364   1.154  0.0468 -1.0373  0.4023
   72MPD2    C5 1121   0.552   4.439   1.057 -0.1119 -0.1349 -0.6351
   72MPD2     H 1122   0.177   4.440   1.059 -0.5465  0.2279  1.4354
   72MPD2    H1 1123   0.545   4.315   1.227  0.0607 -1.5524  0.0424
   72MPD2    H2 1124   0.539   4.575   0.892  0.9295 -1.1653  0.4547
   72MPD2    H3 1125   0.660   4.442   1.061 -0.1360  0.5934 -0.6292
   72MPD2     N 1126   0.277   4.275   1.241  0.0808 -0.7596 -0.0523
   72MPD2    H5 1127   0.338   4.237   1.313  0.4506  0.0570  0.0715
   72MPD2    N1 1128   0.262   4.595   0.885 -0.4102 -0.1399  0.3671
   72MPD2    H7 1129   0.162   4.578   0.887 -0.3214 -0.8666 -1.7221
   73TMC2    C1 1130   4.512   1.798  13.213  0.2087 -0.2135 -0.1366
   73TMC2    C2 1131   4.532   1.766  13.346 -0.1499  0.0910  0.0505
   73TMC2    C3 1132   4.651   1.735  13.387  0.2740 -0.0701 -0.9478
   73TMC2    C4 1133   4.620   1.813  13.134  0.4195 -0.6206 -0.1164
   73TMC2    C5 1134   0.012   1.787  13.181 -0.2600  0.6148  0.2026
   73TMC2    C6 1135   0.036   1.741  13.311 -0.1636 -0.5150 -1.4041
   73TMC2     C 1136   4.420   1.910  13.181 -0.5874 -0.3852 -0.0599
   73TMC2     O 1137   4.446   1.986  13.083  0.2260  0.0888  0.6443
   73TMC2     H 1138   4.453   1.742  13.415 -1.8442  1.4229 -1.4349
   73TMC2    H1 1139   4.610   1.848  13.032  1.0924 -0.0262  0.0194
   73TMC2    H2 1140   0.137   1.749  13.351 -0.1038 -1.7133 -1.3296
   73TMC2    C7 1141   0.108   1.889  13.140 -0.1887 -0.2490 -0.6277
   73TMC2    C8 1142   4.670   1.714  13.528  0.1934 -0.9972 -0.4191
   73TMC2    O1 1143   0.228   1.866  13.154 -0.0192 -0.1918 -0.0351
   73TMC2    O2 1144   4.602   1.771  13.614 -0.0652 -0.0298 -0.0703
   73TMC2    O5 1145   0.027   1.613  13.548 -0.0380  0.7056 -0.4996
   73TMC2    H5 1146   0.078   1.589  13.468  1.7751 -0.7664  1.0955
   74MPD2     C 1147   4.040   2.244  13.253  0.1128 -0.3360 -0.3038
   74MPD2    C1 1148   4.167   2.263  13.209  0.0251  0.3556  0.6603
   74MPD2    C2 1149   4.253   2.152  13.220  0.0412 -1.0343 -0.2712
   74MPD2    C3 1150   4.220   2.035  13.268  0.0775 -0.1162 -0.4985
   74MPD2    C4 1151   4.094   2.027  13.329 -0.4236 -0.1956 -0.6788
   74MPD2    C5 1152   4.004   2.130  13.319 -0.1247  0.4508  0.3663
   74MPD2     H 1153   4.354   2.155  13.179  0.2816  3.7034  0.6395
   74MPD2    H1 1154   4.067   1.937  13.383 -1.1902 -0.7155 -1.9403
   74MPD2    H2 1155   3.965   2.321  13.243  1.7484  1.2261 -0.6494
   74MPD2    H3 1156   3.904   2.126  13.359 -0.9302  3.0251 -1.3867
   74MPD2     N 1157   4.306   1.922  13.266 -0.3542 -0.3785  0.0549
   74MPD2    H5 1158   4.287   1.841  13.324 -0.7014  0.2937  0.8956
   74MPD2    N1 1159   4.198   2.387  13.146  0.0051 -0.4343 -0.8285
   74MPD2    H7 1160   4.126   2.457  13.136  1.7604  1.0154 -3.2940
   75TMC2    C1 1161   4.468   2.947  13.836 -0.8078  0.0953  0.4401
   75TMC2    C2 1162   4.378   2.946  13.938  0.5192  0.7680 -0.0967
   75TMC2    C3 1163   4.251   2.992  13.920 -0.6005  0.4753  0.4490
   75TMC2    C4 1164   4.430   2.993  13.715 -0.3490  0.0126  0.5477
   75TMC2    C5 1165   4.303   3.033  13.705 -0.4112  0.0979 -0.5700
   75TMC2    C6 1166   4.208   3.037  13.800  0.1986 -0.7418  0.7036
   75TMC2     C 1167   4.605   2.953  13.879 -0.1739 -0.1334 -0.1175
   75TMC2     O 1168   4.621   2.975  14.000 -0.6507 -0.5619  0.2637
   75TMC2     H 1169   4.404   2.910  14.037  0.4140 -0.9240 -0.6920
   75TMC2    H1 1170   4.501   2.988  13.633  1.8636  1.2504  2.4024
   75TMC2    H2 1171   4.104   3.048  13.772  0.0370  0.0688  1.6360
   75TMC2    C7 1172   4.276   3.090  13.566 -0.1932  0.2884 -0.2957
   75TMC2    C8 1173   4.156   2.956  14.026 -0.4165 -0.5214 -0.6956
   75TMC2    O1 1174   4.344   3.047  13.475 -0.6052  0.1828 -0.6409
   75TMC2    O2 1175   4.200   2.932  14.140 -0.2561 -0.4537  0.4086
   75TMC2    O5 1176   4.059   3.051  14.006 -0.2278 -0.0893 -0.8904
   75TMC2    H5 1177   4.003   3.032  13.927  2.3230 -2.8558 -2.0974
   76TMC2    C1 1178   3.543   3.403  11.797  1.0652  0.3065  0.2511
   76TMC2    C2 1179   3.504   3.423  11.926 -0.7060 -0.0840  0.8699
   76TMC2    C3 1180   3.596   3.393  12.024 -0.4864 -0.3234 -0.2788
   76TMC2    C4 1181   3.659   3.345  11.763  0.1330  0.0426  0.3822
   76TMC2    C5 1182   3.749   3.324  11.862 -0.4040  0.2535  0.1972
   76TMC2    C6 1183   3.720   3.341  11.990  0.4527  0.2856 -0.3560
   76TMC2     C 1184   3.457   3.433  11.691  0.0761  0.0985  0.0504
   76TMC2     O 1185   3.372   3.518  11.713 -0.0758  0.4768  0.2423
   76TMC2     H 1186   3.407   3.464  11.950 -0.0912  1.9644 -0.1126
   76TMC2    H1 1187   3.695   3.345  11.661  0.2714 -0.5060  0.4273
   76TMC2    H2 1188   3.792   3.325  12.069  0.2320 -1.8348 -0.5840
   76TMC2    C7 1189   3.885   3.345  11.821 -0.0115  0.7954  0.3087
   76TMC2    C8 1190   3.571   3.418  12.167 -0.5266  0.1127  0.6046
   76TMC2    O1 1191   3.912   3.317  11.704  0.5775  0.8211 -0.0003
   76TMC2    O2 1192   3.659   3.426  12.249  0.0914 -0.2930 -0.2125
   76TMC2    O5 1193   3.443   3.445  12.200  0.3129  0.1460 -0.1986
   76TMC2    H5 1194   3.372   3.408  12.143 -0.4778 -1.4902  1.8850
   77MPD2     C 1195   3.302   3.390  11.204 -0.4389 -0.1554  0.0781
   77MPD2    C1 1196   3.283   3.493  11.292  0.2428 -0.0633 -0.0613
   77MPD2    C2 1197   3.346   3.479  11.420  0.3565 -0.3159 -0.8755
   77MPD2    C3 1198   3.413   3.362  11.459 -0.3970 -0.5849  0.5275
   77MPD2    C4 1199   3.432   3.271  11.358  0.4644 -0.6739  0.9864
   77MPD2    C5 1200   3.380   3.285  11.233 -0.2259 -0.5746 -0.1558
   77MPD2     H 1201   3.341   3.566  11.485 -0.2579 -0.0873 -1.2257
   77MPD2    H1 1202   3.495   3.183  11.366 -2.1021 -2.5399  0.5672
   77MPD2    H2 1203   3.262   3.386  11.104  2.3575  0.5973 -1.0684
   77MPD2    H3 1204   3.380   3.208  11.156  1.5364  0.8656 -1.6205
   77MPD2     N 1205   3.472   3.342  11.585 -0.2355  0.4874 -0.3370
   77MPD2    H5 1206   3.530   3.260  11.596 -0.6976  0.2280  0.2012
   77MPD2    N1 1207   3.200   3.603  11.257 -0.5460  0.4278  0.2374
   77MPD2    H7 1208   3.180   3.662  11.337  0.1946  0.1059  0.6686
   78TMC2    C1 1209   4.095   3.619   0.837 -0.6461 -0.0139 -0.2104
   78TMC2    C2 1210   3.991   3.704   0.810 -0.1107  0.4824 -0.3675
   78TMC2    C3 1211   4.023   3.832   0.804  0.2417 -0.1346 -0.8232
   78TMC2    C4 1212   4.218   3.666   0.881 -0.0271  0.0169 -0.7077
   78TMC2    C5 1213   4.241   3.799   0.893  0.5937 -0.0267  0.5568
   78TMC2    C6 1214   4.143   3.884   0.848  0.4919  1.5783  0.1388
   78TMC2     C 1215   4.076   3.476   0.844  0.1347  0.9627  0.8982
   78TMC2     O 1216   4.169   3.414   0.891 -0.5798 -0.0231  0.6672
   78TMC2     H 1217   3.887   3.675   0.806  0.0312  0.0325 -0.7363
   78TMC2    H1 1218   4.293   3.598   0.920 -0.7751 -1.4480 -1.8367
   78TMC2    H2 1219   4.157   3.991   0.838  1.1819  1.5442  0.7588
   78TMC2    C7 1220   4.371   3.841   0.919  0.3903 -0.1780  0.0037
   78TMC2    C8 1221   3.916   3.930   0.812  0.0750  0.2328 -0.9240
   78TMC2    O1 1222   4.393   3.955   0.882 -0.1538  0.5373 -0.0218
   78TMC2    O2 1223   3.934   4.050   0.837 -0.0057 -0.3715 -1.0838
   78TMC2    O5 1224   3.826   3.884   0.719  0.7122 -0.1470  0.0650
   78TMC2    H5 1225   3.832   3.792   0.684  1.8132  0.2219 -0.7093
   79MPD1     C 1226   3.844   3.036   0.748 -0.1072  0.2398  0.7508
   79MPD1    C1 1227   3.945   3.067   0.839  0.1321  0.2485  0.0741
   79MPD1    C2 1228   3.983   3.203   0.849 -0.1227  0.0954  0.0454
   79MPD1    C3 1229   3.916   3.302   0.776  0.2013  0.3130 -0.7230
   79MPD1    C4 1230   3.803   3.272   0.705  0.4517 -0.2107  0.0854
   79MPD1    C5 1231   3.769   3.138   0.694 -0.3216  0.3554  0.0177
   79MPD1     H 1232   4.076   3.223   0.901  0.3041 -2.0604  0.1161
   79MPD1    H1 1233   3.741   3.349   0.659  0.1791  0.9930  2.4934
   79MPD1    H2 1234   3.822   2.937   0.711 -0.7414 -0.2727  2.5077
   79MPD1    H3 1235   3.678   3.119   0.638  0.9478  0.3688 -2.0837
   79MPD1     N 1236   3.956   3.436   0.792 -0.2437  0.2869  0.1535
   79MPD1    H5 1237   3.887   3.500   0.754  0.2355  0.7628  0.0786
   79MPD1    N1 1238   4.034   2.960   0.885 -0.0472 -0.0775 -0.0120
   79MPD1    H6 1239   3.996   2.866   0.896  0.0889 -0.1365 -0.0466
   79MPD1    H7 1240   4.080   2.990   0.971 -2.1479  0.5958  0.8842
   80TMC2    C1 1241   2.906   3.127  11.914 -0.2219  0.6014 -0.0960
   80TMC2    C2 1242   2.994   3.086  11.820 -0.1285 -0.4929 -0.6497
   80TMC2    C3 1243   2.952   3.071  11.689  0.6266  0.1035 -0.0616
   80TMC2    C4 1244   2.772   3.158  11.885  0.0179 -0.1775  0.4092
   80TMC2    C5 1245   2.736   3.138  11.751 -0.3339  0.2717 -0.1896
   80TMC2    C6 1246   2.823   3.101  11.653 -0.4952  0.0858 -0.0244
   80TMC2     C 1247   2.964   3.168  12.045 -0.4092 -0.0346 -0.5395
   80TMC2     O 1248   3.069   3.127  12.080  0.2622 -0.1567  0.1098
   80TMC2     H 1249   3.094   3.065  11.855  0.5802  1.3167 -1.5704
   80TMC2    H1 1250   2.703   3.193  11.961  0.8201 -1.0594  1.5379
   80TMC2    H2 1251   2.788   3.067  11.557  2.2639  0.9693 -1.3253
   80TMC2    C7 1252   2.596   3.162  11.714  0.2968 -0.6104 -0.2098
   80TMC2    C8 1253   3.017   2.968  11.597 -0.4178  0.5824 -0.6081
   80TMC2    O1 1254   2.581   3.173  11.595  0.3290  0.1295  0.8652
   80TMC2    O2 1255   2.958   2.903  11.516  0.4623  0.3971  0.7833
   80TMC2    O5 1256   3.124   3.040  11.556 -0.0330 -0.3234  0.8242
   80TMC2    H5 1257   3.138   3.119  11.612 -0.5910  1.3959 -1.4608
   81MPD2     C 1258   2.932   3.226  12.342 -0.2423 -0.2769  1.3749
   81MPD2    C1 1259   2.865   3.282  12.237  0.1413 -0.3086  0.5847
   81MPD2    C2 1260   2.769   3.378  12.259  0.2387 -0.1228 -0.0881
   81MPD2    C3 1261   2.741   3.421  12.392 -0.6830 -0.3240  0.3333
   81MPD2    C4 1262   2.796   3.344  12.498  0.2208  0.7738  0.3617
   81MPD2    C5 1263   2.889   3.246  12.474  0.6541  0.0306  0.5212
   81MPD2     H 1264   2.712   3.420  12.177 -0.2906  0.2976  0.4941
   81MPD2    H1 1265   2.762   3.354  12.601  1.5247  2.0297  0.6689
   81MPD2    H2 1266   3.014   3.161  12.314  0.2255  2.2069 -3.1525
   81MPD2    H3 1267   2.935   3.190  12.555  1.7251 -0.2951 -0.3194
   81MPD2     N 1268   2.637   3.513  12.422  0.0232  0.3998 -0.3976
   81MPD2    H5 1269   2.619   3.519  12.522 -0.7595 -1.5090 -0.4190
   81MPD2    N1 1270   2.880   3.263  12.101 -0.3393  0.2001  0.3787
   81MPD2    H7 1271   2.814   3.300  12.033  0.1050 -2.7433 -1.6605
   82TMC2    C1 1272   0.797   2.380  10.447  0.0422  0.3309  1.3538
   82TMC2    C2 1273   0.934   2.405  10.437  0.0195  0.1455  0.2103
   82TMC2    C3 1274   1.010   2.291  10.432  0.8399  0.0178 -0.1276
   82TMC2    C4 1275   0.745   2.258  10.458  0.7518  0.2526 -0.3391
   82TMC2    C5 1276   0.829   2.151  10.462 -0.4772  0.0539  0.4081
   82TMC2    C6 1277   0.965   2.165  10.457 -0.3814 -0.4231  0.7222
   82TMC2     C 1278   0.708   2.490  10.484  0.0918  0.4576  0.0674
   82TMC2     O 1279   0.596   2.487  10.438  0.1279  0.8298 -0.0433
   82TMC2     H 1280   0.977   2.504  10.427 -1.5977  1.1587  3.3912
   82TMC2    H1 1281   0.638   2.257  10.477  0.6698  2.6017 -0.7227
   82TMC2    H2 1282   1.017   2.078  10.420  0.3264 -1.3537  3.8477
   82TMC2    C7 1283   0.787   2.053  10.560  0.4045 -0.6505  0.3556
   82TMC2    C8 1284   1.145   2.323  10.411  1.4687 -0.7790 -0.0350
   82TMC2    O1 1285   0.668   2.056  10.588 -0.0132 -0.2103 -0.0797
   82TMC2    O2 1286   1.183   2.432  10.367  0.7148 -0.1711  0.4935
   82TMC2    O5 1287   1.214   2.251  10.502  0.0026  0.2239 -0.0072
   82TMC2    H5 1288   1.167   2.178  10.548  0.9110 -0.9292 -0.9162
   83MPD2     C 1289   0.576   2.916  10.709 -0.0011  0.7922  0.4144
   83MPD2    C1 1290   0.499   2.808  10.677 -0.3614  0.5262 -0.4125
   83MPD2    C2 1291   0.560   2.693  10.629 -0.9833 -0.1890  0.3326
   83MPD2    C3 1292   0.702   2.690  10.615  0.1380  0.5641  0.2218
   83MPD2    C4 1293   0.778   2.801  10.669 -0.0126 -0.0344  0.0261
   83MPD2    C5 1294   0.714   2.913  10.712  0.6600 -0.5889 -0.4465
   83MPD2     H 1295   0.502   2.614  10.581  0.1511 -0.2425 -0.9558
   83MPD2    H1 1296   0.885   2.815  10.663 -0.2606  2.7819  2.6686
   83MPD2    H2 1297   0.534   3.011  10.741 -1.2706 -0.2666  1.9121
   83MPD2    H3 1298   0.759   3.009  10.738  0.3241 -0.5797  0.0884
   83MPD2     N 1299   0.772   2.587  10.557 -0.1195 -0.0099 -0.2316
   83MPD2    H5 1300   0.871   2.581  10.578  0.2998 -1.1291 -2.5071
   83MPD2    N1 1301   0.359   2.824  10.681 -0.1803  0.0370  0.2926
   83MPD2    H7 1302   0.319   2.914  10.705  2.3649  0.4384  3.0740
   84TMC2    C1 1303   1.886   1.878  10.723 -0.1511 -0.7989  0.0318
   84TMC2    C2 1304   1.774   1.801  10.726 -0.5014  0.2773  0.1723
   84TMC2    C3 1305   1.767   1.684  10.656  0.3229  0.1328 -0.5362
   84TMC2    C4 1306   2.000   1.826  10.666  0.0327  0.1777 -0.1920
   84TMC2    C5 1307   1.988   1.714  10.583 -0.3598 -0.5051 -0.0482
   84TMC2    C6 1308   1.868   1.641  10.574 -0.2519 -0.2166  0.1290
   84TMC2     C 1309   1.874   2.007  10.799  0.1773 -0.9078 -0.0812
   84TMC2     O 1310   1.761   2.043  10.836  0.2593 -0.7138  0.2814
   84TMC2     H 1311   1.680   1.832  10.769 -2.0684 -2.3697 -1.3415
   84TMC2    H1 1312   2.087   1.890  10.657  0.6350 -0.7853 -1.3292
   84TMC2    H2 1313   1.855   1.565  10.497  3.0122  2.0932 -2.7376
   84TMC2    C7 1314   2.074   1.694  10.467  0.7575  0.1671  0.7622
   84TMC2    C8 1315   1.635   1.638  10.619  0.2902  0.0665  0.5215
   84TMC2    O1 1316   2.035   1.636  10.368  0.6784 -0.1295 -0.2539
   84TMC2    O2 1317   1.528   1.689  10.640 -0.2519 -0.3713 -0.0498
   84TMC2    O5 1318   1.645   1.515  10.575  0.2977 -0.0441 -0.6651
   84TMC2    H5 1319   1.726   1.477  10.616 -0.5330  0.3136  1.2872
   85TMC2    C1 1320   2.572   0.676  15.519  0.0777 -0.1399 -0.1009
   85TMC2    C2 1321   2.539   0.805  15.524 -0.7345  0.4433 -0.7283
   85TMC2    C3 1322   2.584   0.876  15.419  0.1303 -0.3013 -0.6809
   85TMC2    C4 1323   2.661   0.625  15.436  0.2486 -0.0789 -0.1823
   85TMC2    C5 1324   2.724   0.700  15.340 -0.7654  0.0936  0.3843
   85TMC2    C6 1325   2.683   0.835  15.331  0.0264 -0.2330 -0.3328
   85TMC2     C 1326   2.526   0.598  15.625 -1.1750  0.4432 -0.3937
   85TMC2     O 1327   2.496   0.660  15.724  0.1937  0.3322  0.3876
   85TMC2     H 1328   2.477   0.856  15.597  0.9139 -0.8788  1.5847
   85TMC2    H1 1329   2.689   0.521  15.445  1.2950  0.2413  0.3257
   85TMC2    H2 1330   2.721   0.909  15.263 -0.5361 -1.5700 -2.0863
   85TMC2    C7 1331   2.790   0.644  15.232 -0.6962  0.7763  0.6340
   85TMC2    C8 1332   2.562   1.024  15.427 -0.1721  1.0231  0.3111
   85TMC2    O1 1333   2.791   0.522  15.223  0.3642  0.0365  0.0769
   85TMC2    O2 1334   2.565   1.085  15.321 -0.1769  0.8111 -0.1205
   85TMC2    O5 1335   2.623   1.068  15.535 -0.0262  0.1611 -0.5483
   85TMC2    H5 1336   2.643   0.996  15.599 -0.9681  0.0835 -0.3466
   86MPD2     C 1337   2.450   0.164  15.884  0.5226  0.7780  0.5087
   86MPD2    C1 1338   2.396   0.152  15.762 -0.0805  0.0050 -0.1079
   86MPD2    C2 1339   2.428   0.253  15.672 -0.0098  0.7899 -0.0099
   86MPD2    C3 1340   2.502   0.363  15.704 -0.4690 -0.3018  0.0124
   86MPD2    C4 1341   2.540   0.383  15.833 -0.1840 -0.4462  0.7326
   86MPD2    C5 1342   2.524   0.271  15.921  0.1228 -0.9232 -0.2578
   86MPD2     H 1343   2.373   0.255  15.579  0.8292 -0.4774 -0.5150
   86MPD2    H1 1344   2.585   0.476  15.865 -0.7599 -0.3131  1.1530
   86MPD2    H2 1345   2.438   0.082  15.954  1.9098 -0.3449 -0.5830
   86MPD2    H3 1346   2.567   0.269  16.020 -1.0901 -1.3720  0.2524
   86MPD2     N 1347   2.515   0.464  15.601 -0.1217 -0.2496  0.6764
   86MPD2    H5 1348   2.510   0.432  15.505 -0.4993  3.3664 -0.5108
   86MPD2    N1 1349   2.312   0.046  15.728  0.0646  0.1905 -0.6349
   86MPD2    H7 1350   2.291   0.043  15.629 -0.5680 -2.5838 -0.4138
   87TMC2    C1 1351   4.728   2.638   0.591 -0.7762 -0.1643  0.8003
   87TMC2    C2 1352   0.058   2.553   0.680  0.6118  0.0157  0.0276
   87TMC2    C3 1353   0.057   2.583   0.816  0.5487  0.0184 -0.4226
   87TMC2    C4 1354   4.677   2.758   0.630  0.5805  0.4280  0.5232
   87TMC2    C5 1355   4.694   2.792   0.763  0.1213  0.2017 -0.5708
   87TMC2    C6 1356   0.019   2.713   0.859 -0.6270 -0.2660 -0.3241
   87TMC2     C 1357   0.033   2.629   0.450 -0.3628 -0.0662 -0.2811
   87TMC2     O 1358   0.024   2.726   0.381  0.4824  0.0105 -0.4948
   87TMC2     H 1359   0.109   2.461   0.651 -0.1241 -0.7042  1.0255
   87TMC2    H1 1360   4.617   2.827   0.571  1.4640 -0.3279 -1.2711
   87TMC2    H2 1361   0.025   2.739   0.964 -0.2834 -1.2005 -0.1054
   87TMC2    C7 1362   4.679   2.933   0.790 -0.3296  0.6694 -0.3961
   87TMC2    C8 1363   0.126   2.489   0.903 -0.2233  0.2408  0.7187
   87TMC2    O1 1364   4.619   2.998   0.707  1.0450  0.4399  0.2202
   87TMC2    O2 1365   0.150   2.372   0.871  0.3253  0.8305  0.0572
   87TMC2    O5 1366   0.194   2.564   0.996  0.4433  0.0954  0.2299
   87TMC2    H5 1367   0.212   2.658   0.976  1.6760 -0.0527  0.6986
   88MPD2     C 1368   0.070   3.120   1.081 -1.1607 -0.1082 -0.0294
   88MPD2    C1 1369   0.014   3.106   0.955  0.0254  0.8044 -0.0805
   88MPD2    C2 1370   4.716   3.218   0.878 -0.7332  0.3619 -0.3565
   88MPD2    C3 1371   0.011   3.346   0.925  0.2176  0.5575  0.7151
   88MPD2    C4 1372   0.066   3.363   1.049  0.5054 -0.5428 -0.3165
   88MPD2    C5 1373   0.094   3.247   1.119  0.8569  0.4814  0.7269
   88MPD2     H 1374   4.684   3.217   0.774  1.4000 -1.2003 -0.9904
   88MPD2    H1 1375   0.093   3.458   1.095 -0.9412 -0.0234 -0.5250
   88MPD2    H2 1376   0.105   3.040   1.145 -0.4668 -1.0533 -1.6109
   88MPD2    H3 1377   0.134   3.264   1.218  1.8859 -2.3862  0.8043
   88MPD2     N 1378   4.733   3.455   0.836  0.3104 -0.9556  0.0518
   88MPD2    H5 1379   4.676   3.430   0.756 -0.2001 -3.0660  1.0667
   88MPD2    N1 1380   0.001   2.973   0.911  0.7038 -0.0666 -0.0585
   88MPD2    H7 1381   0.031   2.896   0.970  0.4069  0.5962  0.9551
   89TMC2    C1 1382   1.000   1.691   1.343  0.2221 -0.9413 -0.3795
   89TMC2    C2 1383   1.132   1.674   1.313  0.2341  0.3265  0.5135
   89TMC2    C3 1384   1.170   1.723   1.185 -0.2559 -0.0298 -0.5421
   89TMC2    C4 1385   0.908   1.737   1.254 -0.0702 -0.3268 -0.4821
   89TMC2    C5 1386   0.949   1.772   1.129 -0.3502 -0.3527  0.3371
   89TMC2    C6 1387   1.075   1.758   1.097 -0.3632  0.0425 -0.1714
   89TMC2     C 1388   0.955   1.612   1.458 -0.1559  0.1424  0.0575
   89TMC2     O 1389   1.015   1.629   1.566 -0.4514 -0.1484 -0.8110
   89TMC2     H 1390   1.204   1.622   1.375 -1.2324  2.4228  3.9598
   89TMC2    H1 1391   0.806   1.735   1.291  0.9051 -1.0485  2.1686
   89TMC2    H2 1392   1.113   1.778   0.997 -2.5740  1.2763 -0.7653
   89TMC2    C7 1393   0.850   1.787   1.020 -0.3215 -0.5050  0.4189
   89TMC2    C8 1394   1.311   1.719   1.151  0.0226 -0.6887  0.0187
   89TMC2    O1 1395   0.741   1.748   1.051 -0.3579  0.0037  0.3418
   89TMC2    O2 1396   1.357   1.791   1.066 -0.2758 -0.4928 -0.2356
   89TMC2    O5 1397   1.374   1.610   1.188  0.0895  0.4450 -0.2858
   89TMC2    H5 1398   1.326   1.547   1.247 -0.8955  2.8100  1.4093
   90MPD2     C 1399   0.639   1.244   1.644  0.4695  0.0597 -0.3907
   90MPD2    C1 1400   0.647   1.242   1.507 -0.5580  0.4867 -0.7336
   90MPD2    C2 1401   0.724   1.326   1.438  0.2648  0.0478  0.6132
   90MPD2    C3 1402   0.797   1.427   1.501 -0.2292  0.2413 -0.0106
   90MPD2    C4 1403   0.801   1.408   1.639 -0.1034 -0.2667  0.1981
   90MPD2    C5 1404   0.722   1.329   1.716  0.2877 -1.1115  0.3647
   90MPD2     H 1405   0.719   1.334   1.330  0.6247 -0.8828  0.5290
   90MPD2    H1 1406   0.863   1.481   1.691  2.2518 -1.2801 -1.1766
   90MPD2    H2 1407   0.574   1.174   1.696 -0.4528  1.7453  0.7039
   90MPD2    H3 1408   0.740   1.311   1.821 -1.8932 -1.4034  0.6842
   90MPD2     N 1409   0.859   1.522   1.415  0.5053 -0.3960  0.2003
   90MPD2    H5 1410   0.843   1.513   1.316  0.4930 -0.3085  0.1951
   90MPD2    N1 1411   0.581   1.150   1.423  0.4539 -0.0338 -0.0078
   90MPD2    H7 1412   0.600   1.161   1.323 -1.7999  0.2753 -0.3966
   91TMC2    C1 1413   1.983   0.992  15.824  0.5258  0.2119 -0.1239
   91TMC2    C2 1414   2.036   0.948  15.945 -0.4450  0.4907  0.9813
   91TMC2    C3 1415   1.977   0.842  16.002  0.0909 -0.1492 -0.3417
   91TMC2    C4 1416   1.863   0.941  15.779  0.5752 -0.0793  0.3799
   91TMC2    C5 1417   1.812   0.827  15.834  0.1356  0.4039 -0.6115
   91TMC2    C6 1418   1.867   0.777  15.951 -0.2654 -0.0088  0.3207
   91TMC2     C 1419   2.036   1.100  15.755 -0.3269  0.1316 -0.2139
   91TMC2     O 1420   1.957   1.166  15.688  0.6742 -0.4165  0.1266
   91TMC2     H 1421   2.127   0.990  15.986 -1.3217  3.5079 -0.1486
   91TMC2    H1 1422   1.847   0.955  15.672  1.9676 -4.4827 -0.4133
   91TMC2    H2 1423   1.832   0.689  16.005 -0.2866  0.1395  0.5520
   91TMC2    C7 1424   1.685   0.771  15.792  0.9150  0.1208 -0.3997
   91TMC2    C8 1425   2.037   0.787  16.119  0.1667 -0.2089  0.3399
   91TMC2    O1 1426   1.653   0.667  15.847 -0.0782 -0.0754  0.1332
   91TMC2    O2 1427   2.155   0.810  16.138 -0.7842 -0.4854 -0.4176
   91TMC2    O5 1428   1.930   0.783  16.210 -0.2653  0.3836  0.3694
   91TMC2    H5 1429   1.851   0.819  16.162 -0.3707 -0.8604 -0.3934
   92MPD2     C 1430   2.201   1.351  15.739 -0.1389 -0.1969  0.4765
   92MPD2    C1 1431   2.254   1.224  15.770 -0.4954  0.6939 -0.3317
   92MPD2    C2 1432   2.388   1.206  15.792 -0.0586  0.3526 -0.1571
   92MPD2    C3 1433   2.474   1.312  15.773  0.3044 -0.1473 -0.1284
   92MPD2    C4 1434   2.424   1.440  15.739  0.3344 -0.2377  0.2005
   92MPD2    C5 1435   2.288   1.450  15.721  0.3339 -0.5540  0.4259
   92MPD2     H 1436   2.417   1.112  15.838 -1.0327  0.8346  1.4486
   92MPD2    H1 1437   2.491   1.524  15.735 -0.4416  0.2670 -2.1770
   92MPD2    H2 1438   2.096   1.374  15.727 -0.1652 -1.0208 -0.8360
   92MPD2    H3 1439   2.238   1.541  15.690  0.0276 -1.4368 -1.6557
   92MPD2     N 1440   2.611   1.285  15.800  0.2645 -0.2047  0.2223
   92MPD2    H5 1441   2.619   1.185  15.819 -2.8986 -0.4677  0.1471
   92MPD2    N1 1442   2.165   1.116  15.796  0.0279 -0.1225  0.2136
   92MPD2    H7 1443   2.206   1.030  15.831  0.3752 -0.7417 -1.7230
   93TMC2    C1 1444   3.982   0.817  13.816 -0.2638 -0.0872  0.2710
   93TMC2    C2 1445   3.983   0.687  13.795  0.0295 -0.2945 -0.1561
   93TMC2    C3 1446   4.102   0.625  13.776  0.1205 -0.5432 -0.5255
   93TMC2    C4 1447   4.087   0.897  13.823 -0.2424  0.1398  1.1274
   93TMC2    C5 1448   4.208   0.823  13.810  0.1456  0.1056 -0.4142
   93TMC2    C6 1449   4.220   0.687  13.795 -0.3058  0.0774 -0.1130
   93TMC2     C 1450   3.859   0.871  13.868  0.2617 -0.2851  0.5067
   93TMC2     O 1451   3.853   0.964  13.950  0.1499 -0.5127  0.0358
   93TMC2     H 1452   3.897   0.622  13.801  0.6858 -1.0000  1.8950
   93TMC2    H1 1453   4.078   0.997  13.864  2.4984 -0.2261  2.6056
   93TMC2    H2 1454   4.321   0.651  13.813 -0.2071  1.0799  1.3043
   93TMC2    C7 1455   4.308   0.886  13.736  0.0490  0.3003 -0.2462
   93TMC2    C8 1456   4.098   0.478  13.773  0.1515  0.9721  0.9762
   93TMC2    O1 1457   4.385   0.811  13.678 -0.7750  0.0247 -0.1847
   93TMC2    O2 1458   3.992   0.416  13.757 -0.3802  0.3062  0.5305
   93TMC2    O5 1459   4.213   0.447  13.710  0.1897  0.1124 -0.1420
   93TMC2    H5 1460   4.284   0.515  13.712  0.1920  0.0410  2.1505
   94MPD2     C 1461   3.561   0.896  13.925  0.0896  0.1570 -0.0183
   94MPD2    C1 1462   3.618   0.839  13.812  0.4179  1.0360 -0.3586
   94MPD2    C2 1463   3.536   0.809  13.704  1.2226 -0.2234 -0.0277
   94MPD2    C3 1464   3.396   0.831  13.709  0.4472  0.5795  0.2723
   94MPD2    C4 1465   3.339   0.874  13.826 -0.2285 -0.1172 -0.5419
   94MPD2    C5 1466   3.422   0.912  13.926 -0.0939  0.3285  0.6972
   94MPD2     H 1467   3.587   0.782  13.612  1.8371  2.2011 -0.3876
   94MPD2    H1 1468   3.231   0.883  13.832 -0.1898 -0.0425  0.0729
   94MPD2    H2 1469   3.624   0.927  14.009  0.4679 -0.4074 -0.0926
   94MPD2    H3 1470   3.383   0.953  14.018 -0.9427  1.0009  0.0453
   94MPD2     N 1471   3.317   0.808  13.591  0.4396  0.0160  0.4075
   94MPD2    H5 1472   3.226   0.854  13.588  1.1846  1.4534 -0.3534
   94MPD2    N1 1473   3.757   0.819  13.793  0.6674 -0.2605 -0.4142
   94MPD2    H7 1474   3.781   0.768  13.708 -1.2353 -2.6768  0.5143
   95TMC2    C1 1475   4.454   2.667  15.550  1.1777 -0.0163  0.3335
   95TMC2    C2 1476   4.411   2.560  15.622  0.1142 -0.6270  0.9807
   95TMC2    C3 1477   4.352   2.589  15.741  0.4170  0.6294 -0.7182
   95TMC2    C4 1478   4.434   2.797  15.589 -0.4965 -0.3676  0.2385
   95TMC2    C5 1479   4.370   2.820  15.698  0.4192  0.0092 -0.1979
   95TMC2    C6 1480   4.332   2.720  15.781 -0.4072  0.0947 -0.0319
   95TMC2     C 1481   4.565   2.645  15.453  0.7860  0.0202  1.1201
   95TMC2     O 1482   4.621   2.747  15.415 -0.6030  0.1027 -0.0844
   95TMC2     H 1483   4.414   2.456  15.590 -0.4608  0.2290 -1.7752
   95TMC2    H1 1484   4.472   2.886  15.541 -2.5779  0.5533  0.2930
   95TMC2    H2 1485   4.280   2.740  15.875 -0.9835 -1.7927  0.0551
   95TMC2    C7 1486   4.390   2.953  15.758  0.5437 -0.4840 -0.5202
   95TMC2    C8 1487   4.258   2.488  15.787 -0.0337  0.8854 -0.0611
   95TMC2    O1 1488   4.477   3.018  15.707  0.0337 -0.2647 -0.9627
   95TMC2    O2 1489   4.221   2.393  15.719  0.1172  0.1069  0.4508
   95TMC2    O5 1490   4.295   2.480  15.921  0.1591 -0.2609  0.5151
   95TMC2    H5 1491   4.315   2.561  15.973  0.7579 -0.3861  0.4778
   96MPD2     C 1492   0.154   2.366  15.183 -0.0365 -0.2821  0.0146
   96MPD2    C1 1493   0.157   2.504  15.215  0.1989  0.0239  0.2024
   96MPD2    C2 1494   0.055   2.552  15.296  0.1734  0.2895  0.2677
   96MPD2    C3 1495   4.691   2.463  15.341  0.9044  0.0775 -0.4171
   96MPD2    C4 1496   4.702   2.329  15.322  0.2599 -0.4910  0.1781
   96MPD2    C5 1497   0.063   2.283  15.234 -0.1479  0.3223 -0.4212
   96MPD2     H 1498   0.063   2.655  15.327  0.4063  0.1752  0.5895
   96MPD2    H1 1499   4.627   2.262  15.362 -0.0820  0.3405  0.9311
   96MPD2    H2 1500   0.226   2.324  15.114  0.4135 -0.1107  0.3743
   96MPD2    H3 1501   0.074   2.177  15.214  0.4072  0.2860  0.0780
   96MPD2     N 1502   4.577   2.513  15.406  0.4125  0.1407 -0.0117
   96MPD2    H5 1503   4.501   2.446  15.419 -1.3505  2.7639  3.0744
   96MPD2    N1 1504   0.266   2.580  15.160  0.3391 -0.5674 -0.0319
   96MPD2    H7 1505   0.338   2.527  15.113 -0.5413 -2.1288  0.3689
   97TMC2    C1 1506   1.502   0.929  17.470 -0.3858 -1.0562  0.0716
   97TMC2    C2 1507   1.472   0.850  17.363 -0.6169 -0.9755  0.3771
   97TMC2    C3 1508   1.498   0.898  17.235  0.1000  0.2537 -0.2002
   97TMC2    C4 1509   1.558   1.053  17.453  0.1429 -0.1613  0.0172
   97TMC2    C5 1510   1.560   1.113  17.330 -0.2665 -0.3565 -0.1672
   97TMC2    C6 1511   1.531   1.033  17.219  0.4241  0.5260 -0.1331
   97TMC2     C 1512   1.550   0.859  17.584 -0.5115  0.3166  0.5697
   97TMC2     O 1513   1.546   0.912  17.693 -0.3817  0.5502  0.4027
   97TMC2     H 1514   1.437   0.749  17.380  0.8262 -1.7493 -1.1691
   97TMC2    H1 1515   1.597   1.109  17.537  0.1198  0.6796 -0.5336
   97TMC2    H2 1516   1.562   1.066  17.121  0.9483 -0.1230 -0.1789
   97TMC2    C7 1517   1.660   1.217  17.315  0.2350 -0.9246  0.4230
   97TMC2    C8 1518   1.505   0.817  17.112 -0.1312  0.4513 -0.2824
   97TMC2    O1 1519   1.727   1.246  17.416 -0.1934  0.3023 -0.8784
   97TMC2    O2 1520   1.565   0.849  17.010  0.1320  0.6258 -0.1548
   97TMC2    O5 1521   1.392   0.741  17.120  0.0785 -0.0378 -0.0712
   97TMC2    H5 1522   1.341   0.750  17.203  0.4991  1.3757  0.0394
   98MPD2     C 1523   1.763   0.454   0.094  0.1989 -0.3759  0.4752
   98MPD2    C1 1524   1.696   0.567   0.143  0.6510 -0.8833  0.5361
   98MPD2    C2 1525   1.642   0.658   0.055  0.1237  0.0949 -0.4126
   98MPD2    C3 1526   1.659   0.649  17.655 -0.0739  0.4482 -0.2721
   98MPD2    C4 1527   1.725   0.540  17.607 -0.4271 -0.0326  0.0593
   98MPD2    C5 1528   1.777   0.441  17.695  0.5155  0.1819  0.4703
   98MPD2     H 1529   1.589   0.744   0.094  0.5948  0.8772 -1.4855
   98MPD2    H1 1530   1.749   0.526  17.502  0.3279 -1.9451  0.4901
   98MPD2    H2 1531   1.793   0.378   0.165  0.1879 -1.7340 -0.9645
   98MPD2    H3 1532   1.831   0.355  17.657  0.5177  0.1881  0.4590
   98MPD2     N 1533   1.611   0.738  17.557  0.5068  0.1653  0.0089
   98MPD2    H5 1534   1.619   0.699  17.464  0.9479  0.3705 -0.0373
   98MPD2    N1 1535   1.674   0.569   0.282  0.4757 -0.2916 -0.1846
   98MPD2    H7 1536   1.679   0.478   0.327 -2.0454 -0.3148  0.0338
   99TMC2    C1 1537   0.882   1.882   1.748  0.2494 -0.2700 -0.3313
   99TMC2    C2 1538   0.965   1.875   1.858  0.0724 -0.5008  0.1747
   99TMC2    C3 1539   0.929   1.796   1.961  1.0664  0.3010  0.8022
   99TMC2    C4 1540   0.766   1.802   1.742  0.2943 -0.0232  0.2504
   99TMC2    C5 1541   0.744   1.710   1.844 -0.4369 -0.0759 -0.3645
   99TMC2    C6 1542   0.820   1.710   1.959 -0.0948  0.4110 -0.3112
   99TMC2     C 1543   0.926   1.973   1.638  0.0885 -0.7963 -0.4631
   99TMC2     O 1544   1.038   2.020   1.660  0.0800  0.3168  0.0929
   99TMC2     H 1545   1.044   1.948   1.871 -0.9110  0.4492  0.8291
   99TMC2    H1 1546   0.691   1.823   1.667  0.6701 -0.1635 -0.1621
   99TMC2    H2 1547   0.808   1.643   2.043  0.3287  0.9116  0.1432
   99TMC2    C7 1548   0.619   1.631   1.851  0.7653 -0.4751 -0.2104
   99TMC2    C8 1549   0.968   1.840   2.087  0.3317  0.1137  0.0607
   99TMC2    O1 1550   0.591   1.577   1.957  0.4067  0.2824  0.2130
   99TMC2    O2 1551   1.078   1.897   2.109  0.3077 -0.2442 -0.0107
   99TMC2    O5 1552   0.858   1.867   2.152 -0.2289 -0.2320 -0.1345
   99TMC2    H5 1553   0.782   1.847   2.094 -1.6235  2.8786  0.5791
  100MPD2     C 1554   1.004   2.076   1.372 -0.1646 -0.9250  0.1644
  100MPD2    C1 1555   0.879   2.029   1.406  0.2010  0.1040 -0.6540
  100MPD2    C2 1556   0.772   2.036   1.319 -0.2063  0.6607 -0.3117
  100MPD2    C3 1557   0.789   2.087   1.192 -0.1378 -0.0976 -0.7663
  100MPD2    C4 1558   0.921   2.131   1.157 -0.0877  0.0761  0.0237
  100MPD2    C5 1559   1.025   2.125   1.248  0.2031 -0.0994  0.3092
  100MPD2     H 1560   0.671   2.005   1.343 -0.0643  1.3491  1.1932
  100MPD2    H1 1561   0.949   2.167   1.059  1.8821 -2.1225 -0.2043
  100MPD2    H2 1562   1.085   2.063   1.443 -0.3344 -2.0347  0.1563
  100MPD2    H3 1563   1.121   2.172   1.229 -0.4384  0.9305 -0.3589
  100MPD2     N 1564   0.685   2.079   1.100 -0.6515 -0.7516 -0.3941
  100MPD2    H5 1565   0.596   2.040   1.128 -1.5559  1.3501 -0.3106
  100MPD2    N1 1566   0.845   1.978   1.531 -0.4860  0.0522 -0.2546
  100MPD2    H7 1567   0.751   1.939   1.531 -0.8380  0.8951 -0.0702
  101TMC2    C1 1568   1.254   3.942  12.575  0.3659 -0.4864  0.2007
  101TMC2    C2 1569   1.151   4.002  12.508 -0.0039  0.3681  0.5064
  101TMC2    C3 1570   1.179   4.115  12.438  0.2410  0.5844 -0.7329
  101TMC2    C4 1571   1.383   3.977  12.546 -0.5099  0.1706 -0.1653
  101TMC2    C5 1572   1.408   4.075  12.461 -0.0298 -0.4044 -0.3208
  101TMC2    C6 1573   1.306   4.156  12.410  0.9717 -0.4450  0.6140
  101TMC2     C 1574   1.220   3.827  12.661 -0.1162 -0.7531 -0.1865
  101TMC2     O 1575   1.109   3.818  12.712  0.1838 -0.2684 -0.2096
  101TMC2     H 1576   1.048   3.968  12.514  0.4162 -1.0556 -0.3092
  101TMC2    H1 1577   1.470   3.931  12.592  0.2358  0.4247 -1.3016
  101TMC2    H2 1578   1.322   4.239  12.342  1.4798 -0.5009  0.6655
  101TMC2    C7 1579   1.545   4.100  12.431 -0.0810 -1.0694 -0.3523
  101TMC2    C8 1580   1.078   4.155  12.340 -0.2058  0.0477  0.0760
  101TMC2    O1 1581   1.625   4.027  12.488 -0.4582  0.5601  0.2086
  101TMC2    O2 1582   1.086   4.118  12.224 -0.5752 -0.3733 -0.0035
  101TMC2    O5 1583   0.961   4.190  12.410 -0.1682  0.2619  0.2226
  101TMC2    H5 1584   0.984   4.214  12.502  0.1823  0.1266  0.1727
  102MPD2     C 1585   1.444   3.527  12.726  0.3471  0.4877  0.2832
  102MPD2    C1 1586   1.327   3.609  12.729 -0.4296 -0.1946 -0.2775
  102MPD2    C2 1587   1.220   3.567  12.814  0.2850 -0.3326 -0.9554
  102MPD2    C3 1588   1.222   3.452  12.891  0.3559  0.0571 -0.5983
  102MPD2    C4 1589   1.335   3.374  12.887 -0.3112 -0.3426 -0.2317
  102MPD2    C5 1590   1.437   3.415  12.803  0.0347  0.0626 -0.0246
  102MPD2     H 1591   1.124   3.616  12.816 -0.3283 -1.5040 -1.5241
  102MPD2    H1 1592   1.352   3.292  12.955 -0.4357  1.3807  1.8717
  102MPD2    H2 1593   1.529   3.552  12.663 -0.2777 -1.6865 -1.4339
  102MPD2    H3 1594   1.526   3.353  12.804  2.2916  3.3298 -0.4263
  102MPD2     N 1595   1.110   3.420  12.966  0.0959  0.7413  0.2534
  102MPD2    H5 1596   1.036   3.489  12.955  1.1873  2.0221  1.0104
  102MPD2    N1 1597   1.324   3.732  12.658  0.1371 -0.5687  0.5732
  102MPD2    H7 1598   1.408   3.749  12.603  0.6952 -1.3960  1.1727
  103TMC2    C1 1599   4.415   3.760  12.250  0.0126 -0.4151  0.6005
  103TMC2    C2 1600   4.549   3.753  12.210  0.0735  0.0249 -0.2701
  103TMC2    C3 1601   4.624   3.860  12.246  0.9975 -0.1091  0.1089
  103TMC2    C4 1602   4.358   3.861  12.331  0.5225  0.6047  0.7930
  103TMC2    C5 1603   4.446   3.966  12.354  0.1801 -0.1166  0.0656
  103TMC2    C6 1604   4.579   3.960  12.318 -0.7387 -0.3609  0.1730
  103TMC2     C 1605   4.316   3.674  12.183 -0.3240 -0.5136 -0.4135
  103TMC2     O 1606   4.198   3.692  12.211  0.0931 -0.2119 -0.3633
  103TMC2     H 1607   4.600   3.676  12.153  1.1027  0.7322 -0.2914
  103TMC2    H1 1608   4.251   3.878  12.340 -0.0925 -2.5743 -0.7606
  103TMC2    H2 1609   4.648   4.040  12.341  0.1950 -1.1584  0.1826
  103TMC2    C7 1610   4.400   4.058  12.454 -1.0481 -0.2886 -0.1522
  103TMC2    C8 1611   0.029   3.867  12.198  0.0252 -0.2345  0.0423
  103TMC2    O1 1612   4.292   4.048  12.512  0.1632 -0.2692 -0.2954
  103TMC2    O2 1613   0.112   3.777  12.207  0.0873  0.5216 -0.2280
  103TMC2    O5 1614   0.046   3.990  12.138 -0.0250  0.1483 -0.0517
  103TMC2    H5 1615   4.698   4.039  12.116  0.5740  2.0022  1.8088
  104MPD2     C 1616   4.371   3.434  11.920  0.5248  0.6675  0.8980
  104MPD2    C1 1617   4.301   3.494  12.017 -0.2801  0.2890  0.1413
  104MPD2    C2 1618   4.161   3.483  12.017  1.2509  0.6277  0.1094
  104MPD2    C3 1619   4.104   3.407  11.916 -0.1070 -0.6176 -0.7269
  104MPD2    C4 1620   4.175   3.348  11.814  0.8092  0.5127  0.6340
  104MPD2    C5 1621   4.307   3.358  11.822  0.0145  0.2499  0.0373
  104MPD2     H 1622   4.099   3.538  12.087  1.3191  2.9867 -1.7070
  104MPD2    H1 1623   4.129   3.285  11.739  0.2864  0.4879  0.9760
  104MPD2    H2 1624   4.478   3.450  11.913  0.4446  0.8985  0.1416
  104MPD2    H3 1625   4.361   3.305  11.745 -1.1081 -1.5463  0.4973
  104MPD2     N 1626   3.966   3.389  11.925  0.1503 -0.0219 -0.1728
  104MPD2    H5 1627   3.933   3.418  12.016 -1.0308  0.1046 -0.6511
  104MPD2    N1 1628   4.372   3.594  12.096  0.4580 -0.9045 -0.5640
  104MPD2    H7 1629   4.473   3.602  12.084  0.6436 -1.4866  0.5277
  105TMC2    C1 1630   0.561   2.803  17.360 -0.1478  0.4347 -0.2108
  105TMC2    C2 1631   0.549   2.936  17.406 -0.2431  0.1391  0.3118
  105TMC2    C3 1632   0.471   2.959  17.516 -0.7082  0.3239  0.1415
  105TMC2    C4 1633   0.493   2.701  17.418 -0.1749  0.5583 -0.9504
  105TMC2    C5 1634   0.428   2.727  17.533  0.3863 -0.2630 -0.8051
  105TMC2    C6 1635   0.408   2.856  17.581 -0.3548  0.2011  0.2871
  105TMC2     C 1636   0.631   2.775  17.239 -0.6126 -0.4487 -0.6042
  105TMC2     O 1637   0.586   2.679  17.180  0.0879 -0.3866 -0.2237
  105TMC2     H 1638   0.599   3.016  17.353  1.4210  0.0957  1.7900
  105TMC2    H1 1639   0.514   2.604  17.375  1.8182  0.9837 -0.9635
  105TMC2    H2 1640   0.331   2.878  17.654 -0.1186  1.1052  0.2591
  105TMC2    C7 1641   0.371   2.605  17.596 -0.3069  0.7043 -0.6466
  105TMC2    C8 1642   0.465   3.093  17.559 -1.1296 -0.0591 -0.2802
  105TMC2    O1 1643   0.402   2.500  17.544  0.5828  0.7653 -0.5241
  105TMC2    O2 1644   0.518   3.182  17.499  0.0126  0.2466 -0.1051
  105TMC2    O5 1645   0.464   3.092  17.689  0.0228 -0.0964  0.3563
  105TMC2    H5 1646   0.456   3.005  17.733 -0.1752 -0.3824 -0.2457
  106MPD2     C 1647   0.955   2.837  16.849  0.2322  0.1453  0.2405
  106MPD2    C1 1648   1.011   2.881  16.967 -0.3544  0.2437 -0.1185
  106MPD2    C2 1649   0.933   2.894  17.079 -0.1456  0.0685  0.7855
  106MPD2    C3 1650   0.803   2.851  17.080  0.2146  0.2846 -0.8621
  106MPD2    C4 1651   0.749   2.794  16.963  0.0099 -0.4292  0.1556
  106MPD2    C5 1652   0.830   2.781  16.854 -0.2010  0.2923  0.1155
  106MPD2     H 1653   0.978   2.926  17.172 -1.5152 -1.0931  1.8564
  106MPD2    H1 1654   0.650   2.751  16.960 -0.8076  1.4484  0.2040
  106MPD2    H2 1655   0.999   2.847  16.751 -0.8537  1.1634 -0.1314
  106MPD2    H3 1656   0.787   2.744  16.762 -0.1203 -0.6281  0.4549
  106MPD2     N 1657   0.726   2.863  17.203  0.3462 -0.0536 -0.4461
  106MPD2    H5 1658   0.757   2.933  17.270  2.7016 -2.8128  1.3709
  106MPD2    N1 1659   1.139   2.936  16.965  0.2351 -0.3443  0.0228
  106MPD2    H7 1660   1.165   2.996  17.042  0.1179  1.6802 -1.5021
  107TMC2    C1 1661   1.564   2.562  11.367  0.0674 -0.5798  0.0356
  107TMC2    C2 1662   1.530   2.694  11.380  0.3159  0.0786  0.7358
  107TMC2    C3 1663   1.589   2.778  11.289  0.0412 -0.8165 -0.9091
  107TMC2    C4 1664   1.661   2.523  11.281  0.0719  0.3569 -0.6571
  107TMC2    C5 1665   1.730   2.611  11.209 -0.6374 -0.0313 -0.3352
  107TMC2    C6 1666   1.701   2.743  11.217  0.1272 -0.6133 -0.2676
  107TMC2     C 1667   1.475   2.471  11.427  0.2149 -0.1560  0.1695
  107TMC2     O 1668   1.357   2.494  11.430 -0.1207 -0.5569  0.2777
  107TMC2     H 1669   1.444   2.727  11.437 -1.9746 -1.5565 -1.7628
  107TMC2    H1 1670   1.674   2.415  11.275  1.1003  0.6403 -3.3549
  107TMC2    H2 1671   1.748   2.815  11.152  1.4874  0.3583  1.7958
  107TMC2    C7 1672   1.845   2.574  11.139 -0.3453 -0.2877  0.0136
  107TMC2    C8 1673   1.565   2.924  11.296 -0.8874  0.2481  0.3204
  107TMC2    O1 1674   1.936   2.656  11.123  0.4152  0.2432  0.1234
  107TMC2    O2 1675   1.638   3.006  11.250  0.2803 -0.7849 -0.5503
  107TMC2    O5 1676   1.454   2.947  11.370  0.1022 -0.1472  0.4411
  107TMC2    H5 1677   1.387   2.875  11.371 -0.5493  0.4891  1.8979
  108MPD2     C 1678   1.540   2.151  11.599  0.0024  0.0120  0.1635
  108MPD2    C1 1679   1.472   2.265  11.572 -0.1229 -0.0682  0.3579
  108MPD2    C2 1680   1.350   2.296  11.641  0.1301 -0.3003 -0.5357
  108MPD2    C3 1681   1.311   2.208  11.740  0.3241  0.3388 -0.3350
  108MPD2    C4 1682   1.389   2.102  11.775  0.2464 -0.2673 -0.4799
  108MPD2    C5 1683   1.495   2.067  11.694 -0.3670 -0.2225  0.0780
  108MPD2     H 1684   1.296   2.386  11.614 -3.0369 -1.4253  1.9719
  108MPD2    H1 1685   1.372   2.050  11.868  2.2745  0.8444  0.5310
  108MPD2    H2 1686   1.634   2.121  11.554 -0.7619 -0.7378 -0.9193
  108MPD2    H3 1687   1.550   1.979  11.726 -1.8249 -0.0523  3.0892
  108MPD2     N 1688   1.203   2.232  11.831 -0.0335 -0.0254 -0.3795
  108MPD2    H5 1689   1.192   2.174  11.914 -2.1908  0.4963 -0.2912
  108MPD2    N1 1690   1.529   2.354  11.474  0.8315 -0.0457 -0.4526
  108MPD2    H7 1691   1.625   2.342  11.443  0.4820 -1.8652 -0.8317
  109TMC2    C1 1692   0.401   0.266   0.321 -0.8787 -0.5399 -0.2073
  109TMC2    C2 1693   0.343   0.388   0.331  0.1752 -0.0457 -0.0717
  109TMC2    C3 1694   0.428   0.493   0.344  0.0077  0.1299 -0.0004
  109TMC2    C4 1695   0.537   0.243   0.328 -0.0758 -0.0468  0.3777
  109TMC2    C5 1696   0.616   0.356   0.322 -0.2481  0.3846 -0.2834
  109TMC2    C6 1697   0.567   0.482   0.341 -0.7489 -0.2569 -0.7741
  109TMC2     C 1698   0.312   0.166   0.281 -0.6666 -0.0774  0.1261
  109TMC2     O 1699   0.217   0.195   0.210  0.2992  0.4808 -0.0690
  109TMC2     H 1700   0.236   0.393   0.352 -0.0096 -3.1984 -0.1977
  109TMC2    H1 1701   0.586   0.149   0.351 -0.6059 -0.5126 -0.3798
  109TMC2    H2 1702   0.631   0.567   0.362 -2.0330  0.4953  0.0673
  109TMC2    C7 1703   0.760   0.337   0.325  0.2529  0.2929  0.4032
  109TMC2    C8 1704   0.370   0.625   0.374 -0.1638 -0.2912 -0.1041
  109TMC2    O1 1705   0.824   0.441   0.322 -0.0802 -0.1781  0.1884
  109TMC2    O2 1706   0.261   0.656   0.319 -0.2005  0.5508  0.0978
  109TMC2    O5 1707   0.467   0.708   0.421  1.0783  0.0503  0.2089
  109TMC2    H5 1708   0.523   0.650   0.478 -1.0301 -0.0516  2.1652
  110MPD2     C 1709   0.161   4.419   0.332 -1.1127  0.0955 -0.1739
  110MPD2    C1 1710   0.262   4.441   0.422 -0.0766  0.3221  0.0934
  110MPD2    C2 1711   0.332   4.559   0.414 -0.0893  0.2253 -0.7033
  110MPD2    C3 1712   0.281   4.657   0.337 -0.4080  0.6243  0.5758
  110MPD2    C4 1713   0.168   4.643   0.261 -0.1429 -1.1477 -0.5626
  110MPD2    C5 1714   0.112   4.517   0.250  0.1752 -0.2211 -0.5758
  110MPD2     H 1715   0.415   4.572   0.483 -0.9440  0.9063  0.1791
  110MPD2    H1 1716   0.134   4.725   0.198  2.0922 -1.5386 -2.2432
  110MPD2    H2 1717   0.116   4.321   0.331 -0.0455 -0.3688 -1.9022
  110MPD2    H3 1718   0.033   4.499   0.178 -1.7956 -0.8666  1.7740
  110MPD2     N 1719   0.346   0.049   0.349 -0.1658  0.3158  0.0696
  110MPD2    H5 1720   0.422   0.057   0.417  0.7985  0.6005 -1.0387
  110MPD2    N1 1721   0.288   4.333   0.516 -0.3258 -0.1394  0.0195
  110MPD2    H7 1722   0.229   4.251   0.508 -1.9169  0.7804  2.2390
  111TMC2    C1 1723   0.777   4.347  11.376  0.7466  0.0142 -0.2183
  111TMC2    C2 1724   0.755   4.215  11.412 -0.1030  0.3957 -1.1018
  111TMC2    C3 1725   0.858   4.126  11.395  0.2645  0.6357  0.3737
  111TMC2    C4 1726   0.905   4.382  11.337 -0.0708  0.1646 -0.4316
  111TMC2    C5 1727   1.000   4.292  11.311 -0.1256  0.7709  0.3489
  111TMC2    C6 1728   0.981   4.164  11.359 -0.0083  0.0486  0.0591
  111TMC2     C 1729   0.671   4.452  11.396  0.4478  0.5720 -0.0524
  111TMC2     O 1730   0.569   4.426  11.458  0.3199  0.0444  0.0182
  111TMC2     H 1731   0.661   4.169  11.438 -0.9772  2.7613 -0.0497
  111TMC2    H1 1732   0.929   4.487  11.322  0.7943  0.3885  2.5306
  111TMC2    H2 1733   1.046   4.088  11.319 -1.4575 -1.5223  0.7014
  111TMC2    C7 1734   1.133   4.343  11.305 -0.0414 -0.6436 -0.0527
  111TMC2    C8 1735   0.828   4.002  11.461 -0.9732  0.2716 -0.0987
  111TMC2    O1 1736   1.220   4.280  11.365  0.3675 -0.1572  0.3396
  111TMC2    O2 1737   0.718   3.948  11.461  0.3083 -0.4553 -0.7703
  111TMC2    O5 1738   0.918   3.973  11.561  0.1342  0.7194 -0.0614
  111TMC2    H5 1739   1.002   4.023  11.548  0.8416 -0.4917 -0.1659
  112MPD2     C 1740   0.493   0.185  11.261  0.5191  0.2725 -0.1219
  112MPD2    C1 1741   0.582   0.134  11.169 -0.0964  0.0861 -0.2768
  112MPD2    C2 1742   0.644   0.013  11.185 -0.1760  0.2864 -0.6350
  112MPD2    C3 1743   0.621   4.666  11.295 -0.5918  0.0633  0.5217
  112MPD2    C4 1744   0.530   4.715  11.390  0.6066 -0.3118 -0.2423
  112MPD2    C5 1745   0.468   0.105  11.369  0.2454  0.1252 -0.0719
  112MPD2     H 1746   0.725   4.726  11.116  0.3966  2.0895 -0.5114
  112MPD2    H1 1747   0.520   4.661  11.484 -1.1045  0.5120  0.0310
  112MPD2    H2 1748   0.441   0.278  11.246 -1.3704 -0.6616  0.6542
  112MPD2    H3 1749   0.411   0.154  11.447  0.2790  0.8924 -0.5270
  112MPD2     N 1750   0.704   4.556  11.315 -0.2342  0.1775 -0.3026
  112MPD2    H5 1751   0.778   4.549  11.246 -0.1470 -4.9095  0.3453
  112MPD2    N1 1752   0.620   0.195  11.051  0.0309  0.2497 -0.5450
  112MPD2    H7 1753   0.694   0.149  11.000  0.1927  1.5696 -1.4842
  113TMC2    C1 1754   4.059   2.236   0.378  0.4477  0.1421 -0.5256
  113TMC2    C2 1755   4.109   2.316   0.275 -0.7314 -0.2407  0.8859
  113TMC2    C3 1756   4.028   2.359   0.177 -0.1619  0.5389  0.5624
  113TMC2    C4 1757   3.931   2.201   0.389  0.3234  0.1073 -0.5207
  113TMC2    C5 1758   3.851   2.237   0.286  0.4041  0.1132  0.1031
  113TMC2    C6 1759   3.898   2.306   0.175 -0.1860  0.0808  0.2294
  113TMC2     C 1760   4.150   2.194   0.487 -0.8792 -0.0798 -0.1286
  113TMC2     O 1761   4.244   2.266   0.515 -0.4019 -0.3193  0.2698
  113TMC2     H 1762   4.214   2.341   0.267 -1.7000  2.8816 -2.3799
  113TMC2    H1 1763   3.891   2.156   0.479  0.8998  1.3877  0.3703
  113TMC2    H2 1764   3.836   2.331   0.090 -0.3133  3.3628  1.2853
  113TMC2    C7 1765   3.706   2.217   0.306 -0.2383  0.4478  0.1731
  113TMC2    C8 1766   4.073   2.432   0.058  0.0475  0.1184 -0.4530
  113TMC2    O1 1767   3.632   2.291   0.242  0.4711 -0.1398  0.2703
  113TMC2    O2 1768   4.007   2.433  17.688  1.0187  0.1194 -0.4111
  113TMC2    O5 1769   4.141   2.542   0.098 -0.3575  0.6876  0.7116
  113TMC2    H5 1770   4.193   2.532   0.180  1.4453 -0.8154 -0.6104
  114MPD2     C 1771   4.325   1.852   0.831 -0.1250  0.0941 -0.7383
  114MPD2    C1 1772   4.348   1.989   0.822  0.1889  0.2010 -0.0498
  114MPD2    C2 1773   4.283   2.061   0.719  0.3878 -0.5233 -0.7071
  114MPD2    C3 1774   4.186   2.000   0.636  0.4696  0.2044  0.1768
  114MPD2    C4 1775   4.149   1.868   0.660  0.4771 -0.2591 -0.6489
  114MPD2    C5 1776   4.222   1.798   0.755 -0.7907  0.8412  0.2952
  114MPD2     H 1777   4.310   2.165   0.705  2.2886 -0.7978  0.9065
  114MPD2    H1 1778   4.066   1.828   0.604  0.1381 -2.1295  1.1698
  114MPD2    H2 1779   4.388   1.791   0.893 -0.1931  0.9704  0.1904
  114MPD2    H3 1780   4.206   1.696   0.786 -1.0568  0.9808  0.6227
  114MPD2     N 1781   4.116   2.070   0.540  0.1502  0.3176 -0.4303
  114MPD2    H5 1782   4.038   2.025   0.493 -1.1340 -0.2798  2.2390
  114MPD2    N1 1783   4.444   2.058   0.899  0.7353 -0.2505  0.2180
  114MPD2    H7 1784   4.446   2.159   0.894 -1.3583 -0.3252 -2.2808
  115TMC2    C1 1785   0.454   0.289  17.354 -0.5155 -0.1519 -0.2686
  115TMC2    C2 1786   0.589   0.293  17.354 -0.5561 -0.0000  0.1628
  115TMC2    C3 1787   0.657   0.405  17.315 -0.3339  0.0483 -0.0419
  115TMC2    C4 1788   0.387   0.400  17.305  0.2446 -0.4884 -0.6806
  115TMC2    C5 1789   0.457   0.508  17.262 -0.5931 -0.2499  0.6644
  115TMC2    C6 1790   0.590   0.518  17.274  0.2085  0.6232  0.5192
  115TMC2     C 1791   0.385   0.158  17.341 -0.3876 -0.2172  0.1294
  115TMC2     O 1792   0.447   0.065  17.285  0.3766  0.4577  0.3613
  115TMC2     H 1793   0.641   0.202  17.382 -1.3277 -0.6895 -0.6429
  115TMC2    H1 1794   0.280   0.399  17.295  0.3478  3.1517 -2.0960
  115TMC2    H2 1795   0.644   0.608  17.252  1.6878 -0.9060 -2.0731
  115TMC2    C7 1796   0.385   0.614  17.195  0.6324 -0.0808 -0.0676
  115TMC2    C8 1797   0.801   0.423  17.334 -0.2685 -0.6794  0.0978
  115TMC2    O1 1798   0.265   0.589  17.180 -0.1729 -0.2453 -0.1725
  115TMC2    O2 1799   0.854   0.528  17.357  0.3892 -0.1707 -0.2070
  115TMC2    O5 1800   0.857   0.325  17.258  0.3414 -0.0805 -0.8966
  115TMC2    H5 1801   0.788   0.257  17.242 -0.6819 -0.0018  3.1180
  116MPD2     C 1802   4.683   4.628  17.305  0.2149 -0.2265 -0.5979
  116MPD2    C1 1803   0.082   4.586  17.286 -0.2680  0.1056  0.4900
  116MPD2    C2 1804   0.184   4.674  17.306  0.0659 -0.4462 -0.4604
  116MPD2    C3 1805   0.150   0.069  17.356 -0.0791  0.0365  0.6351
  116MPD2    C4 1806   0.017   0.101  17.385 -0.6058  0.2056 -0.7094
  116MPD2    C5 1807   4.651   0.017  17.351  0.3552  0.2476  0.0488
  116MPD2     H 1808   0.283   4.639  17.279 -0.3225 -0.9740 -1.2195
  116MPD2    H1 1809   4.723   0.199  17.422  1.8406  1.3236 -1.8220
  116MPD2    H2 1810   4.600   4.570  17.266  1.4199 -2.3963  0.0198
  116MPD2    H3 1811   4.546   0.044  17.358  0.4337  0.4388  0.4730
  116MPD2     N 1812   0.251   0.168  17.370 -0.2682 -0.7805 -0.1422
  116MPD2    H5 1813   0.221   0.258  17.406 -0.6130 -1.5420  1.4767
  116MPD2    N1 1814   0.101   4.471  17.211  0.1430  0.2297  0.1575
  116MPD2    H7 1815   0.013   4.428  17.181  0.6579  1.2940 -2.9042
  117TMC2    C1 1816   3.943   1.299  13.422  0.8127 -0.0649 -0.0980
  117TMC2    C2 1817   4.045   1.224  13.378  0.0684  0.2927  0.1193
  117TMC2    C3 1818   4.176   1.283  13.377 -0.2867 -0.4582  0.8944
  117TMC2    C4 1819   3.963   1.423  13.479  0.7188 -0.1322  0.0680
  117TMC2    C5 1820   4.090   1.482  13.466  0.4049  0.1072 -0.5701
  117TMC2    C6 1821   4.193   1.416  13.411  0.3878  0.3026  0.2516
  117TMC2     C 1822   3.808   1.237  13.421 -0.5708 -0.1744 -0.5889
  117TMC2     O 1823   3.808   1.112  13.410 -0.4076  0.5592  0.2370
  117TMC2     H 1824   4.029   1.133  13.321 -0.6357 -0.1946  1.0798
  117TMC2    H1 1825   3.880   1.491  13.493  1.9538  0.9235  2.3401
  117TMC2    H2 1826   4.290   1.465  13.401  0.5164 -0.2068 -1.0415
  117TMC2    C7 1827   4.114   1.612  13.525 -0.4510  0.2769 -0.1941
  117TMC2    C8 1828   4.288   1.214  13.315  0.1995 -0.2536 -0.3377
  117TMC2    O1 1829   4.208   1.677  13.472  0.4181 -0.0747  0.3541
  117TMC2    O2 1830   4.368   1.275  13.241  0.3066 -0.1046  0.0974
  117TMC2    O5 1831   4.244   1.092  13.278  0.1241  0.5609 -0.5118
  117TMC2    H5 1832   4.178   1.051  13.338 -1.2273  1.1539 -1.5897
  118MPD2     C 1833   3.844   1.813  13.665 -0.0379 -0.0307 -0.1468
  118MPD2    C1 1834   3.982   1.787  13.637  0.5945 -0.2320  0.2638
  118MPD2    C2 1835   4.067   1.893  13.635 -0.0740 -0.2182  0.3909
  118MPD2    C3 1836   4.008   2.021  13.665  0.1902  0.4130 -0.3440
  118MPD2    C4 1837   3.874   2.036  13.686 -0.5474  0.2884  0.0153
  118MPD2    C5 1838   3.793   1.930  13.689 -0.5870 -0.3602  0.3775
  118MPD2     H 1839   4.173   1.884  13.612 -0.2872 -0.4615 -0.5162
  118MPD2    H1 1840   3.837   2.137  13.704 -0.9797  0.5893 -2.5946
  118MPD2    H2 1841   3.772   1.731  13.654  2.0600 -1.6579 -1.6769
  118MPD2    H3 1842   3.686   1.947  13.692 -0.5628 -0.5636  2.6816
  118MPD2     N 1843   4.075   2.140  13.673  0.1410  1.4324 -0.0943
  118MPD2    H5 1844   4.024   2.228  13.676 -1.9506  0.2089  0.4659
  118MPD2    N1 1845   4.006   1.653  13.600  0.0486 -0.4104  0.3208
  118MPD2    H7 1846   3.931   1.588  13.620  1.5302 -1.7042  1.7488
  119TMC2    C1 1847   2.503   2.623  12.809  0.1719  0.5328 -0.0022
  119TMC2    C2 1848   2.518   2.560  12.932  0.0663  0.2090 -0.0602
  119TMC2    C3 1849   2.402   2.514  12.987  0.2837  0.0158 -0.2302
  119TMC2    C4 1850   2.374   2.639  12.755 -0.0698 -0.4785  0.2317
  119TMC2    C5 1851   2.261   2.608  12.824 -0.7962 -0.1467 -0.6406
  119TMC2    C6 1852   2.279   2.545  12.951  0.6551  0.0157 -0.8743
  119TMC2     C 1853   2.566   2.750  12.808 -0.3822  0.6731  0.6926
  119TMC2     O 1854   2.561   2.792  12.923  0.1481  0.1213  0.1120
  119TMC2     H 1855   2.615   2.557  12.981  0.2202  2.0541 -0.2350
  119TMC2    H1 1856   2.357   2.680  12.656  0.3495 -1.6166 -0.3146
  119TMC2    H2 1857   2.198   2.529  13.021  2.0905  1.3451  1.1152
  119TMC2    C7 1858   2.136   2.665  12.781 -0.3190  0.2339 -0.6153
  119TMC2    C8 1859   2.417   2.502  13.130  0.0071  0.7171 -0.3659
  119TMC2    O1 1860   2.142   2.756  12.704 -0.0036 -0.7549  0.4564
  119TMC2    O2 1861   2.329   2.535  13.208  0.0961  0.8708  0.0154
  119TMC2    O5 1862   2.500   2.400  13.147  0.1053 -0.0387 -0.2906
  119TMC2    H5 1863   2.562   2.379  13.075  1.8997 -1.1190  1.5530
  120MPD2     C 1864   2.461   3.165  12.551 -0.0742 -0.4739  0.2802
  120MPD2    C1 1865   2.448   3.133  12.687 -0.4595  0.7328  0.2185
  120MPD2    C2 1866   2.495   3.016  12.733  0.5265 -0.5404  0.0802
  120MPD2    C3 1867   2.567   2.934  12.647  0.9996  0.6013 -0.5189
  120MPD2    C4 1868   2.603   2.978  12.522  1.2783 -0.2590  0.0661
  120MPD2    C5 1869   2.546   3.089  12.481 -0.2309  0.4582  0.3310
  120MPD2     H 1870   2.462   2.985  12.831 -3.8262 -0.8603 -1.5087
  120MPD2    H1 1871   2.687   2.937  12.468  0.8664  0.7868 -1.3806
  120MPD2    H2 1872   2.420   3.255  12.507 -0.3495  0.0035  1.4991
  120MPD2    H3 1873   2.570   3.126  12.382  1.4844  3.2201  1.7879
  120MPD2     N 1874   2.598   2.802  12.688  0.2084  0.1323  0.0554
  120MPD2    H5 1875   2.626   2.742  12.611  1.0130  0.0559  0.4065
  120MPD2    N1 1876   2.372   3.219  12.765 -0.2088  0.3477  0.1270
  120MPD2    H7 1877   2.319   3.291  12.716 -1.1041  0.0088  0.5874
  121TMC2    C1 1878   2.821   4.560  14.130  0.1340  0.5711 -0.4328
  121TMC2    C2 1879   2.872   4.474  14.226  1.0646 -0.3076  0.8853
  121TMC2    C3 1880   2.789   4.401  14.311  0.4277  0.3921  0.2380
  121TMC2    C4 1881   2.689   4.579  14.127  0.3664 -0.1334 -0.7322
  121TMC2    C5 1882   2.604   4.509  14.211  0.2662  0.0039  0.3508
  121TMC2    C6 1883   2.657   4.422  14.308 -0.3771 -0.0701 -0.6023
  121TMC2     C 1884   2.904   4.669  14.104 -0.3492  0.0482 -0.0833
  121TMC2     O 1885   2.980   4.704  14.195 -0.1755 -0.7363 -0.4791
  121TMC2     H 1886   2.979   4.481  14.240  1.0853  1.0863  0.0408
  121TMC2    H1 1887   2.642   4.643  14.053  1.1798  2.9736  1.4083
  121TMC2    H2 1888   2.599   4.362  14.377 -0.4071 -0.9483 -1.3863
  121TMC2    C7 1889   2.461   4.512  14.212  0.2045 -0.2439  0.5753
  121TMC2    C8 1890   2.859   4.348  14.431 -1.0069  0.3352 -0.2099
  121TMC2    O1 1891   2.414   4.415  14.262  0.1467 -0.1014  0.0815
  121TMC2    O2 1892   2.979   4.334  14.431  0.2042  0.4507  0.3589
  121TMC2    O5 1893   2.779   4.359  14.542  0.1001  0.1883  0.5342
  121TMC2    H5 1894   2.687   4.393  14.545  0.2056  0.4078  1.2834
  122MPD2     C 1895   3.150   0.061  13.972  0.3838  0.3396  0.3892
  122MPD2    C1 1896   3.023   0.033  13.910  0.1063  0.0166  0.0806
  122MPD2    C2 1897   3.010   0.073  13.778 -1.2896 -0.3757 -0.3499
  122MPD2    C3 1898   3.107   0.138  13.714  0.2013  0.3605  0.0132
  122MPD2    C4 1899   3.225   0.169  13.778  0.6104 -0.2111 -0.1935
  122MPD2    C5 1900   3.253   0.127  13.905 -0.1572  0.3331  0.0659
  122MPD2     H 1901   2.920   0.047  13.723 -0.3141 -0.1421 -2.0740
  122MPD2    H1 1902   3.299   0.217  13.715  2.3536 -1.1846  1.1402
  122MPD2    H2 1903   3.174   0.033  14.074 -0.7154  3.8057  1.6231
  122MPD2    H3 1904   3.343   0.145  13.963  1.5358 -0.7128 -2.2484
  122MPD2     N 1905   3.089   0.190  13.582  0.1758 -0.2156  0.3796
  122MPD2    H5 1906   3.158   0.259  13.553 -0.6431 -1.2604 -4.0529
  122MPD2    N1 1907   2.911   4.705  13.970 -0.4329  0.1252  0.0689
  122MPD2    H7 1908   2.845   4.662  13.906 -0.9245  0.3532  0.4191
  123TMC2    C1 1909   2.702   3.103  10.037 -0.2626 -0.9485  0.4923
  123TMC2    C2 1910   2.839   3.121  10.014 -0.1999  0.6787  0.5334
  123TMC2    C3 1911   2.905   3.011   9.964  0.1532  0.0895  0.5886
  123TMC2    C4 1912   2.634   2.987  10.001  0.2420 -0.5151 -0.2329
  123TMC2    C5 1913   2.705   2.885   9.948 -0.3732  0.2351  0.5153
  123TMC2    C6 1914   2.837   2.892   9.921  0.1955  0.4121  0.4869
  123TMC2     C 1915   2.623   3.221  10.057  0.4151  0.7252  0.6672
  123TMC2     O 1916   2.688   3.325  10.056  0.4478 -0.1482  0.0900
  123TMC2     H 1917   2.892   3.204  10.060 -0.5970 -0.3916  2.9129
  123TMC2    H1 1918   2.528   2.971  10.016  0.4627 -0.8332  1.0217
  123TMC2    H2 1919   2.889   2.798   9.902  0.5361  0.1903  2.4875
  123TMC2    C7 1920   2.647   2.749   9.945  0.4054 -0.1969 -0.2629
  123TMC2    C8 1921   3.052   3.011   9.975  0.4915 -0.5296  0.6290
  123TMC2    O1 1922   2.561   2.723  10.027  0.4919  0.1225  0.4438
  123TMC2    O2 1923   3.116   3.116   9.956  0.4640 -0.4715  0.1998
  123TMC2    O5 1924   3.103   2.891  10.013 -0.4466  0.2274 -0.1192
  123TMC2    H5 1925   3.047   2.813  10.032  1.2275 -0.1839  3.1825
  124MPD2     C 1926   2.242   3.489  10.264 -0.0696 -0.2867 -0.2273
  124MPD2    C1 1927   2.207   3.357  10.283  0.5428  0.5694 -0.0280
  124MPD2    C2 1928   2.298   3.262  10.241 -0.7978  0.0494 -0.2195
  124MPD2    C3 1929   2.410   3.291  10.157  0.1108 -0.3188 -0.3094
  124MPD2    C4 1930   2.426   3.417  10.120 -0.4410 -0.0776  0.0738
  124MPD2    C5 1931   2.351   3.517  10.177  0.2211  0.1248 -0.8716
  124MPD2     H 1932   2.289   3.155  10.260  0.7282 -0.1475 -0.6088
  124MPD2    H1 1933   2.514   3.449  10.065 -0.1801 -2.8524 -1.1371
  124MPD2    H2 1934   2.178   3.572  10.293 -0.1267 -0.8301  1.1959
  124MPD2    H3 1935   2.387   3.615  10.149  3.5577 -0.9072 -0.0960
  124MPD2     N 1936   2.500   3.192  10.106 -0.0650 -0.4272  0.0743
  124MPD2    H5 1937   2.474   3.099  10.139 -1.9135 -1.2903 -3.8241
  124MPD2    N1 1938   2.094   3.327  10.361  0.5465  0.3481  0.3573
  124MPD2    H7 1939   2.036   3.404  10.391  0.1085  0.4574 -0.7833
  125TMC2    C1 1940   1.907   4.062   8.815 -0.3507 -0.1018  0.1513
  125TMC2    C2 1941   1.799   4.089   8.897 -0.2467 -0.7826 -0.8161
  125TMC2    C3 1942   1.830   4.139   9.017 -0.2753  0.1506 -0.4146
  125TMC2    C4 1943   2.038   4.065   8.868 -0.3350 -0.3067 -0.2055
  125TMC2    C5 1944   2.061   4.125   8.989 -0.8506  0.2134  0.3583
  125TMC2    C6 1945   1.955   4.156   9.071 -0.3558  0.2830 -0.3736
  125TMC2     C 1946   1.883   4.010   8.685 -0.4623  0.1924  0.2671
  125TMC2     O 1947   1.769   3.969   8.667 -0.6027 -0.6296  0.5242
  125TMC2     H 1948   1.698   4.098   8.859  0.1674 -2.2230 -2.2950
  125TMC2    H1 1949   2.120   4.035   8.804  0.7730 -0.6780  1.3861
  125TMC2    H2 1950   1.969   4.210   9.164 -0.2355 -0.8319  0.2654
  125TMC2    C7 1951   2.189   4.126   9.061  0.3659 -0.5124  0.3544
  125TMC2    C8 1952   1.716   4.157   9.102 -0.2278 -0.1909  0.7037
  125TMC2    O1 1953   2.178   4.136   9.184 -0.7650  0.0231  0.1656
  125TMC2    O2 1954   1.605   4.189   9.063 -0.0450  0.3913 -0.5123
  125TMC2    O5 1955   1.746   4.111   9.228  0.3014 -0.5336 -0.0038
  125TMC2    H5 1956   1.836   4.073   9.234  1.6803  3.0949  2.8004
  126MPD1     C 1957   2.044   3.947   8.204 -0.2275 -0.2892  0.2090
  126MPD1    C1 1958   2.124   4.037   8.267  0.6253  0.1356  0.5367
  126MPD1    C2 1959   2.103   4.062   8.396 -0.4897  0.1844  0.3370
  126MPD1    C3 1960   1.999   3.998   8.464  0.0400  0.6457 -0.2980
  126MPD1    C4 1961   1.915   3.901   8.404  0.1899 -1.1070 -0.0112
  126MPD1    C5 1962   1.950   3.877   8.272 -0.3242  0.3532 -0.2754
  126MPD1     H 1963   2.177   4.117   8.453 -0.7590  2.4691 -1.4814
  126MPD1    H1 1964   1.829   3.858   8.453  1.2275 -2.3483  0.7271
  126MPD1    H2 1965   2.052   3.919   8.100 -3.1062  0.6640 -0.2670
  126MPD1    H3 1966   1.894   3.807   8.212 -1.1537  0.9605 -0.2232
  126MPD1     N 1967   1.990   4.033   8.600 -0.3201 -0.4616  0.0890
  126MPD1    H5 1968   2.071   4.082   8.638 -0.9902  2.0904 -1.7707
  126MPD1    N1 1969   2.238   4.084   8.198 -0.0359  1.1448 -0.6017
  126MPD1    H6 1970   2.273   4.172   8.235 -1.1953  0.4344  2.1517
  126MPD1    H7 1971   2.241   4.091   8.096 -2.3653 -0.7251 -0.7960
  127TMC2    C1 1972   3.750   2.908   9.511 -0.5095 -0.4555 -0.0601
  127TMC2    C2 1973   3.764   2.900   9.651  0.0397 -1.1390 -0.2633
  127TMC2    C3 1974   3.693   2.804   9.710  0.3751 -0.4670 -0.5955
  127TMC2    C4 1975   3.663   2.829   9.448 -0.2620  0.5049  0.1780
  127TMC2    C5 1976   3.614   2.720   9.510 -1.1440 -0.4595  0.3793
  127TMC2    C6 1977   3.623   2.710   9.648  0.4625 -0.1499  0.2322
  127TMC2     C 1978   3.822   3.006   9.436  1.0060  0.4185  0.0478
  127TMC2     O 1979   3.885   3.089   9.499 -0.2189 -0.3026  0.0069
  127TMC2     H 1980   3.837   2.962   9.702 -0.7014  0.1901 -0.8226
  127TMC2    H1 1981   3.645   2.834   9.341  1.5619  0.3427 -0.1357
  127TMC2    H2 1982   3.589   2.626   9.707  2.5119  0.0348  1.6918
  127TMC2    C7 1983   3.503   2.650   9.441 -0.0957  0.4798 -0.3625
  127TMC2    C8 1984   3.715   2.772   9.850  0.7031  0.1951 -0.6879
  127TMC2    O1 1985   3.481   2.688   9.326  0.6047  0.6136 -0.2457
  127TMC2    O2 1986   3.643   2.696   9.913  0.1703  0.2752  0.0815
  127TMC2    O5 1987   3.841   2.800   9.878 -0.0337  0.9117 -0.0296
  127TMC2    H5 1988   3.897   2.821   9.801 -1.4907 -1.5796 -1.7793
  128MPD2     C 1989   3.870   3.050   9.069 -0.4148 -0.4555  0.3235
  128MPD2    C1 1990   3.873   3.083   9.198  0.3266  0.4965  0.1443
  128MPD2    C2 1991   3.908   3.215   9.229 -0.2197 -0.2470 -0.3024
  128MPD2    C3 1992   3.944   3.302   9.128  0.0427 -0.2130 -0.2857
  128MPD2    C4 1993   3.956   3.263   8.999  0.3243 -0.1281  0.6664
  128MPD2    C5 1994   3.935   3.133   8.978 -0.4604  0.5133 -0.0300
  128MPD2     H 1995   3.915   3.261   9.327 -0.7039 -1.0695  0.1209
  128MPD2    H1 1996   3.979   3.318   8.908  0.0548  1.3234  1.4811
  128MPD2    H2 1997   3.838   2.951   9.039 -0.2501 -0.7597  1.1359
  128MPD2    H3 1998   3.954   3.093   8.879  2.4602 -0.0300  0.7457
  128MPD2     N 1999   3.976   3.435   9.161  0.3063  0.5972  0.1376
  128MPD2    H5 2000   4.001   3.447   9.259 -1.8541 -0.7310  0.8404
  128MPD2    N1 2001   3.829   2.983   9.295 -0.2128  0.1592  0.3244
  128MPD2    H7 2002   3.798   2.897   9.249  0.3765  1.2545 -2.1548
  129TMC2    C1 2003   2.937   3.286   0.989 -0.1075  0.4095 -1.1146
  129TMC2    C2 2004   2.908   3.389   1.072  0.3652  0.6589 -0.7340
  129TMC2    C3 2005   2.816   3.367   1.173  0.6918 -0.4569  0.0524
  129TMC2    C4 2006   2.872   3.162   1.002 -0.8249  0.0554 -0.3267
  129TMC2    C5 2007   2.786   3.147   1.110  0.1856 -0.0198  0.7439
  129TMC2    C6 2008   2.758   3.246   1.195 -0.2486  0.0699  0.1961
  129TMC2     C 2009   3.012   3.307   0.858 -0.5627 -0.3186  0.8537
  129TMC2     O 2010   3.021   3.204   0.787 -0.1800 -0.0441  0.3031
  129TMC2     H 2011   2.950   3.487   1.048  1.8419 -0.1464 -1.4376
  129TMC2    H1 2012   2.883   3.082   0.930  1.6711  0.3960 -0.3245
  129TMC2    H2 2013   2.693   3.231   1.281 -0.4374  1.6060  0.3212
  129TMC2    C7 2014   2.677   3.045   1.110 -0.1377  0.7581 -0.1383
  129TMC2    C8 2015   2.802   3.471   1.281 -0.8604 -0.0064  0.5670
  129TMC2    O1 2016   2.568   3.084   1.156  0.3517 -0.6391  0.1649
  129TMC2    O2 2017   2.756   3.449   1.394 -0.1958 -0.3607  0.2582
  129TMC2    O5 2018   2.805   3.587   1.234 -0.2562  0.0892  0.1629
  129TMC2    H5 2019   2.856   3.593   1.150  2.5584 -0.6700  1.8289
  130MPD2     C 2020   3.140   3.393   0.601 -0.1318 -0.1313  0.3109
  130MPD2    C1 2021   3.134   3.471   0.712 -0.2792  0.2642  0.4461
  130MPD2    C2 2022   3.185   3.596   0.696 -0.4771  0.1380  0.3848
  130MPD2    C3 2023   3.249   3.642   0.587 -1.0138  0.4397 -0.3492
  130MPD2    C4 2024   3.259   3.559   0.473 -0.1499 -0.6298  0.1772
  130MPD2    C5 2025   3.201   3.436   0.484  0.0645  0.3025  0.3667
  130MPD2     H 2026   3.175   3.664   0.780 -1.7201  0.7095 -0.2280
  130MPD2    H1 2027   3.309   3.587   0.382  0.7959  0.0177  0.8979
  130MPD2    H2 2028   3.102   3.292   0.606  0.6524 -0.3921  0.9443
  130MPD2    H3 2029   3.215   3.372   0.397  1.4513 -0.5635  1.2244
  130MPD2     N 2030   3.302   3.773   0.589 -0.5713 -0.3471  1.1903
  130MPD2    H5 2031   3.292   3.827   0.675 -0.3857  0.1416  0.9048
  130MPD2    N1 2032   3.067   3.433   0.835 -0.5064  0.2308  0.0122
  130MPD2    H7 2033   3.066   3.504   0.907 -0.8731 -0.3585  0.5912
  131TMC2    C1 2034   1.598   2.378  10.223  0.2763  0.1043 -0.1975
  131TMC2    C2 2035   1.503   2.279  10.244 -0.3126  0.8699  0.1613
  131TMC2    C3 2036   1.508   2.172  10.159 -1.2058  0.7124  0.2848
  131TMC2    C4 2037   1.710   2.356  10.142 -0.6181  0.5879  0.0147
  131TMC2    C5 2038   1.722   2.229  10.081  0.0111 -0.5554  0.4767
  131TMC2    C6 2039   1.620   2.139  10.094 -0.4175  0.0472  0.2079
  131TMC2     C 2040   1.610   2.495  10.302 -0.2958  0.1031  0.1639
  131TMC2     O 2041   1.702   2.568  10.275  0.0919  0.1872 -0.0655
  131TMC2     H 2042   1.416   2.282  10.308 -0.4656  2.6412 -0.1100
  131TMC2    H1 2043   1.766   2.443  10.110 -2.4606  2.6730  2.4556
  131TMC2    H2 2044   1.642   2.046  10.042 -0.1329  1.6604 -2.5827
  131TMC2    C7 2045   1.809   2.213   9.963 -0.7030  0.2777 -0.2225
  131TMC2    C8 2046   1.435   2.055  10.201  0.2516  0.2889 -0.6446
  131TMC2    O1 2047   1.788   2.118   9.890 -0.4859  0.3913  0.7257
  131TMC2    O2 2048   1.388   2.041  10.314 -0.2006 -0.1533 -0.3042
  131TMC2    O5 2049   1.422   1.971  10.095 -0.2128 -0.2478 -0.1950
  131TMC2    H5 2050   1.459   2.007  10.012  1.2208 -0.8048  0.2098
  132MPD2     C 2051   1.366   2.638  10.536  0.3627 -0.4567  0.9164
  132MPD2    C1 2052   1.483   2.633  10.463  0.0679  0.3921  0.2808
  132MPD2    C2 2053   1.575   2.738  10.471 -0.3417  0.0828  0.0658
  132MPD2    C3 2054   1.556   2.841  10.563  0.7813  0.2028  0.2799
  132MPD2    C4 2055   1.438   2.847  10.632 -0.7537  0.8643  0.1770
  132MPD2    C5 2056   1.349   2.740  10.624 -0.5980  0.2449  0.0097
  132MPD2     H 2057   1.660   2.747  10.404 -0.2845 -1.0164  0.0002
  132MPD2    H1 2058   1.418   2.918  10.712 -1.4468 -0.2829  1.0260
  132MPD2    H2 2059   1.287   2.563  10.540 -0.2227  0.0006 -2.4796
  132MPD2    H3 2060   1.265   2.746  10.693 -0.2573  0.2646  0.4257
  132MPD2     N 2061   1.661   2.937  10.581  0.3934  0.7430  0.5415
  132MPD2    H5 2062   1.745   2.917  10.529 -1.4097  1.5643 -2.7085
  132MPD2    N1 2063   1.496   2.521  10.378  0.4647 -0.5267  0.3276
  132MPD2    H7 2064   1.414   2.462  10.383 -0.1180  0.1593 -1.1601
  133TMC2    C1 2065   1.251   4.480   9.742  0.0503  0.3049  0.1691
  133TMC2    C2 2066   1.245   4.618   9.727 -0.3278  0.5875 -0.0713
  133TMC2    C3 2067   1.363   4.684   9.697 -0.5416 -0.8230 -0.3827
  133TMC2    C4 2068   1.371   4.413   9.738  0.1932  0.6499 -0.6960
  133TMC2    C5 2069   1.482   4.492   9.734  0.2741 -0.6000 -0.2503
  133TMC2    C6 2070   1.488   4.628   9.710  0.1388 -0.2031  0.1683
  133TMC2     C 2071   1.120   4.407   9.746  0.0038  0.6852 -0.8861
  133TMC2     O 2072   1.107   4.305   9.677  0.3484  0.0553 -0.1102
  133TMC2     H 2073   1.151   4.672   9.724 -0.7296  0.0326  2.5027
  133TMC2    H1 2074   1.378   4.305   9.736  2.1042  0.7176  2.0868
  133TMC2    H2 2075   1.576   4.692   9.703 -0.0416 -0.0510 -0.6896
  133TMC2    C7 2076   1.602   4.431   9.779  0.4874 -0.7188  0.2042
  133TMC2    C8 2077   1.343   0.092   9.670 -0.2322  0.2204 -0.1530
  133TMC2    O1 2078   1.594   4.309   9.796 -0.0415  0.4382  0.6724
  133TMC2    O2 2079   1.237   0.149   9.683  0.1907  0.0517 -0.2676
  133TMC2    O5 2080   1.438   0.141   9.583  0.4069 -0.0462  0.4471
  133TMC2    H5 2081   1.506   0.074   9.563  1.2356  1.0442 -0.3474
  134MPD2     C 2082   0.821   4.521   9.924  0.0366  0.0946  0.9762
  134MPD2    C1 2083   0.898   4.436   9.850  0.1847  0.5096  0.5175
  134MPD2    C2 2084   0.840   4.318   9.799 -0.3381 -0.2694  0.2079
  134MPD2    C3 2085   0.700   4.298   9.806  0.3900  0.2465  0.8689
  134MPD2    C4 2086   0.630   4.395   9.878 -0.4974  0.3177 -0.8770
  134MPD2    C5 2087   0.686   4.503   9.935 -0.5272  0.0601  0.0305
  134MPD2     H 2088   0.902   4.246   9.747  0.7319  0.0933  0.9966
  134MPD2    H1 2089   0.523   4.381   9.886 -0.0173 -2.5303  0.7840
  134MPD2    H2 2090   0.863   4.613   9.963  0.1744  1.0775 -1.4745
  134MPD2    H3 2091   0.633   4.576   9.995 -0.5217  1.1564 -1.3148
  134MPD2     N 2092   0.634   4.176   9.762 -0.2452 -0.1530 -0.1016
  134MPD2    H5 2093   0.534   4.192   9.747 -0.4310 -1.9798 -0.7815
  134MPD2    N1 2094   1.035   4.469   9.835 -0.0634  0.4051 -0.1768
  134MPD2    H7 2095   1.072   4.549   9.885 -1.3474  0.6442  0.3981
  135TMC2    C1 2096   2.378   4.482   8.906 -0.3474 -0.4031  0.6802
  135TMC2    C2 2097   2.325   4.434   8.789  0.4151  0.6492 -0.3697
  135TMC2    C3 2098   2.194   4.412   8.783  0.2660  0.1048 -0.0395
  135TMC2    C4 2099   2.292   4.522   9.002  0.0845 -0.1446 -0.1254
  135TMC2    C5 2100   2.163   4.496   8.991 -0.1479 -0.1273  0.5802
  135TMC2    C6 2101   2.107   4.440   8.878 -0.7865  0.2405  0.9221
  135TMC2     C 2102   2.510   4.546   8.896 -0.1975 -0.2919 -0.2196
  135TMC2     O 2103   2.529   4.637   8.976 -0.0426 -0.2338  0.0054
  135TMC2     H 2104   2.379   4.417   8.697  1.0736  1.1316 -0.0747
  135TMC2    H1 2105   2.341   4.545   9.096 -1.8471  1.1021  0.5738
  135TMC2    H2 2106   2.009   4.395   8.887 -1.3362  1.4527  0.9189
  135TMC2    C7 2107   2.081   4.485   9.113  0.4833 -0.2875 -0.1888
  135TMC2    C8 2108   2.148   4.338   8.668  0.0134 -0.4267  0.1679
  135TMC2    O1 2109   1.964   4.490   9.100 -0.4948  0.4146 -0.3300
  135TMC2    O2 2110   2.201   4.227   8.649  0.3577  0.0220 -0.2710
  135TMC2    O5 2111   2.015   4.372   8.646  0.2541 -0.2718  0.4066
  135TMC2    H5 2112   1.993   4.464   8.673 -0.3335 -0.3443  0.1900
  136MPD2     C 2113   2.794   4.646   8.843  0.4086 -0.0279 -0.1110
  136MPD2    C1 2114   2.730   4.542   8.778 -0.0067  0.1213 -0.2003
  136MPD2    C2 2115   2.810   4.485   8.685 -0.5008  0.6463 -0.7042
  136MPD2    C3 2116   2.941   4.517   8.653  0.7427 -0.7636 -0.8035
  136MPD2    C4 2117   3.000   4.622   8.723  0.1964  0.4039 -1.1653
  136MPD2    C5 2118   2.924   4.684   8.816  0.3162 -0.4699  0.6502
  136MPD2     H 2119   2.768   4.400   8.630 -1.1636  0.9723 -0.7084
  136MPD2    H1 2120   3.095   4.665   8.693  0.8464 -0.7060 -0.6983
  136MPD2    H2 2121   2.730   4.709   8.903 -1.0805 -0.4400 -1.2685
  136MPD2    H3 2122   2.958   0.040   8.866  0.1791 -0.3567  0.5379
  136MPD2     N 2123   3.021   4.455   8.552  0.3004  0.1021  0.0780
  136MPD2    H5 2124   3.116   4.491   8.547  1.3697 -2.6301  0.9666
  136MPD2    N1 2125   2.599   4.501   8.800 -0.4350  0.3010 -0.5510
  136MPD2    H7 2126   2.575   4.416   8.750 -1.0427  0.2807 -0.2254
  137TMC2    C1 2127   3.233   3.059   9.000  0.2340 -0.1420 -0.3360
  137TMC2    C2 2128   3.359   3.012   8.967  0.8497  0.2890  0.1635
  137TMC2    C3 2129   3.397   2.887   9.010 -0.2897 -0.2805 -0.3156
  137TMC2    C4 2130   3.160   2.992   9.089  0.3811 -0.8349  0.3919
  137TMC2    C5 2131   3.204   2.859   9.126  0.5925  0.2478 -0.7896
  137TMC2    C6 2132   3.326   2.809   9.088  0.2889  0.3481  0.1420
  137TMC2     C 2133   3.207   3.199   8.990  0.0961 -0.5155 -0.0613
  137TMC2     O 2134   3.150   3.247   9.087  0.2188 -0.0980  0.1500
  137TMC2     H 2135   3.434   3.058   8.904  0.1207  2.7056  1.0972
  137TMC2    H1 2136   3.058   3.029   9.095  0.9258  0.4684  1.5934
  137TMC2    H2 2137   3.348   2.703   9.096  3.5872  1.0283  0.1509
  137TMC2    C7 2138   3.099   2.755   9.131 -0.5000 -0.5411  0.1622
  137TMC2    C8 2139   3.540   2.861   9.004 -0.3734 -0.3190 -1.4698
  137TMC2    O1 2140   3.119   2.650   9.070  0.2468 -0.4737  0.2118
  137TMC2    O2 2141   3.618   2.905   8.924  0.2142 -0.1372 -0.3003
  137TMC2    O5 2142   3.578   2.790   9.108  0.1879 -0.0271  0.1746
  137TMC2    H5 2143   3.512   2.768   9.177  0.4288 -1.1551  0.0328
  138MPD2     C 2144   3.344   3.442   8.742  0.6840 -0.2339  0.8942
  138MPD2    C1 2145   3.285   3.396   8.858  0.3171  0.3759  0.2016
  138MPD2    C2 2146   3.256   3.497   8.949 -1.5085 -0.5146 -0.2888
  138MPD2    C3 2147   3.272   3.635   8.919  0.1926 -0.5401  0.1249
  138MPD2    C4 2148   3.325   3.671   8.794 -0.1598  0.3892 -0.0495
  138MPD2    C5 2149   3.361   3.571   8.713 -0.3414 -0.3841 -0.1951
  138MPD2     H 2150   3.219   3.474   9.049 -0.6306 -0.1333  0.1238
  138MPD2    H1 2151   3.349   3.770   8.757  2.6446  0.6637  2.4986
  138MPD2    H2 2152   3.377   3.376   8.662  0.1114 -0.2318  0.6558
  138MPD2    H3 2153   3.389   3.585   8.609 -1.0245  1.8656 -0.0563
  138MPD2     N 2154   3.243   3.718   9.019  0.7301  1.0016  0.3740
  138MPD2    H5 2155   3.215   3.678   9.108  2.1214 -1.3346 -0.2654
  138MPD2    N1 2156   3.275   3.257   8.885  0.2762 -0.0324 -0.6888
  138MPD2    H7 2157   3.320   3.194   8.819 -1.2632 -1.4625 -0.4055
  139TMC2    C1 2158   3.623   2.474  13.098  0.8566  0.1067 -0.1059
  139TMC2    C2 2159   3.712   2.508  12.999 -0.1822  0.4516 -0.1170
  139TMC2    C3 2160   3.740   2.641  12.978  0.3800  0.3550 -0.0551
  139TMC2    C4 2161   3.549   2.556  13.174 -0.0931  0.0262  0.0400
  139TMC2    C5 2162   3.594   2.686  13.152 -0.3028  0.5701  0.4535
  139TMC2    C6 2163   3.675   2.732  13.051 -0.7266  0.0210  0.3101
  139TMC2     C 2164   3.605   2.328  13.109  0.7666 -0.4239 -0.1802
  139TMC2     O 2165   3.658   2.261  13.020 -0.1765  0.0077  0.6640
  139TMC2     H 2166   3.779   2.441  12.947  2.7207  2.3384  1.2272
  139TMC2    H1 2167   3.481   2.521  13.251  1.3597  0.1490  1.3707
  139TMC2    H2 2168   3.704   2.835  13.033  1.0009 -0.9847 -2.4948
  139TMC2    C7 2169   3.528   2.800  13.216 -0.6051 -0.6565 -0.0585
  139TMC2    C8 2170   3.865   2.686  12.922 -0.3463 -0.3445 -0.2921
  139TMC2    O1 2171   3.514   2.896  13.139  0.2394  0.4158 -0.1279
  139TMC2    O2 2172   3.923   2.620  12.838  0.2817 -0.0794  0.3229
  139TMC2    O5 2173   3.937   2.725  13.034 -0.4499 -0.9550 -0.6102
  139TMC2    H5 2174   3.883   2.744  13.114 -0.2943 -0.5621 -0.5989
  140MPD2     C 2175   3.492   2.103  13.387  0.3062 -1.2025 -0.3632
  140MPD2    C1 2176   3.573   2.148  13.279 -0.1801  0.0589 -0.2311
  140MPD2    C2 2177   3.654   2.049  13.214 -0.1177  0.0757 -0.1068
  140MPD2    C3 2178   3.656   1.916  13.261  0.0300 -0.0758  0.0314
  140MPD2    C4 2179   3.575   1.878  13.368  0.8567 -0.2290 -0.7824
  140MPD2    C5 2180   3.498   1.972  13.434  0.1062 -0.2307  0.7634
  140MPD2     H 2181   3.711   2.080  13.126 -0.8498 -1.0692 -0.9826
  140MPD2    H1 2182   3.584   1.784  13.421 -0.2491  0.2554  0.2630
  140MPD2    H2 2183   3.427   2.168  13.446 -0.7624 -2.3154 -0.3221
  140MPD2    H3 2184   3.441   1.948  13.523  0.0011  1.4534  1.1475
  140MPD2     N 2185   3.749   1.828  13.212  0.3867  1.3011  0.2146
  140MPD2    H5 2186   3.797   1.861  13.129  0.3975 -0.0708 -0.3078
  140MPD2    N1 2187   3.556   2.287  13.235 -0.0417  0.3760 -0.5986
  140MPD2    H7 2188   3.509   2.352  13.298  2.4120 -0.5485  2.1944
  141TMC2    C1 2189   3.381   4.064  13.835  0.0048  0.9277  0.2360
  141TMC2    C2 2190   3.287   3.963  13.832 -0.1404  0.3804 -0.0697
  141TMC2    C3 2191   3.166   3.988  13.874  0.4749  0.0956  0.2921
  141TMC2    C4 2192   3.364   4.183  13.895 -0.5009  0.4692  0.2916
  141TMC2    C5 2193   3.237   4.197  13.945 -0.2563  0.1143 -0.9562
  141TMC2    C6 2194   3.132   4.108  13.931 -0.0301  0.0203  0.1627
  141TMC2     C 2195   3.506   4.050  13.761 -0.2563 -0.0635  0.5456
  141TMC2     O 2196   3.505   3.992  13.651  0.3057  0.1285  0.4255
  141TMC2     H 2197   3.314   3.864  13.798  0.1163  1.0291 -1.7469
  141TMC2    H1 2198   3.439   4.262  13.898  1.1761 -1.0078 -2.4386
  141TMC2    H2 2199   3.032   4.117  13.971  0.8573 -2.1225  2.8950
  141TMC2    C7 2200   3.206   4.296  14.045 -0.5278 -0.1648  0.4564
  141TMC2    C8 2201   3.053   3.903  13.837 -0.2896 -0.0916 -0.0584
  141TMC2    O1 2202   3.096   4.352  14.049 -0.0987  0.0926 -0.3662
  141TMC2    O2 2203   2.947   3.894  13.900 -0.2556  0.0722  0.1823
  141TMC2    O5 2204   3.073   3.863  13.709 -0.1133  1.0320  0.0236
  141TMC2    H5 2205   3.164   3.877  13.676  0.2126 -0.1203  0.4180
  142TMC2    C1 2206   2.160   2.087  10.186 -0.4787 -0.6171  0.3639
  142TMC2    C2 2207   2.176   2.073  10.321 -0.6257 -0.0391  0.1966
  142TMC2    C3 2208   2.286   2.130  10.377  0.9297 -0.0618 -0.8765
  142TMC2    C4 2209   2.260   2.145  10.113 -0.2981 -0.3599  0.0373
  142TMC2    C5 2210   2.380   2.184  10.171  0.2241  0.3482  0.6570
  142TMC2    C6 2211   2.390   2.183  10.308  0.0949  0.1504 -0.2865
  142TMC2     C 2212   2.056   2.004  10.115  0.7184  1.1072 -0.9724
  142TMC2     O 2213   2.068   1.984   9.998  0.2255  0.1751  0.8764
  142TMC2     H 2214   2.114   2.012  10.386 -1.2725 -0.0729 -0.4566
  142TMC2    H1 2215   2.240   2.155  10.006 -0.0570  0.4357  0.0710
  142TMC2    H2 2216   2.458   2.246  10.364 -1.6406  1.7895 -0.0717
  142TMC2    C7 2217   2.455   2.286  10.098 -0.0873 -0.6912 -0.1561
  142TMC2    C8 2218   2.283   2.141  10.518 -0.0577 -0.1770 -0.2850
  142TMC2    O1 2219   2.538   2.356  10.160 -0.9835 -0.3293  0.4966
  142TMC2    O2 2220   2.178   2.145  10.580 -0.3427 -0.1494  0.3338
  142TMC2    O5 2221   2.410   2.131  10.561  0.3908  0.4590 -0.7326
  142TMC2    H5 2222   2.484   2.143  10.497  0.3620  1.5139 -0.5695
  143MPD2     C 2223   1.626   1.710  10.170  0.0794  0.1415  1.0189
  143MPD2    C1 2224   1.720   1.726  10.065  0.5664  0.4050 -0.5839
  143MPD2    C2 2225   1.828   1.808  10.077 -0.0336  0.1497  0.2489
  143MPD2    C3 2226   1.847   1.889  10.187 -0.7079  0.6905 -0.4615
  143MPD2    C4 2227   1.755   1.883  10.289 -0.4206 -0.0737 -0.0965
  143MPD2    C5 2228   1.653   1.788  10.284  0.4614 -0.7505  0.0853
  143MPD2     H 2229   1.899   1.815   9.995  0.9569 -0.8871  0.9940
  143MPD2    H1 2230   1.762   1.932  10.385 -1.8412 -1.5264  0.7422
  143MPD2    H2 2231   1.545   1.637  10.166  0.0996  0.0205  3.1820
  143MPD2    H3 2232   1.596   1.776  10.375 -0.1487  0.1250 -0.1860
  143MPD2     N 2233   1.962   1.968  10.206  0.3230  0.5306  0.0447
  143MPD2    H5 2234   1.963   2.021  10.292  4.4927  0.0942  0.2278
  143MPD2    N1 2235   1.709   1.638   9.962 -0.4847 -0.3854 -0.7519
  143MPD2    H7 2236   1.625   1.582   9.974  0.0473 -1.3343 -1.3938
  144TMC2    C1 2237   4.591   1.065   0.298  0.3007 -0.2513 -0.5976
  144TMC2    C2 2238   4.627   0.965   0.211  0.3676 -0.0323  0.3782
  144TMC2    C3 2239   0.033   0.936   0.216  0.2814 -0.3571 -0.0496
  144TMC2    C4 2240   4.677   1.138   0.379  0.7789 -0.2876  0.5607
  144TMC2    C5 2241   0.075   1.106   0.366 -0.6326  0.3102 -0.1304
  144TMC2    C6 2242   0.124   1.007   0.291 -0.2164 -0.2064 -0.4588
  144TMC2     C 2243   4.450   1.089   0.307 -0.8456 -0.3676 -0.1799
  144TMC2     O 2244   4.369   1.023   0.238  0.4691  0.1294  0.1310
  144TMC2     H 2245   4.557   0.935   0.133  1.9742  0.5665 -1.2981
  144TMC2    H1 2246   4.648   1.216   0.448  1.4639  1.7894 -1.5133
  144TMC2    H2 2247   0.227   0.973   0.295 -0.3388 -0.5226 -0.0762
  144TMC2    C7 2248   0.173   1.199   0.413 -0.1169 -0.2829  0.3521
  144TMC2    C8 2249   0.087   0.924   0.081  0.1991 -1.0360 -0.7042
  144TMC2    O1 2250   0.283   1.197   0.359  0.1321 -0.2552 -0.0390
  144TMC2    O2 2251   0.190   0.985   0.048  0.1476  0.3592 -0.6495
  144TMC2    O5 2252   0.001   0.866  17.727 -0.0600 -0.1688  0.3031
  144TMC2    H5 2253   4.684   0.808   0.052 -0.9023 -0.3899 -0.6359
  145MPD2     C 2254   4.048   1.324   0.511 -0.0011 -0.7345  0.4100
  145MPD2    C1 2255   4.065   1.280   0.384 -1.0198  0.2774 -0.0218
  145MPD2    C2 2256   4.180   1.211   0.352  0.0535 -0.2579 -0.4507
  145MPD2    C3 2257   4.288   1.221   0.442  0.0111  0.0614 -0.2554
  145MPD2    C4 2258   4.269   1.264   0.569 -0.0050  0.0140 -0.7149
  145MPD2    C5 2259   4.152   1.328   0.602 -0.0101 -0.4034 -0.2368
  145MPD2     H 2260   4.201   1.177   0.251  1.1444 -3.5396  0.8821
  145MPD2    H1 2261   4.352   1.258   0.639 -1.1217 -1.3641  0.4753
  145MPD2    H2 2262   3.963   1.383   0.546 -1.7366 -2.7553 -0.3801
  145MPD2    H3 2263   4.140   1.382   0.695 -3.3257 -1.1274 -0.2538
  145MPD2     N 2264   4.419   1.175   0.408 -0.0132  0.1098  0.4400
  145MPD2    H5 2265   4.497   1.228   0.445  0.3238 -0.9768  1.3123
  145MPD2    N1 2266   3.975   1.306   0.283 -0.8638 -0.7578 -0.0301
  145MPD2    H7 2267   4.004   1.277   0.190 -0.3344  1.1791 -0.4760
  146TMC2    C1 2268   1.623   0.680  12.301  0.2607  0.1901  0.5094
  146TMC2    C2 2269   1.607   0.803  12.241  0.5130 -0.4440  0.3689
  146TMC2    C3 2270   1.627   0.814  12.109  0.6821 -0.0692 -0.2290
  146TMC2    C4 2271   1.678   0.575  12.236  0.3139 -0.3780  0.8734
  146TMC2    C5 2272   1.702   0.596  12.097  0.4434  0.2604 -0.7509
  146TMC2    C6 2273   1.672   0.712  12.030  0.3928 -0.4172  0.3066
  146TMC2     C 2274   1.585   0.670  12.438 -0.3201 -0.2911 -0.3684
  146TMC2     O 2275   1.596   0.773  12.506 -0.2571  0.1589 -0.2327
  146TMC2     H 2276   1.577   0.886  12.304 -0.1035  0.5119 -1.1995
  146TMC2    H1 2277   1.723   0.492  12.289  0.6197 -1.9615 -1.8340
  146TMC2    H2 2278   1.700   0.727  11.927 -4.1024 -0.4730 -0.9456
  146TMC2    C7 2279   1.771   0.496  12.024 -0.0168  0.3046 -0.2340
  146TMC2    C8 2280   1.643   0.938  12.034  0.1851  0.5512  0.7137
  146TMC2    O1 2281   1.806   0.522  11.907  0.2963  0.4342 -0.2125
  146TMC2    O2 2282   1.728   0.958  11.949 -0.6051  0.4650  0.1529
  146TMC2    O5 2283   1.592   1.041  12.107 -0.6325 -0.0846  0.2697
  146TMC2    H5 2284   1.512   1.018  12.159  0.2785  0.2649  1.8256
  147MPD2     C 2285   2.054   0.077  11.950  0.0012  0.4055  0.2288
  147MPD2    C1 2286   1.974   0.056  12.063  0.0167 -0.1900  0.2310
  147MPD2    C2 2287   1.892   0.161  12.104  1.0523  0.2459  0.3057
  147MPD2    C3 2288   1.892   0.286  12.044 -0.4105 -0.3408  0.4663
  147MPD2    C4 2289   1.978   0.303  11.941 -0.3381 -0.1700 -0.0701
  147MPD2    C5 2290   2.057   0.198  11.894 -0.6051  0.0978 -0.1886
  147MPD2     H 2291   1.836   0.147  12.196  2.1664  0.4436  1.0115
  147MPD2    H1 2292   1.998   0.402  11.902  2.3922 -0.2249  1.1746
  147MPD2    H2 2293   2.135   0.010  11.923  3.1663  3.7894  1.2932
  147MPD2    H3 2294   2.125   0.209  11.810 -0.1219  0.7925  0.2977
  147MPD2     N 2295   1.807   0.388  12.096  0.5096 -0.7862  0.0597
  147MPD2    H5 2296   1.753   0.368  12.179 -1.7881  0.3546 -1.1558
  147MPD2    N1 2297   1.990   4.670  12.129 -0.0278  0.8610 -0.1992
  147MPD2    H7 2298   2.056   4.608  12.083  0.4707  1.8077 -0.7564
  148TMC2    C1 2299   0.868   3.922  10.503 -0.2343 -0.3360 -0.1530
  148TMC2    C2 2300   0.918   3.978  10.612 -0.2915  0.1330  0.0921
  148TMC2    C3 2301   1.009   3.902  10.682  0.0363  0.1792 -0.3471
  148TMC2    C4 2302   0.914   3.809  10.444  0.1102 -0.6608 -0.6841
  148TMC2    C5 2303   1.012   3.736  10.504  0.1836  0.0599 -0.3381
  148TMC2    C6 2304   1.054   3.784  10.629  0.7756 -0.6751  0.3493
  148TMC2     C 2305   0.734   3.972  10.476 -0.7684 -0.3838 -0.9483
  148TMC2     O 2306   0.706   4.086  10.497  0.1010 -0.4785  0.1471
  148TMC2     H 2307   0.883   4.073  10.652  0.4994 -0.2108  1.6211
  148TMC2    H1 2308   0.888   3.774  10.345 -3.4412  0.1708 -0.0442
  148TMC2    H2 2309   1.126   3.721  10.680  1.6574  0.4295  0.4676
  148TMC2    C7 2310   1.028   3.596  10.466  0.6438 -0.0651 -0.4679
  148TMC2    C8 2311   1.093   3.959  10.783  0.7057  0.0215  0.8248
  148TMC2    O1 2312   0.961   3.554  10.373 -0.0917 -0.3007  0.2629
  148TMC2    O2 2313   1.131   4.076  10.775  0.0224  0.5272  0.2105
  148TMC2    O5 2314   1.146   3.868  10.863  0.7004 -0.2452 -0.1065
  148TMC2    H5 2315   1.097   3.783  10.869  0.0605  0.1727  0.5827
  149MPD2     C 2316   0.441   4.013  10.387  0.0133 -0.4656  0.0191
  149MPD2    C1 2317   0.518   3.893  10.388  0.2763 -0.4246  0.0210
  149MPD2    C2 2318   0.450   3.785  10.333  0.4364  0.4770  0.2802
  149MPD2    C3 2319   0.322   3.788  10.283  0.8551 -0.4551  0.2184
  149MPD2    C4 2320   0.254   3.906  10.283  0.0485 -0.1957  0.2702
  149MPD2    C5 2321   0.315   4.014  10.331 -0.4332  0.0814 -0.0396
  149MPD2     H 2322   0.504   3.691  10.338  0.3070  0.2912 -1.4978
  149MPD2    H1 2323   0.150   3.911  10.252  0.3914  1.8359 -0.5000
  149MPD2    H2 2324   0.482   4.106  10.425 -1.9022 -0.0618  1.1122
  149MPD2    H3 2325   0.264   4.110  10.326  0.7784  0.6884 -0.7406
  149MPD2     N 2326   0.250   3.677  10.245  0.8447 -0.3850  0.0649
  149MPD2    H5 2327   0.155   3.696  10.214  0.9931 -2.1111 -1.3777
  149MPD2    N1 2328   0.653   3.875  10.420  0.3471  0.3357 -0.2968
  149MPD2    H7 2329   0.687   3.780  10.415 -0.9616 -0.1430 -0.2100
  150TMC2    C1 2330   3.373   2.791  12.128 -0.1719 -0.3418  0.2596
  150TMC2    C2 2331   3.335   2.900  12.049  0.0905 -1.3155  0.6094
  150TMC2    C3 2332   3.437   2.981  12.012  0.4720 -0.1111  0.7229
  150TMC2    C4 2333   3.499   2.766  12.180 -0.1628 -0.2860 -0.2006
  150TMC2    C5 2334   3.589   2.867  12.156  0.4718 -0.7728  0.2299
  150TMC2    C6 2335   3.563   2.969  12.064 -0.3922  0.9514  0.2934
  150TMC2     C 2336   3.287   2.672  12.141  0.0797 -0.7261  0.2941
  150TMC2     O 2337   3.318   2.583  12.215  0.0872 -0.4536 -0.3928
  150TMC2     H 2338   3.240   2.910  11.996  0.9195  2.1285 -0.2374
  150TMC2    H1 2339   3.518   2.673  12.232  1.1009  0.5678  0.8456
  150TMC2    H2 2340   3.641   3.037  12.034 -0.0866 -0.6347 -2.5056
  150TMC2    C7 2341   3.725   2.879  12.207 -0.5125 -0.2259 -0.1294
  150TMC2    C8 2342   3.414   3.059  11.886  0.0906  0.5487 -0.3250
  150TMC2    O1 2343   3.777   2.985  12.182 -0.7419  0.4861 -0.2302
  150TMC2    O2 2344   3.338   3.154  11.873  0.6425 -0.3984  0.4023
  150TMC2    O5 2345   3.533   3.054  11.824 -0.0606  0.5026  0.9950
  150TMC2    H5 2346   3.566   2.962  11.821  1.8048  1.1456  1.6241
  151MPD2     C 2347   2.806   2.499  12.091  0.9242  0.8826 -0.1211
  151MPD2    C1 2348   2.822   2.613  12.010  0.6285  0.0108  0.0328
  151MPD2    C2 2349   2.950   2.666  12.003 -0.2435 -0.5605  0.4944
  151MPD2    C3 2350   3.053   2.605  12.077  0.1288  0.5887 -0.9505
  151MPD2    C4 2351   3.026   2.508  12.170  0.0981 -0.8264 -1.1415
  151MPD2    C5 2352   2.902   2.455  12.170 -0.0319  0.6901  0.2683
  151MPD2     H 2353   2.974   2.750  11.937  0.3614 -1.8048 -0.8851
  151MPD2    H1 2354   3.103   2.464  12.233  0.9383  1.0655 -0.8551
  151MPD2    H2 2355   2.711   2.447  12.104  1.5182 -0.0342  0.5635
  151MPD2    H3 2356   2.891   2.367  12.233  2.5467 -0.2189 -0.5466
  151MPD2     N 2357   3.175   2.679  12.062 -0.5901 -0.4748  0.2117
  151MPD2    H5 2358   3.173   2.761  12.003  0.4415 -0.2313  0.5136
  151MPD2    N1 2359   2.710   2.641  11.936  0.1612 -0.2224  0.1096
  151MPD2    H7 2360   2.636   2.573  11.948 -0.4774  0.2737 -0.9847
  152TMC2    C1 2361   2.927   2.565  12.509 -0.4554 -0.0992 -0.3149
  152TMC2    C2 2362   3.007   2.457  12.507 -0.2307 -0.5191 -0.0897
  152TMC2    C3 2363   3.148   2.470  12.499  0.1008  0.2365 -0.3637
  152TMC2    C4 2364   2.983   2.689  12.524 -0.6314  0.1082 -0.2882
  152TMC2    C5 2365   3.122   2.694  12.530  0.5211  0.3908  0.1433
  152TMC2    C6 2366   3.210   2.587  12.504 -0.4428 -0.3666 -0.2271
  152TMC2     C 2367   2.781   2.556  12.503  0.1476 -0.3692  0.6757
  152TMC2     O 2368   2.721   2.660  12.478 -0.0010  0.4100  0.4713
  152TMC2     H 2369   2.969   2.357  12.491  1.6644 -1.7536  2.9973
  152TMC2    H1 2370   2.914   2.770  12.544  1.1519  1.6770 -0.5702
  152TMC2    H2 2371   3.317   2.606  12.503 -0.4815 -0.0915  0.9316
  152TMC2    C7 2372   3.170   2.828  12.508 -0.6874  0.6131  0.2442
  152TMC2    C8 2373   3.218   2.343  12.469 -0.7836  0.0875  0.0496
  152TMC2    O1 2374   3.084   2.898  12.449 -0.0413 -0.0310 -0.2027
  152TMC2    O2 2375   3.178   2.230  12.493 -0.4330 -0.2769 -0.3878
  152TMC2    O5 2376   3.307   2.373  12.375 -0.0249  0.2468 -1.2549
  152TMC2    H5 2377   3.310   2.466  12.345  1.4089  0.6354  0.0685
  153MPD2     C 2378   2.552   2.316  12.646  0.5108 -0.4188 -0.3560
  153MPD2    C1 2379   2.585   2.410  12.562  0.5837 -0.1143  0.1146
  153MPD2    C2 2380   2.488   2.480  12.500  0.1075  0.0532 -0.0296
  153MPD2    C3 2381   2.354   2.462  12.519 -0.3478  0.3032  0.1201
  153MPD2    C4 2382   2.323   2.372  12.616 -0.6012 -0.2938 -0.4991
  153MPD2    C5 2383   2.419   2.302  12.683  0.1652  0.4234 -0.0524
  153MPD2     H 2384   2.513   2.563  12.436 -1.9212 -1.9867 -3.4739
  153MPD2    H1 2385   2.220   2.352  12.643 -0.0387 -2.2116  0.2390
  153MPD2    H2 2386   2.621   2.260  12.708  1.5404  1.6181  0.3109
  153MPD2    H3 2387   2.391   2.231  12.759  1.2289 -0.3426 -0.3690
  153MPD2     N 2388   2.262   2.538  12.443  0.0373  0.6475 -0.5829
  153MPD2    H5 2389   2.294   2.599  12.368  0.1791 -2.0776 -2.7587
  153MPD2    N1 2390   2.725   2.440  12.553 -0.0585  0.8627 -0.6706
  153MPD2    H7 2391   2.795   2.374  12.585  0.1169  0.3680 -2.0984
  154TMC2    C1 2392   3.966   2.820  17.223 -0.6335 -0.1970  0.1342
  154TMC2    C2 2393   3.900   2.743  17.134 -0.3155  0.4880  0.0463
  154TMC2    C3 2394   3.945   2.734  17.005  0.0368  0.3044 -0.7057
  154TMC2    C4 2395   4.077   2.886  17.186 -0.6922  0.3964  0.0301
  154TMC2    C5 2396   4.121   2.877  17.055  0.1897  0.0798  0.0486
  154TMC2    C6 2397   4.052   2.799  16.962 -0.5354 -0.4212  0.3271
  154TMC2     C 2398   3.942   2.810  17.371  0.0919  0.3295  0.2709
  154TMC2     O 2399   4.034   2.846  17.443  0.4214  0.1035  0.3313
  154TMC2     H 2400   3.803   2.700  17.158 -1.3721  2.7873 -0.0805
  154TMC2    H1 2401   4.130   2.946  17.258 -0.7345 -0.2911  0.6284
  154TMC2    H2 2402   4.086   2.775  16.861 -0.3834 -0.8756  0.4877
  154TMC2    C7 2403   4.208   2.971  16.997  0.3728 -0.7635 -0.0875
  154TMC2    C8 2404   3.885   2.652  16.908  0.7399  0.2277 -0.3532
  154TMC2    O1 2405   4.243   2.951  16.882  0.0401 -0.5849 -0.0121
  154TMC2    O2 2406   3.881   2.691  16.792 -0.0127 -0.0883  0.7171
  154TMC2    O5 2407   3.810   2.554  16.969 -0.1767  0.2308 -0.1394
  154TMC2    H5 2408   3.816   2.548  17.067 -1.9879  2.1901  0.0729
  155MPD2     C 2409   3.689   2.611  17.558 -0.6548  0.1855 -0.0711
  155MPD2    C1 2410   3.796   2.700  17.541 -0.6902 -0.4581  0.2603
  155MPD2    C2 2411   3.858   2.741  17.654  0.6347  0.1467  0.0967
  155MPD2    C3 2412   3.827   2.693   0.042 -0.0252 -0.0386 -0.4296
  155MPD2    C4 2413   3.725   2.601   0.054 -0.1301  0.9043  0.5553
  155MPD2    C5 2414   3.661   2.548  17.680  0.2487  0.7940 -0.0937
  155MPD2     H 2415   3.944   2.806  17.645  0.7263 -0.0802 -0.6657
  155MPD2    H1 2416   3.704   2.551   0.148  0.0825  0.0366  0.1467
  155MPD2    H2 2417   3.633   2.587  17.468 -0.2520 -0.4087 -0.1566
  155MPD2    H3 2418   3.577   2.481  17.689 -0.4467  1.3064 -2.5179
  155MPD2     N 2419   3.888   2.759   0.149 -0.0602  0.4349 -0.3250
  155MPD2    H5 2420   3.966   2.821   0.130 -0.7774  1.2708 -0.5392
  155MPD2    N1 2421   3.826   2.745  17.410 -0.1123  0.0503 -0.2670
  155MPD2    H7 2422   3.769   2.706  17.335 -0.6557 -0.0460  0.2066
  156TMC2    C1 2423   2.768   0.156  11.535  0.1704 -0.4649 -0.0021
  156TMC2    C2 2424   2.738   0.031  11.497  0.4565 -0.7061 -0.5207
  156TMC2    C3 2425   2.680   0.008  11.370 -0.1281 -0.2703  0.6950
  156TMC2    C4 2426   2.738   0.263  11.454  0.6987  0.0843  0.3735
  156TMC2    C5 2427   2.689   0.242  11.325 -0.1297  0.0894 -0.2574
  156TMC2    C6 2428   2.662   0.115  11.278  0.4125 -0.4598 -0.2232
  156TMC2     C 2429   2.821   0.189  11.671 -0.1714  0.4636 -0.2076
  156TMC2     O 2430   2.861   0.301  11.688 -0.1467 -0.6208  0.1762
  156TMC2     H 2431   2.766   4.684  11.563  0.2599 -0.2035  0.1668
  156TMC2    H1 2432   2.764   0.365  11.482  3.2537  0.1761 -2.2492
  156TMC2    H2 2433   2.612   0.097  11.183 -0.5526  0.0499  0.1819
  156TMC2    C7 2434   2.656   0.365  11.246  1.1634  0.8896  0.0711
  156TMC2    C8 2435   2.700   4.609  11.319  0.0940 -0.1455 -0.0042
  156TMC2    O1 2436   2.650   0.472  11.306  0.0902  0.1173 -0.9843
  156TMC2    O2 2437   2.800   4.546  11.347 -0.0326  0.6293  0.2869
  156TMC2    O5 2438   2.637   4.607  11.198 -0.1460 -0.2582  0.2700
  156TMC2    H5 2439   2.560   4.668  11.202 -1.5227 -1.8644 -1.9907
  157MPD2     C 2440   2.823   4.723  11.978 -0.3820 -0.3129 -0.2704
  157MPD2    C1 2441   2.866   0.087  11.891 -0.2261 -0.8817  0.5201
  157MPD2    C2 2442   2.983   0.151  11.918 -0.2016 -0.3960 -0.7845
  157MPD2    C3 2443   3.057   0.122  12.030 -0.5767 -0.2837  0.0847
  157MPD2    C4 2444   3.025   0.009  12.103  0.4530 -0.3473 -1.1925
  157MPD2    C5 2445   2.910   4.678  12.073 -0.3849 -0.2958 -0.6963
  157MPD2     H 2446   3.017   0.225  11.847  0.4712  3.4676  3.5595
  157MPD2    H1 2447   3.082   4.715  12.191  0.0711  0.7279 -0.6052
  157MPD2    H2 2448   2.731   4.667  11.966 -0.5864 -0.2193  0.8992
  157MPD2    H3 2449   2.878   4.596  12.136  0.2499 -1.2034 -1.5562
  157MPD2     N 2450   3.152   0.218  12.078  0.3769 -0.0326 -0.2405
  157MPD2    H5 2451   3.179   0.292  12.014 -2.0537 -0.3115 -1.5565
  157MPD2    N1 2452   2.803   0.094  11.766  0.0128  0.3252 -0.8817
  157MPD2    H7 2453   2.740   0.018  11.742  0.7491  0.2360 -2.5067
  158TMC2    C1 2454   3.847   3.996  12.704 -0.3868  0.1126  0.2762
  158TMC2    C2 2455   3.887   4.017  12.579 -0.0981 -0.8394  0.0535
  158TMC2    C3 2456   3.796   4.055  12.486  0.0094  0.0845 -0.1976
  158TMC2    C4 2457   3.717   4.008  12.740 -0.2003  0.1356  0.3078
  158TMC2    C5 2458   3.622   4.045  12.644  0.3295 -0.1204 -0.4492
  158TMC2    C6 2459   3.662   4.072  12.513 -0.5580 -0.1259  0.2160
  158TMC2     C 2460   3.951   3.986  12.810 -0.8260  0.0575  0.1592
  158TMC2     O 2461   4.061   4.039  12.789 -0.3913  0.4978  0.5118
  158TMC2     H 2462   3.986   3.997  12.540  0.2949  1.9314 -0.3715
  158TMC2    H1 2463   3.706   4.005  12.848 -0.9909  1.8648  0.2700
  158TMC2    H2 2464   3.588   4.101  12.440 -0.2763  2.7051  1.0749
  158TMC2    C7 2465   3.480   4.051  12.682  0.5342 -0.3623  0.3806
  158TMC2    C8 2466   3.838   4.070  12.351  0.5308  0.6399  0.1136
  158TMC2    O1 2467   3.401   4.117  12.614 -0.4623 -0.6027  0.0169
  158TMC2    O2 2468   3.939   4.025  12.304 -0.1208 -0.3027  0.4924
  158TMC2    O5 2469   3.773   4.176  12.290 -0.0471 -0.3860 -0.4957
  158TMC2    H5 2470   3.723   4.229  12.356  0.5495 -0.9023  0.3735
  159MPD2     C 2471   4.134   3.883  13.270 -0.1729 -0.3825 -0.4336
  159MPD2    C1 2472   4.001   3.856  13.275 -1.1499  0.0072 -0.6120
  159MPD2    C2 2473   3.932   3.858  13.155 -0.4476  0.1578 -0.3588
  159MPD2    C3 2474   3.994   3.893  13.032  0.8157  0.7652 -0.4092
  159MPD2    C4 2475   4.132   3.919  13.032 -0.3584 -0.3829 -0.0471
  159MPD2    C5 2476   4.194   3.920  13.156  0.2201 -0.5767  0.9875
  159MPD2     H 2477   3.826   3.837  13.151 -0.4939  0.4601 -0.6584
  159MPD2    H1 2478   4.195   3.943  12.947 -0.4364  1.5679  0.4400
  159MPD2    H2 2479   4.194   3.874  13.361 -1.2441  2.3044  0.5413
  159MPD2    H3 2480   4.300   3.939  13.165  0.9196 -3.6755 -0.4847
  159MPD2     N 2481   3.912   3.913  12.917 -0.3666 -0.4820 -0.3539
  159MPD2    H5 2482   3.815   3.883  12.922 -0.9314  1.3508 -0.5983
  159MPD2    N1 2483   3.943   3.801  13.394  0.4427  0.9710  0.2751
  159MPD2    H7 2484   4.005   3.761  13.464 -0.1461 -0.4433 -0.0059
  160TMC2    C1 2485   2.780   1.474   1.022  0.2845  0.1995  0.4048
  160TMC2    C2 2486   2.692   1.396   1.093 -0.3780  0.4302  0.2080
  160TMC2    C3 2487   2.752   1.310   1.180 -0.3542  0.4146  1.1004
  160TMC2    C4 2488   2.920   1.459   1.021  0.9682 -0.6653  0.3398
  160TMC2    C5 2489   2.971   1.372   1.116  0.5898 -0.4675 -0.6021
  160TMC2    C6 2490   2.889   1.302   1.193  0.0669  0.3725 -0.6211
  160TMC2     C 2491   2.724   1.563   0.924  0.2036 -0.0683  0.1940
  160TMC2     O 2492   2.803   1.639   0.871 -0.3883 -0.3820  0.0700
  160TMC2     H 2493   2.584   1.410   1.098 -0.4881 -0.1261 -0.8958
  160TMC2    H1 2494   2.988   1.516   0.958  1.7653  0.7830  2.5153
  160TMC2    H2 2495   2.930   1.220   1.250 -1.1790  0.4207  0.3367
  160TMC2    C7 2496   3.113   1.364   1.149  0.0698  0.1304  0.4992
  160TMC2    C8 2497   2.657   1.214   1.232 -0.0986  0.6197  0.0431
  160TMC2    O1 2498   3.153   1.275   1.217 -0.1810  0.4941  0.1780
  160TMC2    O2 2499   2.563   1.177   1.165 -0.2624  0.4083  0.0257
  160TMC2    O5 2500   2.718   1.137   1.313 -0.1059  0.7694  0.2003
  160TMC2    H5 2501   2.790   1.186   1.359  1.0934 -0.7873 -0.0270
  161MPD2     C 2502   2.385   1.580   0.785 -0.9800 -0.6293 -0.1922
  161MPD2    C1 2503   2.508   1.627   0.820  0.3004 -0.9430 -0.2574
  161MPD2    C2 2504   2.554   1.743   0.758 -0.0423 -0.6284  0.2079
  161MPD2    C3 2505   2.460   1.817   0.684  0.0102 -0.2579 -0.0765
  161MPD2    C4 2506   2.339   1.751   0.638 -0.2604  0.1090  0.0373
  161MPD2    C5 2507   2.301   1.632   0.690  0.0943  0.2702 -0.3388
  161MPD2     H 2508   2.657   1.777   0.769 -0.5352  0.6085  0.9997
  161MPD2    H1 2509   2.275   1.805   0.569  0.7634  0.2408 -0.8064
  161MPD2    H2 2510   2.354   1.486   0.828 -0.3403 -0.9287 -0.3941
  161MPD2    H3 2511   2.214   1.584   0.647  0.1594 -0.0977 -0.0659
  161MPD2     N 2512   2.496   1.936   0.620  0.5689  0.1736  0.0634
  161MPD2    H5 2513   2.423   1.976   0.562  0.5655  0.0016 -0.0493
  161MPD2    N1 2514   2.586   1.546   0.907  0.4992 -0.7894 -0.2265
  161MPD2    H7 2515   2.532   1.481   0.963  0.6859 -1.0667 -0.3667
  162TMC2    C1 2516   1.437   3.724   1.086  0.4571  0.3550  0.0331
  162TMC2    C2 2517   1.375   3.799   1.182 -1.0176 -0.4502 -0.7827
  162TMC2    C3 2518   1.445   3.826   1.294  0.2655  0.5613  0.2708
  162TMC2    C4 2519   1.551   3.656   1.107 -1.0742  0.2867  0.0875
  162TMC2    C5 2520   1.618   3.682   1.223  0.2838  0.3193 -0.3195
  162TMC2    C6 2521   1.572   3.782   1.303 -0.5017  0.4346  0.0175
  162TMC2     C 2522   1.381   3.708   0.953 -0.1934  0.0248  0.0547
  162TMC2     O 2523   1.463   3.678   0.866 -0.5275  0.3271  1.0043
  162TMC2     H 2524   1.290   3.865   1.166 -0.1555  0.8339 -0.1269
  162TMC2    H1 2525   1.601   3.602   1.027 -0.5018 -2.3652  2.2324
  162TMC2    H2 2526   1.636   3.817   1.383 -2.5819  0.7104  1.5643
  162TMC2    C7 2527   1.758   3.629   1.249  0.1807 -0.7654 -0.7674
  162TMC2    C8 2528   1.393   3.924   1.397 -0.9818  0.5939  0.4967
  162TMC2    O1 2529   1.816   3.676   1.347 -0.0750 -0.4233  0.0134
  162TMC2    O2 2530   1.469   3.965   1.481  0.0540  0.7236  0.3281
  162TMC2    O5 2531   1.262   3.893   1.408  0.5363  0.1964 -0.4489
  162TMC2    H5 2532   1.243   3.815   1.352  0.7809 -0.9065  0.9991
  163MPD2     C 2533   1.044   3.852   0.594 -0.3490 -0.6547 -0.2285
  163MPD2    C1 2534   1.164   3.791   0.578 -0.5849  0.1616  0.1208
  163MPD2    C2 2535   1.228   3.736   0.692 -0.8951 -0.4275 -0.2882
  163MPD2    C3 2536   1.179   3.772   0.820 -0.7306  0.7915  0.3410
  163MPD2    C4 2537   1.054   3.813   0.827  0.1673  0.2012  0.1778
  163MPD2    C5 2538   0.986   3.854   0.713  0.2020  0.1210  0.2208
  163MPD2     H 2539   1.328   3.694   0.687 -0.5956 -0.0982  2.7767
  163MPD2    H1 2540   0.994   3.827   0.917 -0.1156 -1.5153  0.2576
  163MPD2    H2 2541   0.990   3.886   0.507 -2.6295  1.5055  2.0434
  163MPD2    H3 2542   0.884   3.889   0.712  1.1530  2.9544  2.4583
  163MPD2     N 2543   1.251   3.755   0.939  0.3584 -0.3762 -0.1224
  163MPD2    H5 2544   1.197   3.781   1.021  1.1286  1.8246 -0.3180
  163MPD2    N1 2545   1.218   3.775   0.449  0.0707 -0.0200 -0.1376
  163MPD2    H7 2546   1.160   3.817   0.377  3.0696  0.7971 -2.0683
  164TMC2    C1 2547   1.270   3.235  11.001  0.0650 -0.8661 -0.2085
  164TMC2    C2 2548   1.389   3.298  10.994  0.9786 -0.0122  0.5195
  164TMC2    C3 2549   1.390   3.432  10.964  0.1535  0.6222  0.0810
  164TMC2    C4 2550   1.152   3.303  10.982 -0.0368 -0.0446 -0.4348
  164TMC2    C5 2551   1.161   3.434  10.953 -0.2098 -0.5985  0.1374
  164TMC2    C6 2552   1.276   3.505  10.945 -0.3380 -0.6348  0.3128
  164TMC2     C 2553   1.263   3.093  11.014 -0.0902 -0.7982  0.9031
  164TMC2     O 2554   1.158   3.050  11.058 -0.2830  0.2793  0.5771
  164TMC2     H 2555   1.487   3.258  11.019  1.0601 -0.3980 -0.4068
  164TMC2    H1 2556   1.058   3.254  11.008  0.0874  1.3532  2.6123
  164TMC2    H2 2557   1.278   3.607  10.909 -1.9799 -0.6932  0.0479
  164TMC2    C7 2558   1.046   3.501  10.892 -0.1234 -0.5979 -0.5546
  164TMC2    C8 2559   1.499   3.469  10.876  0.3303 -0.6719  0.5298
  164TMC2    O1 2560   1.045   3.623  10.910  0.5156 -0.3128 -0.5273
  164TMC2    O2 2561   1.534   3.387  10.793  0.4135 -0.3165  0.4175
  164TMC2    O5 2562   1.513   3.596  10.871 -0.3357  0.2036  0.8448
  164TMC2    H5 2563   1.487   3.626  10.960 -0.2633  0.3911  0.8041
  165TMC2    C1 2564   2.920   0.599   1.274 -0.9671 -0.2490 -0.0327
  165TMC2    C2 2565   2.824   0.506   1.229 -0.7883 -0.3461  0.7492
  165TMC2    C3 2566   2.750   0.546   1.123 -0.2534 -0.5071  0.3903
  165TMC2    C4 2567   2.947   0.710   1.213 -0.1546 -0.2647  0.5385
  165TMC2    C5 2568   2.865   0.741   1.107  0.4632  0.0811 -0.4739
  165TMC2    C6 2569   2.767   0.663   1.055  0.3515 -0.1263  0.0183
  165TMC2     C 2570   3.017   0.539   1.368 -0.0143  0.2674 -0.1151
  165TMC2     O 2571   3.012   0.418   1.376 -0.7368  0.8574  0.2662
  165TMC2     H 2572   2.815   0.403   1.260 -0.6222  0.2655  2.8872
  165TMC2    H1 2573   3.034   0.767   1.242  0.0434  0.2074 -1.0081
  165TMC2    H2 2574   2.683   0.701   0.999  0.2069 -0.4371  0.0265
  165TMC2    C7 2575   2.907   0.860   1.036 -0.2059  0.9609 -0.4093
  165TMC2    C8 2576   2.610   0.519   1.135  0.4808 -0.6803 -0.0832
  165TMC2    O1 2577   3.014   0.908   1.067 -0.2416  0.0719 -0.1109
  165TMC2    O2 2578   2.532   0.538   1.044  0.2403 -0.6135  0.0602
  165TMC2    O5 2579   2.586   0.533   1.264  0.2528 -0.5844  0.2894
  165TMC2    H5 2580   2.668   0.538   1.318 -0.2479  1.5842  0.8482
  166MPD2     C 2581   3.462   0.556   1.630  0.4554 -0.5596  0.7169
  166MPD2    C1 2582   3.401   0.444   1.569 -0.9423 -0.1512 -0.2052
  166MPD2    C2 2583   3.273   0.467   1.510 -0.5245  0.1018  0.2323
  166MPD2    C3 2584   3.215   0.592   1.512  0.9139  0.2712  0.2993
  166MPD2    C4 2585   3.282   0.697   1.572  0.3637  1.0783 -0.8693
  166MPD2    C5 2586   3.407   0.676   1.627  0.0844 -0.0532 -0.0104
  166MPD2     H 2587   3.219   0.391   1.455 -1.7525  1.1088  0.0547
  166MPD2    H1 2588   3.235   0.795   1.566  0.1198  0.9675 -0.7335
  166MPD2    H2 2589   3.562   0.542   1.669 -0.2814  0.9719  3.1708
  166MPD2    H3 2590   3.458   0.763   1.666  0.4956 -0.3349  0.0776
  166MPD2     N 2591   3.103   0.624   1.434  0.4204  0.1220 -0.1146
  166MPD2    H5 2592   3.076   0.722   1.432 -2.8540 -0.8355 -2.8586
  166MPD2    N1 2593   3.478   0.330   1.565 -0.5271 -0.2943 -0.3944
  166MPD2    H7 2594   3.563   0.328   1.621 -0.7199 -2.2651 -0.1644
  167TMC2    C1 2595   0.651   4.099  12.464 -0.1840 -0.2350  0.0336
  167TMC2    C2 2596   0.579   4.172  12.548 -0.1118  0.1425 -0.5614
  167TMC2    C3 2597   0.548   4.110  12.668  0.8767  0.0408 -0.3053
  167TMC2    C4 2598   0.700   3.976  12.496  0.0205  0.8588 -0.1774
  167TMC2    C5 2599   0.640   3.907  12.604 -0.4880  0.3746  0.3032
  167TMC2    C6 2600   0.571   3.977  12.693 -0.7043  0.1572  0.1419
  167TMC2     C 2601   0.657   4.146  12.326 -0.7281 -0.3212 -0.3528
  167TMC2     O 2602   0.592   4.246  12.300  0.1611  0.0878 -0.5651
  167TMC2     H 2603   0.554   4.277  12.534  2.7313  0.8985  0.1642
  167TMC2    H1 2604   0.778   3.936  12.432 -1.8191 -2.9472 -0.0661
  167TMC2    H2 2605   0.537   3.935  12.787 -1.4084  0.6499  0.1072
  167TMC2    C7 2606   0.689   3.782  12.646 -0.6008 -0.0731  0.5099
  167TMC2    C8 2607   0.486   4.196  12.769  0.9074 -0.4954 -0.9884
  167TMC2    O1 2608   0.647   3.741  12.753 -0.1958 -0.0423 -0.2133
  167TMC2    O2 2609   0.427   4.302  12.735  0.0883  0.4035  0.4312
  167TMC2    O5 2610   0.564   4.185  12.874 -0.2998 -0.0710 -0.2495
  167TMC2    H5 2611   0.596   4.093  12.882 -1.6408 -0.5239 -0.0805
  168MPD2     C 2612   0.706   4.205  12.040 -0.2720  0.1991 -0.6180
  168MPD2    C1 2613   0.698   4.078  12.091  0.1157  0.0885  0.2478
  168MPD2    C2 2614   0.713   3.965  12.006  0.0137 -0.0716 -0.0949
  168MPD2    C3 2615   0.717   3.987  11.867  0.1501 -0.5421  0.5894
  168MPD2    C4 2616   0.707   4.119  11.816  0.4066  0.0594  0.1314
  168MPD2    C5 2617   0.709   4.223  11.902 -0.1905 -0.0382  0.0877
  168MPD2     H 2618   0.719   3.866  12.049  2.8085  0.8527  1.6112
  168MPD2    H1 2619   0.701   4.150  11.712  1.4422  0.0653  0.0716
  168MPD2    H2 2620   0.709   4.293  12.103 -1.4541  0.0148 -0.3104
  168MPD2    H3 2621   0.727   4.322  11.863  1.1846 -0.6749 -0.9004
  168MPD2     N 2622   0.725   3.879  11.768  0.2903  0.5796 -0.7149
  168MPD2    H5 2623   0.723   3.913  11.672 -3.1989  0.8161 -0.5596
  168MPD2    N1 2624   0.684   4.048  12.228 -0.3323 -0.0433  0.1142
  168MPD2    H7 2625   0.715   3.955  12.250  0.4418 -0.1144 -1.2618
  169MPD1     C 2626   3.028   3.062   8.705 -0.0607  1.2207 -0.2704
  169MPD1    C1 2627   2.966   2.968   8.781 -1.0898 -0.6922  0.9329
  169MPD1    C2 2628   3.033   2.851   8.803 -0.2526 -0.0360  0.0847
  169MPD1    C3 2629   3.156   2.827   8.754 -0.5748 -0.1635 -0.2185
  169MPD1    C4 2630   3.215   2.917   8.665  0.0369  0.3122  0.0182
  169MPD1    C5 2631   3.148   3.033   8.641  0.6097 -0.6855  0.5149
  169MPD1     H 2632   2.983   2.774   8.860 -0.3675 -1.4579 -1.9613
  169MPD1    H1 2633   3.306   2.900   8.608 -0.4546  0.6794 -0.8724
  169MPD1    H2 2634   2.992   3.163   8.692 -2.0458  0.2386 -2.3214
  169MPD1    H3 2635   3.203   3.109   8.586 -0.8699  0.8962  1.2382
  169MPD1     N 2636   3.211   2.707   8.800 -0.6437  0.2810 -0.2170
  169MPD1    H5 2637   3.160   2.669   8.878 -0.8221  0.4402 -0.2558
  169MPD1    N1 2638   2.839   2.997   8.849  0.0061  0.3173  0.6204
  169MPD1    H6 2639   2.782   3.044   8.779 -0.6657 -1.1916  0.1482
  169MPD1    H7 2640   2.794   2.908   8.867 -0.3785  0.9918  3.0400
  170MPD1     C 2641   1.049   1.602  13.305 -0.2494  0.1058 -0.0771
  170MPD1    C1 2642   1.067   1.510  13.405  0.1709 -1.0257 -0.2155
  170MPD1    C2 2643   1.179   1.436  13.395  0.0322 -0.1659  0.6154
  170MPD1    C3 2644   1.277   1.452  13.291 -0.5325  0.4543  0.5060
  170MPD1    C4 2645   1.251   1.544  13.191 -0.4307 -0.1613  0.6489
  170MPD1    C5 2646   1.134   1.616  13.201  0.0718 -0.2396  0.0366
  170MPD1     H 2647   1.204   1.353  13.460 -0.0223 -0.4702  0.2431
  170MPD1    H1 2648   1.321   1.573  13.114  0.6917 -1.1858  1.2926
  170MPD1    H2 2649   0.956   1.659  13.302 -0.0332  0.5176  1.2460
  170MPD1    H3 2650   1.100   1.680  13.120 -2.1694 -0.6195  0.6756
  170MPD1     N 2651   1.397   1.372  13.298  0.0638  0.4617 -0.4890
  170MPD1    H5 2652   1.415   1.310  13.377  3.4506  0.3310 -1.3688
  170MPD1    N1 2653   0.971   1.479  13.503 -0.2070  0.3758 -0.2945
  170MPD1    H6 2654   0.925   1.563  13.538  2.0773  0.8267  1.6234
  170MPD1    H7 2655   1.006   1.418  13.576 -1.5644  0.0231  0.0648
  171MPD1     C 2656   0.332   1.986  14.744  0.2643 -0.3706  0.9630
  171MPD1    C1 2657   0.437   2.070  14.776 -0.0266  0.2090 -0.6546
  171MPD1    C2 2658   0.546   2.012  14.838 -0.3043 -0.2136 -0.0331
  171MPD1    C3 2659   0.543   1.876  14.883 -0.0047 -0.0285 -0.3662
  171MPD1    C4 2660   0.431   1.801  14.852  0.0531  0.1876  0.1429
  171MPD1    C5 2661   0.326   1.858  14.781 -0.1309 -0.3919 -0.0383
  171MPD1     H 2662   0.637   2.068  14.855 -0.0409 -1.9102  4.2958
  171MPD1    H1 2663   0.426   1.706  14.905  4.4138  1.5785  3.0258
  171MPD1    H2 2664   0.252   2.027  14.684  0.7993  0.3220  0.7278
  171MPD1    H3 2665   0.232   1.812  14.752 -0.2436 -1.0635  1.3799
  171MPD1     N 2666   0.650   1.816  14.955  0.1336 -0.2382  0.1614
  171MPD1    H5 2667   0.637   1.719  14.982 -0.2335 -0.6689 -1.5436
  171MPD1    N1 2668   0.445   2.192  14.710 -0.3144 -0.1449  0.2626
  171MPD1    H6 2669   0.363   2.251  14.705  0.3533  0.7254 -0.6464
  171MPD1    H7 2670   0.520   2.246  14.752 -0.9054  0.4373  0.5637
  172MPD1     C 2671   4.157   1.672   0.263 -0.2351  0.3193  0.0458
  172MPD1    C1 2672   4.221   1.784   0.212 -0.0737 -0.6765 -0.2494
  172MPD1    C2 2673   4.359   1.769   0.198  0.2033 -0.3766 -0.8442
  172MPD1    C3 2674   4.433   1.668   0.262 -0.4961  0.4458 -0.1743
  172MPD1    C4 2675   4.365   1.572   0.335  0.4676 -0.0947 -0.4000
  172MPD1    C5 2676   4.229   1.577   0.330 -0.2860 -1.0008  0.1693
  172MPD1     H 2677   4.412   1.836   0.131 -1.7165  4.3160  2.2867
  172MPD1    H1 2678   4.410   1.488   0.386 -3.4056 -1.2164  1.0860
  172MPD1    H2 2679   4.049   1.666   0.257 -0.2822 -0.0787  1.1737
  172MPD1    H3 2680   4.177   1.494   0.376  1.5986 -0.9014  2.5323
  172MPD1     N 2681   4.572   1.672   0.252 -0.1458 -0.5481 -0.6714
  172MPD1    H5 2682   4.616   1.752   0.206  0.6863 -0.4808  0.2197
  172MPD1    N1 2683   4.157   1.873   0.129  0.4973  0.0461  0.6535
  172MPD1    H6 2684   4.211   1.959   0.135 -1.9276  1.5027  1.6831
  172MPD1    H7 2685   4.061   1.894   0.156  0.6276  2.3037 -0.7039
  173MPD1     C 2686   1.101   1.627  14.137 -0.9801  0.7930 -0.1047
  173MPD1    C1 2687   1.032   1.594  14.255 -0.4832 -0.4152 -0.5897
  173MPD1    C2 2688   0.929   1.502  14.240  0.5553 -0.1619  0.0529
  173MPD1    C3 2689   0.898   1.439  14.119 -0.2075  0.5821  0.2238
  173MPD1    C4 2690   0.959   1.485  14.007 -0.3248  0.5193 -0.8516
  173MPD1    C5 2691   1.064   1.571  14.014  0.1399 -0.1923 -0.6811
  173MPD1     H 2692   0.874   1.480  14.331 -1.1411  1.8363 -0.4974
  173MPD1    H1 2693   0.946   1.447  13.907 -1.7105 -0.8838 -0.1388
  173MPD1    H2 2694   1.182   1.698  14.139  1.4039 -1.9334  0.0227
  173MPD1    H3 2695   1.118   1.599  13.924  0.5766  1.7189  0.1925
  173MPD1     N 2696   0.814   1.326  14.124 -0.5281 -0.1853  0.3177
  173MPD1    H5 2697   0.772   1.307  14.214  1.8537  0.9808  1.6864
  173MPD1    N1 2698   1.070   1.657  14.374  1.0327 -1.1000  0.2370
  173MPD1    H6 2699   1.011   1.610  14.442 -0.6649 -0.6956 -0.9452
  173MPD1    H7 2700   1.158   1.627  14.416  0.9618  0.6189  1.6290
  174MPD1     C 2701   0.376   0.715  13.411  0.3729  0.1040  0.0399
  174MPD1    C1 2702   0.448   0.639  13.503 -0.0610 -0.3115 -0.9505
  174MPD1    C2 2703   0.501   0.705  13.615  0.4588  0.3038 -0.5931
  174MPD1    C3 2704   0.485   0.840  13.635 -0.2949 -0.5315 -0.5088
  174MPD1    C4 2705   0.417   0.916  13.542 -0.1915 -0.1446 -0.1686
  174MPD1    C5 2706   0.365   0.853  13.435 -0.1450  0.2096  0.3251
  174MPD1     H 2707   0.564   0.646  13.680  1.3730 -0.6446 -2.3259
  174MPD1    H1 2708   0.412   1.023  13.553  0.8026 -0.0060 -1.0608
  174MPD1    H2 2709   0.345   0.677  13.314  0.8702  2.3624 -0.9991
  174MPD1    H3 2710   0.317   0.913  13.359 -1.4933 -0.8108  0.3855
  174MPD1     N 2711   0.540   0.914  13.748  0.1607 -0.3968 -0.1472
  174MPD1    H5 2712   0.544   1.014  13.735 -0.8904 -0.2824  0.4171
  174MPD1    N1 2713   0.494   0.505  13.470  0.0318 -0.1448 -0.1163
  174MPD1    H6 2714   0.538   0.449  13.543  2.6712  0.3629 -1.3093
  174MPD1    H7 2715   0.416   0.456  13.428  0.0074 -0.7440  0.6184
  175MPD1     C 2716   4.100   2.169  14.948  0.1943 -0.2848  0.0941
  175MPD1    C1 2717   4.153   2.050  14.979 -0.1601  0.0543  0.2040
  175MPD1    C2 2718   4.163   2.016  15.113 -0.6156  0.2723  0.2640
  175MPD1    C3 2719   4.114   2.094  15.218  0.1294  0.0921 -0.4823
  175MPD1    C4 2720   4.061   2.217  15.182 -0.2342  0.1797 -0.0438
  175MPD1    C5 2721   4.056   2.251  15.046  0.5813 -0.2187 -0.1609
  175MPD1     H 2722   4.212   1.921  15.135 -1.4434  0.2150  1.7895
  175MPD1    H1 2723   4.030   2.296  15.250 -2.6583  1.3809 -2.5054
  175MPD1    H2 2724   4.087   2.197  14.844  0.2574 -0.2710  0.0898
  175MPD1    H3 2725   4.010   2.347  15.027  1.0267  0.3931  1.8154
  175MPD1     N 2726   4.111   2.060  15.352  0.2538 -0.5521 -0.2139
  175MPD1    H5 2727   4.103   2.134  15.421 -1.7904 -0.4524 -0.5680
  175MPD1    N1 2728   4.189   1.961  14.876 -0.0069 -0.1426 -0.6308
  175MPD1    H6 2729   4.194   2.005  14.785  1.8959 -0.8184 -0.8356
  175MPD1    H7 2730   4.270   1.904  14.899 -0.0346  0.2751  0.4871
  176MPD1     C 2731   1.594   3.852  16.629  0.7062  0.3233 -0.3380
  176MPD1    C1 2732   1.627   3.966  16.559 -0.4189  0.3648 -0.2332
  176MPD1    C2 2733   1.613   4.084  16.625  0.0118 -0.5104 -0.5502
  176MPD1    C3 2734   1.549   4.088  16.750 -0.2112  0.2464 -0.0874
  176MPD1    C4 2735   1.507   3.975  16.806 -0.3413  0.0816  0.2470
  176MPD1    C5 2736   1.534   3.855  16.752  0.0971  0.3058 -0.9311
  176MPD1     H 2737   1.643   4.175  16.574 -1.7432  0.9379  1.0292
  176MPD1    H1 2738   1.454   3.979  16.901  2.0139  0.7830  1.5156
  176MPD1    H2 2739   1.626   3.759  16.585 -1.8225 -0.3968 -0.6000
  176MPD1    H3 2740   1.495   3.768  16.804  0.8341  1.3122  1.2920
  176MPD1     N 2741   1.531   4.219  16.806  0.1092  0.2050 -0.1986
  176MPD1    H5 2742   1.563   4.298  16.751  0.6129  1.7064  2.2780
  176MPD1    N1 2743   1.708   3.962  16.450 -0.6809 -0.0251 -0.2031
  176MPD1    H6 2744   1.702   4.053  16.405 -0.3575  0.0679 -0.0539
  176MPD1    H7 2745   1.690   3.882  16.389  0.7294  0.1986 -0.9018
  177MPD1     C 2746   4.240   4.110   9.847  0.2740 -0.1007  0.0231
  177MPD1    C1 2747   4.222   4.183   9.732  0.1309  0.4004  0.3463
  177MPD1    C2 2748   4.182   4.115   9.621 -0.7461  0.0237  0.2434
  177MPD1    C3 2749   4.142   3.983   9.623 -0.2319  0.3447 -0.2585
  177MPD1    C4 2750   4.147   3.917   9.742 -0.7944  0.3473 -0.2079
  177MPD1    C5 2751   4.207   3.975   9.854 -0.1744  0.0391 -0.6453
  177MPD1     H 2752   4.181   4.165   9.524  1.6923  0.2763  0.3577
  177MPD1    H1 2753   4.112   3.814   9.744 -2.0337  0.7506 -1.5339
  177MPD1    H2 2754   4.288   4.150   9.936 -1.6457  0.1169  0.9637
  177MPD1    H3 2755   4.212   3.918   9.946 -1.2653  1.1572  0.1101
  177MPD1     N 2756   4.089   3.936   9.500 -0.5282  0.4447  0.5835
  177MPD1    H5 2757   4.072   4.010   9.433 -0.8380  0.0512  0.2254
  177MPD1    N1 2758   4.276   4.310   9.724  0.1324 -0.0609 -0.2794
  177MPD1    H6 2759   4.230   4.361   9.648 -0.2673 -1.5743 -1.0466
  177MPD1    H7 2760   4.247   4.353   9.811  1.5604  2.0656 -0.8394
  178MPD1     C 2761   1.974   1.076  17.207  0.5788 -0.5682 -0.7692
  178MPD1    C1 2762   1.891   0.998  17.127  0.0636 -1.1098 -0.7010
  178MPD1    C2 2763   1.883   0.863  17.150 -0.6333  0.3128 -0.5133
  178MPD1    C3 2764   1.962   0.793  17.243 -0.1561 -0.0879  0.3503
  178MPD1    C4 2765   2.053   0.868  17.309  0.5822  0.2754 -0.2607
  178MPD1    C5 2766   2.047   1.009  17.303  0.0414 -0.6627 -0.1292
  178MPD1     H 2767   1.820   0.801  17.088 -0.9925  0.9123 -0.7459
  178MPD1    H1 2768   2.099   0.822  17.396 -0.3543 -1.0221 -0.4618
  178MPD1    H2 2769   2.000   1.179  17.188  2.5092 -0.5567  2.0153
  178MPD1    H3 2770   2.108   1.069  17.370  1.0601 -0.3242 -1.3633
  178MPD1     N 2771   1.966   0.648  17.271 -0.7000  0.0202 -0.5927
  178MPD1    H5 2772   2.044   0.619  17.328 -0.7986 -1.8159 -1.3911
  178MPD1    N1 2773   1.813   1.058  17.023 -0.5482 -0.1173 -0.3204
  178MPD1    H6 2774   1.779   1.152  17.041  0.5059 -0.3352  2.6895
  178MPD1    H7 2775   1.757   0.994  16.967 -2.5414  0.1849  1.3184
  179MPD1     C 2776   1.086   3.494  15.112  0.1696  0.2127  0.0220
  179MPD1    C1 2777   1.078   3.478  15.244  1.0019  0.2191  0.4083
  179MPD1    C2 2778   1.108   3.353  15.287 -0.3959 -0.5255  1.2157
  179MPD1    C3 2779   1.164   3.254  15.217 -0.4259  0.6285 -0.3703
  179MPD1    C4 2780   1.178   3.269  15.082 -1.2371  0.4578  0.1620
  179MPD1    C5 2781   1.125   3.388  15.028  0.0777  0.7530  0.9741
  179MPD1     H 2782   1.083   3.327  15.390 -2.5168 -0.7318  0.6378
  179MPD1    H1 2783   1.220   3.187  15.026 -1.3774  2.6960 -3.1992
  179MPD1    H2 2784   1.059   3.587  15.062  1.1827  0.8448  0.6368
  179MPD1    H3 2785   1.134   3.405  14.921  0.7037  2.4961  1.2995
  179MPD1     N 2786   1.208   3.126  15.270  0.2584  0.8300  0.4948
  179MPD1    H5 2787   1.236   3.060  15.198 -1.3958  0.8595 -0.1814
  179MPD1    N1 2788   1.012   3.564  15.333  0.2807  0.2234 -0.3640
  179MPD1    H6 2789   1.007   3.661  15.302 -0.4116  0.2435 -0.1729
  179MPD1    H7 2790   1.045   3.563  15.430 -0.4289 -0.4270 -0.1279
  180MPD1     C 2791   0.473   4.337  14.476  0.2448  0.5449 -0.0880
  180MPD1    C1 2792   0.451   4.362  14.347 -0.2816  0.2902 -0.8575
  180MPD1    C2 2793   0.557   4.365  14.257 -0.2478  0.3944  0.7137
  180MPD1    C3 2794   0.686   4.320  14.296 -0.1739 -0.3660 -0.1823
  180MPD1    C4 2795   0.694   4.281  14.423 -0.3132  0.9067 -0.4201
  180MPD1    C5 2796   0.592   4.286  14.514  0.1926  0.1809  0.2302
  180MPD1     H 2797   0.534   4.396  14.155  0.3992  0.1206  0.4882
  180MPD1    H1 2798   0.788   4.234  14.451 -0.7968 -1.1684 -2.2750
  180MPD1    H2 2799   0.394   4.347  14.550  1.2200  0.0734  1.0048
  180MPD1    H3 2800   0.607   4.255  14.617  0.9720  0.2583  0.1401
  180MPD1     N 2801   0.786   4.315  14.197 -0.1928  0.7445  0.4955
  180MPD1    H5 2802   0.759   4.342  14.103 -1.5088  0.3713  0.7657
  180MPD1    N1 2803   0.338   4.434  14.299 -0.5350 -0.2891 -0.3915
  180MPD1    H6 2804   0.314   4.435  14.200 -3.2231 -0.3435  0.2856
  180MPD1    H7 2805   0.251   4.403  14.342 -1.5868  0.9961 -1.5994
  181MPD1     C 2806   2.464   0.765   9.615 -0.3838  0.3064 -1.0223
  181MPD1    C1 2807   2.526   0.865   9.675 -0.1541  0.1766  0.1063
  181MPD1    C2 2808   2.643   0.916   9.618 -0.2286  0.1789 -0.3092
  181MPD1    C3 2809   2.683   0.873   9.493 -0.3781  0.0541 -0.3258
  181MPD1    C4 2810   2.622   0.762   9.443  0.4666  0.3432 -0.5566
  181MPD1    C5 2811   2.515   0.710   9.507  0.8199 -0.0892  0.0482
  181MPD1     H 2812   2.700   0.990   9.674 -1.4656  0.8299  0.0868
  181MPD1    H1 2813   2.655   0.710   9.354  1.1186 -1.1135  0.5348
  181MPD1    H2 2814   2.379   0.717   9.663  0.1627  0.2320 -0.1201
  181MPD1    H3 2815   2.460   0.626   9.465 -1.0347  1.3019 -0.3674
  181MPD1     N 2816   2.802   0.916   9.434 -0.9306 -0.0743  0.7327
  181MPD1    H5 2817   2.843   0.856   9.365  1.7833  0.2756  2.0545
  181MPD1    N1 2818   2.500   0.881   9.812 -0.1408 -0.1802  0.5492
  181MPD1    H6 2819   2.400   0.893   9.825 -0.2852  0.1375 -0.8406
  181MPD1    H7 2820   2.543   0.965   9.850 -0.1294  0.9650 -1.9689
  182MPD1     C 2821   4.359   4.396   0.805  0.0823  0.2163  0.3024
  182MPD1    C1 2822   4.296   4.487   0.884 -0.4213 -0.8312 -0.5210
  182MPD1    C2 2823   4.206   4.578   0.828  0.6255  0.1103  0.7092
  182MPD1    C3 2824   4.176   4.575   0.690  0.3671  0.4240  0.1429
  182MPD1    C4 2825   4.232   4.475   0.615 -0.0587 -0.5582 -0.2952
  182MPD1    C5 2826   4.331   4.387   0.672 -0.0065  0.3246 -0.0134
  182MPD1     H 2827   4.160   4.655   0.889 -0.3181  1.5441 -1.8052
  182MPD1    H1 2828   4.209   4.461   0.510 -2.6322 -2.3722  0.5114
  182MPD1    H2 2829   4.442   4.333   0.833  0.4108  1.5247  2.2634
  182MPD1    H3 2830   4.379   4.309   0.614 -0.3807 -1.2683  1.8191
  182MPD1     N 2831   4.082   4.663   0.623 -0.0136 -0.6531 -0.7132
  182MPD1    H5 2832   4.064   4.651   0.524 -0.2851  0.7473 -0.8248
  182MPD1    N1 2833   4.350   4.513   1.013  0.3198  0.3365  0.6207
  182MPD1    H6 2834   4.287   4.561   1.077 -0.0035  0.5728  0.1178
  182MPD1    H7 2835   4.394   4.437   1.065 -0.5392  0.8472  2.1098
  183MPD1     C 2836   3.331   0.480   8.348  0.5415 -0.3079 -0.5065
  183MPD1    C1 2837   3.246   0.582   8.370 -0.3767  0.2757  0.2831
  183MPD1    C2 2838   3.307   0.698   8.415  0.2392 -0.2003  0.1170
  183MPD1    C3 2839   3.436   0.702   8.465 -0.0085  0.5377  1.3043
  183MPD1    C4 2840   3.523   0.590   8.449  0.7272  0.3585  0.2610
  183MPD1    C5 2841   3.466   0.478   8.391 -0.5524 -0.2947 -0.2215
  183MPD1     H 2842   3.241   0.784   8.426 -1.9563 -1.9687  0.6207
  183MPD1    H1 2843   3.627   0.598   8.478  1.0760 -1.3878 -0.5627
  183MPD1    H2 2844   3.300   0.391   8.295  0.7066 -0.0066 -1.1099
  183MPD1    H3 2845   3.529   0.394   8.363 -0.7711 -0.1070 -1.2689
  183MPD1     N 2846   3.483   0.825   8.523  0.3889  0.4523 -0.2054
  183MPD1    H5 2847   3.425   0.908   8.521  1.9595  1.4776 -3.2490
  183MPD1    N1 2848   3.113   0.575   8.315  0.0274 -0.6649 -0.0928
  183MPD1    H6 2849   3.045   0.634   8.363  0.3640 -0.5135  0.1962
  183MPD1    H7 2850   3.069   0.484   8.328 -0.1312 -0.3461  1.6570
  184MPD1     C 2851   3.356   2.996   9.732 -0.4246 -0.2917 -0.1550
  184MPD1    C1 2852   3.329   2.955   9.599  0.7397 -0.3460  0.1131
  184MPD1    C2 2853   3.376   3.036   9.494 -0.1050 -0.1249  0.6366
  184MPD1    C3 2854   3.459   3.139   9.515 -0.3966 -0.7061 -0.2102
  184MPD1    C4 2855   3.496   3.175   9.642  0.3311  0.1610 -0.4499
  184MPD1    C5 2856   3.448   3.101   9.748  0.7402  0.0382 -0.3189
  184MPD1     H 2857   3.331   3.026   9.396 -0.5273 -1.4626  0.9565
  184MPD1    H1 2858   3.576   3.248   9.656  0.4183 -0.2071  0.9467
  184MPD1    H2 2859   3.312   2.949   9.819  2.3455  1.7160  2.3448
  184MPD1    H3 2860   3.469   3.145   9.845  2.0496 -1.8896  0.2692
  184MPD1     N 2861   3.518   3.215   9.411  0.2275 -0.3833  0.1651
  184MPD1    H5 2862   3.568   3.301   9.431  0.5146  0.0877 -2.5489
  184MPD1    N1 2863   3.225   2.859   9.574  0.3584  0.0971 -0.0841
  184MPD1    H6 2864   3.240   2.810   9.486 -0.2241  3.5731 -2.0960
  184MPD1    H7 2865   3.225   2.785   9.645 -1.1890 -0.5604 -0.7626
  185MPD1     C 2866   3.944   3.400   8.418 -0.0693  0.1762  0.0328
  185MPD1    C1 2867   3.833   3.317   8.441  0.9377  0.5034 -0.1786
  185MPD1    C2 2868   3.777   3.311   8.566 -0.3418  0.0984 -0.0638
  185MPD1    C3 2869   3.811   3.411   8.655 -0.2891  0.7579 -0.4759
  185MPD1    C4 2870   3.892   3.514   8.614 -0.1354 -0.1939  0.2598
  185MPD1    C5 2871   3.963   3.503   8.501  0.1305  0.0377  0.2436
  185MPD1     H 2872   3.701   3.239   8.596 -2.1598  1.0552 -2.4205
  185MPD1    H1 2873   3.904   3.600   8.679 -0.1852 -1.3829  1.8199
  185MPD1    H2 2874   3.996   3.397   8.323 -1.2306 -1.8406 -0.5417
  185MPD1    H3 2875   4.035   3.579   8.472 -1.0469  1.0634  0.0124
  185MPD1     N 2876   3.754   3.421   8.789 -0.0128  0.3823  0.1763
  185MPD1    H5 2877   3.791   3.496   8.846 -0.3577  0.7361 -0.0649
  185MPD1    N1 2878   3.799   3.221   8.346  0.1238  0.7539  0.0163
  185MPD1    H6 2879   3.813   3.257   8.252 -0.6587  0.1199 -0.3464
  185MPD1    H7 2880   3.704   3.186   8.358  0.6711 -0.7621  0.0141
  186MPD1     C 2881   2.206   3.341  15.286  0.2336  0.0251  0.1315
  186MPD1    C1 2882   2.158   3.470  15.269  0.5831  0.3808 -0.0169
  186MPD1    C2 2883   2.124   3.537  15.383  0.1253  0.0323 -0.2236
  186MPD1    C3 2884   2.132   3.472  15.509 -0.7383  0.5002  0.0217
  186MPD1    C4 2885   2.191   3.349  15.520 -0.1258  0.0810  0.0832
  186MPD1    C5 2886   2.226   3.283  15.405 -0.5166  0.4570  0.0427
  186MPD1     H 2887   2.092   3.640  15.374 -1.5719 -0.3714  1.0968
  186MPD1    H1 2888   2.199   3.298  15.615  0.3878  0.4973  0.2634
  186MPD1    H2 2889   2.245   3.283  15.204  2.8095  0.3981  1.0853
  186MPD1    H3 2890   2.264   3.183  15.420  0.6796  1.0320  0.7773
  186MPD1     N 2891   2.107   3.536  15.631 -0.4087  0.2365 -0.5636
  186MPD1    H5 2892   2.108   3.475  15.712  3.4091  0.9296 -0.0807
  186MPD1    N1 2893   2.139   3.519  15.140  0.0461 -0.1882  0.1228
  186MPD1    H6 2894   2.203   3.480  15.072  1.6516  0.6641  1.1218
  186MPD1    H7 2895   2.146   3.621  15.147  1.3335 -0.2618 -0.0807
  187MPD1     C 2896   0.722   1.375  17.339  0.1578 -0.8068  0.7462
  187MPD1    C1 2897   0.675   1.282  17.248  0.7831  0.2398 -1.0729
  187MPD1    C2 2898   0.762   1.189  17.198  0.0143  0.1949 -0.1640
  187MPD1    C3 2899   0.894   1.206  17.203  0.0494 -0.6083 -0.3667
  187MPD1    C4 2900   0.945   1.310  17.285  0.6280 -1.1385  0.1793
  187MPD1    C5 2901   0.857   1.390  17.350  0.4626 -0.1021  0.0829
  187MPD1     H 2902   0.722   1.096  17.159 -1.7317  0.7339  0.3237
  187MPD1    H1 2903   1.052   1.327  17.292  0.8003 -1.4713 -1.6964
  187MPD1    H2 2904   0.661   1.456  17.379 -1.9742 -1.6212 -0.8690
  187MPD1    H3 2905   0.893   1.477  17.402 -0.8515  1.4505 -1.6015
  187MPD1     N 2906   0.990   1.132  17.136 -0.2973  0.4561 -0.2413
  187MPD1    H5 2907   1.085   1.147  17.169 -0.1198 -0.4197 -0.3525
  187MPD1    N1 2908   0.539   1.255  17.253 -0.1062  0.5151 -0.1037
  187MPD1    H6 2909   0.503   1.220  17.165 -0.5957 -0.4478  0.4816
  187MPD1    H7 2910   0.487   1.341  17.270  1.2427  1.5318 -1.1170
  188MPD1     C 2911   1.208   0.521   9.973 -0.4396  0.0620 -0.3520
  188MPD1    C1 2912   1.107   0.556  10.061  0.6705  0.0426  0.4134
  188MPD1    C2 2913   1.043   0.454  10.123 -0.5532  0.3116 -0.1108
  188MPD1    C3 2914   1.077   0.322  10.106 -0.3652  0.6700 -0.0098
  188MPD1    C4 2915   1.180   0.290  10.014  0.3906  0.2181 -0.1645
  188MPD1    C5 2916   1.244   0.392   9.949  0.1652  0.3180 -0.3091
  188MPD1     H 2917   0.961   0.476  10.191 -1.3113 -1.4246 -0.4529
  188MPD1    H1 2918   1.210   0.187   9.995 -3.5664 -0.6897 -1.5476
  188MPD1    H2 2919   1.265   0.589   9.909  1.2239 -0.7594  0.2689
  188MPD1    H3 2920   1.333   0.368   9.892  0.1126 -2.2889  0.7080
  188MPD1     N 2921   1.006   0.213  10.161 -0.1043 -0.0055 -0.3616
  188MPD1    H5 2922   1.036   0.118  10.140  0.2293  0.0772 -0.2582
  188MPD1    N1 2923   1.090   0.687  10.100 -0.4491 -0.1906 -0.1502
  188MPD1    H6 2924   0.999   0.696  10.144 -0.7778 -2.2113 -0.4285
  188MPD1    H7 2925   1.128   0.763  10.045 -2.8944  0.9752 -0.2379
  189MPD1     C 2926   2.799   1.130   0.082  0.4483  0.1174  0.0775
  189MPD1    C1 2927   2.670   1.077   0.051  0.8315  0.2616  0.6238
  189MPD1    C2 2928   2.575   1.165   0.013 -0.2721  0.2065  0.0676
  189MPD1    C3 2929   2.602   1.299  17.727  0.0499  0.7292 -0.1940
  189MPD1    C4 2930   2.729   1.350   0.015  0.3619 -0.3018 -0.0643
  189MPD1    C5 2931   2.828   1.262   0.065  0.4433  0.5026  0.2774
  189MPD1     H 2932   2.475   1.134  17.723 -0.6574  1.0192  0.6081
  189MPD1    H1 2933   2.758   1.453  17.734  0.6394 -0.4645 -0.5970
  189MPD1    H2 2934   2.880   1.064   0.108 -0.5049 -1.3232 -0.6129
  189MPD1    H3 2935   2.926   1.300   0.093 -0.3153  4.2496 -2.0481
  189MPD1     N 2936   2.503   1.386  17.673 -0.0951  0.2987 -0.2487
  189MPD1    H5 2937   2.433   1.337  17.619 -1.0515  1.0508  0.3036
  189MPD1    N1 2938   2.645   0.945   0.083  0.0325 -0.4322  0.2674
  189MPD1    H6 2939   2.579   0.903   0.018 -0.7895  1.6037 -0.1934
  189MPD1    H7 2940   2.726   0.885   0.071  0.6605  0.1076  1.9095
  190MPD1     C 2941   1.533   0.267  14.955 -0.2580 -0.7130 -0.9939
  190MPD1    C1 2942   1.666   0.301  14.998  0.4182  0.2984 -0.3116
  190MPD1    C2 2943   1.745   0.205  15.058  0.1965  0.5270  0.0701
  190MPD1    C3 2944   1.694   0.085  15.095  0.7260 -0.6247 -0.6553
  190MPD1    C4 2945   1.560   0.057  15.058 -0.0165  0.0291  0.2206
  190MPD1    C5 2946   1.486   0.145  14.987  0.0579 -0.4817 -0.2536
  190MPD1     H 2947   1.850   0.229  15.070  0.4940 -1.2163  0.9161
  190MPD1    H1 2948   1.504   4.701  15.079  2.7452 -2.0249 -1.2964
  190MPD1    H2 2949   1.467   0.335  14.901 -0.5575 -0.7181 -0.6269
  190MPD1    H3 2950   1.386   0.125  14.950  0.3315 -3.3714  0.5711
  190MPD1     N 2951   1.783   4.728  15.158  0.1232 -0.4465 -0.1744
  190MPD1    H5 2952   1.875   0.034  15.170 -0.2998  0.8788 -1.3759
  190MPD1    N1 2953   1.720   0.426  14.958  0.4600 -0.2602 -0.0944
  190MPD1    H6 2954   1.804   0.463  15.001 -0.6647  0.9055  1.1045
  190MPD1    H7 2955   1.651   0.498  14.936  0.7716  0.5669  1.6420
  191MPD1     C 2956   1.308   3.469  12.367  0.0098  0.7183 -0.0770
  191MPD1    C1 2957   1.397   3.426  12.272 -0.4892 -0.0228 -0.0431
  191MPD1    C2 2958   1.431   3.285  12.264 -0.2910  0.5550 -0.4415
  191MPD1    C3 2959   1.382   3.197  12.355  0.1674 -0.0884  0.0240
  191MPD1    C4 2960   1.291   3.245  12.447 -0.6208  0.0169  0.3388
  191MPD1    C5 2961   1.248   3.375  12.444 -0.5434 -0.4772  0.5403
  191MPD1     H 2962   1.495   3.256  12.182  1.3031  1.9230  0.3305
  191MPD1    H1 2963   1.245   3.186  12.525 -0.0029 -1.1071 -0.1598
  191MPD1    H2 2964   1.285   3.574  12.379 -0.1743  0.5281  1.2209
  191MPD1    H3 2965   1.186   3.415  12.523 -0.4506  0.3515  0.1950
  191MPD1     N 2966   1.424   3.065  12.364 -0.4029  0.4266 -0.1578
  191MPD1    H5 2967   1.489   3.027  12.296 -0.5925 -3.1232  1.6222
  191MPD1    N1 2968   1.475   3.530  12.209 -0.5265 -0.2560  0.4335
  191MPD1    H6 2969   1.411   3.607  12.192 -1.6195 -0.8699  1.7003
  191MPD1    H7 2970   1.506   3.493  12.120 -0.5586  2.5762 -0.7539
  192MPD1     C 2971   1.492   2.141  12.918  0.4706  0.2319 -0.4013
  192MPD1    C1 2972   1.589   2.199  12.835 -0.3159  0.6146  0.0770
  192MPD1    C2 2973   1.556   2.312  12.761 -0.3950 -0.0290 -0.1772
  192MPD1    C3 2974   1.429   2.362  12.750 -0.2185 -0.4586  0.3727
  192MPD1    C4 2975   1.338   2.300  12.832  0.0283 -0.5601 -0.1895
  192MPD1    C5 2976   1.365   2.193  12.910 -0.4131 -0.1226  0.0123
  192MPD1     H 2977   1.641   2.358  12.711 -0.8615  0.7207 -0.2870
  192MPD1    H1 2978   1.235   2.332  12.835  0.8247  1.5110  4.1852
  192MPD1    H2 2979   1.513   2.063  12.990  0.2875 -1.7669 -2.5181
  192MPD1    H3 2980   1.291   2.162  12.982 -1.5986 -1.3981 -1.7674
  192MPD1     N 2981   1.393   2.471  12.670  0.3806 -0.0991  0.1195
  192MPD1    H5 2982   1.301   2.510  12.685 -0.6069 -1.9451 -1.2001
  192MPD1    N1 2983   1.721   2.168  12.855 -0.5539  0.6997 -0.1885
  192MPD1    H6 2984   1.733   2.068  12.867  0.2527  0.8490  0.2248
  192MPD1    H7 2985   1.780   2.199  12.778  1.5448 -1.1932  0.6592
  193MPD1     C 2986   0.921   1.323  15.832  0.5062 -0.0208 -0.4008
  193MPD1    C1 2987   0.936   1.461  15.817  0.1497  0.2343  0.7444
  193MPD1    C2 2988   0.926   1.544  15.929 -0.3826  0.4256  0.4333
  193MPD1    C3 2989   0.913   1.491  16.060  0.3114 -0.4631 -0.4342
  193MPD1    C4 2990   0.916   1.350  16.071  0.2840 -0.2206 -0.0149
  193MPD1    C5 2991   0.923   1.272  15.959  0.3806 -0.1631 -0.0451
  193MPD1     H 2992   0.918   1.652  15.918  1.7493  0.8458  2.8668
  193MPD1    H1 2993   0.926   1.310  16.171  0.8689 -0.7844 -0.3001
  193MPD1    H2 2994   0.906   1.255  15.749  2.4827  0.7685 -1.4108
  193MPD1    H3 2995   0.920   1.165  15.975  1.3677 -0.3798 -1.2854
  193MPD1     N 2996   0.909   1.569  16.177  0.3477  0.6632  0.1973
  193MPD1    H5 2997   0.898   1.524  16.268 -0.3509 -0.5541 -0.4966
  193MPD1    N1 2998   0.928   1.505  15.684 -0.5029  0.0796 -0.6307
  193MPD1    H6 2999   0.962   1.601  15.681 -0.1448  0.0312  2.5719
  193MPD1    H7 3000   0.987   1.447  15.624  1.9708  1.1376  0.7636
  194MPD1     C 3001   3.923   3.820  16.527 -0.5907 -0.0798  0.3688
  194MPD1    C1 3002   4.033   3.779  16.598  0.8167 -0.3215  0.4235
  194MPD1    C2 3003   4.015   3.683  16.700 -0.6565  0.2870  0.5748
  194MPD1    C3 3004   3.886   3.626  16.722 -0.4670  0.2319  0.0025
  194MPD1    C4 3005   3.779   3.666  16.641  0.4361  0.3023 -0.0135
  194MPD1    C5 3006   3.801   3.763  16.548  0.4044  0.1142  0.3848
  194MPD1     H 3007   4.099   3.656  16.762  0.2598 -3.1120 -2.0841
  194MPD1    H1 3008   3.681   3.619  16.638 -0.1087  1.4742 -0.8334
  194MPD1    H2 3009   3.932   3.875  16.434 -2.0789  1.4669  1.1301
  194MPD1    H3 3010   3.726   3.794  16.476  1.3353  0.8425 -0.2717
  194MPD1     N 3011   3.857   3.528  16.825  0.0251  0.2191  0.0342
  194MPD1    H5 3012   3.764   3.489  16.836  1.3025 -2.0889  2.4988
  194MPD1    N1 3013   4.157   3.829  16.579 -0.2451 -0.1654 -0.1444
  194MPD1    H6 3014   4.231   3.767  16.612  0.2097 -0.4296 -1.6570
  194MPD1    H7 3015   4.184   3.846  16.482 -0.0377  0.0400 -0.0510
  195MPD1     C 3016   0.897   1.061   0.458 -0.2657  0.6181  0.4971
  195MPD1    C1 3017   1.007   0.999   0.496 -0.3115  0.7378 -0.5511
  195MPD1    C2 3018   1.056   0.893   0.425  0.1344  0.9961 -0.1106
  195MPD1    C3 3019   0.981   0.842   0.319  0.1148  0.0009 -0.3260
  195MPD1    C4 3020   0.862   0.897   0.288  0.4361  0.1878 -0.1065
  195MPD1    C5 3021   0.824   1.009   0.356  0.0515  0.0919  0.1701
  195MPD1     H 3022   1.152   0.852   0.452 -1.1114 -1.1490  1.1187
  195MPD1    H1 3023   0.798   0.858   0.210  0.0800  0.0156  0.2683
  195MPD1    H2 3024   0.850   1.147   0.504  2.1785  1.4850  1.3361
  195MPD1    H3 3025   0.724   1.051   0.346 -0.6489 -1.3878  0.8955
  195MPD1     N 3026   1.019   0.733   0.232 -0.1353  0.5220 -0.1225
  195MPD1    H5 3027   0.947   0.690   0.174 -0.2777 -0.0352  0.4678
  195MPD1    N1 3028   1.086   1.050   0.604  0.1106  0.4183 -0.1766
  195MPD1    H6 3029   1.041   1.113   0.671 -0.8339 -2.3342  1.7515
  195MPD1    H7 3030   1.135   0.973   0.648  2.0773  2.2302  0.8487
  196MPD1     C 3031   4.401   4.504   0.099  0.3397  0.3582  0.3115
  196MPD1    C1 3032   4.417   4.429   0.216 -0.7435  0.3001  0.0430
  196MPD1    C2 3033   4.492   4.491   0.314  0.2724 -0.3242 -0.5223
  196MPD1    C3 3034   4.531   4.622   0.301 -0.0383  0.1902  0.1133
  196MPD1    C4 3035   4.493   4.699   0.186  0.1119  0.0447 -0.4488
  196MPD1    C5 3036   4.440   4.632   0.082  0.2518 -0.6083  0.0591
  196MPD1     H 3037   4.528   4.429   0.396  1.0867 -0.9055 -1.3214
  196MPD1    H1 3038   4.527   0.067   0.173 -0.4074 -0.0102 -2.3310
  196MPD1    H2 3039   4.366   4.448   0.013 -0.1169  0.0484  0.6972
  196MPD1    H3 3040   4.424   4.674  17.719 -1.3826  0.8316  0.9354
  196MPD1     N 3041   4.601   4.693   0.403  0.7229  0.3344 -0.0178
  196MPD1    H5 3042   4.623   0.057   0.394 -0.7653  0.6964  0.3453
  196MPD1    N1 3043   4.405   4.286   0.214  0.5126  0.5967 -0.3855
  196MPD1    H6 3044   4.335   4.255   0.148  0.5882  1.6665 -0.9649
  196MPD1    H7 3045   4.378   4.257   0.308 -0.0783  2.9181  0.1764
  197MPD1     C 3046   4.154   1.846  17.366 -0.1482 -0.2929 -0.4548
  197MPD1    C1 3047   4.266   1.918  17.400 -0.6068  0.0055  0.2311
  197MPD1    C2 3048   4.329   1.999  17.310 -1.1601  0.2446  0.3043
  197MPD1    C3 3049   4.291   1.990  17.176 -0.6202  0.1152  0.5331
  197MPD1    C4 3050   4.183   1.908  17.139  0.4693 -0.6422  0.5951
  197MPD1    C5 3051   4.105   1.856  17.241 -0.1975 -0.8362 -0.7065
  197MPD1     H 3052   4.406   2.066  17.348  0.4448 -0.1659 -2.2001
  197MPD1    H1 3053   4.158   1.889  17.036 -1.3475  0.2236  0.8713
  197MPD1    H2 3054   4.093   1.806  17.446  0.4060  0.1927  0.2055
  197MPD1    H3 3055   4.023   1.791  17.211  0.7011 -1.9479 -0.7612
  197MPD1     N 3056   4.379   2.051  17.075 -0.2969  0.1390  0.9850
  197MPD1    H5 3057   4.339   2.042  16.983  0.7605  0.9845  0.4398
  197MPD1    N1 3058   4.289   1.944  17.536 -0.5777  0.5282 -0.1859
  197MPD1    H6 3059   4.250   1.873  17.597  1.2117  1.4574  2.0240
  197MPD1    H7 3060   4.375   1.988  17.569  0.0438 -0.8521  0.0264
  198MPD1     C 3061   1.199   0.657  14.394  0.2165  0.4650  0.0556
  198MPD1    C1 3062   1.142   0.602  14.509 -0.0136  0.3692  0.8411
  198MPD1    C2 3063   1.138   0.677  14.619 -0.1911 -0.1651  0.5278
  198MPD1    C3 3064   1.196   0.806  14.620  0.1977 -0.2411 -1.1134
  198MPD1    C4 3065   1.255   0.856  14.511 -0.3451 -0.0475  0.1548
  198MPD1    C5 3066   1.245   0.787  14.401  0.6354 -0.4038  0.6791
  198MPD1     H 3067   1.093   0.644  14.712 -0.5489 -2.7105 -0.5594
  198MPD1    H1 3068   1.312   0.948  14.508 -2.1343  1.0890  1.1998
  198MPD1    H2 3069   1.182   0.615  14.295 -2.4284  3.5226 -0.7902
  198MPD1    H3 3070   1.286   0.817  14.306 -1.0732 -1.2135 -0.3136
  198MPD1     N 3071   1.180   0.881  14.742 -0.4024  0.7312  0.2682
  198MPD1    H5 3072   1.117   0.846  14.814 -1.6894  0.9435 -0.7563
  198MPD1    N1 3073   1.065   0.485  14.509  0.2957  0.3118  0.3398
  198MPD1    H6 3074   1.067   0.444  14.602  1.0086  1.0850  0.6683
  198MPD1    H7 3075   1.099   0.415  14.444 -3.1818 -1.1259  0.0604
  199MPD1     C 3076   4.125   1.334   9.496 -0.2732  0.0778 -0.3377
  199MPD1    C1 3077   4.040   1.225   9.505 -0.2339  0.2415 -0.1689
  199MPD1    C2 3078   3.909   1.249   9.454 -0.0688 -0.3615  0.3144
  199MPD1    C3 3079   3.881   1.374   9.400  0.5390  0.3992  0.4343
  199MPD1    C4 3080   3.979   1.467   9.372  0.1490 -0.6398  0.7772
  199MPD1    C5 3081   4.100   1.448   9.431  0.0932 -0.5054 -0.4228
  199MPD1     H 3082   3.834   1.172   9.456 -0.0741 -0.3640 -0.0630
  199MPD1    H1 3083   3.974   1.560   9.316 -1.0944 -1.8594 -1.1509
  199MPD1    H2 3084   4.222   1.321   9.542 -0.4603 -1.6470 -0.4313
  199MPD1    H3 3085   4.176   1.525   9.418 -1.1413  1.0159  1.3558
  199MPD1     N 3086   3.759   1.407   9.338  0.3481 -0.1984 -0.0909
  199MPD1    H5 3087   3.762   1.491   9.281 -0.4550 -0.9357 -1.2269
  199MPD1    N1 3088   4.073   1.114   9.579  0.0606  0.1019  0.2670
  199MPD1    H6 3089   4.017   1.038   9.541  2.5119 -1.4624 -0.2199
  199MPD1    H7 3090   4.170   1.087   9.594 -0.5030 -2.3906 -0.6448
  200MPD1     C 3091   1.857   2.155  15.231  0.5069 -1.0553 -0.0060
  200MPD1    C1 3092   1.730   2.175  15.178 -0.4788  0.1705 -0.5531
  200MPD1    C2 3093   1.717   2.130  15.046  0.3407  0.0350  0.4793
  200MPD1    C3 3094   1.814   2.074  14.970 -0.3179  1.1382 -0.3279
  200MPD1    C4 3095   1.936   2.049  15.029  0.3792 -0.1041 -0.0143
  200MPD1    C5 3096   1.952   2.082  15.160 -0.2028  0.6098  0.2722
  200MPD1     H 3097   1.628   2.144  14.985  0.8298  0.0861 -0.2255
  200MPD1    H1 3098   2.019   2.000  14.978  0.6765  1.3452 -0.9536
  200MPD1    H2 3099   1.886   2.193  15.328  1.6837  0.9561 -1.1605
  200MPD1    H3 3100   2.048   2.061  15.205 -0.1266 -0.6370 -0.4820
  200MPD1     N 3101   1.777   2.023  14.845 -0.1445 -0.6111  0.0640
  200MPD1    H5 3102   1.679   2.032  14.822 -0.6094 -2.0638  1.5080
  200MPD1    N1 3103   1.631   2.259  15.246 -0.5240 -0.0127 -0.4764
  200MPD1    H6 3104   1.533   2.247  15.222 -1.1316  1.5558  1.2395
  200MPD1    H7 3105   1.641   2.248  15.347  1.6885 -4.1183 -1.1355
  201MPD1     C 3106   3.572   4.580  12.336 -0.0601 -0.1688 -0.1143
  201MPD1    C1 3107   3.668   4.524  12.414 -0.5752  0.4023 -0.5108
  201MPD1    C2 3108   3.783   4.598  12.437 -0.1574 -0.6738 -0.0099
  201MPD1    C3 3109   3.803   4.718  12.377 -0.0475  0.7678  0.5467
  201MPD1    C4 3110   3.704   0.036  12.298  0.1300  0.4750  0.0449
  201MPD1    C5 3111   3.581   4.707  12.286  0.8225  0.0957  0.2571
  201MPD1     H 3112   3.857   4.550  12.500  0.6642  0.8351  0.1517
  201MPD1    H1 3113   3.717   0.135  12.257 -2.5025  0.9623  0.3783
  201MPD1    H2 3114   3.479   4.529  12.312  1.3078 -2.4492 -0.5438
  201MPD1    H3 3115   3.501   0.020  12.231  2.2432  1.3944 -0.6774
  201MPD1     N 3116   3.920   0.060  12.410 -0.0437 -0.7090  0.1494
  201MPD1    H5 3117   3.974   0.023  12.488  0.1541 -0.0829  0.3076
  201MPD1    N1 3118   3.664   4.389  12.445 -0.2084  0.0042 -0.1323
  201MPD1    H6 3119   3.731   4.372  12.519  1.5683  0.4490 -1.6579
  201MPD1    H7 3120   3.574   4.364  12.487 -1.1499  1.3135 -1.3495
  202MPD1     C 3121   3.784   4.583   9.112 -0.1368  0.5076  0.2659
  202MPD1    C1 3122   3.757   4.709   9.063  0.3895  0.3425 -1.1937
  202MPD1    C2 3123   3.863   0.066   9.070 -0.4799 -0.4692  0.4286
  202MPD1    C3 3124   3.991   0.017   9.092  0.3875 -0.2807 -0.0738
  202MPD1    C4 3125   4.015   4.621   9.122  0.4737  0.3720 -0.6293
  202MPD1    C5 3126   3.912   4.533   9.142 -0.5198 -0.3682 -0.3103
  202MPD1     H 3127   3.849   0.169   9.039  0.4089 -0.2572  0.7153
  202MPD1    H1 3128   4.118   4.590   9.139  0.0632  0.0561  1.3052
  202MPD1    H2 3129   3.706   4.509   9.124 -1.2442  1.3887 -1.3805
  202MPD1    H3 3130   3.932   4.433   9.181 -1.3785 -0.3315  0.2221
  202MPD1     N 3131   4.106   0.102   9.093  0.3202  0.3488 -0.5185
  202MPD1    H5 3132   4.199   0.071   9.116  0.1196  0.1563  0.0176
  202MPD1    N1 3133   3.622   0.017   9.061  0.0249  0.2150 -0.3625
  202MPD1    H6 3134   3.604   0.102   9.007 -0.5030 -0.1918 -0.8323
  202MPD1    H7 3135   3.565   4.680   9.015  0.9781  0.7362 -2.3598
  203MPD1     C 3136   2.842   1.300  12.120 -0.0255  0.3507  0.4083
  203MPD1    C1 3137   2.811   1.176  12.161 -0.4464 -0.6199 -0.0674
  203MPD1    C2 3138   2.894   1.110  12.248  0.6519 -0.3444 -0.2608
  203MPD1    C3 3139   3.024   1.163  12.271 -0.3144 -0.1652  0.2366
  203MPD1    C4 3140   3.055   1.291  12.219  0.9750 -0.6121 -0.8048
  203MPD1    C5 3141   2.962   1.362  12.149  0.0704  0.4399  0.3925
  203MPD1     H 3142   2.868   1.018  12.298  0.6230 -0.1377  0.1005
  203MPD1    H1 3143   3.155   1.329  12.237  0.4509  0.8270 -1.0013
  203MPD1    H2 3144   2.776   1.367  12.067  1.3491 -0.9480 -2.9257
  203MPD1    H3 3145   2.988   1.463  12.121 -0.0192  0.3327 -0.0836
  203MPD1     N 3146   3.125   1.088  12.338  0.3368 -0.2933 -0.8813
  203MPD1    H5 3147   3.221   1.118  12.322 -0.2106  1.8288 -0.1451
  203MPD1    N1 3148   2.676   1.127  12.162 -0.3858  0.1058  0.4951
  203MPD1    H6 3149   2.630   1.160  12.077  0.1023 -0.0526  0.1723
  203MPD1    H7 3150   2.670   1.026  12.161  1.5358 -0.0121  3.4560
  204MPD1     C 3151   2.778   2.766  17.172  0.2585 -0.1422 -0.7073
  204MPD1    C1 3152   2.885   2.767  17.085 -0.4281 -0.5307  0.0346
  204MPD1    C2 3153   2.981   2.670  17.100 -0.2948  0.7237  0.5446
  204MPD1    C3 3154   2.956   2.560  17.188  0.7852 -0.6484  0.0955
  204MPD1    C4 3155   2.834   2.552  17.257  0.2144 -0.4092  0.6079
  204MPD1    C5 3156   2.747   2.662  17.257 -0.1253 -0.3609  0.1052
  204MPD1     H 3157   3.072   2.675  17.041 -0.1488 -1.2685  0.5958
  204MPD1    H1 3158   2.805   2.462  17.311 -0.6811 -0.0331  0.7568
  204MPD1    H2 3159   2.709   2.848  17.159  0.3902  0.1164  0.2412
  204MPD1    H3 3160   2.656   2.655  17.316 -0.3892 -2.3055 -0.5391
  204MPD1     N 3161   3.049   2.456  17.176  0.0980 -0.1540  0.8647
  204MPD1    H5 3162   3.122   2.475  17.108  0.3977 -1.9900  0.6701
  204MPD1    N1 3163   2.909   2.878  16.995 -0.0928  0.5330  0.1092
  204MPD1    H6 3164   2.984   2.858  16.930  2.6847  0.2681  3.3994
  204MPD1    H7 3165   2.816   2.901  16.960 -0.2540  0.3199  0.3985
  205MPD1     C 3166   3.997   0.964   0.183 -0.2970  0.1048 -0.2533
  205MPD1    C1 3167   4.037   1.008   0.059  0.1935 -0.4733 -0.6954
  205MPD1    C2 3168   3.949   1.028  17.691 -0.1313 -0.3741 -0.4365
  205MPD1    C3 3169   3.817   1.012  17.719  0.7804  0.8898  0.3193
  205MPD1    C4 3170   3.775   0.995   0.114  0.5828  0.5658  0.3127
  205MPD1    C5 3171   3.863   0.959   0.207 -0.6064 -0.0076 -0.2014
  205MPD1     H 3172   3.969   1.044  17.586 -2.2300 -0.1330 -0.7891
  205MPD1    H1 3173   3.669   0.995   0.139  0.1464  1.1804 -1.5536
  205MPD1    H2 3174   4.056   0.923   0.264 -0.5829 -0.8920 -0.5507
  205MPD1    H3 3175   3.836   0.935   0.309 -0.0075 -4.8146 -1.1884
  205MPD1     N 3176   3.730   1.043  17.611 -0.4217 -0.2480 -0.1515
  205MPD1    H5 3177   3.775   1.052  17.521 -2.4832  2.8061 -0.8915
  205MPD1    N1 3178   4.176   1.008   0.023 -0.5814 -0.5287  0.2493
  205MPD1    H6 3179   4.190   1.061  17.673 -1.1335  1.5140  1.4466
  205MPD1    H7 3180   4.241   1.037   0.096 -2.2889 -0.4621  1.7259
  206MPD1     C 3181   3.563   4.182  16.748  0.0432  0.3280  0.6646
  206MPD1    C1 3182   3.557   4.055  16.688  0.4935  0.1485  0.8101
  206MPD1    C2 3183   3.494   4.042  16.567  0.3761 -0.4623 -0.6242
  206MPD1    C3 3184   3.415   4.141  16.514 -0.6161 -0.6582  0.2067
  206MPD1    C4 3185   3.420   4.272  16.569  0.5016  0.2053 -0.2275
  206MPD1    C5 3186   3.499   4.280  16.682 -0.4944  0.0539  0.1809
  206MPD1     H 3187   3.495   3.947  16.515  1.4775 -1.3429  1.0050
  206MPD1    H1 3188   3.374   4.358  16.523 -0.5639 -0.6463 -0.7699
  206MPD1    H2 3189   3.633   4.192  16.830  0.0412 -1.0239  0.8326
  206MPD1    H3 3190   3.514   4.381  16.720  0.5956  0.0949 -0.3478
  206MPD1     N 3191   3.352   4.126  16.385 -0.6993  0.2696 -0.0546
  206MPD1    H5 3192   3.299   4.209  16.359 -1.1211 -0.0699 -0.2946
  206MPD1    N1 3193   3.657   3.964  16.730  0.4774  0.0074  0.3475
  206MPD1    H6 3194   3.699   3.978  16.822  1.2812  0.5082 -0.0997
  206MPD1    H7 3195   3.643   3.865  16.707 -1.7862 -0.0808  2.0656
  207MPD1     C 3196   1.649   1.339   8.901  0.3860  0.7404 -0.0594
  207MPD1    C1 3197   1.669   1.457   8.966  0.5522 -0.0521  0.1386
  207MPD1    C2 3198   1.688   1.458   9.106 -0.7118 -0.4155 -0.2353
  207MPD1    C3 3199   1.668   1.341   9.178 -0.5140  0.1047  0.2633
  207MPD1    C4 3200   1.646   1.227   9.115  0.0134  0.7205  0.6731
  207MPD1    C5 3201   1.643   1.222   8.977  0.3753  0.4183 -0.1355
  207MPD1     H 3202   1.712   1.553   9.151 -1.0946 -0.3742 -0.1183
  207MPD1    H1 3203   1.633   1.133   9.166 -1.0256 -0.9257 -2.6558
  207MPD1    H2 3204   1.644   1.333   8.792 -1.7607  1.4963  0.0003
  207MPD1    H3 3205   1.627   1.129   8.924  0.8170  0.0956  0.2924
  207MPD1     N 3206   1.686   1.331   9.317  0.2448 -0.0410 -0.6552
  207MPD1    H5 3207   1.639   1.247   9.350  1.6474 -0.0229  1.3649
  207MPD1    N1 3208   1.703   1.569   8.887 -0.7018  0.3422  0.8082
  207MPD1    H6 3209   1.643   1.571   8.805 -1.1836 -0.2679  1.1535
  207MPD1    H7 3210   1.687   1.654   8.942 -1.3805  0.1333  0.9292
  208MPD1     C 3211   4.088   4.260  16.716 -0.1022 -0.4059  0.2056
  208MPD1    C1 3212   4.138   4.386  16.700 -0.0032 -0.0205  0.0208
  208MPD1    C2 3213   4.070   4.483  16.769 -0.0633  0.5952  0.6863
  208MPD1    C3 3214   3.958   4.471  16.843 -0.5956 -0.2648  0.2211
  208MPD1    C4 3215   3.907   4.347  16.847  0.2373 -1.2142  0.4056
  208MPD1    C5 3216   3.970   4.241  16.784  0.7674 -0.1492  0.6896
  208MPD1     H 3217   4.119   4.580  16.775  0.0520  0.4714  1.6993
  208MPD1    H1 3218   3.818   4.330  16.908  0.2065 -0.7584  0.4879
  208MPD1    H2 3219   4.150   4.177  16.683  0.5213  0.0268  0.2774
  208MPD1    H3 3220   3.924   4.145  16.801  0.7818  0.2901  3.2843
  208MPD1     N 3221   3.912   4.577  16.916 -0.2525 -0.0621 -0.3354
  208MPD1    H5 3222   3.957   4.667  16.906 -0.1632 -0.1785 -0.9460
  208MPD1    N1 3223   4.262   4.407  16.637 -0.6194  0.3106  0.6163
  208MPD1    H6 3224   4.284   4.343  16.561 -0.6551  1.0168  0.0180
  208MPD1    H7 3225   4.281   4.502  16.606  0.6518 -0.2507 -0.3058
  209MPD1     C 3226   1.335   4.639  10.288  0.8904  0.2663 -0.3896
  209MPD1    C1 3227   1.404   4.711  10.191 -0.4030  0.8582  0.4400
  209MPD1    C2 3228   1.396   0.115  10.203 -0.2459  0.6315  0.0307
  209MPD1    C3 3229   1.347   0.181  10.316 -0.7060  0.4302 -0.2489
  209MPD1    C4 3230   1.308   0.098  10.420  0.1308  0.2006 -0.2192
  209MPD1    C5 3231   1.292   4.699  10.398 -0.8420 -0.1449 -0.5607
  209MPD1     H 3232   1.438   0.179  10.126 -0.3690  1.4550  0.6470
  209MPD1    H1 3233   1.260   0.131  10.512  2.3087  1.6442  0.4002
  209MPD1    H2 3234   1.314   4.533  10.277  0.8572  0.3695 -1.3139
  209MPD1    H3 3235   1.245   4.642  10.477 -1.3821 -0.2717 -0.9766
  209MPD1     N 3236   1.342   0.321  10.312  0.5197  0.1597 -0.0277
  209MPD1    H5 3237   1.376   0.373  10.231  0.7332 -1.0332 -0.6953
  209MPD1    N1 3238   1.446   4.649  10.071  0.0415  0.6028  0.1684
  209MPD1    H6 3239   1.461   4.551  10.093  1.4578  0.4060 -1.7289
  209MPD1    H7 3240   1.526   4.700  10.034  1.4586 -2.1836 -0.5960
  210MPD1     C 3241   1.421   1.207  10.905  0.0608 -0.2186  0.3706
  210MPD1    C1 3242   1.309   1.129  10.917  0.4161 -0.7940 -0.2856
  210MPD1    C2 3243   1.285   1.036  10.817 -0.2977  0.1423  0.1647
  210MPD1    C3 3244   1.366   1.031  10.708 -0.2698  0.0467  0.1646
  210MPD1    C4 3245   1.473   1.112  10.700 -0.5307 -0.0814  0.8156
  210MPD1    C5 3246   1.500   1.199  10.797  0.5155  0.1863  0.6867
  210MPD1     H 3247   1.208   0.961  10.834  0.3082 -0.6188 -0.4886
  210MPD1    H1 3248   1.551   1.109  10.625  0.4929 -1.1533  1.9176
  210MPD1    H2 3249   1.450   1.276  10.983 -0.8753  0.7605 -0.1506
  210MPD1    H3 3250   1.583   1.267  10.781 -0.3822  1.0678 -0.1869
  210MPD1     N 3251   1.349   0.935  10.600  0.0979 -0.0550  0.9789
  210MPD1    H5 3252   1.412   0.944  10.521 -2.5605 -1.4018 -1.2716
  210MPD1    N1 3253   1.235   1.139  11.032  0.1548 -0.0208  0.8151
  210MPD1    H6 3254   1.229   1.237  11.062 -2.1748  0.5307 -1.4428
  210MPD1    H7 3255   1.142   1.104  11.010 -0.2351  0.8138  1.0996
  211MPD1     C 3256   3.302   0.568  15.929 -0.7137  0.3372  1.1400
  211MPD1    C1 3257   3.373   0.676  15.976 -0.1232 -0.2395  1.0002
  211MPD1    C2 3258   3.296   0.793  15.991 -0.1159  0.0175 -0.0964
  211MPD1    C3 3259   3.173   0.814  15.926  0.0330  0.0678 -0.1322
  211MPD1    C4 3260   3.108   0.701  15.880 -0.9999  0.1855  0.2020
  211MPD1    C5 3261   3.170   0.579  15.884  0.3319  0.1641 -0.0421
  211MPD1     H 3262   3.347   0.873  16.045  0.4891  0.1783 -0.9137
  211MPD1    H1 3263   3.012   0.712  15.833 -0.2319 -0.3325 -1.4656
  211MPD1    H2 3264   3.355   0.473  15.927  0.1353  0.8114  0.8233
  211MPD1    H3 3265   3.109   0.498  15.845 -1.6489  1.3710  0.5453
  211MPD1     N 3266   3.134   0.948  15.928  0.2613  0.2749 -0.2011
  211MPD1    H5 3267   3.185   1.015  15.985  0.5792 -0.4994  0.4267
  211MPD1    N1 3268   3.489   0.668  16.054 -0.1231  0.3504 -0.0696
  211MPD1    H6 3269   3.542   0.755  16.058  1.4328 -0.5832 -0.2071
  211MPD1    H7 3270   3.552   0.590  16.032 -0.4264  0.4575 -1.2958
  212MPD1     C 3271   2.724   4.539  16.032 -0.6228  0.1285  0.5435
  212MPD1    C1 3272   2.630   4.576  16.128  0.3695 -0.0382  0.5334
  212MPD1    C2 3273   2.593   4.477  16.215  0.0555  0.6832 -0.1450
  212MPD1    C3 3274   2.634   4.348  16.205  0.4435 -0.2637  0.0291
  212MPD1    C4 3275   2.721   4.316  16.103 -0.3344  0.1401 -0.9779
  212MPD1    C5 3276   2.763   4.414  16.014 -0.3809  0.5146 -0.4513
  212MPD1     H 3277   2.524   4.503  16.294  0.3787  0.6226  0.1573
  212MPD1    H1 3278   2.759   4.215  16.097  0.4202  0.3988 -0.5894
  212MPD1    H2 3279   2.773   4.609  15.965  2.9115 -1.6192  1.2997
  212MPD1    H3 3280   2.837   4.389  15.939 -0.3128  0.0771 -0.2373
  212MPD1     N 3281   2.603   4.245  16.297 -0.1281  0.2274 -0.0469
  212MPD1    H5 3282   2.650   4.156  16.281 -0.3138  0.5571 -2.5193
  212MPD1    N1 3283   2.608   4.708  16.162  0.1346  0.9972 -0.0172
  212MPD1    H6 3284   2.524   4.718  16.218  0.4521  0.3981  0.5653
  212MPD1    H7 3285   2.622   0.041  16.087  0.9822 -0.2455 -0.9643
  213MPD1     C 3286   1.106   4.672  15.163 -0.6333 -0.0571  0.0302
  213MPD1    C1 3287   0.988   4.615  15.151 -0.5306  0.2939  0.0018
  213MPD1    C2 3288   0.926   4.645  15.032 -0.7241  0.4130  0.2558
  213MPD1    C3 3289   0.951   0.027  14.959  0.1030  0.5642 -0.1737
  213MPD1    C4 3290   1.065   0.097  14.996  0.5413  0.0951 -0.2848
  213MPD1    C5 3291   1.141   0.059  15.102 -0.0452  0.2855 -0.6264
  213MPD1     H 3292   0.841   4.585  15.001 -0.8551  0.3170  0.8064
  213MPD1    H1 3293   1.097   0.189  14.950  0.8200  0.5477  0.8198
  213MPD1    H2 3294   1.165   4.642  15.248 -2.0332 -1.7833  0.3910
  213MPD1    H3 3295   1.233   0.110  15.126 -1.1032  1.4237  1.0147
  213MPD1     N 3296   0.867   0.068  14.846  0.5286  0.4081  0.4766
  213MPD1    H5 3297   0.783   0.015  14.825 -0.8715  3.3015 -1.1860
  213MPD1    N1 3298   0.961   4.495  15.226 -0.1721  0.3019  0.1889
  213MPD1    H6 3299   1.020   4.469  15.305 -0.4230  2.4304  1.0555
  213MPD1    H7 3300   0.864   4.477  15.248 -0.4861  0.7658 -0.8360
  214MPD1     C 3301   0.072   4.516  14.810  0.1839 -0.2153  0.8327
  214MPD1    C1 3302   0.076   4.599  14.701 -0.4128 -0.7559 -0.2550
  214MPD1    C2 3303   0.198   4.668  14.672  0.1736 -0.1971 -0.2621
  214MPD1    C3 3304   0.318   4.650  14.729  0.3627 -0.4347  0.7102
  214MPD1    C4 3305   0.307   4.568  14.843 -0.0271 -0.3538  0.3236
  214MPD1    C5 3306   0.185   4.509  14.881 -0.7015  0.0096 -0.1321
  214MPD1     H 3307   0.195   0.007  14.592 -1.2156  0.7096  0.6213
  214MPD1    H1 3308   0.394   4.534  14.898 -0.6849  0.3596  1.8115
  214MPD1    H2 3309   4.716   4.464  14.842  0.3178  0.0318  1.6206
  214MPD1    H3 3310   0.180   4.446  14.968 -2.5050  0.0025 -0.2352
  214MPD1     N 3311   0.443   4.702  14.687 -0.0765  0.1649 -0.0224
  214MPD1    H5 3312   0.526   4.684  14.743 -0.2318 -0.2250  0.0846
  214MPD1    N1 3313   4.693   4.621  14.626 -0.5367 -0.2792 -0.0361
  214MPD1    H6 3314   4.717   4.643  14.529 -0.3794 -0.2599  0.0060
  214MPD1    H7 3315   4.623   4.548  14.624 -0.6397 -0.1875  0.2979
  215MPD1     C 3316   4.432   0.898  10.799 -0.2613  0.0181  0.5092
  215MPD1    C1 3317   4.496   0.937  10.912 -0.3049 -0.0937  0.6224
  215MPD1    C2 3318   4.619   1.003  10.901  0.2063 -0.4818 -0.1845
  215MPD1    C3 3319   4.682   1.021  10.784  0.3201  0.7699 -0.8613
  215MPD1    C4 3320   4.611   0.991  10.669  0.2631  0.0036 -0.2875
  215MPD1    C5 3321   4.485   0.931  10.672  0.0604 -0.7582  0.5381
  215MPD1     H 3322   4.679   1.023  10.988 -0.6027  1.2926 -0.0438
  215MPD1    H1 3323   4.656   1.008  10.572  0.3080  0.6215 -0.1587
  215MPD1    H2 3324   4.333   0.855  10.809 -0.3090  0.0236  0.0622
  215MPD1    H3 3325   4.445   0.902  10.575 -0.8747  1.0548  0.3897
  215MPD1     N 3326   0.078   1.079  10.790  0.2135  0.6596 -0.4672
  215MPD1    H5 3327   0.113   1.099  10.883 -0.1227  4.2655 -1.1108
  215MPD1    N1 3328   4.455   0.897  11.034  0.0805  0.4135  0.0989
  215MPD1    H6 3329   4.356   0.872  11.029  0.3455 -0.4557 -0.7382
  215MPD1    H7 3330   4.459   0.974  11.101 -1.1897  1.4662 -1.0238
  216MPD1     C 3331   2.850   4.230  17.006 -0.1806  0.2397  1.1246
  216MPD1    C1 3332   2.896   4.192  17.130 -0.4580 -0.1301  0.4312
  216MPD1    C2 3333   2.865   4.061  17.171 -1.0219 -0.1274 -0.0902
  216MPD1    C3 3334   2.805   3.971  17.088  0.2101  0.0114  0.4525
  216MPD1    C4 3335   2.779   4.012  16.960  0.2290  0.0226  0.7033
  216MPD1    C5 3336   2.790   4.141  16.927  0.7569  0.7076  0.3399
  216MPD1     H 3337   2.891   4.026  17.270 -0.4950  1.1492  0.2215
  216MPD1    H1 3338   2.754   3.937  16.885 -0.0712 -1.0258  1.8544
  216MPD1    H2 3339   2.856   4.334  16.975  1.4615 -0.3721 -0.5782
  216MPD1    H3 3340   2.763   4.186  16.832  0.2241  1.3333  0.7818
  216MPD1     N 3341   2.781   3.832  17.126  0.7613 -0.3542  0.3900
  216MPD1    H5 3342   2.743   3.770  17.055 -1.6700  1.1971  0.3287
  216MPD1    N1 3343   2.930   4.283  17.229 -0.2021  0.0755 -0.3541
  216MPD1    H6 3344   2.983   4.361  17.190 -0.7578  0.6167 -0.0263
  216MPD1    H7 3345   2.996   4.234  17.289 -1.2567 -0.5656  0.2845
  217MPD1     C 3346   3.035   3.538   7.927 -0.1274  0.0225 -0.1361
  217MPD1    C1 3347   2.945   3.646   7.912  0.1551  0.5442 -0.2743
  217MPD1    C2 3348   2.972   3.759   7.988 -0.0057  0.7896 -0.1109
  217MPD1    C3 3349   3.093   3.769   8.063 -0.0690 -0.4251 -0.2145
  217MPD1    C4 3350   3.183   3.658   8.080 -0.0318  0.3622 -0.0271
  217MPD1    C5 3351   3.147   3.542   8.011 -0.0363  0.5051  0.1721
  217MPD1     H 3352   2.910   3.845   7.965 -0.4543  0.7294  0.8905
  217MPD1    H1 3353   3.268   3.661   8.148 -0.8495  0.4192  0.9910
  217MPD1    H2 3354   3.011   3.437   7.894  1.8378 -1.0575  1.7990
  217MPD1    H3 3355   3.208   3.454   8.020 -2.2417 -0.8420  1.9986
  217MPD1     N 3356   3.114   3.876   8.150 -0.9405  0.3470 -0.1582
  217MPD1    H5 3357   3.194   3.862   8.211 -1.2009 -3.9474 -0.8508
  217MPD1    N1 3358   2.821   3.628   7.864  0.3370  0.2249  0.3636
  217MPD1    H6 3359   2.773   3.717   7.853 -1.7546 -0.8093  0.9661
  217MPD1    H7 3360   2.812   3.578   7.775  1.6043 -0.0576  0.3991
  218MPD1     C 3361   1.425   1.730  11.886  0.0790 -0.8785  0.1539
  218MPD1    C1 3362   1.344   1.713  11.996  0.2484 -0.0939  0.2374
  218MPD1    C2 3363   1.239   1.621  11.984 -0.2819  0.5912  0.2944
  218MPD1    C3 3364   1.216   1.549  11.872 -0.5111  0.2322 -0.7527
  218MPD1    C4 3365   1.306   1.557  11.765 -0.6631 -0.0209 -0.2467
  218MPD1    C5 3366   1.403   1.654  11.772  1.0759 -0.1117  0.1198
  218MPD1     H 3367   1.172   1.606  12.068 -0.6029  0.4842  0.0175
  218MPD1    H1 3368   1.299   1.489  11.681 -0.4502 -0.5460  0.1645
  218MPD1    H2 3369   1.510   1.798  11.879 -0.3361 -0.2160  1.5964
  218MPD1    H3 3370   1.472   1.670  11.690  2.2633 -2.9045  0.5536
  218MPD1     N 3371   1.103   1.459  11.869  0.5513 -0.2952 -0.9213
  218MPD1    H5 3372   1.062   1.450  11.962  0.4720 -0.2606 -0.9532
  218MPD1    N1 3373   1.363   1.798  12.104  0.2493  0.9986 -0.0316
  218MPD1    H6 3374   1.322   1.774  12.194  0.8735 -1.7708 -0.4786
  218MPD1    H7 3375   1.459   1.830  12.114 -1.2643  4.5578  3.0598
  219MPD1     C 3376   0.223   0.983  11.444  0.1837 -0.6572 -0.6216
  219MPD1    C1 3377   0.334   1.022  11.375 -0.6918  0.0272  0.8453
  219MPD1    C2 3378   0.419   1.101  11.441  0.1537 -0.1624  0.1401
  219MPD1    C3 3379   0.405   1.137  11.569  0.4137  0.4500 -0.0889
  219MPD1    C4 3380   0.282   1.114  11.630  0.5352 -0.2335  0.3539
  219MPD1    C5 3381   0.189   1.048  11.560  0.5245 -0.2338 -0.3570
  219MPD1     H 3382   0.508   1.130  11.386 -1.2247  1.7486 -1.0783
  219MPD1    H1 3383   0.261   1.160  11.726 -1.1656  0.5472 -0.4056
  219MPD1    H2 3384   0.159   0.912  11.392 -2.6554  1.1371  0.4166
  219MPD1    H3 3385   0.090   1.032  11.601 -0.0575  1.3054 -1.1283
  219MPD1     N 3386   0.508   1.198  11.652  0.1678 -0.7771  0.1295
  219MPD1    H5 3387   0.481   1.222  11.748  0.7165  0.3059  0.0069
  219MPD1    N1 3388   0.389   0.966  11.256  0.0662  0.2439  0.4158
  219MPD1    H6 3389   0.311   0.927  11.202  1.8669 -0.5814 -1.6180
  219MPD1    H7 3390   0.448   1.023  11.195 -1.0187  1.3152  0.3724
  220MPD1     C 3391   4.555   1.958   9.306  0.3825 -0.4332  0.5675
  220MPD1    C1 3392   4.678   1.953   9.368 -0.2751  0.1989 -0.0279
  220MPD1    C2 3393   4.716   1.833   9.423 -0.3891  0.2722 -0.5024
  220MPD1    C3 3394   4.627   1.727   9.427  0.1631  0.1310  0.8120
  220MPD1    C4 3395   4.500   1.743   9.382 -0.3321 -0.5599 -0.2939
  220MPD1    C5 3396   4.473   1.855   9.316  0.3769  0.8426  0.3186
  220MPD1     H 3397   0.077   1.822   9.474 -0.8280  2.0886  0.6921
  220MPD1    H1 3398   4.428   1.662   9.382 -0.6236 -0.3023 -1.7231
  220MPD1    H2 3399   4.515   2.046   9.258  0.0574 -0.9973 -0.1953
  220MPD1    H3 3400   4.376   1.862   9.268  0.0187 -0.7149  0.8355
  220MPD1     N 3401   4.676   1.613   9.493 -0.1669  0.2545  0.1260
  220MPD1    H5 3402   0.025   1.614   9.551 -1.0111  1.6352  1.3041
  220MPD1    N1 3403   0.042   2.053   9.350 -0.4895  0.0234  0.1661
  220MPD1    H6 3404   4.726   2.141   9.341 -2.5506 -1.3939 -2.3651
  220MPD1    H7 3405   0.097   2.048   9.436  1.0409  1.1299 -0.7362
  221MPD1     C 3406   2.854   1.476  15.519 -0.7449 -0.2233 -0.1703
  221MPD1    C1 3407   2.834   1.340  15.496 -0.5531 -0.5164 -0.0569
  221MPD1    C2 3408   2.939   1.256  15.502  0.0809 -0.9798 -0.0414
  221MPD1    C3 3409   3.069   1.287  15.553  0.6843  0.0289  0.0507
  221MPD1    C4 3410   3.081   1.418  15.587  0.6794  0.1486 -0.3020
  221MPD1    C5 3411   2.978   1.511  15.564  0.8077 -0.1422 -0.2279
  221MPD1     H 3412   2.917   1.160  15.457  1.6923 -1.4978  0.2559
  221MPD1    H1 3413   3.182   1.442  15.620  1.1173  0.0772 -1.6126
  221MPD1    H2 3414   2.772   1.544  15.502  0.2280  1.5301  2.1471
  221MPD1    H3 3415   2.997   1.616  15.584  1.4642 -0.1008 -1.1037
  221MPD1     N 3416   3.172   1.195  15.574  0.3940 -0.3274  0.3741
  221MPD1    H5 3417   3.261   1.228  15.608  1.2958 -0.0606 -2.3090
  221MPD1    N1 3418   2.714   1.314  15.427 -0.3329  0.1621  0.0930
  221MPD1    H6 3419   2.639   1.366  15.471 -1.9328 -0.0452 -2.3817
  221MPD1    H7 3420   2.687   1.216  15.430  0.2610 -0.0251 -0.5959
  222MPD1     C 3421   2.998   3.853  16.312  0.7171  0.2556 -0.8460
  222MPD1    C1 3422   2.963   3.981  16.348 -0.6439 -0.2111 -0.3466
  222MPD1    C2 3423   2.984   4.011  16.480  0.1819  0.1092  1.2608
  222MPD1    C3 3424   3.058   3.928  16.559  0.1079 -0.3712  0.9239
  222MPD1    C4 3425   3.081   3.797  16.519 -0.6121  0.0897 -0.1549
  222MPD1    C5 3426   3.050   3.765  16.395  0.4541 -1.0165 -0.1227
  222MPD1     H 3427   2.965   4.112  16.516  1.6155  0.9242 -0.2805
  222MPD1    H1 3428   3.150   3.728  16.566 -2.3790 -0.0053  2.3036
  222MPD1    H2 3429   2.967   3.826  16.211  2.3555  2.0406 -1.8250
  222MPD1    H3 3430   3.071   3.664  16.364  0.5930 -0.3454 -2.2434
  222MPD1     N 3431   3.099   3.951  16.688  0.2008 -0.2986  0.0280
  222MPD1    H5 3432   3.161   3.886  16.734  0.2576 -0.2821 -0.0249
  222MPD1    N1 3433   2.866   4.051  16.279  0.4644 -0.0418  0.5780
  222MPD1    H6 3434   2.875   4.149  16.305  1.9233  0.0904 -0.4007
  222MPD1    H7 3435   2.868   4.036  16.178  0.4093 -0.8966  0.7118
  223MPD1     C 3436   3.142   3.361  17.207 -0.5059 -0.1715 -0.3141
  223MPD1    C1 3437   3.139   3.395  17.072 -0.1171 -0.4064  0.6181
  223MPD1    C2 3438   3.156   3.529  17.053 -0.4000  0.7379 -0.3051
  223MPD1    C3 3439   3.165   3.630  17.149  0.1283  0.6107 -0.5121
  223MPD1    C4 3440   3.163   3.589  17.281  0.1051  0.2219  0.6285
  223MPD1    C5 3441   3.149   3.455  17.308  0.1386 -0.3156 -0.9410
  223MPD1     H 3442   3.160   3.567  16.952  1.5374 -3.4753 -1.8035
  223MPD1    H1 3443   3.173   3.642  17.375 -3.3218 -1.2876  1.8320
  223MPD1    H2 3444   3.137   3.258  17.241 -1.9588 -0.1906 -0.5841
  223MPD1    H3 3445   3.161   3.418  17.409  1.8247  1.3736 -0.5366
  223MPD1     N 3446   3.186   3.766  17.101  0.2240 -0.1301  0.2824
  223MPD1    H5 3447   3.192   3.766  17.000 -2.5972  1.2048  0.1216
  223MPD1    N1 3448   3.163   3.296  16.975  0.1738 -0.3250 -0.4976
  223MPD1    H6 3449   3.132   3.319  16.881 -0.3748 -1.7131 -0.6483
  223MPD1    H7 3450   3.128   3.206  17.006  0.9680 -0.5046 -0.1294
  224MPD1     C 3451   2.757   0.276   8.473 -0.5050 -0.6720 -0.6332
  224MPD1    C1 3452   2.833   0.168   8.505 -0.1298  0.1278  0.0817
  224MPD1    C2 3453   2.970   0.186   8.525  0.4555  0.4871 -0.3828
  224MPD1    C3 3454   3.017   0.310   8.571  0.3134  0.2728  0.0706
  224MPD1    C4 3455   2.933   0.419   8.547  0.7960  0.1732  0.1589
  224MPD1    C5 3456   2.814   0.400   8.500 -0.5722 -0.7852 -0.2909
  224MPD1     H 3457   3.037   0.102   8.538  1.4149  1.1134 -1.3172
  224MPD1    H1 3458   2.961   0.519   8.579  2.5020  0.1422 -1.2470
  224MPD1    H2 3459   2.661   0.269   8.424  0.3876  1.8039 -2.7061
  224MPD1    H3 3460   2.759   0.491   8.482 -0.3409 -1.2067 -3.0470
  224MPD1     N 3461   3.146   0.334   8.621 -0.4393 -0.2196 -0.7356
  224MPD1    H5 3462   3.152   0.426   8.664 -1.4571 -0.4755 -0.0274
  224MPD1    N1 3463   2.779   0.042   8.490  0.7542 -0.0690  0.7405
  224MPD1    H6 3464   2.842   4.709   8.534  0.3183 -0.7931  0.2616
  224MPD1    H7 3465   2.688   0.039   8.536  1.3675  0.7807  2.0185
  225MPD1     C 3466   0.986   1.852  11.820  0.7100  0.0297  0.3721
  225MPD1    C1 3467   0.914   1.807  11.709  0.5842 -0.8286 -0.1890
  225MPD1    C2 3468   0.782   1.846  11.700 -1.3479  0.0756  0.3938
  225MPD1    C3 3469   0.714   1.895  11.811 -0.1173  0.0289 -0.0429
  225MPD1    C4 3470   0.791   1.918  11.926  0.2253 -0.1368 -0.8919
  225MPD1    C5 3471   0.924   1.894  11.932  0.4457  0.2378 -0.1925
  225MPD1     H 3472   0.730   1.833  11.606  1.1693  0.6212 -1.0700
  225MPD1    H1 3473   0.745   1.945  12.020 -1.0029 -0.8932 -1.2710
  225MPD1    H2 3474   1.092   1.831  11.824  0.7686  0.1971 -0.2297
  225MPD1    H3 3475   0.981   1.911  12.023  0.1771  1.0714 -0.1754
  225MPD1     N 3476   0.577   1.927  11.809  0.2574  0.3617 -0.2605
  225MPD1    H5 3477   0.540   1.949  11.901 -1.7357 -3.3026 -0.1404
  225MPD1    N1 3478   0.984   1.761  11.601 -0.9200  0.6834 -0.0551
  225MPD1    H6 3479   1.060   1.700  11.630 -2.8690 -1.0407  1.4429
  225MPD1    H7 3480   0.934   1.713  11.526 -1.4376 -0.0456  0.7621
  226MPD1     C 3481   2.583   0.718   8.354 -0.2518 -0.1619  0.2894
  226MPD1    C1 3482   2.510   0.708   8.473  0.5261  0.0644  0.4978
  226MPD1    C2 3483   2.528   0.803   8.573 -1.3200  0.1112 -0.3200
  226MPD1    C3 3484   2.620   0.905   8.554 -0.1583 -0.0913 -0.2066
  226MPD1    C4 3485   2.690   0.912   8.436 -0.3167  0.8047 -0.1249
  226MPD1    C5 3486   2.669   0.822   8.339  0.5329  0.4201  0.8648
  226MPD1     H 3487   2.478   0.804   8.669 -2.2797  0.6455 -0.8166
  226MPD1    H1 3488   2.768   0.985   8.419  1.3795 -0.6382  1.3654
  226MPD1    H2 3489   2.568   0.648   8.273 -0.0281 -0.8635  0.8507
  226MPD1    H3 3490   2.727   0.830   8.247 -0.4331  2.0919  0.4059
  226MPD1     N 3491   2.622   1.009   8.650 -0.1071 -0.4224 -0.0913
  226MPD1    H5 3492   2.560   0.996   8.730  1.4848  0.5856  1.2916
  226MPD1    N1 3493   2.402   0.622   8.480 -0.5456 -0.4537  0.0741
  226MPD1    H6 3494   2.369   0.595   8.572  1.5186 -0.8887  0.6777
  226MPD1    H7 3495   2.436   0.539   8.432 -0.2657 -1.6182  2.2916
  227MPD1     C 3496   1.980   1.122   9.136  0.1911 -0.5191 -0.1936
  227MPD1    C1 3497   2.029   1.050   9.021  0.5363 -0.0569  0.2488
  227MPD1    C2 3498   2.157   1.084   8.975 -0.0709  1.0796  1.0512
  227MPD1    C3 3499   2.237   1.183   9.035 -0.1432 -0.6429 -0.5715
  227MPD1    C4 3500   2.183   1.260   9.137  0.3238  0.0309  0.7580
  227MPD1    C5 3501   2.062   1.219   9.193  0.1560  0.0278 -0.4160
  227MPD1     H 3502   2.195   1.022   8.894  0.6805  2.2485  0.5166
  227MPD1    H1 3503   2.230   1.342   9.190  2.8011 -0.8022 -0.1778
  227MPD1    H2 3504   1.888   1.100   9.189  0.4885  1.1490  1.0438
  227MPD1    H3 3505   2.034   1.259   9.289 -0.2818  1.7738 -1.2774
  227MPD1     N 3506   2.367   1.199   8.979  0.4941  0.4575 -0.1005
  227MPD1    H5 3507   2.385   1.140   8.898  1.1435 -0.0070  0.3875
  227MPD1    N1 3508   1.953   0.940   8.972 -0.3466  0.0292 -0.2064
  227MPD1    H6 3509   1.978   0.926   8.874 -1.4658 -2.0503 -0.1806
  227MPD1    H7 3510   1.854   0.963   8.979 -0.9915 -2.6108 -0.7393
  228MPD1     C 3511   2.864   4.419  12.471 -0.0020  0.5361  0.3995
  228MPD1    C1 3512   2.801   4.312  12.520  0.2982 -0.5396  0.4753
  228MPD1    C2 3513   2.659   4.303  12.499 -0.3625  0.2435  0.5599
  228MPD1    C3 3514   2.586   4.404  12.441  0.9964 -0.3281  0.1671
  228MPD1    C4 3515   2.659   4.515  12.397 -0.3710 -0.2621 -0.0341
  228MPD1    C5 3516   2.794   4.518  12.406  0.3954 -0.1279 -0.4165
  228MPD1     H 3517   2.599   4.218  12.529  0.4200 -0.4557  0.1556
  228MPD1    H1 3518   2.613   4.604  12.358 -0.5465  0.0888  0.9812
  228MPD1    H2 3519   2.969   4.445  12.473 -0.1856  1.3690 -0.7730
  228MPD1    H3 3520   2.848   4.599  12.359  1.5004 -0.8168 -0.3238
  228MPD1     N 3521   2.444   4.390  12.455 -0.1587  0.5908  0.1422
  228MPD1    H5 3522   2.407   4.326  12.525 -1.3366  2.3445  1.1178
  228MPD1    N1 3523   2.876   4.216  12.594 -0.8008 -0.7976  0.2070
  228MPD1    H6 3524   2.959   4.182  12.546 -0.6811 -2.6232  1.7135
  228MPD1    H7 3525   2.829   4.130  12.619 -0.2114 -0.6967  1.6584
  229MPD1     C 3526   0.856   3.432  14.079  0.2777  0.5749  0.4644
  229MPD1    C1 3527   0.871   3.305  14.035  0.3119  0.2310 -0.2636
  229MPD1    C2 3528   0.960   3.221  14.100  0.1660  0.5780 -0.0457
  229MPD1    C3 3529   1.047   3.260  14.197 -0.3396  0.9344  1.0109
  229MPD1    C4 3530   1.035   3.393  14.227  0.1632  0.2450 -0.5275
  229MPD1    C5 3531   0.942   3.480  14.171  0.1973  0.4203  0.1297
  229MPD1     H 3532   0.965   3.118  14.068  2.7840 -0.1403  2.6419
  229MPD1    H1 3533   1.100   3.436  14.303 -1.2508  0.2281  0.6822
  229MPD1    H2 3534   0.791   3.506  14.034  1.5615  1.2596 -0.2607
  229MPD1    H3 3535   0.944   3.584  14.199  1.5409  1.0023 -2.0998
  229MPD1     N 3536   1.127   3.174  14.271  0.3136 -0.5388 -0.6165
  229MPD1    H5 3537   1.184   3.225  14.338 -0.7086 -0.9738  0.5900
  229MPD1    N1 3538   0.776   3.251  13.938 -0.1606 -0.0131 -0.6424
  229MPD1    H6 3539   0.743   3.317  13.868 -1.7225  0.0675  0.1668
  229MPD1    H7 3540   0.812   3.167  13.893  0.0685 -0.8341  1.0791
  230MPD1     C 3541   1.579   3.130  15.110  0.1714  0.8079 -0.1630
  230MPD1    C1 3542   1.648   3.030  15.056 -0.1529 -0.5798  0.8282
  230MPD1    C2 3543   1.623   3.001  14.924  0.1651  0.0592 -0.0758
  230MPD1    C3 3544   1.540   3.082  14.847 -0.4066 -0.4402  0.4999
  230MPD1    C4 3545   1.485   3.193  14.906  0.1753 -0.0414  0.1568
  230MPD1    C5 3546   1.509   3.217  15.036  0.2389 -0.6823 -0.1838
  230MPD1     H 3547   1.669   2.912  14.884  1.2846 -0.2147  1.8020
  230MPD1    H1 3548   1.429   3.264  14.846  1.5899  1.5239  0.6676
  230MPD1    H2 3549   1.589   3.148  15.217 -2.5123 -1.5048  0.4854
  230MPD1    H3 3550   1.460   3.302  15.084  1.4811 -0.5333  0.8299
  230MPD1     N 3551   1.501   3.037  14.717 -0.1981  0.1061  0.2096
  230MPD1    H5 3552   1.561   2.974  14.664 -0.4834 -0.6918  0.8357
  230MPD1    N1 3553   1.710   2.938  15.140 -1.1024  0.2118 -0.3379
  230MPD1    H6 3554   1.767   2.977  15.215  0.8655 -2.1767 -0.5919
  230MPD1    H7 3555   1.776   2.877  15.092  1.7945  2.1773  1.1198
  231MPD1     C 3556   4.572   0.001  15.424  0.8719  1.1457  0.3828
  231MPD1    C1 3557   4.487   4.729  15.310  0.1597 -0.4796  0.2678
  231MPD1    C2 3558   4.554   0.023  15.193  0.5102  0.1196 -0.0457
  231MPD1    C3 3559   4.685   0.073  15.189  0.4935 -0.4032 -0.3625
  231MPD1    C4 3560   0.022   0.084  15.302  0.0988  0.1061  0.0310
  231MPD1    C5 3561   4.699   0.039  15.416 -0.4270 -0.1991 -0.0854
  231MPD1     H 3562   4.487   0.023  15.108 -2.1868 -1.1297  2.1053
  231MPD1    H1 3563   0.124   0.120  15.313 -0.8165  2.3425  1.1854
  231MPD1    H2 3564   4.529   4.706  15.519 -1.7013 -2.4027 -1.8888
  231MPD1    H3 3565   0.021   0.048  15.508  0.6147  1.2716 -0.8507
  231MPD1     N 3566   0.008   0.104  15.072  0.1991 -0.4225  0.3699
  231MPD1    H5 3567   4.692   0.067  14.992  1.3261  1.2301 -1.0949
  231MPD1    N1 3568   4.368   4.659  15.307  0.6818  0.0904 -0.1270
  231MPD1    H6 3569   4.315   4.704  15.233  0.0550  0.4925  0.5616
  231MPD1    H7 3570   4.318   4.673  15.395 -1.6395 -0.6232 -1.3428
  232MPD1     C 3571   1.735   3.076   0.319  0.4949 -0.2168  0.4300
  232MPD1    C1 3572   1.612   3.129   0.278 -0.2137 -0.5966  0.7422
  232MPD1    C2 3573   1.580   3.098   0.143 -0.4326 -0.8459  0.0633
  232MPD1    C3 3574   1.634   2.994   0.067 -0.7241 -0.0359 -0.0484
  232MPD1    C4 3575   1.738   2.926   0.126  0.2770 -0.5269 -0.0429
  232MPD1    C5 3576   1.792   2.971   0.243 -0.0389  0.6007  0.9410
  232MPD1     H 3577   1.497   3.159   0.108  1.6642  1.3468 -1.1080
  232MPD1    H1 3578   1.780   2.841   0.073 -0.1431  0.4690 -1.9681
  232MPD1    H2 3579   1.794   3.109   0.404 -1.0095  0.0525  1.3722
  232MPD1    H3 3580   1.893   2.942   0.270  0.2459 -1.0937 -2.0175
  232MPD1     N 3581   1.589   2.972  17.668 -0.3351 -0.3999  0.2923
  232MPD1    H5 3582   1.515   3.035  17.640  0.5761  0.2313 -0.7263
  232MPD1    N1 3583   1.544   3.234   0.348  0.8119 -0.1983 -0.5655
  232MPD1    H6 3584   1.552   3.213   0.447  1.2749  0.0944 -0.5359
  232MPD1    H7 3585   1.445   3.237   0.327  0.9333  0.1266 -1.0849
  233MPD1     C 3586   2.739   0.456   0.740 -0.1336 -0.1677  1.1938
  233MPD1    C1 3587   2.792   0.378   0.843  0.5443 -0.0240 -0.1698
  233MPD1    C2 3588   2.919   0.414   0.898  0.8695 -0.2457 -0.2300
  233MPD1    C3 3589   2.984   0.523   0.847  0.3296 -0.6982 -0.3681
  233MPD1    C4 3590   2.934   0.595   0.740 -0.0180  0.0077 -0.1958
  233MPD1    C5 3591   2.814   0.559   0.687  0.5481 -0.4596  0.0877
  233MPD1     H 3592   2.964   0.348   0.971 -0.6725 -1.1470 -0.1036
  233MPD1    H1 3593   2.992   0.677   0.697  0.0096 -1.0062 -2.0922
  233MPD1    H2 3594   2.644   0.426   0.698  0.0496  0.2747  0.4678
  233MPD1    H3 3595   2.778   0.608   0.598  0.3728  1.6959  1.3506
  233MPD1     N 3596   3.101   0.572   0.904  0.0023 -0.0666  0.0793
  233MPD1    H5 3597   3.146   0.649   0.855 -1.9977  0.1381 -1.4309
  233MPD1    N1 3598   2.722   0.268   0.876 -0.5786 -0.2474  0.5533
  233MPD1    H6 3599   2.745   0.255   0.974 -0.8307  0.4180  0.6992
  233MPD1    H7 3600   2.624   0.294   0.877 -0.2790  0.9046  0.5174
  234MPD1     C 3601   4.367   3.681   9.240 -0.1063 -0.1921 -0.2343
  234MPD1    C1 3602   4.319   3.659   9.111  0.6520 -0.0278 -0.3795
  234MPD1    C2 3603   4.285   3.769   9.031  0.4108 -0.1801  0.8209
  234MPD1    C3 3604   4.286   3.896   9.080  0.0521 -0.3252  1.1412
  234MPD1    C4 3605   4.321   3.914   9.211  0.5627 -0.2863  0.0543
  234MPD1    C5 3606   4.361   3.811   9.284  0.1438  0.2729  0.0276
  234MPD1     H 3607   4.255   3.747   8.929 -0.7263  2.4256  0.5863
  234MPD1    H1 3608   4.328   4.009   9.262  1.5545 -0.4680  0.2563
  234MPD1    H2 3609   4.395   3.597   9.303 -2.0318 -0.6178  0.0510
  234MPD1    H3 3610   4.414   3.834   9.375  0.4826  2.1692 -0.6428
  234MPD1     N 3611   4.248   3.989   8.979 -0.1166  0.4970 -0.3461
  234MPD1    H5 3612   4.221   3.953   8.889  1.0422 -1.5965  0.1358
  234MPD1    N1 3613   4.326   3.532   9.052 -0.7588  0.1383 -0.0217
  234MPD1    H6 3614   4.322   3.452   9.114 -3.1841 -0.0999 -0.4553
  234MPD1    H7 3615   4.264   3.513   8.973  0.2306 -1.7043 -0.3512
  235MPD1     C 3616   1.873   3.649  11.264  0.2803 -0.0142  0.3454
  235MPD1    C1 3617   1.769   3.560  11.246 -0.2415 -0.1843  0.5623
  235MPD1    C2 3618   1.765   3.496  11.129 -0.3906 -0.1458 -0.0182
  235MPD1    C3 3619   1.857   3.498  11.025 -0.1568  0.3499  0.7094
  235MPD1    C4 3620   1.947   3.598  11.039  0.2711  0.3510  0.1763
  235MPD1    C5 3621   1.945   3.675  11.152  0.3377 -0.1962 -0.9202
  235MPD1     H 3622   1.682   3.430  11.109 -0.6284 -0.1387  0.9771
  235MPD1    H1 3623   2.027   3.620  10.969  0.3972  1.5375  0.6881
  235MPD1    H2 3624   1.877   3.711  11.352  0.7359  0.2830  0.1162
  235MPD1    H3 3625   2.016   3.755  11.167 -2.3101  1.6447  1.7658
  235MPD1     N 3626   1.857   3.409  10.918  0.4141 -0.4007 -0.6404
  235MPD1    H5 3627   1.799   3.327  10.932 -0.1170  0.0155 -0.3996
  235MPD1    N1 3628   1.669   3.546  11.345 -0.4004 -0.1148  0.1007
  235MPD1    H6 3629   1.693   3.588  11.434  1.9320  2.1841 -1.6153
  235MPD1    H7 3630   1.661   3.448  11.371 -1.7137  0.3616  1.4720
  236MPD1     C 3631   4.426   3.709   9.705  0.4019  0.2444 -0.3498
  236MPD1    C1 3632   4.390   3.588   9.754  0.1532 -0.7350 -0.7741
  236MPD1    C2 3633   4.486   3.507   9.814  0.1479  0.8045 -0.2428
  236MPD1    C3 3634   4.619   3.550   9.822  0.9245 -0.0623 -0.7358
  236MPD1    C4 3635   4.652   3.675   9.770  0.1970 -0.0644 -0.3323
  236MPD1    C5 3636   4.554   3.757   9.710 -0.7706  0.1984  0.4538
  236MPD1     H 3637   4.458   3.410   9.853  0.7541  1.0897  0.9127
  236MPD1    H1 3638   0.017   3.718   9.767  0.7474 -1.3373 -0.2045
  236MPD1    H2 3639   4.351   3.771   9.657  0.1546 -0.2745 -0.6362
  236MPD1    H3 3640   4.578   3.843   9.648  0.2002 -2.4103 -2.7898
  236MPD1     N 3641   4.714   3.477   9.895 -0.2237 -0.2111  0.2053
  236MPD1    H5 3642   0.068   3.525   9.909 -0.2105 -0.2409  0.2244
  236MPD1    N1 3643   4.254   3.553   9.753  0.5138  0.4065 -0.2104
  236MPD1    H6 3644   4.202   3.607   9.684  0.7924  2.3865  1.1004
  236MPD1    H7 3645   4.233   3.454   9.750 -1.7183  0.9423 -1.4232
  237MPD1     C 3646   0.795   1.773  14.528  0.5618  0.2789 -0.2478
  237MPD1    C1 3647   0.785   1.647  14.582 -0.2435 -0.0004  0.1384
  237MPD1    C2 3648   0.665   1.585  14.592  0.4800  0.4401  0.2418
  237MPD1    C3 3649   0.548   1.656  14.553  0.4864 -0.1952  0.1756
  237MPD1    C4 3650   0.556   1.780  14.494 -0.5893 -0.3542  1.1594
  237MPD1    C5 3651   0.681   1.836  14.489 -0.1723 -0.3726  0.9755
  237MPD1     H 3652   0.660   1.481  14.622 -2.6479  0.7839  0.9286
  237MPD1    H1 3653   0.471   1.844  14.474  0.5148  0.9765  0.7135
  237MPD1    H2 3654   0.894   1.815  14.518  0.1199  0.3375 -4.2885
  237MPD1    H3 3655   0.695   1.936  14.451  0.6462 -0.7972  0.1524
  237MPD1     N 3656   0.423   1.595  14.570  0.0428 -0.3099 -0.6898
  237MPD1    H5 3657   0.347   1.651  14.533  1.4835  1.3849 -1.0695
  237MPD1    N1 3658   0.896   1.571  14.603 -0.3764 -0.3029  0.5179
  237MPD1    H6 3659   0.966   1.623  14.656  0.9944 -2.3496  0.7386
  237MPD1    H7 3660   0.877   1.482  14.648  1.3005 -0.9969 -0.1434
  238MPD1     C 3661   1.572   0.764  15.070  0.0614  0.1308 -0.1268
  238MPD1    C1 3662   1.650   0.768  14.953  0.3003 -0.0659 -0.4562
  238MPD1    C2 3663   1.609   0.694  14.842  0.5289 -0.4221  0.5225
  238MPD1    C3 3664   1.490   0.621  14.843 -0.5700  0.0900  0.0018
  238MPD1    C4 3665   1.407   0.625  14.955 -0.0699  0.4554  0.0459
  238MPD1    C5 3666   1.453   0.693  15.065 -0.0263 -0.4647  0.3459
  238MPD1     H 3667   1.661   0.710  14.748  0.5881  1.1661  0.8308
  238MPD1    H1 3668   1.307   0.585  14.958  0.1696 -0.0546  1.1340
  238MPD1    H2 3669   1.588   0.821  15.160 -0.8271  0.1304  0.0335
  238MPD1    H3 3670   1.384   0.701  15.149 -0.5197  0.7818 -0.1778
  238MPD1     N 3671   1.440   0.554  14.724  0.0337  0.2566  0.1721
  238MPD1    H5 3672   1.350   0.508  14.731  0.5293 -0.7060  0.3014
  238MPD1    N1 3673   1.770   0.845  14.941 -0.5420  0.6058  0.3979
  238MPD1    H6 3674   1.779   0.880  14.846  0.1231  0.7984  0.5273
  238MPD1    H7 3675   1.776   0.918  15.012  0.7591  0.2466  0.6492
  239MPD1     C 3676   2.058   1.256  14.482 -0.8224 -0.4085 -0.0513
  239MPD1    C1 3677   2.156   1.339  14.436  0.3763  0.5282 -0.4316
  239MPD1    C2 3678   2.152   1.394  14.310  0.2919 -0.5021 -0.3333
  239MPD1    C3 3679   2.052   1.351  14.222 -0.2774 -0.6601 -0.4832
  239MPD1    C4 3680   1.962   1.258  14.267 -0.4716 -0.4615  0.3980
  239MPD1    C5 3681   1.964   1.212  14.395  0.0705 -0.0528 -0.0768
  239MPD1     H 3682   2.229   1.464  14.280 -0.5737  0.3611 -0.5409
  239MPD1    H1 3683   1.894   1.216  14.193  0.7555 -0.1370 -0.9284
  239MPD1    H2 3684   2.062   1.207  14.579  1.0723 -1.3777 -0.6306
  239MPD1    H3 3685   1.906   1.128  14.431 -0.4872  1.5536  2.7499
  239MPD1     N 3686   2.040   1.385  14.079  0.0634  0.1872 -0.2152
  239MPD1    H5 3687   1.960   1.351  14.027 -0.9924 -0.0742  1.6042
  239MPD1    N1 3688   2.250   1.395  14.529 -0.2017 -0.2200  0.4090
  239MPD1    H6 3689   2.336   1.415  14.478  0.7525 -0.8084  1.8084
  239MPD1    H7 3690   2.268   1.335  14.609  1.9895  0.0251  0.1047
  240MPD1     C 3691   1.392   0.966  13.035 -0.6164  0.3156 -0.2493
  240MPD1    C1 3692   1.279   0.885  13.048 -0.2403  0.2762  0.2253
  240MPD1    C2 3693   1.248   0.837  13.178 -0.4879  0.1008  0.3245
  240MPD1    C3 3694   1.338   0.854  13.286  0.5182  0.1118 -0.0974
  240MPD1    C4 3695   1.455   0.928  13.263  0.8374 -0.2278  0.3589
  240MPD1    C5 3696   1.481   0.992  13.145 -0.3230  0.3962 -0.4008
  240MPD1     H 3697   1.156   0.781  13.186 -0.9042  1.0948  2.3304
  240MPD1    H1 3698   1.530   0.926  13.342 -0.3720 -0.1181  1.4956
  240MPD1    H2 3699   1.431   1.000  12.940 -1.6591  1.7570 -0.1742
  240MPD1    H3 3700   1.577   1.035  13.122 -1.2135  1.9656 -1.1756
  240MPD1     N 3701   1.305   0.792  13.412 -0.1902  0.3406  0.5205
  240MPD1    H5 3702   1.239   0.715  13.410  1.5135 -1.1272 -0.3791
  240MPD1    N1 3703   1.189   0.875  12.941 -0.2577  0.2549  0.3467
  240MPD1    H6 3704   1.139   0.786  12.943  1.8700 -1.0033 -3.0108
  240MPD1    H7 3705   1.225   0.890  12.847  0.0706  1.6679  0.7089
  241MPD1     C 3706   1.654   1.085  14.319 -0.5179  0.4336 -0.6487
  241MPD1    C1 3707   1.620   0.955  14.344  0.2692  0.5532 -0.4844
  241MPD1    C2 3708   1.564   0.885  14.241 -0.1050 -0.3968  0.4605
  241MPD1    C3 3709   1.523   0.950  14.121  0.9913  0.0101  0.6100
  241MPD1    C4 3710   1.550   1.087  14.102 -0.9505  0.0004 -0.9175
  241MPD1    C5 3711   1.616   1.146  14.203  0.5949  0.0773 -0.8697
  241MPD1     H 3712   1.538   0.781  14.255 -1.8300  0.0406  0.4632
  241MPD1    H1 3713   1.522   1.148  14.016 -2.0552 -0.8316 -1.1444
  241MPD1    H2 3714   1.706   1.144  14.393 -2.9506  0.7962  0.7836
  241MPD1    H3 3715   1.640   1.252  14.193  0.8443  0.1003 -0.0814
  241MPD1     N 3716   1.449   0.894  14.015 -0.1053 -0.7700 -0.1901
  241MPD1    H5 3717   1.444   0.949  13.929 -0.6017  0.3000  0.5242
  241MPD1    N1 3718   1.660   0.886  14.461 -0.1440  0.1571 -0.1674
  241MPD1    H6 3719   1.643   0.951  14.538 -0.4741 -0.1562  0.0270
  241MPD1    H7 3720   1.626   0.792  14.480  3.1010 -0.7486  1.2204
  242MPD1     C 3721   1.498   3.524  15.350  0.1427  0.2292  0.0574
  242MPD1    C1 3722   1.545   3.419  15.421  0.2539 -0.0416 -1.0546
  242MPD1    C2 3723   1.661   3.361  15.373 -0.0044 -0.2242  0.9677
  242MPD1    C3 3724   1.740   3.429  15.275 -0.0742  0.7059 -0.6920
  242MPD1    C4 3725   1.690   3.540  15.231  0.1579  0.5152  0.8296
  242MPD1    C5 3726   1.571   3.596  15.262  0.4912 -0.0905 -0.2547
  242MPD1     H 3727   1.705   3.277  15.427 -0.6593 -0.9928  0.3084
  242MPD1    H1 3728   1.746   3.600  15.161 -0.2543 -0.7657 -0.5880
  242MPD1    H2 3729   1.397   3.557  15.372  0.0441 -0.3239  0.4366
  242MPD1    H3 3730   1.541   3.692  15.225 -2.1469 -0.7896  0.0993
  242MPD1     N 3731   1.851   3.379  15.208  0.5016 -0.1582 -0.1094
  242MPD1    H5 3732   1.906   3.433  15.143 -0.0806  0.0763 -0.4113
  242MPD1    N1 3733   1.465   3.357  15.520 -0.0144 -0.0380  0.5918
  242MPD1    H6 3734   1.389   3.304  15.478  0.6390 -1.4126  1.1635
  242MPD1    H7 3735   1.516   3.296  15.583  0.2440 -1.4668 -0.9977
  243MPD1     C 3736   2.159   2.782  17.186 -0.1137  0.1163  0.4462
  243MPD1    C1 3737   2.291   2.817  17.181 -0.3131 -0.4343  0.3920
  243MPD1    C2 3738   2.381   2.720  17.137  0.4727  0.4622  0.4523
  243MPD1    C3 3739   2.350   2.593  17.123 -0.4480  0.2618  0.4171
  243MPD1    C4 3740   2.223   2.555  17.143  0.2569  0.8108 -0.3131
  243MPD1    C5 3741   2.126   2.651  17.181  0.3455 -0.0657  0.2006
  243MPD1     H 3742   2.485   2.748  17.121  0.5749  0.1821  0.6250
  243MPD1    H1 3743   2.186   2.453  17.147 -0.6245  1.2020  2.1372
  243MPD1    H2 3744   2.079   2.853  17.200  1.6246  2.0466  0.5800
  243MPD1    H3 3745   2.022   2.620  17.186  0.1351  0.6923  0.4777
  243MPD1     N 3746   2.459   2.508  17.086 -0.3379 -0.3290 -0.0340
  243MPD1    H5 3747   2.547   2.552  17.060 -1.6092  2.2900  0.0263
  243MPD1    N1 3748   2.322   2.958  17.187  0.3421 -0.1660  0.1228
  243MPD1    H6 3749   2.250   3.007  17.239  1.8288  0.2091  1.8434
  243MPD1    H7 3750   2.413   2.977  17.229 -0.7552 -0.0785  2.4644
  244MPD1     C 3751   3.049   1.581  16.992 -0.1998  0.2664  0.8404
  244MPD1    C1 3752   3.104   1.676  16.910 -0.8048 -0.3017  0.1137
  244MPD1    C2 3753   3.038   1.794  16.909  0.4824  0.4171 -0.1818
  244MPD1    C3 3754   2.931   1.826  16.991  0.1510  0.2147 -0.2676
  244MPD1    C4 3755   2.888   1.740  17.085 -0.4901 -0.1243  0.1294
  244MPD1    C5 3756   2.953   1.619  17.081  0.1121 -0.2106  0.7000
  244MPD1     H 3757   3.069   1.864  16.832 -0.9000  0.0663 -1.0548
  244MPD1    H1 3758   2.822   1.753  17.170  1.7814  2.3149  1.5379
  244MPD1    H2 3759   3.098   1.485  16.995 -1.2439 -0.2464  1.4027
  244MPD1    H3 3760   2.914   1.553  17.159 -0.0306  0.2431  1.0152
  244MPD1     N 3761   2.876   1.952  16.989  0.0286  0.2485 -0.4457
  244MPD1    H5 3762   2.900   2.010  16.909 -2.1389  2.4991  0.5154
  244MPD1    N1 3763   3.213   1.638  16.824 -0.0517  0.4243 -0.0368
  244MPD1    H6 3764   3.269   1.564  16.865 -0.7377 -0.1323 -0.1008
  244MPD1    H7 3765   3.272   1.719  16.805  1.5424 -0.5592  0.7279
  245MPD1     C 3766   4.215   2.907  12.857  0.1812  0.1811 -0.4671
  245MPD1    C1 3767   4.249   2.943  12.986  0.4368 -0.0128 -0.8128
  245MPD1    C2 3768   4.367   3.003  13.013  0.2417  0.1385 -0.6692
  245MPD1    C3 3769   4.456   3.029  12.914  0.2615 -0.2442  0.1723
  245MPD1    C4 3770   4.429   2.998  12.780 -0.3049 -0.4351 -0.4791
  245MPD1    C5 3771   4.303   2.938  12.756 -0.3882  0.5392 -0.5302
  245MPD1     H 3772   4.391   3.039  13.112 -1.6701  1.1166 -0.5615
  245MPD1    H1 3773   4.497   2.995  12.695 -1.0834 -0.2523 -1.1073
  245MPD1    H2 3774   4.123   2.853  12.840 -0.0543 -0.2411  2.1755
  245MPD1    H3 3775   4.283   2.893  12.660 -1.0955  0.3604 -0.2958
  245MPD1     N 3776   4.571   3.097  12.954  0.4654 -0.2180 -0.2826
  245MPD1    H5 3777   4.586   3.099  13.055 -0.5539  2.3003 -0.1946
  245MPD1    N1 3778   4.152   2.934  13.089  0.2011  0.3583  0.0310
  245MPD1    H6 3779   4.190   2.915  13.182 -1.2569 -0.2464  0.5140
  245MPD1    H7 3780   4.078   2.867  13.069  0.1740  0.6434 -0.8125
  246MPD1     C 3781   2.091   4.416   9.940 -0.3631  0.2532 -0.6650
  246MPD1    C1 3782   2.066   4.551   9.895  0.9076  0.8303  1.0636
  246MPD1    C2 3783   1.940   4.575   9.845 -0.5880  0.0902  0.1468
  246MPD1    C3 3784   1.838   4.484   9.857 -0.0770  0.0050  0.3869
  246MPD1    C4 3785   1.856   4.364   9.919  0.1131  0.3809  0.5306
  246MPD1    C5 3786   1.986   4.330   9.963  0.5985 -0.5782  0.4143
  246MPD1     H 3787   1.936   4.663   9.782 -1.0658 -0.6963 -0.9345
  246MPD1    H1 3788   1.769   4.308   9.952 -0.1167 -1.1349 -2.6655
  246MPD1    H2 3789   2.189   4.396   9.982 -0.8038 -1.0324 -0.2472
  246MPD1    H3 3790   2.012   4.232  10.001 -0.8678 -0.7262  1.0177
  246MPD1     N 3791   1.708   4.515   9.794  0.4440 -0.2062 -0.1536
  246MPD1    H5 3792   1.700   4.608   9.756  0.4513  0.1499  0.7259
  246MPD1    N1 3793   2.174   4.642   9.877  0.0701 -0.5132  0.0857
  246MPD1    H6 3794   2.147   0.006   9.877  0.9073 -0.2824 -0.6131
  246MPD1    H7 3795   2.247   4.625   9.946 -0.1475  0.5305  0.5639
  247MPD1     C 3796   4.339   3.267  16.172  0.4869  0.3580  0.1754
  247MPD1    C1 3797   4.435   3.271  16.069 -0.5376 -0.0996  0.0057
  247MPD1    C2 3798   4.436   3.166  15.974  0.5792 -0.2164  0.2707
  247MPD1    C3 3799   4.326   3.079  15.967 -0.3345 -0.1235 -0.1911
  247MPD1    C4 3800   4.233   3.078  16.065  0.6092  0.3392 -0.1878
  247MPD1    C5 3801   4.239   3.170  16.169 -0.6262  0.1603  0.4241
  247MPD1     H 3802   4.519   3.152  15.905 -0.5990  0.3985 -1.2511
  247MPD1    H1 3803   4.146   3.013  16.068  0.3021  0.9364  3.1602
  247MPD1    H2 3804   4.342   3.336  16.256 -1.0929 -0.8283  1.2203
  247MPD1    H3 3805   4.164   3.168  16.246 -1.6802 -0.4047 -0.6219
  247MPD1     N 3806   4.306   2.975  15.870  0.8589  0.6459 -0.5416
  247MPD1    H5 3807   4.229   2.910  15.878  0.5762  1.2082  1.3753
  247MPD1    N1 3808   4.545   3.357  16.085 -0.2757 -0.0404  0.4007
  247MPD1    H6 3809   4.519   3.453  16.110  0.3174  0.3243 -0.3679
  247MPD1    H7 3810   4.592   3.368  15.995  1.2419 -1.9778  0.9632
  248MPD1     C 3811   4.568   3.338  17.035  0.0111  0.3230  0.1217
  248MPD1    C1 3812   4.539   3.302  17.163  0.1400 -0.1348 -0.7274
  248MPD1    C2 3813   4.445   3.196  17.179 -0.0924  0.8190 -0.4418
  248MPD1    C3 3814   4.378   3.139  17.074  0.0694  0.4194  0.8490
  248MPD1    C4 3815   4.408   3.176  16.949 -0.4355  0.4583 -0.0962
  248MPD1    C5 3816   4.503   3.274  16.940 -0.0141 -0.3912 -0.0696
  248MPD1     H 3817   4.412   3.170  17.279 -0.2895  0.4694 -0.5971
  248MPD1    H1 3818   4.361   3.143  16.857  0.1932 -1.5146  0.2925
  248MPD1    H2 3819   4.628   3.425  17.012  1.0253  0.3120  2.6607
  248MPD1    H3 3820   4.535   3.294  16.838  1.1104 -0.1637  0.3341
  248MPD1     N 3821   4.267   3.054  17.090 -0.3125  0.9681  0.3455
  248MPD1    H5 3822   4.240   3.036  17.186 -2.7765 -0.5623 -0.6156
  248MPD1    N1 3823   4.558   3.386  17.272  0.4456  0.5686 -0.0097
  248MPD1    H6 3824   4.580   3.325  17.351  1.9690 -1.0463 -1.6861
  248MPD1    H7 3825   4.631   3.455  17.258  0.3320  0.8051  0.5642
  249MPD1     C 3826   1.946   1.120   9.711  0.6834  0.5206 -0.6829
  249MPD1    C1 3827   1.981   1.179   9.833  0.7532  0.2299 -0.0860
  249MPD1    C2 3828   2.070   1.279   9.833 -0.7710  0.3902 -0.1899
  249MPD1    C3 3829   2.100   1.344   9.720 -0.6176 -0.6377  0.2628
  249MPD1    C4 3830   2.055   1.294   9.599  0.1375  0.7514 -0.9212
  249MPD1    C5 3831   1.987   1.172   9.596 -0.3115  0.6195 -0.0866
  249MPD1     H 3832   2.101   1.302   9.934  0.3816  0.0807 -0.4671
  249MPD1    H1 3833   2.089   1.322   9.500  0.0005  0.8040 -0.9544
  249MPD1    H2 3834   1.897   1.024   9.703  0.5059  0.4675  1.0812
  249MPD1    H3 3835   1.960   1.125   9.502  1.7680  0.5734 -0.6449
  249MPD1     N 3836   2.182   1.456   9.716 -0.1581 -0.0929  0.4425
  249MPD1    H5 3837   2.209   1.489   9.808 -2.1869  2.5430  0.0906
  249MPD1    N1 3838   1.947   1.120   9.954  0.0378 -0.4288 -0.0392
  249MPD1    H6 3839   1.852   1.087   9.968  0.3528 -2.0202 -1.6264
  249MPD1    H7 3840   1.969   1.176  10.036 -0.5900 -1.3002  0.7234
  250MPD2     C 3841   3.273   1.441  12.825 -0.5268  0.2400  0.1173
  250MPD2    C1 3842   3.215   1.536  12.746  0.3531 -0.6301  0.0871
  250MPD2    C2 3843   3.105   1.499  12.669  0.1632  0.2963 -0.0420
  250MPD2    C3 3844   3.051   1.367  12.670 -0.4845  0.4791 -0.4058
  250MPD2    C4 3845   3.117   1.279  12.751 -0.2439  0.1539 -0.6321
  250MPD2    C5 3846   3.228   1.316  12.822  0.2716  0.3275  0.8516
  250MPD2     H 3847   3.053   1.575  12.613  2.4109  1.4168 -0.5987
  250MPD2    H1 3848   3.081   1.179  12.769  0.9568 -0.4480 -1.6438
  250MPD2    H2 3849   3.365   1.456  12.881 -0.1643 -1.4131 -0.0455
  250MPD2    H3 3850   3.277   1.246  12.889 -1.3310 -2.0340 -0.4443
  250MPD2     N 3851   2.945   1.311  12.593 -0.0664  0.1605 -0.1640
  250MPD2    H5 3852   2.915   1.216  12.613 -4.2095  1.1785 -1.5572
  250MPD2    N1 3853   3.274   1.663  12.743 -0.6654  0.0081 -0.4926
  250MPD2    H7 3854   3.362   1.673  12.794 -2.5721  2.1324  2.3465
  251TMC3    C1 3855   3.319   1.888  12.702  0.4340 -1.2925 -0.2970
  251TMC3    C2 3856   3.248   1.998  12.723 -0.1313  0.5404  0.9991
  251TMC3    C3 3857   3.318   2.098  12.793 -0.0210 -0.4670 -0.0766
  251TMC3    C4 3858   3.441   1.852  12.757  0.1582 -0.0552  0.8846
  251TMC3    C5 3859   3.506   1.957  12.814  0.1896  0.5263 -0.0301
  251TMC3    C6 3860   3.449   2.079  12.833  0.4584  0.1811 -0.1310
  251TMC3     C 3861   3.238   1.774  12.666  0.9851 -0.0181 -0.5632
  251TMC3     O 3862   3.144   1.795  12.593 -0.8583  0.1507  0.4479
  251TMC3     H 3863   3.145   2.017  12.694 -0.8857 -4.5940  0.4331
  251TMC3    H1 3864   3.498   1.771  12.714  0.0614  0.0303  0.5938
  251TMC3    H2 3865   3.494   2.158  12.891  0.1654 -0.2939  0.7386
  251TMC3    C7 3866   3.649   1.939  12.823 -0.3222  0.2180 -0.1374
  251TMC3    C8 3867   3.259   2.231  12.800  0.6988  0.5214  0.0256
  251TMC3    O1 3868   3.687   1.828  12.863 -0.0186 -0.4039  0.7432
  251TMC3    O2 3869   3.140   2.253  12.823 -0.1928 -0.2022  0.1164
  252TMC3    C1 3870   3.367   2.540   8.853 -0.0261 -0.5397  0.3451
  252TMC3    C2 3871   3.493   2.542   8.898 -0.2834 -0.7736 -0.3207
  252TMC3    C3 3872   3.511   2.483   9.021 -0.6975  0.3867 -0.2116
  252TMC3    C4 3873   3.266   2.469   8.913  0.6586 -0.7943 -0.6748
  252TMC3    C5 3874   3.296   2.394   9.016  0.4057  0.7313  0.3541
  252TMC3    C6 3875   3.418   2.401   9.081 -0.1572 -0.1649 -0.3370
  252TMC3     C 3876   3.332   2.653   8.762  0.0544 -0.5712 -0.1808
  252TMC3     O 3877   3.412   2.669   8.669  0.5542  0.3837 -0.2043
  252TMC3     H 3878   3.569   2.591   8.838 -2.2906  0.8139 -1.5454
  252TMC3    H1 3879   3.168   2.472   8.868  1.1140 -1.5675 -1.7131
  252TMC3    H2 3880   3.441   2.348   9.173 -2.1850 -0.7972 -0.1847
  252TMC3    C7 3881   3.192   2.312   9.074  0.2417 -0.5161 -0.5220
  252TMC3    C8 3882   3.644   2.488   9.067 -0.0509  0.2280  0.1195
  252TMC3    O1 3883   3.077   2.350   9.051 -0.3229  0.4845  0.0914
  252TMC3    O2 3884   3.723   2.539   8.985 -0.6233  0.0065  0.5272
  253MPD2     C 3885   4.412   1.604  14.661 -0.1393 -0.0317 -0.2636
  253MPD2    C1 3886   4.266   1.610  14.661 -0.1616 -0.1970  0.4651
  253MPD2    C2 3887   4.202   1.597  14.784 -0.1931  0.5086  0.0619
  253MPD2    C3 3888   4.269   1.610  14.902  0.6096 -0.0462  0.5958
  253MPD2    C4 3889   4.404   1.623  14.900 -0.1106  0.3448 -0.7363
  253MPD2    C5 3890   4.476   1.626  14.784 -0.3604 -0.1330 -1.0804
  253MPD2     H 3891   4.094   1.591  14.777  0.0853 -3.2718 -0.9568
  253MPD2    H1 3892   4.462   1.649  14.988  0.8240 -1.5232 -0.8115
  253MPD2    H2 3893   4.477   1.608  14.574  0.1492 -1.5942 -0.1166
  253MPD2    H3 3894   4.581   1.648  14.796 -0.8044  1.1244  0.4817
  253MPD2     N 3895   4.209   1.600  15.030  1.3026  0.0464 -0.2609
  253MPD2    H5 3896   4.278   1.612  15.104  1.7769 -0.4867 -0.6100
  253MPD2    N1 3897   4.196   1.609  14.539 -0.0460 -0.1951  0.4177
  253MPD2    H7 3898   4.095   1.599  14.550 -0.1560  0.9475  0.4968
  254TMC3    C1 3899   4.068   1.583  15.210  0.0087 -0.0276  0.4454
  254TMC3    C2 3900   3.950   1.629  15.266  0.0984  1.0448  0.4713
  254TMC3    C3 3901   3.917   1.579  15.388 -0.6608  0.0752  0.3800
  254TMC3    C4 3902   4.159   1.518  15.286  0.1338 -0.2530 -0.2300
  254TMC3    C5 3903   4.124   1.473  15.405 -0.2353 -0.4812 -0.2619
  254TMC3    C6 3904   4.004   1.502  15.459  0.2747  0.2668  0.0459
  254TMC3     C 3905   4.080   1.594  15.064  0.5746  0.3733 -0.3609
  254TMC3     O 3906   3.975   1.598  14.999 -0.7073 -0.4893  0.1146
  254TMC3     H 3907   3.875   1.673  15.201 -0.9513 -1.4895 -0.0430
  254TMC3    H1 3908   4.252   1.491  15.238  1.1455 -0.4619  1.8363
  254TMC3    H2 3909   3.989   1.486  15.565  1.2937 -1.2178 -0.0389
  254TMC3    C7 3910   4.224   1.425  15.496  0.1512 -0.2538 -0.7480
  254TMC3    C8 3911   3.811   1.655  15.461  0.3969  0.8488 -0.0485
  254TMC3    O1 3912   4.186   1.367  15.595  0.3210  0.2353 -0.3421
  254TMC3    O2 3913   3.761   1.611  15.565 -0.0274 -0.4097  0.2146
  255MPD2     C 3914   2.913   3.821   9.920 -0.4063  0.1521  0.8083
  255MPD2    C1 3915   2.830   3.897   9.836  0.1462 -0.5239  1.0296
  255MPD2    C2 3916   2.888   3.948   9.723 -0.3394  0.1382 -0.0147
  255MPD2    C3 3917   3.014   3.910   9.674  0.9233 -0.1428  0.0217
  255MPD2    C4 3918   3.087   3.821   9.755 -0.2935  0.0603 -0.2191
  255MPD2    C5 3919   3.034   3.775   9.871  0.2099  0.1435 -0.2341
  255MPD2     H 3920   2.829   4.012   9.659  0.6798  1.1611  0.0783
  255MPD2    H1 3921   3.185   3.785   9.728 -1.7490 -2.6787 -1.8156
  255MPD2    H2 3922   2.882   3.785  10.017 -1.4282  0.9301  0.7685
  255MPD2    H3 3923   3.098   3.705   9.923 -1.3371  0.2326  1.7797
  255MPD2     N 3924   3.064   3.958   9.547  0.0223  0.3642  0.1289
  255MPD2    H5 3925   3.002   4.028   9.506  1.6131  1.7926  0.1784
  255MPD2    N1 3926   2.697   3.917   9.875  0.4845  0.1699  0.7028
  255MPD2    H7 3927   2.661   3.870   9.958  1.4484 -0.6116  0.6759
  256TMC3    C1 3928   2.471   3.984   9.844 -0.1950 -0.3238  0.3752
  256TMC3    C2 3929   2.383   4.077   9.787  0.0294  0.0371 -0.2302
  256TMC3    C3 3930   2.249   4.039   9.802 -0.1619  0.9060 -0.4110
  256TMC3    C4 3931   2.433   3.853   9.861  0.2422  0.5441 -1.2364
  256TMC3    C5 3932   2.298   3.827   9.872  0.4506 -0.1372  0.5710
  256TMC3    C6 3933   2.205   3.919   9.849 -0.0362  0.1443  0.0760
  256TMC3     C 3934   2.610   4.001   9.806  0.0962  0.1821  0.2763
  256TMC3     O 3935   2.631   4.092   9.729  0.4292 -0.2028  0.3541
  256TMC3     H 3936   2.419   4.171   9.749  1.9848 -0.8281 -0.5162
  256TMC3    H1 3937   2.508   3.775   9.875 -1.5482 -0.9470 -0.0521
  256TMC3    H2 3938   2.100   3.889   9.848  0.5664 -1.9644  0.9086
  256TMC3    C7 3939   2.281   3.686   9.870 -0.6510  0.3478  0.4847
  256TMC3    C8 3940   2.144   4.123   9.752 -0.6983  0.6667  0.3847
  256TMC3    O1 3941   2.367   3.616   9.819 -0.1151 -0.4456 -0.2874
  256TMC3    O2 3942   2.028   4.106   9.792 -0.7257  0.2088  0.2512
  257MPD2     C 3943   2.303   1.685  12.943 -0.3848  0.2415 -0.0139
  257MPD2    C1 3944   2.187   1.684  12.872 -0.3831 -0.1994 -0.6431
  257MPD2    C2 3945   2.081   1.605  12.915 -0.0337 -0.4249  0.2820
  257MPD2    C3 3946   2.098   1.518  13.022 -0.0815 -0.0805 -0.7052
  257MPD2    C4 3947   2.218   1.508  13.082 -0.1856 -0.9735 -0.1521
  257MPD2    C5 3948   2.326   1.589  13.036 -0.0653  0.1918 -0.1055
  257MPD2     H 3949   1.992   1.598  12.854  0.6319  0.8489 -0.8439
  257MPD2    H1 3950   2.240   1.439  13.162  0.9881 -1.1901 -0.6682
  257MPD2    H2 3951   2.392   1.738  12.910 -1.6616  1.5710 -1.3271
  257MPD2    H3 3952   2.426   1.590  13.079 -0.5363 -1.9695  1.0341
  257MPD2     N 3953   1.996   1.431  13.062  0.8061  0.8147 -0.4152
  257MPD2    H5 3954   1.914   1.432  13.003 -1.1287 -0.8227  2.2526
  257MPD2    N1 3955   2.183   1.758  12.751 -0.7023 -0.0650 -0.3944
  257MPD2    H7 3956   2.268   1.810  12.731 -0.1480 -1.6356 -2.0057
  258TMC3    C1 3957   1.856   1.287  13.196  0.4531 -0.3574 -0.0860
  258TMC3    C2 3958   1.738   1.349  13.164 -0.5505  0.7586 -0.3193
  258TMC3    C3 3959   1.619   1.321  13.236  0.1687  0.0568 -0.0538
  258TMC3    C4 3960   1.865   1.203  13.301  0.2266 -0.5107  0.0517
  258TMC3    C5 3961   1.750   1.171  13.370  0.3124 -0.2803 -0.1237
  258TMC3    C6 3962   1.626   1.222  13.336 -0.0276  0.8685 -0.6253
  258TMC3     C 3963   1.977   1.370  13.190 -0.5309 -0.5020 -0.1510
  258TMC3     O 3964   2.050   1.365  13.288 -0.0942  0.3794  0.0053
  258TMC3     H 3965   1.733   1.436  13.099 -0.5601  2.5792  2.1366
  258TMC3    H1 3966   1.956   1.146  13.315  0.4616 -0.2378 -0.3682
  258TMC3    H2 3967   1.536   1.178  13.376  0.6371 -0.0926 -0.1779
  258TMC3    C7 3968   1.750   1.103  13.502 -0.0925  0.7395 -1.1493
  258TMC3    C8 3969   1.494   1.376  13.198 -0.0130 -0.0904  0.4039
  258TMC3    O1 3970   1.639   1.093  13.556 -0.0948 -0.4375 -0.1365
  258TMC3    O2 3971   1.494   1.426  13.087  0.0339  0.4460 -0.3394
  259MPD2     C 3972   0.959   3.298   0.640 -0.0617  0.5652 -0.3101
  259MPD2    C1 3973   0.882   3.199   0.585  0.0085 -0.1378  0.3192
  259MPD2    C2 3974   0.847   3.213   0.453 -0.3466 -0.1965  0.2468
  259MPD2    C3 3975   0.879   3.326   0.386  0.2645 -0.1522  0.5719
  259MPD2    C4 3976   0.951   3.429   0.442 -0.2135 -0.0635  0.0907
  259MPD2    C5 3977   0.986   3.417   0.573 -0.0764 -0.2985 -0.5224
  259MPD2     H 3978   0.785   3.137   0.407 -0.8046  0.3309 -0.0094
  259MPD2    H1 3979   0.987   3.518   0.392 -1.2071  0.2582 -0.0429
  259MPD2    H2 3980   1.005   3.291   0.738  0.5037  0.9383 -0.5481
  259MPD2    H3 3981   1.037   3.487   0.637 -0.5018 -0.1465 -0.3462
  259MPD2     N 3982   0.838   3.331   0.253  0.4886 -0.6329 -0.0128
  259MPD2    H5 3983   0.781   3.254   0.220 -2.7936  1.9226 -0.3108
  259MPD2    N1 3984   0.867   3.083   0.668  0.3430  0.8680  0.1413
  259MPD2    H7 3985   0.909   3.091   0.760 -0.3165 -0.9956  0.6044
  260TMC3    C1 3986   0.842   3.380   0.018 -0.5880  0.1039  0.0379
  260TMC3    C2 3987   0.835   3.479  17.656 -0.2112 -0.2443  0.0508
  260TMC3    C3 3988   0.820   3.436  17.527 -0.4797  0.2335  0.4812
  260TMC3    C4 3989   0.835   3.246  17.725  0.4924  0.3988  0.1046
  260TMC3    C5 3990   0.821   3.212  17.591 -0.1044  0.8939  0.0475
  260TMC3    C6 3991   0.813   3.303  17.489 -0.4980  0.1772  0.0121
  260TMC3     C 3992   0.867   3.429   0.155 -0.0917  0.4238 -0.2296
  260TMC3     O 3993   0.932   3.531   0.173 -0.3659 -0.1767  0.1721
  260TMC3     H 3994   0.863   3.578  17.689  0.5975  0.0796 -1.6134
  260TMC3    H1 3995   0.863   3.176   0.067 -0.1027  0.1004  0.0536
  260TMC3    H2 3996   0.794   3.273  17.387  0.6930 -2.1839  0.4999
  260TMC3    C7 3997   0.827   3.070  17.555 -0.0316 -0.3731 -0.3438
  260TMC3    C8 3998   0.913   3.514  17.445 -0.3441  0.2576 -0.4813
  260TMC3    O1 3999   0.826   3.047  17.431  0.4788 -0.6604 -0.1840
  260TMC3    O2 4000   0.938   3.630  17.469 -0.5607  0.9701 -0.3729
  261MPD2     C 4001   2.442   1.275  12.004  0.1365 -0.9966  0.7601
  261MPD2    C1 4002   2.502   1.391  12.064 -0.7239 -0.0734 -0.2181
  261MPD2    C2 4003   2.549   1.489  11.985 -0.0455  0.2769 -0.4253
  261MPD2    C3 4004   2.567   1.471  11.847  0.4371 -0.2304 -0.1240
  261MPD2    C4 4005   2.515   1.357  11.793 -0.2815 -0.4276 -0.2240
  261MPD2    C5 4006   2.452   1.258  11.865 -0.5720 -0.2544  0.9970
  261MPD2     H 4007   2.577   1.580  12.037 -3.3379  1.2829 -0.4185
  261MPD2    H1 4008   2.523   1.348  11.685 -1.1722 -2.0705 -0.1552
  261MPD2    H2 4009   2.394   1.194  12.058 -0.9332 -0.4008  0.7239
  261MPD2    H3 4010   2.406   1.171  11.820 -0.0652  0.7556 -1.4596
  261MPD2     N 4011   2.621   1.574  11.769 -0.4240 -0.1989 -0.0424
  261MPD2    H5 4012   2.644   1.662  11.814  0.0834 -0.7325  0.7363
  261MPD2    N1 4013   2.506   1.413  12.202 -0.0998 -0.1245 -0.1460
  261MPD2    H7 4014   2.549   1.497  12.240  0.8840 -1.2119  1.1584
  262TMC3    C1 4015   2.728   1.676  11.587 -0.3235  0.1900  0.3681
  262TMC3    C2 4016   2.665   1.796  11.616 -0.3702  0.0351 -0.4242
  262TMC3    C3 4017   2.689   1.903  11.532 -0.0792  0.0412  0.5569
  262TMC3    C4 4018   2.822   1.668  11.486  0.0992  0.0756 -0.1037
  262TMC3    C5 4019   2.847   1.779  11.409  0.5328 -0.0931  0.4650
  262TMC3    C6 4020   2.786   1.901  11.436 -0.7996  0.8034  0.2096
  262TMC3     C 4021   2.685   1.554  11.652 -0.4026 -0.4181  0.2118
  262TMC3     O 4022   2.707   1.451  11.590 -1.0250  0.4844  0.6598
  262TMC3     H 4023   2.576   1.800  11.679 -0.0779  1.0961 -0.0775
  262TMC3    H1 4024   2.877   1.576  11.470 -1.4556 -0.7784 -0.5931
  262TMC3    H2 4025   2.791   1.985  11.368  1.1240 -2.7602 -4.1136
  262TMC3    C7 4026   2.930   1.768  11.293 -0.5506  0.2632 -0.0436
  262TMC3    C8 4027   2.614   2.028  11.553  0.6449 -0.0895 -0.0243
  262TMC3    O1 4028   2.980   1.659  11.268 -0.2193 -0.0230  0.5156
  262TMC3    O2 4029   2.664   2.138  11.537 -0.2112 -0.5666 -0.3837
  263MPD2     C 4030   3.112   0.596  11.355  0.7587  0.2258 -0.7284
  263MPD2    C1 4031   3.238   0.625  11.312  0.4600 -0.2805 -0.0250
  263MPD2    C2 4032   3.246   0.694  11.197  0.1529 -0.2537 -1.0417
  263MPD2    C3 4033   3.145   0.701  11.104 -0.3693 -0.8504  0.0627
  263MPD2    C4 4034   3.023   0.646  11.138  0.5344 -0.7892 -0.8778
  263MPD2    C5 4035   3.015   0.596  11.259 -0.0500 -0.0387 -0.1325
  263MPD2     H 4036   3.334   0.747  11.163  0.1285 -0.2140 -1.0427
  263MPD2    H1 4037   2.939   0.635  11.070  0.8384 -0.9802 -1.2178
  263MPD2    H2 4038   3.093   0.556  11.454 -1.9592 -1.5832 -1.9900
  263MPD2    H3 4039   2.923   0.544  11.284  0.4294 -2.1338 -2.7480
  263MPD2     N 4040   3.169   0.772  10.979  0.4960  0.1534  0.8550
  263MPD2    H5 4041   3.260   0.814  10.968  0.5039 -0.0415  0.1808
  263MPD2    N1 4042   3.355   0.598  11.394  0.3408 -0.9327  0.1117
  263MPD2    H7 4043   3.334   0.547  11.479  3.2568 -0.6350  1.0159
  264TMC3    C1 4044   3.143   0.875  10.791 -0.1300  0.8448 -0.3179
  264TMC3    C2 4045   3.227   0.977  10.839 -0.0543  0.4076 -0.0143
  264TMC3    C3 4046   3.310   1.035  10.747 -0.2491 -0.1740 -0.1262
  264TMC3    C4 4047   3.124   0.839  10.656 -0.5489 -0.2523  0.2338
  264TMC3    C5 4048   3.223   0.897  10.578  0.1202 -0.6821  0.4566
  264TMC3    C6 4049   3.322   0.989  10.619 -0.0594 -0.5364  0.5805
  264TMC3     C 4050   3.077   0.801  10.889 -0.0117 -0.1627  0.1556
  264TMC3     O 4051   2.959   0.769  10.871 -0.5328 -0.0191  0.0881
  264TMC3     H 4052   3.239   1.000  10.944 -0.4015 -1.0205  0.3364
  264TMC3    H1 4053   3.041   0.780  10.621  0.0856 -1.0879  0.1446
  264TMC3    H2 4054   3.377   1.050  10.548  0.3109 -1.3320  0.1809
  264TMC3    C7 4055   3.206   0.872  10.440  0.0875  0.3316  0.8364
  264TMC3    C8 4056   3.367   1.165  10.784 -0.2298  0.7134 -0.3464
  264TMC3    O1 4057   3.090   0.883  10.399  0.1917 -0.1039  0.1306
  264TMC3    O2 4058   3.457   1.209  10.712 -0.3311  0.1854 -0.0247
  265MPD2     C 4059   0.841   1.175  14.920  0.6250 -0.2675 -0.5832
  265MPD2    C1 4060   0.904   1.294  14.876 -0.4456  0.2599 -0.6631
  265MPD2    C2 4061   0.972   1.281  14.760  0.3487  0.5194 -0.2620
  265MPD2    C3 4062   0.954   1.162  14.685  0.0095  0.4600 -0.0526
  265MPD2    C4 4063   0.874   1.058  14.729 -0.1062 -0.2186 -0.7003
  265MPD2    C5 4064   0.812   1.064  14.849 -0.1587 -0.0253  0.3846
  265MPD2     H 4065   1.028   1.362  14.714 -1.0439  2.1444  0.8840
  265MPD2    H1 4066   0.859   0.966  14.673  0.0285 -0.2386 -0.7042
  265MPD2    H2 4067   0.805   1.167  15.022  0.4326 -0.6263 -0.6797
  265MPD2    H3 4068   0.750   0.984  14.888  0.5942  0.5636  2.7548
  265MPD2     N 4069   0.999   1.149  14.550  0.3105  0.7512 -0.2853
  265MPD2    H5 4070   0.967   1.065  14.503  0.7935 -0.0111  0.7295
  265MPD2    N1 4071   0.896   1.415  14.951  0.0254 -0.3658  0.1439
  265MPD2    H7 4072   0.939   1.499  14.913 -1.7785 -0.1281 -1.3235
  266TMC3    C1 4073   0.831   1.560  15.135  0.1047  0.6756  0.2791
  266TMC3    C2 4074   0.801   1.581  15.265 -0.7325  0.5797 -0.2181
  266TMC3    C3 4075   0.796   1.703  15.314 -0.7875 -0.1340 -0.5913
  266TMC3    C4 4076   0.845   1.667  15.054 -0.5641 -0.4240 -0.3215
  266TMC3    C5 4077   0.830   1.793  15.103  0.3602  0.3545  0.4081
  266TMC3    C6 4078   0.806   1.811  15.237  0.3860 -0.1013 -0.2842
  266TMC3     C 4079   0.852   1.423  15.082  0.3471  0.1441  0.2864
  266TMC3     O 4080   0.818   1.338  15.162  0.2564  0.3071  0.7020
  266TMC3     H 4081   0.815   1.505  15.340 -1.2264  1.9678  1.2840
  266TMC3    H1 4082   0.837   1.654  14.947 -1.1780 -0.3482 -0.2867
  266TMC3    H2 4083   0.767   1.905  15.275  1.3993  1.0547 -2.0676
  266TMC3    C7 4084   0.755   1.878  15.012 -0.4238 -0.6362 -0.0266
  266TMC3    C8 4085   0.737   1.710  15.445  0.5199 -0.1533  0.9492
  266TMC3    O1 4086   0.758   1.999  15.034  0.3888  0.2486 -0.2093
  266TMC3    O2 4087   0.639   1.645  15.468 -0.2322  0.4013  0.2748
  267MPD2     C 4088   2.946   3.286   0.254 -0.1162 -0.0538 -0.2716
  267MPD2    C1 4089   2.981   3.204   0.147  0.5208  0.7455 -0.1470
  267MPD2    C2 4090   2.938   3.241   0.021  0.2514  0.1999  0.1626
  267MPD2    C3 4091   2.873   3.362   0.002 -0.3574 -0.2861  0.5227
  267MPD2    C4 4092   2.843   3.444   0.112 -0.1375 -0.1093 -1.1224
  267MPD2    C5 4093   2.877   3.405   0.238  0.0330 -0.8018 -0.1005
  267MPD2     H 4094   2.952   3.176  17.671 -1.5238  1.3216 -0.9794
  267MPD2    H1 4095   2.776   3.529   0.101  0.5379  0.7481  1.4411
  267MPD2    H2 4096   2.978   3.263   0.355 -2.7121 -0.0158  0.5731
  267MPD2    H3 4097   2.857   3.471   0.321  0.6371 -1.4426  0.5558
  267MPD2     N 4098   2.825   3.416  17.609  0.2608 -0.2642 -0.5434
  267MPD2    H5 4099   2.762   3.496  17.612  0.2236 -0.2945 -0.5118
  267MPD2    N1 4100   3.064   3.097   0.171 -0.8926  0.1571 -0.1989
  267MPD2    H7 4101   3.098   3.101   0.266 -0.2715 -1.5310 -0.3491
  268TMC3    C1 4102   3.201   2.908   0.138  1.0894 -0.0396  0.3095
  268TMC3    C2 4103   3.323   2.915   0.070 -0.2178  0.1948 -0.0471
  268TMC3    C3 4104   3.432   2.861   0.137 -0.0072  0.2420  0.7083
  268TMC3    C4 4105   3.193   2.851   0.268  0.5608 -0.6849  0.0093
  268TMC3    C5 4106   3.304   2.782   0.313 -0.7344  0.4063 -0.6135
  268TMC3    C6 4107   3.422   2.791   0.252  0.4256  0.1798 -0.3238
  268TMC3     C 4108   3.088   2.990   0.090  0.1280  0.0526 -0.4433
  268TMC3     O 4109   3.039   2.956  17.721 -0.1859 -0.4070  0.4463
  268TMC3     H 4110   3.328   2.978  17.718  0.7817 -0.3731 -0.3946
  268TMC3    H1 4111   3.094   2.836   0.311  0.0850  0.8847 -0.5161
  268TMC3    H2 4112   3.506   2.752   0.308 -0.2591 -0.9989 -0.1200
  268TMC3    C7 4113   3.299   2.742   0.455  0.1732  0.2056 -0.3820
  268TMC3    C8 4114   3.561   2.928   0.123 -0.0551  0.5414 -0.2760
  268TMC3    O1 4115   3.228   2.812   0.524  0.2676 -0.3658 -0.3330
  268TMC3    O2 4116   3.618   2.966   0.229 -0.0500 -0.2567 -0.0710
  269MPD2     C 4117   3.659   2.131  14.989  0.2281 -0.3101  0.3781
  269MPD2    C1 4118   3.564   2.172  15.075  0.5082 -0.3333 -1.2146
  269MPD2    C2 4119   3.533   2.304  15.095 -0.3620  0.1873  0.6551
  269MPD2    C3 4120   3.599   2.398  15.026 -0.4748  0.5097 -0.3897
  269MPD2    C4 4121   3.685   2.360  14.926 -0.1781 -0.5071 -0.9719
  269MPD2    C5 4122   3.731   2.228  14.912  0.1643  0.0845  0.2759
  269MPD2     H 4123   3.472   2.324  15.182 -1.5807  1.2782 -0.4701
  269MPD2    H1 4124   3.742   2.430  14.866  1.5577 -0.8017  0.3117
  269MPD2    H2 4125   3.687   2.027  14.978 -1.5125 -0.4227 -3.0677
  269MPD2    H3 4126   3.807   2.205  14.838 -2.0573 -2.0061 -1.3295
  269MPD2     N 4127   3.563   2.532  15.053  0.2633  0.1984  0.4721
  269MPD2    H5 4128   3.482   2.538  15.113 -0.7926  0.7210 -1.0131
  269MPD2    N1 4129   3.506   2.064  15.140 -0.1496  0.0640 -0.6713
  269MPD2    H7 4130   3.550   1.973  15.140  0.2450  0.2578 -0.0154
  270TMC3    C1 4131   3.338   1.956  15.270  0.1081 -0.5058 -0.4799
  270TMC3    C2 4132   3.214   1.948  15.323  0.5435  0.6713  0.0213
  270TMC3    C3 4133   3.178   1.834  15.391  0.2035  0.2304  0.1634
  270TMC3    C4 4134   3.433   1.856  15.287 -0.1048 -0.3118  1.0373
  270TMC3    C5 4135   3.391   1.732  15.337 -1.4302 -1.1212  0.5590
  270TMC3    C6 4136   3.260   1.723  15.384 -0.2191  0.2999 -0.2121
  270TMC3     C 4137   3.385   2.076  15.208 -0.4559 -0.0235 -0.0173
  270TMC3     O 4138   3.309   2.174  15.212 -0.6880  0.1535 -1.0109
  270TMC3     H 4139   3.144   2.021  15.285 -0.3249 -0.4854 -0.6070
  270TMC3    H1 4140   3.537   1.860  15.260  0.1332  2.8480  2.3681
  270TMC3    H2 4141   3.231   1.630  15.429  2.1842 -1.1471 -1.6207
  270TMC3    C7 4142   3.451   1.607  15.284 -0.2278  0.2190 -1.2442
  270TMC3    C8 4143   3.052   1.784  15.338  0.7354 -0.3992 -0.0801
  270TMC3    O1 4144   3.564   1.602  15.234 -0.4698  0.2017  0.1477
  270TMC3    O2 4145   2.947   1.822  15.384  0.4482  0.3324 -0.1016
  271MPD2     C 4146   2.553   1.644  13.592 -0.3442 -0.0313 -0.0087
  271MPD2    C1 4147   2.456   1.662  13.694  0.8994  0.3531 -0.0245
  271MPD2    C2 4148   2.330   1.694  13.663  0.1186  0.1105  0.6219
  271MPD2    C3 4149   2.295   1.719  13.532  0.4750 -0.5762 -0.8311
  271MPD2    C4 4150   2.387   1.703  13.429 -0.5306  0.0818 -0.2083
  271MPD2    C5 4151   2.509   1.657  13.461 -0.5609 -0.2546  0.3080
  271MPD2     H 4152   2.250   1.712  13.733  1.2973  0.7947  1.7707
  271MPD2    H1 4153   2.349   1.717  13.329  0.3670  1.2204 -0.3917
  271MPD2    H2 4154   2.658   1.618  13.601 -0.5031 -0.7156 -0.1552
  271MPD2    H3 4155   2.568   1.644  13.371  0.0977  0.5794  0.6290
  271MPD2     N 4156   2.161   1.750  13.494 -0.1796  0.3398  0.1551
  271MPD2    H5 4157   2.149   1.755  13.393 -3.1236  0.3731  0.5025
  271MPD2    N1 4158   2.500   1.618  13.824  0.1735  0.2596 -0.9593
  271MPD2    H7 4159   2.432   1.594  13.895 -0.2453 -1.9000 -2.1042
  272TMC3    C1 4160   2.633   1.485  13.967 -0.8677 -0.4898  0.2612
  272TMC3    C2 4161   2.751   1.410  13.960  0.2376  0.2237  0.4746
  272TMC3    C3 4162   2.805   1.363  14.078  0.1630  0.5322  0.0546
  272TMC3    C4 4163   2.569   1.504  14.084  0.6978 -0.0500  0.7913
  272TMC3    C5 4164   2.638   1.463  14.203  0.0941 -0.6717 -0.0834
  272TMC3    C6 4165   2.749   1.394  14.200  0.0187 -0.6409 -0.3009
  272TMC3     C 4166   2.627   1.586  13.864  0.1741 -0.8366 -0.7290
  272TMC3     O 4167   2.739   1.618  13.819 -0.1199 -0.0906  0.4959
  272TMC3     H 4168   2.801   1.398  13.865 -2.7776  1.2163 -1.2466
  272TMC3    H1 4169   2.478   1.561  14.094  0.0045 -1.0848  0.3572
  272TMC3    H2 4170   2.804   1.366  14.289 -0.6158 -2.5592 -0.5169
  272TMC3    C7 4171   2.588   1.503  14.332  0.3033 -0.1537  0.3262
  272TMC3    C8 4172   2.944   1.341  14.076  0.4101  0.0619  0.0763
  272TMC3    O1 4173   2.473   1.470  14.365  0.5755  0.0540 -0.6116
  272TMC3    O2 4174   2.998   1.394  13.979 -0.1108  0.2671 -0.3757
  273MPD2     C 4175   3.725   0.238  11.693  0.4639  0.4530 -1.0385
  273MPD2    C1 4176   3.813   0.132  11.694 -0.4250  0.0718  0.0710
  273MPD2    C2 4177   3.787   0.016  11.628 -0.3568  0.4035  0.2930
  273MPD2    C3 4178   3.671   0.007  11.545  0.1724  0.4935  0.0637
  273MPD2    C4 4179   3.574   0.102  11.559 -0.5488 -0.3875 -0.1304
  273MPD2    C5 4180   3.601   0.220  11.630  0.4339  0.4556 -0.9580
  273MPD2     H 4181   3.861   4.671  11.623 -0.1748  0.6435 -0.7588
  273MPD2    H1 4182   3.480   0.088  11.507 -1.5900 -1.6362  2.1265
  273MPD2    H2 4183   3.741   0.332  11.744 -0.3404 -0.0313  0.0986
  273MPD2    H3 4184   3.520   0.292  11.635  0.0027 -0.0807 -0.1860
  273MPD2     N 4185   3.647   4.630  11.466  0.2507  0.5043 -0.5587
  273MPD2    H5 4186   3.571   4.637  11.399  0.0726 -0.8767 -0.4985
  273MPD2    N1 4187   3.937   0.137  11.771  0.1943  0.0098 -0.0450
  273MPD2    H7 4188   3.993   0.053  11.770 -0.7519 -0.6211 -0.1964
  274TMC3    C1 4189   3.732   4.475  11.323 -0.4116  0.0030  0.0585
  274TMC3    C2 4190   3.620   4.517  11.246 -0.3209  0.2520  0.1352
  274TMC3    C3 4191   3.636   4.556  11.115  0.5130  0.2042  0.4002
  274TMC3    C4 4192   3.855   4.490  11.269 -0.3626  0.2771 -0.0367
  274TMC3    C5 4193   3.867   4.551  11.142 -0.2645  1.0801 -0.1261
  274TMC3    C6 4194   3.761   4.568  11.059  0.0403 -0.2206 -0.3423
  274TMC3     C 4195   3.735   4.520  11.454  0.0171  0.1948 -1.0015
  274TMC3     O 4196   3.814   4.474  11.536  0.4963 -0.1534  0.1072
  274TMC3     H 4197   3.518   4.498  11.278 -0.2966  0.9208  0.5962
  274TMC3    H1 4198   3.939   4.440  11.315  1.0418  0.4504 -2.4264
  274TMC3    H2 4199   3.762   4.632  10.971 -1.3360 -2.3322 -1.8703
  274TMC3    C7 4200   3.939   4.674  11.156 -0.2541 -0.0766  0.6029
  274TMC3    C8 4201   3.518   4.578  11.034 -0.0357 -0.0644 -0.0716
  274TMC3    O1 4202   3.892   0.034  11.099  0.0994 -0.0341  0.0517
  274TMC3    O2 4203   3.406   4.591  11.084  0.1904  0.1154 -0.0672
  275MPD2     C 4204   4.325   2.159  14.043 -1.2462 -0.1865 -0.2019
  275MPD2    C1 4205   4.259   2.285  14.038  0.0463  0.4836  0.6678
  275MPD2    C2 4206   4.119   2.283  14.032 -0.2155  0.2196  0.0073
  275MPD2    C3 4207   4.042   2.166  14.018 -0.3934 -0.0825 -0.4402
  275MPD2    C4 4208   4.112   2.052  14.008  0.7174 -0.1380  0.2694
  275MPD2    C5 4209   4.247   2.047  14.021  0.1378 -0.1788  0.0682
  275MPD2     H 4210   4.066   2.376  14.043 -0.7220 -0.0385 -0.2217
  275MPD2    H1 4211   4.068   1.954  13.994 -0.6123  0.5667 -0.4494
  275MPD2    H2 4212   4.431   2.137  14.053 -0.7072  3.3661  1.8445
  275MPD2    H3 4213   4.296   1.950  14.021 -0.5663 -0.5383 -0.0771
  275MPD2     N 4214   3.899   2.162  14.026 -0.4583  0.3437  0.2932
  275MPD2    H5 4215   3.854   2.071  14.027 -0.0942  0.1744  0.6974
  275MPD2    N1 4216   4.312   2.413  14.069  0.4624  0.9877  0.2644
  275MPD2    H7 4217   4.244   2.487  14.061  0.0281  0.3939 -1.6988
  276TMC3    C1 4218   4.460   2.561  14.174  0.2797  0.3633  0.4716
  276TMC3    C2 4219   4.342   2.615  14.225  0.3729 -0.3403  1.0486
  276TMC3    C3 4220   4.336   2.687  14.344  0.6741  0.7488 -0.2178
  276TMC3    C4 4221   4.576   2.567  14.244 -0.0488  0.5569  0.9849
  276TMC3    C5 4222   4.576   2.646  14.354 -0.6036 -1.1662 -0.4659
  276TMC3    C6 4223   4.456   2.700  14.415 -0.4052 -0.5890  0.6815
  276TMC3     C 4224   4.444   2.440  14.096 -0.2233  0.6805  0.2413
  276TMC3     O 4225   4.539   2.372  14.072 -0.3256 -0.2856  0.5405
  276TMC3     H 4226   4.252   2.630  14.166 -0.0106  0.3794  1.8091
  276TMC3    H1 4227   4.667   2.520  14.208 -0.4094  0.6183 -0.0192
  276TMC3    H2 4228   4.448   2.750  14.511 -1.6092  0.5453 -0.0047
  276TMC3    C7 4229   4.691   2.655  14.436  0.0823  0.1373 -0.4840
  276TMC3    C8 4230   4.227   2.648  14.422 -0.2282 -0.0796  0.8009
  276TMC3    O1 4231   4.668   2.676  14.550  0.2877 -0.3969 -0.0466
  276TMC3    O2 4232   4.199   2.715  14.520 -0.0132  0.0502 -0.0140
  277MPD2     C 4233   0.469   1.344  12.594  0.0654 -0.4149  0.2333
  277MPD2    C1 4234   0.418   1.413  12.700 -0.5393  0.6147  0.3764
  277MPD2    C2 4235   0.364   1.340  12.804 -0.6746  0.5137 -0.1705
  277MPD2    C3 4236   0.333   1.207  12.790 -0.0378  0.4742 -1.3015
  277MPD2    C4 4237   0.381   1.141  12.678 -0.1963  0.7878  0.1921
  277MPD2    C5 4238   0.457   1.208  12.589  0.0923 -0.1113 -0.0237
  277MPD2     H 4239   0.323   1.392  12.891 -0.7343 -0.1406  0.1915
  277MPD2    H1 4240   0.379   1.033  12.674  0.9866  0.8620 -2.3125
  277MPD2    H2 4241   0.529   1.397  12.521  0.9216  0.9528  1.9454
  277MPD2    H3 4242   0.494   1.154  12.503  0.4566  0.3510 -0.1588
  277MPD2     N 4243   0.256   1.144  12.891  0.0799  0.2924 -1.1442
  277MPD2    H5 4244   0.244   1.195  12.979 -0.5031 -3.6143  1.0208
  277MPD2    N1 4245   0.435   1.551  12.705 -0.1658 -0.5516 -0.0585
  277MPD2    H7 4246   0.498   1.584  12.633  1.6455  1.2684  2.3802
  278TMC3    C1 4247   0.142   0.978  13.008  0.3464 -0.2784 -0.3494
  278TMC3    C2 4248   0.107   0.846  13.022 -0.2176  0.2312  0.1520
  278TMC3    C3 4249   0.030   0.816  13.130  0.1819  1.2470 -0.2766
  278TMC3    C4 4250   0.097   1.077  13.099 -0.3243 -0.3086  0.0023
  278TMC3    C5 4251   0.041   1.034  13.218  0.0073  0.9028  0.4279
  278TMC3    C6 4252   4.731   0.902  13.233  0.2559  0.0928  0.2481
  278TMC3     C 4253   0.207   1.019  12.885  0.2358 -0.6719  0.7123
  278TMC3     O 4254   0.225   0.935  12.795 -0.5436  0.0300 -0.2265
  278TMC3     H 4255   0.145   0.772  12.952 -1.8481 -1.4244  1.0131
  278TMC3    H1 4256   0.120   1.183  13.091 -1.4038 -0.0174  0.7643
  278TMC3    H2 4257   4.682   0.855  13.318 -2.5372  1.4629 -0.6411
  278TMC3    C7 4258   4.718   1.135  13.309  0.6810 -0.4366 -0.5048
  278TMC3    C8 4259   4.705   0.679  13.130 -0.5784  0.1414  0.2225
  278TMC3    O1 4260   0.020   1.253  13.307 -0.7522 -0.1508  0.0374
  278TMC3    O2 4261   4.655   0.638  13.233  0.3148 -0.1886  0.0469
  279MPD2     C 4262   0.055   1.168  17.529  0.5580 -0.0649  0.6245
  279MPD2    C1 4263   0.140   1.273  17.542  0.4107 -0.3258 -0.4880
  279MPD2    C2 4264   0.196   1.330  17.426  0.0309 -0.5397 -0.2721
  279MPD2    C3 4265   0.168   1.272  17.301 -0.4054  0.1929  0.2740
  279MPD2    C4 4266   0.089   1.163  17.297  0.3230 -0.0943  0.2136
  279MPD2    C5 4267   0.028   1.116  17.409  0.2397  0.5703  0.1190
  279MPD2     H 4268   0.246   1.426  17.436 -1.3423  0.1313  0.1209
  279MPD2    H1 4269   0.053   1.118  17.206 -0.6115 -0.7526  0.9140
  279MPD2    H2 4270   4.726   1.129  17.608 -1.3462  2.2849  0.2521
  279MPD2    H3 4271   4.674   1.052  17.403 -0.2886  1.3055 -0.0359
  279MPD2     N 4272   0.216   1.333  17.184  0.4546  0.0263 -0.5970
  279MPD2    H5 4273   0.191   1.285  17.098 -0.0646  0.8803 -0.9290
  279MPD2    N1 4274   0.164   1.325  17.667 -0.0256 -0.4087 -0.6585
  279MPD2    H7 4275   0.095   1.308   0.003  2.2601 -3.0062  0.9326
  280TMC3    C1 4276   0.219   1.511   0.072 -0.7657  0.4022  0.1470
  280TMC3    C2 4277   0.110   1.485   0.148  0.7595  0.2267 -0.0908
  280TMC3    C3 4278   0.045   1.593   0.208  0.7622 -0.1834  0.6051
  280TMC3    C4 4279   0.265   1.639   0.055  0.6550 -0.4640  0.6646
  280TMC3    C5 4280   0.194   1.742   0.110  0.4691  0.6235  0.1068
  280TMC3    C6 4281   0.074   1.725   0.180 -0.7282 -0.8516 -0.1828
  280TMC3     C 4282   0.255   1.423  17.691  0.1776  0.3647 -0.7486
  280TMC3     O 4283   0.344   1.461  17.620  0.2223 -0.1804 -0.0295
  280TMC3     H 4284   0.104   1.380   0.173 -0.5594  0.3541  0.1188
  280TMC3    H1 4285   0.353   1.663  17.730  0.0169 -1.1889 -0.5525
  280TMC3    H2 4286   0.029   1.812   0.226  1.6747 -0.2405  1.0031
  280TMC3    C7 4287   0.240   1.878   0.066 -0.2087 -0.1183 -0.5883
  280TMC3    C8 4288   4.650   1.566   0.276 -0.4650  0.0446  0.2275
  280TMC3    O1 4289   0.361   1.901   0.064 -0.1435  0.4005 -0.0959
  280TMC3    O2 4290   4.633   1.443   0.297  0.2930 -0.3137  0.1158
  281TMC3    C1 4291   3.891   1.653  13.163  0.3930 -0.6923 -0.6554
  281TMC3    C2 4292   3.963   1.738  13.092  0.3603  0.3364  0.2311
  281TMC3    C3 4293   4.045   1.682  12.999 -0.6021 -0.2703 -0.4476
  281TMC3    C4 4294   3.878   1.521  13.140  0.5746  0.2968 -0.0330
  281TMC3    C5 4295   3.967   1.465  13.055  1.0608  0.6066  0.0399
  281TMC3    C6 4296   4.051   1.544  12.979  0.4314 -0.2061  0.4667
  281TMC3     C 4297   3.786   1.699  13.251 -0.4877  0.3745 -0.9066
  281TMC3     O 4298   3.734   1.614  13.328 -0.3234  0.6178  0.7710
  281TMC3     H 4299   3.984   1.840  13.119  1.5743 -0.1675  1.1761
  281TMC3    H1 4300   3.815   1.454  13.197 -0.1527 -1.5594 -3.0172
  281TMC3    H2 4301   4.125   1.504  12.911 -0.6342  1.3771 -1.6488
  281TMC3    C7 4302   3.971   1.320  13.032 -0.4253  0.1483  0.2583
  281TMC3    C8 4303   4.165   1.758  12.952 -0.2417  0.0678 -0.5115
  281TMC3    O1 4304   4.067   1.272  12.972 -0.3948 -0.2019 -0.4673
  281TMC3    O2 4305   4.264   1.685  12.931  0.0586  0.4525 -0.3110
  282MPD2     C 4306   1.038   2.999  14.901 -0.3887  0.3207  0.5644
  282MPD2    C1 4307   0.916   3.066  14.906 -0.3054 -0.5328 -0.0938
  282MPD2    C2 4308   0.853   3.096  14.788 -0.3204 -0.1835 -0.4236
  282MPD2    C3 4309   0.889   3.047  14.671  0.4638  0.3640 -0.6467
  282MPD2    C4 4310   1.003   2.964  14.664 -0.2557  0.8064  0.2160
  282MPD2    C5 4311   1.075   2.946  14.781  0.8997  0.0061  0.0572
  282MPD2     H 4312   0.762   3.155  14.793 -0.1063  0.0370  0.8354
  282MPD2    H1 4313   1.038   2.927  14.568 -0.6253 -1.2436  0.8545
  282MPD2    H2 4314   1.098   2.985  14.990  2.7263 -2.6754 -2.0488
  282MPD2    H3 4315   1.162   2.881  14.777 -1.4667 -3.2054  1.0633
  282MPD2     N 4316   0.810   3.085  14.563  1.1818 -0.1570  0.0552
  282MPD2    H5 4317   0.723   3.131  14.587  0.4110 -0.0686 -2.8241
  282MPD2    N1 4318   0.870   3.112  15.031 -0.6286  0.5093 -0.0488
  282MPD2    H7 4319   0.809   3.192  15.021 -1.0781  0.3496  1.4268
  283TMC3    C1 4320   0.829   3.089  15.267 -0.2379 -0.4806 -0.4036
  283TMC3    C2 4321   0.800   3.220  15.281  0.2180 -0.0086  0.4813
  283TMC3    C3 4322   0.718   3.264  15.385 -0.2597 -0.1804 -0.5204
  283TMC3    C4 4323   0.771   2.997  15.349  0.5386 -0.0531 -0.4894
  283TMC3    C5 4324   0.684   3.042  15.452  0.1109 -0.1886  0.4664
  283TMC3    C6 4325   0.665   3.173  15.471 -0.4715  0.1755  0.4422
  283TMC3     C 4326   0.888   3.041  15.142  0.4185  0.1152 -0.8870
  283TMC3     O 4327   0.933   2.929  15.151 -0.4667 -0.1781 -0.6643
  283TMC3     H 4328   0.847   3.296  15.219  0.6365 -0.9497 -0.3523
  283TMC3    H1 4329   0.801   2.895  15.331 -1.3511 -1.2338  3.0322
  283TMC3    H2 4330   0.587   3.211  15.536 -1.4859 -0.0379 -0.6441
  283TMC3    C7 4331   0.579   2.955  15.500 -0.2506  0.4467 -0.7882
  283TMC3    C8 4332   0.694   3.402  15.402  0.1208 -0.0328 -0.4177
  283TMC3    O1 4333   0.481   3.001  15.557 -0.0359 -0.5599  0.0294
  283TMC3    O2 4334   0.668   3.436  15.516  0.4156 -0.3743 -0.6782
  284MPD2     C 4335   3.453   2.413  11.828  0.2991  0.0185  0.2729
  284MPD2    C1 4336   3.544   2.322  11.767  0.2456 -0.1080 -0.0769
  284MPD2    C2 4337   3.590   2.217  11.849  0.1360 -1.0367 -0.2813
  284MPD2    C3 4338   3.549   2.200  11.981 -0.3427 -0.1313  0.0884
  284MPD2    C4 4339   3.472   2.296  12.036  0.7672 -0.1998 -0.3557
  284MPD2    C5 4340   3.416   2.390  11.960  0.6628  1.3203 -0.2957
  284MPD2     H 4341   3.663   2.146  11.814  0.2836 -0.4242 -1.2231
  284MPD2    H1 4342   3.447   2.292  12.142 -0.8934 -0.4132 -0.7553
  284MPD2    H2 4343   3.419   2.504  11.779 -0.3736 -0.8384 -0.8535
  284MPD2    H3 4344   3.347   2.461  12.005 -0.0457 -0.0164  0.7311
  284MPD2     N 4345   3.600   2.098  12.065  0.0698  0.2275 -0.5622
  284MPD2    H5 4346   3.604   2.113  12.165  0.7804 -1.7389 -0.2986
  284MPD2    N1 4347   3.603   2.341  11.637  0.4288  0.5681 -0.3231
  284MPD2    H7 4348   3.661   2.262  11.611 -0.7481 -0.2392 -0.4904
  285TMC3    C1 4349   3.677   2.463  11.444 -0.3952 -0.2752 -0.7071
  285TMC3    C2 4350   3.766   2.361  11.424 -0.4142  0.2196  0.0196
  285TMC3    C3 4351   3.883   2.395  11.364  0.5880  0.4470  0.0618
  285TMC3    C4 4352   3.693   2.588  11.396 -0.1194 -0.2675  0.1524
  285TMC3    C5 4353   3.815   2.617  11.338  0.4986 -0.1682 -0.3887
  285TMC3    C6 4354   3.915   2.520  11.323 -1.0306  0.8065 -0.1170
  285TMC3     C 4355   3.576   2.449  11.552  0.3093 -0.7481 -0.2373
  285TMC3     O 4356   3.490   2.538  11.562 -0.1723 -0.3821 -0.3130
  285TMC3     H 4357   3.748   2.263  11.467  1.9619  0.9599  2.7151
  285TMC3    H1 4358   3.625   2.670  11.414 -0.5761 -0.5462 -0.3293
  285TMC3    H2 4359   4.011   2.540  11.276 -0.8564  0.3095  0.0319
  285TMC3    C7 4360   3.856   2.752  11.352  0.1042  0.3881 -0.4265
  285TMC3    C8 4361   3.965   2.284  11.322 -0.0183  0.2297  0.2929
  285TMC3    O1 4362   3.764   2.830  11.375 -0.2856 -0.4867 -0.6902
  285TMC3    O2 4363   3.913   2.176  11.330  0.1612 -0.1680  0.4989
  286MPD2     C 4364   3.599   1.077   1.121  0.0310  0.3935  0.4635
  286MPD2    C1 4365   3.635   1.092   0.989  0.0287  0.3938  0.1402
  286MPD2    C2 4366   3.752   1.038   0.944 -0.3074  0.2693  0.2383
  286MPD2    C3 4367   3.842   0.977   1.038  0.0928  0.7852  0.4367
  286MPD2    C4 4368   3.808   0.973   1.168  0.5819  1.2864  0.1969
  286MPD2    C5 4369   3.684   1.028   1.213  0.0091  0.2161 -0.2304
  286MPD2     H 4370   3.775   1.049   0.839  0.4852 -0.1725  0.3607
  286MPD2    H1 4371   3.860   0.926   1.250  0.2578  1.9617  0.8018
  286MPD2    H2 4372   3.504   1.113   1.157 -0.6276 -0.6334 -0.2510
  286MPD2    H3 4373   3.660   1.017   1.318 -1.9950  0.9223 -0.6353
  286MPD2     N 4374   3.961   0.911   1.005  0.2891 -0.7860  0.2727
  286MPD2    H5 4375   3.997   0.851   1.078  1.2647 -1.0756 -0.4463
  286MPD2    N1 4376   3.558   1.182   0.913  0.2003 -0.2624  0.4147
  286MPD2    H7 4377   3.461   1.198   0.935  0.0409 -1.6290  0.6911
  287TMC3    C1 4378   4.111   0.783   0.875 -0.0356 -0.0831  0.0552
  287TMC3    C2 4379   4.117   0.703   0.765 -0.4786 -0.5861  0.0806
  287TMC3    C3 4380   4.211   0.602   0.777 -0.0956  0.4866  0.2994
  287TMC3    C4 4381   4.172   0.757   0.991 -0.5804  0.4120 -0.4170
  287TMC3    C5 4382   4.265   0.657   0.994  0.3701  0.0430  0.1876
  287TMC3    C6 4383   4.282   0.572   0.886  0.5712 -0.0590 -0.8650
  287TMC3     C 4384   3.999   0.873   0.879  0.2774 -0.9905 -0.7613
  287TMC3     O 4385   3.968   0.920   0.771 -0.5484  0.0204  0.2385
  287TMC3     H 4386   4.037   0.703   0.692 -1.6659  0.8148  1.3740
  287TMC3    H1 4387   4.181   0.838   1.062  0.9007  0.8090 -1.0634
  287TMC3    H2 4388   4.353   0.490   0.891  2.3517  1.3226 -3.6857
  287TMC3    C7 4389   4.380   0.662   1.081  0.1373 -0.2582 -0.2213
  287TMC3    C8 4390   4.230   0.520   0.661  0.3386  0.5004  0.1611
  287TMC3    O1 4391   4.484   0.642   1.019  0.6359 -0.4051  0.2183
  287TMC3    O2 4392   4.277   0.407   0.666  0.4146  0.2722  0.5641
  288TMC3    C1 4393   0.597   0.930  13.978  0.5164 -0.6536 -1.0201
  288TMC3    C2 4394   0.604   0.878  14.106 -0.5277 -0.0777 -0.3737
  288TMC3    C3 4395   0.653   0.952  14.206  0.8255  0.0379 -0.4524
  288TMC3    C4 4396   0.637   1.060  13.949  0.2436 -0.1276 -0.2870
  288TMC3    C5 4397   0.689   1.132  14.053  0.6739  0.0643  0.4071
  288TMC3    C6 4398   0.701   1.075  14.180  0.2775  0.1303  0.0777
  288TMC3     C 4399   0.563   0.851  13.865 -0.1529 -0.5575  0.2621
  288TMC3     O 4400   0.538   0.734  13.890  0.4195  0.3056  0.2731
  288TMC3     H 4401   0.589   0.772  14.118  0.5755 -0.4657 -2.4326
  288TMC3    H1 4402   0.629   1.114  13.855  1.4390  1.6082  0.5914
  288TMC3    H2 4403   0.751   1.128  14.261 -1.0269  2.5067 -0.6667
  288TMC3    C7 4404   0.779   1.243  14.014 -0.0795  0.5708 -0.6384
  288TMC3    C8 4405   0.693   0.892  14.336 -0.5351  0.3883 -0.7251
  288TMC3    O1 4406   0.808   1.249  13.892 -0.0832 -0.8909  0.0081
  288TMC3    O2 4407   0.784   0.948  14.394  0.2331 -0.1343  0.1299
  289MPD2     C 4408   1.098   0.175  13.911  0.3443  0.5114 -0.6776
  289MPD2    C1 4409   1.054   0.289  13.838  0.2215 -0.1194  1.2621
  289MPD2    C2 4410   0.917   0.295  13.809 -0.1816  0.1497 -0.0580
  289MPD2    C3 4411   0.832   0.187  13.831 -0.0223 -0.7171 -0.6746
  289MPD2    C4 4412   0.889   0.072  13.884 -0.2598  0.6774 -0.3682
  289MPD2    C5 4413   1.020   0.069  13.927 -0.1513  0.1936 -0.0740
  289MPD2     H 4414   0.883   0.394  13.782 -1.2289 -0.5857 -1.4491
  289MPD2    H1 4415   0.829   4.717  13.903  0.0740  0.2918 -1.0996
  289MPD2    H2 4416   1.197   0.174  13.956 -0.3873 -2.2953  0.8754
  289MPD2    H3 4417   1.059   4.714  13.974 -0.6117 -1.4219 -2.7097
  289MPD2     N 4418   0.692   0.193  13.827  0.0448 -0.3127 -0.1592
  289MPD2    H5 4419   0.653   0.109  13.870 -0.6342 -1.3548 -2.8257
  289MPD2    N1 4420   1.133   0.401  13.829  0.5511 -0.5806  0.0038
  289MPD2    H7 4421   1.218   0.407  13.885  0.9939  0.4368 -0.7952
  290TMC3    C1 4422   0.477   0.283  13.818 -0.5223 -0.7338 -0.6044
  290TMC3    C2 4423   0.406   0.400  13.815 -0.0553  0.1042  0.4312
  290TMC3    C3 4424   0.270   0.380  13.824  0.5178  0.6196  0.1061
  290TMC3    C4 4425   0.421   0.160  13.825  0.6521  0.4253  0.3588
  290TMC3    C5 4426   0.284   0.151  13.832 -0.1710  0.2400 -0.4706
  290TMC3    C6 4427   0.206   0.263  13.830  0.5584 -0.0083  0.3213
  290TMC3     C 4428   0.619   0.297  13.784 -0.1592  0.2870  0.3812
  290TMC3     O 4429   0.651   0.401  13.736  0.4122  0.6709  0.3249
  290TMC3     H 4430   0.452   0.498  13.820 -1.1144  0.6617 -0.9917
  290TMC3    H1 4431   0.486   0.073  13.829  2.0417  1.5274  1.8308
  290TMC3    H2 4432   0.098   0.264  13.840  0.6778  1.1418  1.5761
  290TMC3    C7 4433   0.222   0.037  13.898 -0.3317 -0.0685 -0.1411
  290TMC3    C8 4434   0.179   0.492  13.802  0.5852  0.0290 -0.3733
  290TMC3    O1 4435   0.115   0.055  13.950  0.2046 -0.4661  0.0473
  290TMC3    O2 4436   0.083   0.464  13.737  0.4758  0.4958 -0.1709
  291MPD2     C 4437   0.436   0.220  17.688  0.2267  0.6693 -0.9521
  291MPD2    C1 4438   0.537   0.133  17.686  0.9910 -0.0996  0.1867
  291MPD2    C2 4439   0.668   0.185  17.697  0.5593  0.2015  0.8335
  291MPD2    C3 4440   0.693   0.322  17.696  0.3663 -0.9515 -0.1273
  291MPD2    C4 4441   0.588   0.412  17.683  0.1434  0.0607  0.3900
  291MPD2    C5 4442   0.467   0.354  17.680  0.2532 -0.3674 -0.0019
  291MPD2     H 4443   0.753   0.119  17.702  0.4890  0.0576  0.0621
  291MPD2    H1 4444   0.587   0.520  17.697 -3.4433  0.1602 -0.5399
  291MPD2    H2 4445   0.333   0.190  17.672  0.6233 -0.8988 -0.5051
  291MPD2    H3 4446   0.381   0.419  17.681  0.0189 -0.6597 -0.9915
  291MPD2     N 4447   0.819   0.380  17.730  0.4762  0.1439 -0.1783
  291MPD2    H5 4448   0.823   0.481   0.006 -0.9774  0.2049 -0.1778
  291MPD2    N1 4449   0.503   4.725  17.693 -0.3999  0.2935 -0.0676
  291MPD2    H7 4450   0.577   4.656  17.702 -0.2906  0.3521 -0.4863
  292TMC3    C1 4451   0.375   4.529  17.696 -0.3821  0.5476  0.9102
  292TMC3    C2 4452   0.476   4.495   0.048 -0.0700  0.4764 -1.3227
  292TMC3    C3 4453   0.516   4.364   0.045  0.4624 -0.0595 -0.1594
  292TMC3    C4 4454   0.328   4.447  17.597  0.3557  0.5713 -0.0903
  292TMC3    C5 4455   0.374   4.323  17.594 -0.2757  0.2779  0.3067
  292TMC3    C6 4456   0.464   4.281  17.684  0.5159  0.5766 -0.6557
  292TMC3     C 4457   0.374   4.672  17.666 -0.0574 -0.5009  0.0836
  292TMC3     O 4458   0.265   4.717  17.637  0.4187 -0.5142 -0.1332
  292TMC3     H 4459   0.506   4.559   0.131 -0.3072 -0.0076 -0.8656
  292TMC3    H1 4460   0.240   4.482  17.545  0.6704  1.5359  0.0317
  292TMC3    H2 4461   0.501   4.180  17.670  0.8899  0.6863 -0.4585
  292TMC3    C7 4462   0.333   4.222  17.497 -0.0603  0.3814  0.3552
  292TMC3    C8 4463   0.566   4.301   0.163 -0.1996 -0.1658 -0.3131
  292TMC3    O1 4464   0.420   4.145  17.460  0.0697  0.3889 -0.3229
  292TMC3    O2 4465   0.669   4.339   0.220  0.0352 -0.6228 -0.2810
  293MPD2     C 4466   2.224   1.797  12.208  0.3459  0.3577 -1.1315
  293MPD2    C1 4467   2.134   1.715  12.263  0.9089  0.3186 -0.6852
  293MPD2    C2 4468   2.176   1.636  12.373  0.1481  0.4106  0.1316
  293MPD2    C3 4469   2.306   1.638  12.417  0.1992 -0.3208 -0.4551
  293MPD2    C4 4470   2.394   1.725  12.363  0.4605 -0.3979 -1.1676
  293MPD2    C5 4471   2.352   1.812  12.265 -0.0510  0.3832 -0.5197
  293MPD2     H 4472   2.098   1.582  12.425 -0.8529 -0.0253 -1.8468
  293MPD2    H1 4473   2.500   1.728  12.387  0.1737 -0.0294  0.0632
  293MPD2    H2 4474   2.205   1.849  12.115 -2.2014 -0.6023 -1.1261
  293MPD2    H3 4475   2.427   1.876  12.220 -0.0797  0.9959  0.3133
  293MPD2     N 4476   2.349   1.563  12.532  0.1123  0.6063  0.8082
  293MPD2    H5 4477   2.446   1.573  12.562  0.6951  1.8668 -1.5021
  293MPD2    N1 4478   2.009   1.708  12.202  0.1193  0.5522 -0.3643
  293MPD2    H7 4479   1.987   1.779  12.133 -0.4377  0.2081 -0.5397
  294TMC3    C1 4480   1.810   1.621  12.124  0.4803 -0.1793 -0.4473
  294TMC3    C2 4481   1.691   1.556  12.149  0.9718  0.2965  0.0919
  294TMC3    C3 4482   1.617   1.508  12.042  0.4653  0.0527 -0.4902
  294TMC3    C4 4483   1.849   1.649  11.993 -0.2507  1.0764  0.1999
  294TMC3    C5 4484   1.774   1.594  11.896 -0.5239  0.2268  0.1538
  294TMC3    C6 4485   1.661   1.515  11.911  0.5895  0.0323 -0.2189
  294TMC3     C 4486   1.909   1.625  12.231 -0.1919  0.3136 -0.1813
  294TMC3     O 4487   1.908   1.532  12.307 -0.3503 -0.1448 -0.1268
  294TMC3     H 4488   1.654   1.542  12.251  2.0360 -1.4375  0.2369
  294TMC3    H1 4489   1.950   1.677  11.966 -0.2187 -0.3653 -1.1585
  294TMC3    H2 4490   1.603   1.485  11.824  1.3171 -1.0040 -0.3363
  294TMC3    C7 4491   1.813   1.607  11.757  0.0932 -0.7217  0.2500
  294TMC3    C8 4492   1.515   1.409  12.060  0.3708  0.2562  0.7220
  294TMC3    O1 4493   1.841   1.513  11.686  0.2650  0.3744 -0.6724
  294TMC3    O2 4494   1.467   1.408  12.170 -0.6990  0.6146  0.4974
  295MPD2     C 4495   3.470   0.055   0.453  0.0932 -0.2939 -0.5456
  295MPD2    C1 4496   3.450   4.701   0.350  0.6368 -0.0112 -0.4635
  295MPD2    C2 4497   3.466   4.563   0.369  0.2677  0.2939  0.5706
  295MPD2    C3 4498   3.486   4.528   0.503  0.1583 -0.0830 -0.4306
  295MPD2    C4 4499   3.500   4.615   0.606  0.0153 -0.9546 -0.0001
  295MPD2    C5 4500   3.496   0.016   0.580 -0.5259  0.2837  0.3919
  295MPD2     H 4501   3.439   4.488   0.296  0.5956  1.4727 -0.7520
  295MPD2    H1 4502   3.508   4.580   0.708 -1.1002 -1.8012 -0.2068
  295MPD2    H2 4503   3.454   0.162   0.446  0.2909 -0.0334  2.9428
  295MPD2    H3 4504   3.488   0.083   0.665 -0.3974  1.0193 -0.1763
  295MPD2     N 4505   3.501   4.394   0.545  0.3988  1.1084  1.1117
  295MPD2    H5 4506   3.529   4.383   0.642  1.4953 -4.8707  0.0911
  295MPD2    N1 4507   3.410   0.006   0.225  0.0869  0.6384 -0.0997
  295MPD2    H7 4508   3.361   4.676   0.163 -0.8394  0.4140  0.8773
  296TMC3    C1 4509   3.511   4.160   0.544 -0.4643 -0.5586 -0.5849
  296TMC3    C2 4510   3.535   4.163   0.678 -0.1548 -0.5053  0.6002
  296TMC3    C3 4511   3.513   4.053   0.752  0.0866  0.7812 -0.1036
  296TMC3    C4 4512   3.479   4.043   0.480 -0.4473  0.5262 -0.2614
  296TMC3    C5 4513   3.450   3.942   0.566  0.0871 -0.0138 -0.2542
  296TMC3    C6 4514   3.460   3.937   0.699 -0.4057  0.0717 -0.4032
  296TMC3     C 4515   3.481   4.282   0.473  0.5385  0.4450  0.5520
  296TMC3     O 4516   3.441   4.267   0.360 -0.3103 -0.1288 -0.1881
  296TMC3     H 4517   3.582   4.248   0.725  0.8305 -1.2084  0.8960
  296TMC3    H1 4518   3.456   4.039   0.374 -0.2299 -1.7346 -0.2236
  296TMC3    H2 4519   3.437   3.856   0.766 -0.9559  0.9027  0.4215
  296TMC3    C7 4520   3.388   3.825   0.503  0.2093  0.0617 -0.3160
  296TMC3    C8 4521   3.571   4.040   0.880  0.5060 -0.1874  0.5285
  296TMC3    O1 4522   3.438   3.789   0.397  0.5234 -0.2984  0.0336
  296TMC3    O2 4523   3.598   3.927   0.913 -0.9635 -0.2607 -0.2150
  297MPD2     C 4524   4.638   1.717  15.901 -0.0048  0.5476 -0.2106
  297MPD2    C1 4525   4.598   1.840  15.846 -0.0434 -0.0139 -0.2544
  297MPD2    C2 4526   4.686   1.950  15.842 -0.2451 -0.6872  0.1447
  297MPD2    C3 4527   0.080   1.942  15.896  0.3183 -0.4927  0.0332
  297MPD2    C4 4528   0.111   1.830  15.970 -0.1268 -0.6151  0.9788
  297MPD2    C5 4529   0.032   1.717  15.961  0.2440  0.2006  0.3935
  297MPD2     H 4530   4.658   2.036  15.783  1.7940  1.0841  1.7825
  297MPD2    H1 4531   0.207   1.822  16.020  0.8878  0.0004 -0.8772
  297MPD2    H2 4532   4.574   1.630  15.908  0.5494  0.0711 -1.1352
  297MPD2    H3 4533   0.069   1.631  16.015  0.5517 -0.4009 -0.7764
  297MPD2     N 4534   0.174   2.045  15.879  0.2626  0.2270  0.0925
  297MPD2    H5 4535   0.138   2.129  15.834  0.9040 -0.2514 -1.3208
  297MPD2    N1 4536   4.477   1.859  15.774 -0.2404 -0.3033  0.0050
  297MPD2    H7 4537   4.465   1.939  15.712 -2.1735 -0.7880 -0.2307
  298TMC3    C1 4538   4.247   1.840  15.731  0.2284  0.1131 -0.5796
  298TMC3    C2 4539   4.259   1.881  15.599 -0.6516 -0.3557 -0.3645
  298TMC3    C3 4540   4.148   1.945  15.543  0.1305 -0.6892 -0.1613
  298TMC3    C4 4541   4.138   1.871  15.811 -1.1654 -0.0166 -0.0539
  298TMC3    C5 4542   4.040   1.941  15.752 -0.1985  0.3876 -0.3364
  298TMC3    C6 4543   4.040   1.978  15.619  0.1764  0.2972 -0.2286
  298TMC3     C 4544   4.360   1.787  15.796 -0.4766 -0.7919  0.7174
  298TMC3     O 4545   4.334   1.703  15.878  0.1568 -0.0786 -0.3387
  298TMC3     H 4546   4.344   1.852  15.538 -1.1419 -1.3690 -0.5589
  298TMC3    H1 4547   4.138   1.833  15.912 -2.0256 -1.3746 -0.5708
  298TMC3    H2 4548   3.958   2.030  15.571  0.0681  0.0834 -0.2775
  298TMC3    C7 4549   3.981   2.033  15.848  0.0182  0.5815 -1.2249
  298TMC3    C8 4550   4.139   1.938  15.400  0.1198  0.6830 -0.2283
  298TMC3    O1 4551   3.967   1.995  15.964  0.4069  0.0804 -0.3728
  298TMC3    O2 4552   4.172   1.834  15.343 -0.3065 -0.1544  0.9944
  299MPD2     C 4553   0.154   1.811  10.348 -0.0725  0.1111  0.0940
  299MPD2    C1 4554   0.208   1.741  10.245 -0.0911  0.3767  1.0979
  299MPD2    C2 4555   0.127   1.686  10.149  0.7275  0.2637  0.0180
  299MPD2    C3 4556   4.726   1.693  10.172  0.5415  0.8532 -0.2749
  299MPD2    C4 4557   4.673   1.753  10.279  0.1589 -0.6180  0.2504
  299MPD2    C5 4558   0.022   1.806  10.371  1.1468  0.0841  0.3994
  299MPD2     H 4559   0.171   1.639  10.062  0.2596  1.4895 -0.8751
  299MPD2    H1 4560   4.567   1.749  10.298 -0.1305 -1.8314 -1.6406
  299MPD2    H2 4561   0.214   1.866  10.419  1.7493 -2.2863  0.4434
  299MPD2    H3 4562   4.715   1.856  10.457 -1.0883  0.6845 -1.0205
  299MPD2     N 4563   4.626   1.652  10.085  0.2691 -0.1535 -0.1773
  299MPD2    H5 4564   4.530   1.650  10.119  1.0099 -1.9572  1.8124
  299MPD2    N1 4565   0.350   1.755  10.234 -0.0084 -0.6237  0.0427
  299MPD2    H7 4566   0.412   1.798  10.302  0.1863 -1.7916  0.6033
  300TMC3    C1 4567   4.524   1.551   9.907 -0.7307  0.5996 -0.0907
  300TMC3    C2 4568   4.486   1.597   9.790  0.0552 -0.3600 -0.3935
  300TMC3    C3 4569   4.362   1.574   9.746  0.0442  0.1027  0.1533
  300TMC3    C4 4570   4.438   1.490   9.986  0.7038 -0.0146  0.3073
  300TMC3    C5 4571   4.306   1.476   9.940  0.3797 -0.2388  0.4614
  300TMC3    C6 4572   4.266   1.509   9.815 -0.4490  1.0418  0.4496
  300TMC3     C 4573   4.641   1.612   9.960  0.4594 -0.3296  0.1210
  300TMC3     O 4574   4.733   1.626   9.884  0.1962  0.1417 -0.1207
  300TMC3     H 4575   4.565   1.653   9.741  0.4605  0.9279  1.6963
  300TMC3    H1 4576   4.468   1.460  10.086 -0.8310  1.8338  1.3255
  300TMC3    H2 4577   4.161   1.512   9.790  0.4480  1.4430 -3.1504
  300TMC3    C7 4578   4.208   1.420  10.019  0.1262  0.1113  0.2780
  300TMC3    C8 4579   4.307   1.701   9.710 -0.1005  0.0956 -0.1418
  300TMC3    O1 4580   4.121   1.356   9.959  0.0380 -0.0626 -0.2774
  300TMC3    O2 4581   4.248   1.723   9.611  1.0424  0.4749 -0.0973
  301MPD2     C 4582   2.661   2.991   0.735 -0.2663 -0.0440  0.6324
  301MPD2    C1 4583   2.543   2.957   0.669 -0.8222 -0.3185  0.4398
  301MPD2    C2 4584   2.540   2.828   0.610  0.1832  0.4642 -0.3196
  301MPD2    C3 4585   2.648   2.745   0.608  0.3434  0.0130  0.4003
  301MPD2    C4 4586   2.765   2.782   0.668  0.5099  0.2334  0.6329
  301MPD2    C5 4587   2.768   2.905   0.735 -0.5893 -0.9498  0.4806
  301MPD2     H 4588   2.448   2.795   0.564  1.1947 -1.2935 -1.0896
  301MPD2    H1 4589   2.854   2.721   0.673 -0.1210 -0.6326  1.1136
  301MPD2    H2 4590   2.673   3.081   0.794  0.7226 -0.0478  0.4383
  301MPD2    H3 4591   2.863   2.935   0.777  0.0322 -2.0181 -0.1696
  301MPD2     N 4592   2.625   2.620   0.545  0.2766  0.2081 -0.5460
  301MPD2    H5 4593   2.531   2.602   0.510 -0.0058  1.2077 -0.3079
  301MPD2    N1 4594   2.424   3.042   0.675  0.1092  0.1259 -0.1205
  301MPD2    H7 4595   2.347   3.002   0.623 -1.0294 -1.3721  2.7213
  302TMC3    C1 4596   2.613   2.380   0.557  0.0814  0.0369  0.0101
  302TMC3    C2 4597   2.651   2.263   0.622  0.0585  0.3789  0.0254
  302TMC3    C3 4598   2.596   2.144   0.571 -0.3120  0.0119  0.1633
  302TMC3    C4 4599   2.525   2.388   0.448 -0.3111 -0.1295 -0.0828
  302TMC3    C5 4600   2.483   2.269   0.401 -0.2527 -0.2143  0.3082
  302TMC3    C6 4601   2.519   2.149   0.457  0.1975  0.1455 -0.7623
  302TMC3     C 4602   2.682   2.504   0.594 -0.3540  0.2411  0.3236
  302TMC3     O 4603   2.771   2.492   0.676  0.7057  0.0762 -0.2397
  302TMC3     H 4604   2.719   2.259   0.706 -0.3672  0.4777  0.3781
  302TMC3    H1 4605   2.497   2.478   0.394  0.0671 -1.8684 -3.1893
  302TMC3    H2 4606   2.490   2.058   0.406 -0.2651 -0.6029  0.8405
  302TMC3    C7 4607   2.403   2.269   0.280  0.5098  0.2054 -0.1642
  302TMC3    C8 4608   2.596   2.024   0.661  0.5045  0.2649 -0.6705
  302TMC3    O1 4609   2.414   2.170   0.212 -0.4293  0.2123  0.1687
  302TMC3    O2 4610   2.661   2.027   0.769 -0.0027 -0.2839 -0.2439
  303MPD2     C 4611   2.709   1.558   9.915 -0.2858 -0.1028  0.1866
  303MPD2    C1 4612   2.595   1.471   9.941 -0.2077 -0.0905 -0.3693
  303MPD2    C2 4613   2.536   1.412   9.830 -0.0399 -0.1561  0.3162
  303MPD2    C3 4614   2.595   1.415   9.703  0.6025  0.8357 -0.1091
  303MPD2    C4 4615   2.699   1.495   9.684  0.4908 -0.2943 -0.7641
  303MPD2    C5 4616   2.749   1.566   9.790 -0.7961 -0.3200 -0.6085
  303MPD2     H 4617   2.452   1.345   9.847 -1.8077  1.7581 -0.8068
  303MPD2    H1 4618   2.751   1.500   9.590 -1.8257  2.1554 -1.9202
  303MPD2    H2 4619   2.763   1.610   9.994  2.6757 -0.1675 -1.8043
  303MPD2    H3 4620   2.835   1.629   9.768 -0.8228 -1.1089 -2.9820
  303MPD2     N 4621   2.554   1.339   9.589  0.1218  0.2811 -0.3326
  303MPD2    H5 4622   2.598   1.363   9.501  3.1819 -0.9558  0.8247
  303MPD2    N1 4623   2.548   1.454  10.072 -0.1170 -0.0296 -0.3997
  303MPD2    H7 4624   2.603   1.504  10.141  0.0401  1.2573 -1.4636
  304TMC3    C1 4625   2.404   1.416  10.251  0.7269 -0.6649  0.5455
  304TMC3    C2 4626   2.273   1.421  10.293 -0.2171 -0.0337  0.3843
  304TMC3    C3 4627   2.239   1.374  10.418  0.6040  0.4774  0.0950
  304TMC3    C4 4628   2.496   1.340  10.323 -0.9734 -1.0142 -0.0618
  304TMC3    C5 4629   2.461   1.282  10.441  0.2017  0.3099 -0.2286
  304TMC3    C6 4630   2.339   1.313  10.493  0.5486  0.2065  0.0649
  304TMC3     C 4631   2.424   1.411  10.109  0.3874  0.5138  0.8200
  304TMC3     O 4632   2.332   1.378  10.035  1.1860  0.2919  0.0024
  304TMC3     H 4633   2.205   1.490  10.245 -1.1204 -0.8155  0.5562
  304TMC3    H1 4634   2.599   1.326  10.291 -0.4174  1.3977  0.6425
  304TMC3    H2 4635   2.317   1.272  10.591 -0.6103 -0.9846 -0.7066
  304TMC3    C7 4636   2.493   1.137  10.458 -0.4519 -0.0853  0.3789
  304TMC3    C8 4637   2.111   1.311  10.423 -0.1411  0.2138 -0.1408
  304TMC3    O1 4638   2.599   1.099  10.407  0.1386 -0.1845  0.2862
  304TMC3    O2 4639   2.125   1.213  10.493  0.6259 -0.7362  0.0736
  305MPD2     C 4640   0.993   2.904  13.834  0.0173 -0.5821 -0.1200
  305MPD2    C1 4641   1.077   2.995  13.778 -0.1798 -0.0476  0.2678
  305MPD2    C2 4642   1.052   3.061  13.656 -0.0148  0.1231 -0.6242
  305MPD2    C3 4643   0.932   3.025  13.591  0.2428  0.2312 -0.4227
  305MPD2    C4 4644   0.833   2.945  13.651  0.3301 -0.1660  0.3068
  305MPD2    C5 4645   0.873   2.892  13.771 -0.6782  0.0250  0.0223
  305MPD2     H 4646   1.117   3.133  13.609 -1.2439  2.6735  1.5963
  305MPD2    H1 4647   0.747   2.905  13.600 -1.2774  2.6313  0.8184
  305MPD2    H2 4648   1.016   2.855  13.928 -0.8828 -0.4307  0.1828
  305MPD2    H3 4649   0.807   2.821  13.820 -0.6919 -0.1393 -0.2331
  305MPD2     N 4650   0.923   3.080  13.461  0.4325  0.0291  0.0470
  305MPD2    H5 4651   0.996   3.144  13.432  1.7389 -0.7305  1.6333
  305MPD2    N1 4652   1.191   3.031  13.851  0.4334 -0.0558 -0.0177
  305MPD2    H7 4653   1.193   3.016  13.951  0.8339  0.8714  0.1184
  306TMC3    C1 4654   1.412   3.137  13.878  0.9890 -0.0498  0.0046
  306TMC3    C2 4655   1.543   3.118  13.826 -0.2110  0.4801 -0.1316
  306TMC3    C3 4656   1.648   3.149  13.909  0.4966 -0.2024 -0.6709
  306TMC3    C4 4657   1.384   3.172  13.999  0.4818  0.3194  1.1852
  306TMC3    C5 4658   1.497   3.200  14.082 -0.4944 -0.2817 -0.1494
  306TMC3    C6 4659   1.632   3.191  14.037  0.5960 -0.4373 -0.6528
  306TMC3     C 4660   1.307   3.087  13.789  0.1612 -0.3941 -0.2237
  306TMC3     O 4661   1.337   3.075  13.671  0.6260 -0.7876  0.0667
  306TMC3     H 4662   1.558   3.087  13.724 -1.2119  0.6747 -0.3411
  306TMC3    H1 4663   1.285   3.206  14.027 -0.3758 -0.4400 -0.9540
  306TMC3    H2 4664   1.708   3.240  14.095  0.4661 -0.6456 -0.3080
  306TMC3    C7 4665   1.469   3.274  14.211  0.8123 -0.7959  0.0399
  306TMC3    C8 4666   1.777   3.099  13.864 -0.5793 -0.5794  0.4083
  306TMC3    O1 4667   1.356   3.320  14.230 -0.0803 -0.6329 -0.2472
  306TMC3    O2 4668   1.771   3.043  13.753  0.2509 -0.3171 -0.2085
  307MPD2     C 4669   3.433   1.410   0.063  0.8230 -0.3486 -0.0651
  307MPD2    C1 4670   3.369   1.527   0.036  0.8344  0.3185 -0.4601
  307MPD2    C2 4671   3.259   1.566   0.122  0.4362 -0.1353  0.1511
  307MPD2    C3 4672   3.229   1.490   0.229 -0.5180  0.5877 -0.1906
  307MPD2    C4 4673   3.301   1.374   0.253  0.0742  0.0886  0.2034
  307MPD2    C5 4674   3.396   1.329   0.172 -0.6354  0.3982 -0.0217
  307MPD2     H 4675   3.204   1.657   0.104  0.3090 -0.2509 -0.0380
  307MPD2    H1 4676   3.275   1.305   0.332 -1.5268  0.7179  0.2066
  307MPD2    H2 4677   3.520   1.374   0.010  3.1285 -0.3415  3.7062
  307MPD2    H3 4678   3.431   1.228   0.190 -2.6425 -0.4765 -1.0263
  307MPD2     N 4679   3.117   1.522   0.305  0.1263 -0.2424 -0.3604
  307MPD2    H5 4680   3.081   1.614   0.284  0.1607 -0.3994 -1.1029
  307MPD2    N1 4681   3.407   1.613  17.663  0.3690 -0.1585 -0.8853
  307MPD2    H7 4682   3.361   1.704  17.666  0.9492  0.1266 -0.6843
  308TMC3    C1 4683   2.717   1.530   0.457  0.0869 -1.0991 -0.6895
  308TMC3    C2 4684   2.723   1.661   0.496 -0.1006 -0.1535  0.0293
  308TMC3    C3 4685   2.845   1.711   0.520  0.3712 -0.1704  0.1956
  308TMC3    C4 4686   2.821   1.446   0.442 -0.1493 -0.1077 -0.0568
  308TMC3    C5 4687   2.940   1.509   0.452  0.4209 -0.0778  0.3858
  308TMC3    C6 4688   2.958   1.640   0.496 -0.2175 -0.2604 -0.2687
  308TMC3     C 4689   2.585   1.479   0.416  0.2012  0.5531 -0.3418
  308TMC3     O 4690   2.561   1.360   0.426  0.1531 -0.2079  0.1327
  308TMC3     H 4691   2.631   1.716   0.512 -0.5271 -0.5022 -1.2130
  308TMC3    H1 4692   2.811   1.343   0.410 -0.5927  0.2523 -1.0762
  308TMC3    H2 4693   3.053   1.693   0.493 -0.0984 -0.4671 -0.1493
  308TMC3    C7 4694   3.053   1.435   0.391  0.1898 -0.5300  0.0449
  308TMC3    C8 4695   2.859   1.855   0.510  0.7686  1.0251  0.1812
  308TMC3    O1 4696   3.079   1.316   0.408 -1.0837 -0.0339 -0.3077
  308TMC3    O2 4697   2.797   1.916   0.423 -0.7401 -0.2053  0.1570
  309MPD2     C 4698   2.685   1.990  16.747  0.4217 -0.3115  0.0542
  309MPD2    C1 4699   2.659   2.112  16.686  0.0458 -0.3461  0.7201
  309MPD2    C2 4700   2.532   2.170  16.692  1.1850  0.2266 -0.1828
  309MPD2    C3 4701   2.436   2.101  16.757  0.3106  0.0459 -0.5523
  309MPD2    C4 4702   2.459   1.980  16.817  0.0549  0.3296  0.5171
  309MPD2    C5 4703   2.589   1.924  16.816 -0.3464 -0.4700  0.7809
  309MPD2     H 4704   2.506   2.251  16.625 -1.2887  0.4786  1.0912
  309MPD2    H1 4705   2.378   1.935  16.872 -2.1788  3.0460 -0.5793
  309MPD2    H2 4706   2.773   1.932  16.721 -0.7824 -1.5535 -1.2770
  309MPD2    H3 4707   2.613   1.834  16.870 -1.3093 -0.3429  1.4249
  309MPD2     N 4708   2.310   2.152  16.786  0.2875  0.3165  0.2926
  309MPD2    H5 4709   2.255   2.089  16.843  0.0121  0.6964  0.4477
  309MPD2    N1 4710   2.754   2.186  16.610  0.1459 -0.6256  0.0286
  309MPD2    H7 4711   2.717   2.261  16.552  1.2575  1.7446  2.3378
  310TMC3    C1 4712   2.949   2.213  16.482  0.0776  0.1175 -0.0373
  310TMC3    C2 4713   2.879   2.292  16.394 -0.0968  0.2495 -0.5630
  310TMC3    C3 4714   2.927   2.304  16.270 -0.2449 -0.6511 -0.3865
  310TMC3    C4 4715   3.055   2.136  16.444 -0.0086  0.1723  0.0662
  310TMC3    C5 4716   3.082   2.138  16.308 -0.1419 -1.0950  0.4242
  310TMC3    C6 4717   3.032   2.231  16.223 -0.3745  0.1028 -0.2686
  310TMC3     C 4718   2.891   2.165  16.603  0.1853  0.5216 -0.3885
  310TMC3     O 4719   2.952   2.099  16.683 -0.3103  0.2390 -0.3610
  310TMC3     H 4720   2.792   2.349  16.425  1.7355  1.5869  2.1087
  310TMC3    H1 4721   3.103   2.071  16.516  0.9996  0.9619  0.1160
  310TMC3    H2 4722   3.036   2.210  16.117  0.4420  0.8290 -0.3760
  310TMC3    C7 4723   3.142   2.014  16.258  0.0318  0.6414 -0.0765
  310TMC3    C8 4724   2.828   2.357  16.171  0.1579 -0.2389  0.7837
  310TMC3    O1 4725   3.123   1.922  16.331 -0.1918  0.3645  0.1180
  310TMC3    O2 4726   2.706   2.341  16.194  0.2564  0.8467 -0.2442
  311MPD2     C 4727   4.578   3.324  12.228 -0.3423 -0.7361 -0.4030
  311MPD2    C1 4728   4.586   3.390  12.348  0.4504  0.7980 -0.0398
  311MPD2    C2 4729   4.477   3.400  12.431 -0.2093 -0.0727  0.0105
  311MPD2    C3 4730   4.361   3.328  12.397  0.1932 -0.0770  0.3471
  311MPD2    C4 4731   4.352   3.269  12.271  0.4826 -0.7676  0.1583
  311MPD2    C5 4732   4.469   3.262  12.192 -0.4836 -0.9576  0.6899
  311MPD2     H 4733   4.488   3.451  12.526 -1.3847  0.1983 -0.0008
  311MPD2    H1 4734   4.267   3.211  12.237  0.6985 -0.6747 -0.5559
  311MPD2    H2 4735   4.656   3.330  12.152  0.6711 -1.2503  0.6068
  311MPD2    H3 4736   4.474   3.208  12.098  2.3399  0.4695  0.0251
  311MPD2     N 4737   4.266   3.312  12.501 -0.2505 -0.6248 -0.9794
  311MPD2    H5 4738   4.282   3.369  12.583 -2.0614 -0.2395 -0.8804
  311MPD2    N1 4739   4.710   3.455  12.389 -0.4412  0.0441  0.5640
  311MPD2    H7 4740   4.708   3.527  12.460  0.4029  0.6102  0.0070
  312TMC3    C1 4741   4.078   3.218  12.621  0.9001 -0.6333  0.2207
  312TMC3    C2 4742   3.980   3.124  12.605 -0.0649  0.0269 -0.4829
  312TMC3    C3 4743   3.911   3.082  12.717 -0.0359 -0.1465 -0.6290
  312TMC3    C4 4744   4.121   3.257  12.742  0.2125 -0.3863  0.3131
  312TMC3    C5 4745   4.058   3.205  12.857  0.3688  0.4030 -1.2210
  312TMC3    C6 4746   3.951   3.125  12.841  0.6151 -0.3844 -0.4114
  312TMC3     C 4747   4.149   3.238  12.496  1.0645  0.2604  0.1217
  312TMC3     O 4748   4.101   3.183  12.397 -0.9081 -0.3279 -0.4347
  312TMC3     H 4749   3.949   3.085  12.509 -0.3372 -0.2708 -0.2726
  312TMC3    H1 4750   4.205   3.326  12.753  0.1771 -0.5530  1.6627
  312TMC3    H2 4751   3.890   3.085  12.922 -0.6818  2.5176  0.0401
  312TMC3    C7 4752   4.081   3.288  12.968 -0.0314  0.9377  0.0177
  312TMC3    C8 4753   3.775   3.035  12.694 -0.1469  0.5946 -0.2620
  312TMC3    O1 4754   4.086   3.408  12.945  0.1129 -0.2756  0.1779
  312TMC3    O2 4755   3.725   2.953  12.771 -0.2450  0.1202  0.5873
  313MPD2     C 4756   4.061   1.962  10.698 -0.2835  0.0283 -0.4562
  313MPD2    C1 4757   3.932   1.934  10.692 -0.0595 -0.7515 -0.2713
  313MPD2    C2 4758   3.887   1.859  10.586 -0.2664  0.2146 -0.0147
  313MPD2    C3 4759   3.969   1.811  10.491  0.0810  1.4466 -0.0431
  313MPD2    C4 4760   4.105   1.849  10.500  0.4595  0.0302 -0.3531
  313MPD2    C5 4761   4.147   1.918  10.607  0.2043  0.4141 -0.1872
  313MPD2     H 4762   3.782   1.834  10.576 -0.8173  2.3125  0.3645
  313MPD2    H1 4763   4.187   1.826  10.433 -1.3947 -1.8980 -1.9598
  313MPD2    H2 4764   4.112   2.015  10.778  0.2023  0.2208 -0.8947
  313MPD2    H3 4765   4.254   1.923  10.619  0.0956  1.9883  0.0281
  313MPD2     N 4766   3.916   1.732  10.381  0.2724  0.1204 -0.1621
  313MPD2    H5 4767   3.825   1.689  10.394  0.9092 -0.2806  2.9797
  313MPD2    N1 4768   3.839   1.992  10.784 -0.2415  0.4437 -0.6267
  313MPD2    H7 4769   3.745   1.955  10.779  0.1668 -0.5375 -1.1456
  314TMC3    C1 4770   3.766   2.164  10.929  0.2904 -0.7968 -0.0470
  314TMC3    C2 4771   3.819   2.271  10.995  0.5031 -0.1725  0.6291
  314TMC3    C3 4772   3.761   2.394  10.980 -0.3331 -0.3075  0.2966
  314TMC3    C4 4773   3.650   2.163  10.852  0.6500 -0.2189 -0.4269
  314TMC3    C5 4774   3.597   2.283  10.858 -0.6222  0.1823 -0.2653
  314TMC3    C6 4775   3.648   2.400  10.911 -0.0303 -0.1648  0.2929
  314TMC3     C 4776   3.874   2.096  10.866 -0.7787  0.2947 -0.0279
  314TMC3     O 4777   3.981   2.158  10.882  0.4855  0.0833  0.3481
  314TMC3     H 4778   3.906   2.263  11.060 -0.2317  3.3131  2.0340
  314TMC3    H1 4779   3.604   2.090  10.788 -0.9294  0.9726 -0.6412
  314TMC3    H2 4780   3.585   2.488  10.921  0.7106  0.4330 -0.3905
  314TMC3    C7 4781   3.495   2.294  10.761  0.3399 -0.9109 -0.0254
  314TMC3    C8 4782   3.844   2.515  10.991  0.6408 -0.0522 -0.0044
  314TMC3    O1 4783   3.388   2.237  10.778  0.0793 -0.0973 -0.6205
  314TMC3    O2 4784   3.791   2.627  10.984 -0.3292  0.4401 -0.2559
  315MPD2     C 4785   3.702   2.016   0.019  0.3363  0.0317 -0.1662
  315MPD2    C1 4786   3.817   1.937  17.731  0.6994 -0.2933 -0.3518
  315MPD2    C2 4787   3.919   1.990  17.659  0.5500  0.8621 -0.1865
  315MPD2    C3 4788   3.901   2.117  17.603 -0.2896  0.3626 -0.5283
  315MPD2    C4 4789   3.786   2.191  17.623 -0.4596 -1.0259  0.1789
  315MPD2    C5 4790   3.691   2.146  17.705 -0.7700  0.0049 -0.2735
  315MPD2     H 4791   4.018   1.949  17.643 -0.0187 -0.0733 -1.3635
  315MPD2    H1 4792   3.772   2.286  17.571  0.8643 -1.9810 -1.8976
  315MPD2    H2 4793   3.612   1.973   0.061  0.9572 -0.7339  0.3863
  315MPD2    H3 4794   3.593   2.191  17.714 -0.6375  0.0900  0.8169
  315MPD2     N 4795   4.014   2.158  17.531 -0.0997 -0.0201 -0.7486
  315MPD2    H5 4796   4.092   2.093  17.525 -2.3342 -2.7607 -0.2346
  315MPD2    N1 4797   3.831   1.805   0.038  0.4278  0.2517  0.0927
  315MPD2    H7 4798   3.905   1.750  17.733  1.2954  1.3814  0.1341
  316TMC3    C1 4799   4.156   2.289  17.403 -0.1347  0.0590 -1.5943
  316TMC3    C2 4800   4.258   2.271  17.494 -0.1395 -0.1744 -0.4845
  316TMC3    C3 4801   4.385   2.297  17.459  0.6835  0.4134 -0.0662
  316TMC3    C4 4802   4.174   2.346  17.285 -0.0574  0.2897  0.2482
  316TMC3    C5 4803   4.305   2.356  17.243 -0.3899 -0.6835  0.2859
  316TMC3    C6 4804   4.411   2.347  17.330  0.6219 -0.2145  0.3244
  316TMC3     C 4805   4.020   2.267  17.449 -0.2433  0.0392  0.3612
  316TMC3     O 4806   3.919   2.320  17.402  0.6555  0.4514 -0.3954
  316TMC3     H 4807   4.242   2.224  17.590 -0.2040  2.2070  0.6820
  316TMC3    H1 4808   4.095   2.356  17.211 -2.8757  0.0466  3.2763
  316TMC3    H2 4809   4.513   2.343  17.291  0.8230 -4.4124  1.2880
  316TMC3    C7 4810   4.339   2.402  17.106  0.4705 -0.0774 -0.3908
  316TMC3    C8 4811   4.496   2.240  17.532 -0.8473  0.0855 -0.3535
  316TMC3    O1 4812   4.443   2.465  17.099  0.0577  0.0741 -0.1967
  316TMC3    O2 4813   4.454   2.156  17.610  0.6159  0.5117  0.3680
  317MPD2     C 4814   1.483   0.602  12.707  0.2754 -0.0708 -0.3511
  317MPD2    C1 4815   1.500   0.509  12.607  0.9617  0.5304 -0.0054
  317MPD2    C2 4816   1.450   0.376  12.625  0.0415 -0.1962  0.1933
  317MPD2    C3 4817   1.381   0.344  12.737 -0.0996 -0.0730  0.2395
  317MPD2    C4 4818   1.360   0.441  12.833  0.2860  0.6636 -0.0814
  317MPD2    C5 4819   1.412   0.569  12.820 -0.8855 -0.0605  0.7609
  317MPD2     H 4820   1.483   0.299  12.556 -1.2447 -0.3749 -0.2199
  317MPD2    H1 4821   1.295   0.434  12.919 -0.3596  0.7430 -0.5645
  317MPD2    H2 4822   1.539   0.695  12.707  0.2832 -0.0673 -1.5044
  317MPD2    H3 4823   1.407   0.646  12.896  3.1587  0.1865  0.7928
  317MPD2     N 4824   1.331   0.212  12.758 -0.3419  0.5334 -1.1967
  317MPD2    H5 4825   1.355   0.152  12.680  1.1644 -0.5211  0.0979
  317MPD2    N1 4826   1.548   0.547  12.484 -0.3281  0.2931  0.0198
  317MPD2    H7 4827   1.558   0.470  12.418  1.0315 -0.7510  1.4626
  318TMC3    C1 4828   1.277   0.005  12.866 -0.4197 -0.4037  0.5147
  318TMC3    C2 4829   1.212   4.697  12.752  0.3933 -0.3583 -0.0022
  318TMC3    C3 4830   1.242   4.565  12.713  0.0335 -0.4053  0.6761
  318TMC3    C4 4831   1.368   4.666  12.932 -0.6828 -0.1956  0.1182
  318TMC3    C5 4832   1.408   4.550  12.878 -0.9160 -0.5404  0.0540
  318TMC3    C6 4833   1.345   4.495  12.765  0.0904 -0.0209  0.0192
  318TMC3     C 4834   1.294   0.152  12.875  0.2941  0.1348 -0.3979
  318TMC3     O 4835   1.283   0.203  12.988  0.1264  0.2816  0.1376
  318TMC3     H 4836   1.150   0.031  12.695  2.2020  2.2697  1.2100
  318TMC3    H1 4837   1.406   4.704  13.026  1.7805 -0.5595 -0.7241
  318TMC3    H2 4838   1.376   4.398  12.727  0.1667 -0.5703  1.4955
  318TMC3    C7 4839   1.522   4.480  12.932 -0.5601  0.3605 -0.6068
  318TMC3    C8 4840   1.205   4.518  12.578  0.5289  0.6364  0.1247
  318TMC3    O1 4841   1.602   4.420  12.859  0.0946  0.2032  0.1541
  318TMC3    O2 4842   1.299   4.462  12.518 -0.0390 -0.3771  0.1568
  319MPD2     C 4843   2.039   1.318  16.180 -0.4628  0.1564  0.6315
  319MPD2    C1 4844   2.000   1.204  16.254 -0.2916  0.3336 -0.3286
  319MPD2    C2 4845   1.887   1.135  16.212  0.0095 -0.4210  0.4094
  319MPD2    C3 4846   1.818   1.196  16.110 -0.1518 -0.1959 -0.3999
  319MPD2    C4 4847   1.866   1.303  16.029 -0.6527 -1.0658 -0.7658
  319MPD2    C5 4848   1.980   1.362  16.065  0.3730 -0.7013 -0.3430
  319MPD2     H 4849   1.849   1.051  16.268 -4.1840  1.6208  0.6260
  319MPD2    H1 4850   1.808   1.338  15.944 -0.1060  2.1840  0.2190
  319MPD2    H2 4851   2.126   1.377  16.207 -0.7644  0.3053  1.2692
  319MPD2    H3 4852   2.025   1.448  16.016 -0.1921 -0.8747 -1.1751
  319MPD2     N 4853   1.684   1.160  16.078 -0.0888  0.5707  0.4062
  319MPD2    H5 4854   1.635   1.221  16.014  1.2414  1.2697  0.0529
  319MPD2    N1 4855   2.054   1.172  16.379 -0.2673 -1.0274 -0.4255
  319MPD2    H7 4856   2.015   1.097  16.435 -1.2347  1.0192  1.6320
  320TMC3    C1 4857   1.513   1.011  16.022 -0.4008 -0.0825 -0.5377
  320TMC3    C2 4858   1.446   1.105  15.942 -0.1921 -0.3398  0.0005
  320TMC3    C3 4859   1.331   1.070  15.875 -0.2773 -0.4934 -0.1311
  320TMC3    C4 4860   1.460   0.884  16.032  0.7005  0.1644  0.5830
  320TMC3    C5 4861   1.339   0.858  15.968  0.3053  0.0817  0.8187
  320TMC3    C6 4862   1.274   0.950  15.886 -0.5459  0.3140 -0.4379
  320TMC3     C 4863   1.623   1.040  16.111 -0.1379  0.1497 -0.5082
  320TMC3     O 4864   1.685   0.941  16.155 -0.2246  0.2925  0.4187
  320TMC3     H 4865   1.472   1.210  15.950 -1.5342  0.1386 -1.8745
  320TMC3    H1 4866   1.520   0.807  16.078 -0.3901 -0.2811  1.2574
  320TMC3    H2 4867   1.172   0.929  15.854 -0.3915  2.3725 -2.2941
  320TMC3    C7 4868   1.288   0.726  15.952 -0.2943  0.6062 -0.1253
  320TMC3    C8 4869   1.287   1.181  15.786  0.2217  0.3911 -0.3571
  320TMC3    O1 4870   1.182   0.713  15.896  0.2937 -0.6624 -0.0417
  320TMC3    O2 4871   1.349   1.289  15.794  1.0087 -0.3344  0.2099
  321TMC3    C1 4872   2.173   1.197  16.581  0.0168 -0.3572 -0.1719
  321TMC3    C2 4873   2.102   1.090  16.626 -0.3703  0.6611  0.1189
  321TMC3    C3 4874   2.046   1.085  16.748 -0.2310 -0.1245 -0.6617
  321TMC3    C4 4875   2.191   1.305  16.665 -0.3793 -0.3635 -0.3630
  321TMC3    C5 4876   2.137   1.304  16.791  0.5162 -0.2661  0.0802
  321TMC3    C6 4877   2.062   1.197  16.832 -0.7735  0.0741  0.1314
  321TMC3     C 4878   2.157   1.233  16.440 -0.0977  0.3227 -0.2314
  321TMC3     O 4879   2.239   1.316  16.397  0.0418  0.0204 -0.0909
  321TMC3     H 4880   2.103   0.997  16.571 -1.8178  0.5923  0.2296
  321TMC3    H1 4881   2.264   1.383  16.642  1.1757 -1.2112  1.6870
  321TMC3    H2 4882   2.026   1.184  16.933  0.4148  0.7146  0.6419
  321TMC3    C7 4883   2.226   1.347  16.898 -0.0729  0.2791 -0.0137
  321TMC3    C8 4884   2.087   0.965  16.821 -0.4516  0.0864 -0.0510
  321TMC3    O1 4885   2.237   1.256  16.978  0.6283  0.1102 -0.2806
  321TMC3    O2 4886   2.046   0.853  16.782  0.7081  0.3728 -0.2780
  322MPD2     C 4887   1.051   2.806  12.723 -0.3373 -0.0322  0.2166
  322MPD2    C1 4888   1.035   2.742  12.848 -0.8716  0.1993 -0.3861
  322MPD2    C2 4889   1.010   2.606  12.858 -0.2166  0.2948  0.0892
  322MPD2    C3 4890   1.006   2.527  12.739  0.5990 -0.4632 -0.0798
  322MPD2    C4 4891   0.997   2.604  12.624  0.0162 -0.2495 -0.0408
  322MPD2    C5 4892   1.026   2.740  12.611 -0.4318  0.7860  0.0845
  322MPD2     H 4893   0.994   2.562  12.955  2.3282  1.7674  1.1845
  322MPD2    H1 4894   0.972   2.549  12.534 -2.2241 -0.0649  0.4733
  322MPD2    H2 4895   1.074   2.912  12.712 -1.7184  0.2716  0.3292
  322MPD2    H3 4896   1.017   2.779  12.510  1.1578 -0.0216 -0.3678
  322MPD2     N 4897   0.982   2.388  12.750  0.7265 -0.2527  0.1270
  322MPD2    H5 4898   0.983   2.349  12.844  0.5116  0.9554  0.6388
  322MPD2    N1 4899   1.076   2.822  12.959 -0.0978 -0.3273 -0.4739
  322MPD2    H7 4900   1.124   2.905  12.926 -2.2638  0.0867 -2.5919
  323TMC3    C1 4901   1.100   2.873  13.192 -0.4706 -0.4521  0.0018
  323TMC3    C2 4902   1.206   2.954  13.156 -0.6111  0.6466 -0.4161
  323TMC3    C3 4903   1.303   2.990  13.251  0.4762 -0.3930 -0.0296
  323TMC3    C4 4904   1.089   2.813  13.312 -0.1217 -0.4223 -0.3500
  323TMC3    C5 4905   1.187   2.849  13.401 -0.0001  0.4608  0.7977
  323TMC3    C6 4906   1.292   2.929  13.372  0.7126 -0.7460  0.6797
  323TMC3     C 4907   1.040   2.791  13.087 -0.2614  0.1643 -0.2759
  323TMC3     O 4908   0.958   2.704  13.119 -0.2052  0.4214 -0.1547
  323TMC3     H 4909   1.204   3.008  13.062  0.9750 -0.2516 -0.9680
  323TMC3    H1 4910   1.002   2.753  13.337  0.8368 -2.6371 -2.2850
  323TMC3    H2 4911   1.361   2.961  13.450  1.4128  0.6819 -0.5099
  323TMC3    C7 4912   1.202   2.763  13.517  0.0029 -0.6364 -0.3704
  323TMC3    C8 4913   1.435   3.038  13.209  0.6856 -0.2236 -0.0657
  323TMC3    O1 4914   1.136   2.660  13.509 -0.3389  0.3047 -0.1504
  323TMC3    O2 4915   1.525   3.026  13.289  0.3540  0.1970 -0.6233
  324MPD2     C 4916   2.612   3.444  14.386 -0.0727 -0.0951  0.3417
  324MPD2    C1 4917   2.574   3.571  14.342  0.0600 -0.8664 -0.2531
  324MPD2    C2 4918   2.439   3.598  14.331 -0.4477  0.2373  0.2683
  324MPD2    C3 4919   2.342   3.505  14.365 -0.7382 -0.3685  0.1920
  324MPD2    C4 4920   2.377   3.382  14.398 -0.3129 -0.3202  0.1793
  324MPD2    C5 4921   2.509   3.349  14.412 -0.2319 -0.0684 -0.4283
  324MPD2     H 4922   2.411   3.696  14.296 -2.7896 -0.5955 -0.1614
  324MPD2    H1 4923   2.302   3.308  14.422  0.4641 -1.7539 -1.7713
  324MPD2    H2 4924   2.716   3.415  14.383 -0.1027 -0.0954 -0.5833
  324MPD2    H3 4925   2.538   3.249  14.444 -1.2004  0.1758  1.1476
  324MPD2     N 4926   2.202   3.539  14.371 -0.0215  0.0750  0.1142
  324MPD2    H5 4927   2.132   3.474  14.406  0.8660 -1.8605 -1.7382
  324MPD2    N1 4928   2.656   3.675  14.304  0.6317 -0.9040 -0.3481
  324MPD2    H7 4929   2.613   3.759  14.267 -0.5322 -1.4806 -0.2931
  325TMC3    C1 4930   2.011   3.684  14.363 -0.2865  0.3146  0.7161
  325TMC3    C2 4931   1.919   3.595  14.306 -0.4285  0.5192 -0.4226
  325TMC3    C3 4932   1.798   3.644  14.261  0.1114  0.7270  0.0732
  325TMC3    C4 4933   1.979   3.814  14.381  0.2405 -1.3218 -0.2074
  325TMC3    C5 4934   1.866   3.865  14.329 -0.1003  0.7874 -0.1633
  325TMC3    C6 4935   1.779   3.780  14.260  0.3328  0.1925 -0.2509
  325TMC3     C 4936   2.151   3.668  14.347  0.2579  0.4858 -0.6971
  325TMC3     O 4937   2.208   3.763  14.296  0.1703  0.7232  0.4787
  325TMC3     H 4938   1.943   3.491  14.286 -0.3568  0.4999 -0.2299
  325TMC3    H1 4939   2.044   3.888  14.426 -2.7851  1.6336 -0.6653
  325TMC3    H2 4940   1.681   3.817  14.233  0.6057  1.6170  0.6437
  325TMC3    C7 4941   1.865   4.004  14.290 -0.1378  0.0602 -0.4938
  325TMC3    C8 4942   1.729   3.563  14.162  0.4971 -0.7707  0.0064
  325TMC3    O1 4943   1.963   4.071  14.316 -0.1832  0.4733 -0.4169
  325TMC3    O2 4944   1.792   3.473  14.111  0.6670  0.8507 -0.1545
  326MPD2     C 4945   3.332   0.290  11.176  0.6764  1.0303 -0.9271
  326MPD2    C1 4946   3.326   0.286  11.035  0.2837  0.3843  0.3599
  326MPD2    C2 4947   3.446   0.249  10.977  0.3263 -0.3676  0.4436
  326MPD2    C3 4948   3.562   0.215  11.044 -0.0955  0.2694  0.3951
  326MPD2    C4 4949   3.563   0.215  11.184  0.8700 -0.0375 -0.2708
  326MPD2    C5 4950   3.445   0.258  11.242 -0.0444 -0.1681  0.2043
  326MPD2     H 4951   3.443   0.253  10.869  0.3691 -2.9023  0.3509
  326MPD2    H1 4952   3.647   0.183  11.244  1.8794  0.0215 -1.6424
  326MPD2    H2 4953   3.242   0.322  11.227  0.7033 -0.4724  0.0613
  326MPD2    H3 4954   3.437   0.250  11.350 -0.6629 -0.4049  0.1367
  326MPD2     N 4955   3.682   0.170  10.980  0.5010 -0.0963  0.0635
  326MPD2    H5 4956   3.762   0.151  11.039  2.1528 -0.6058 -2.3268
  326MPD2    N1 4957   3.207   0.293  10.964 -0.4033 -0.1871 -0.5218
  326MPD2    H7 4958   3.216   0.296  10.863 -1.9978 -2.9710 -0.7388
  327TMC3    C1 4959   2.987   0.287  10.896  0.4421 -0.1783  0.6931
  327TMC3    C2 4960   2.965   0.383  10.802  0.3774  0.1085 -0.0197
  327TMC3    C3 4961   2.911   0.357  10.683 -0.3271  0.7339  0.0031
  327TMC3    C4 4962   2.979   0.154  10.855 -0.7264  0.9451  0.1174
  327TMC3    C5 4963   2.945   0.129  10.727 -0.4948  0.5347  1.2004
  327TMC3    C6 4964   2.923   0.229  10.634 -0.4000  0.8127  0.4623
  327TMC3     C 4965   3.078   0.295  11.005 -0.6925 -0.0648  0.1718
  327TMC3     O 4966   3.036   0.269  11.118 -0.4757  0.1335 -0.0206
  327TMC3     H 4967   2.977   0.483  10.843 -0.7360  0.4550 -0.5709
  327TMC3    H1 4968   2.982   0.070  10.923 -1.9499  1.2640  0.5772
  327TMC3    H2 4969   2.921   0.208  10.527  0.1753 -4.7755  1.5373
  327TMC3    C7 4970   3.023   0.021  10.669  0.2547  0.0703 -1.5786
  327TMC3    C8 4971   2.898   0.462  10.585  0.4049  0.2638  0.4464
  327TMC3    O1 4972   3.006   4.715  10.556 -0.3457 -0.5659 -0.4955
  327TMC3    O2 4973   2.971   0.562  10.589  0.4941  0.8042  0.3988
  328MPD2     C 4974   1.678   0.256  16.702 -0.4508  0.7343  0.4070
  328MPD2    C1 4975   1.564   0.183  16.696  0.1615  0.2721 -0.7054
  328MPD2    C2 4976   1.475   0.202  16.593 -0.1342 -0.5235 -0.8568
  328MPD2    C3 4977   1.504   0.297  16.499  0.0139 -0.5162 -0.4138
  328MPD2    C4 4978   1.609   0.380  16.514 -0.2980  0.1558 -0.6452
  328MPD2    C5 4979   1.696   0.361  16.615 -0.1098  0.2207  0.2906
  328MPD2     H 4980   1.391   0.135  16.578 -0.6203 -0.0350 -0.2933
  328MPD2    H1 4981   1.630   0.454  16.438  0.1431  1.6027  0.8708
  328MPD2    H2 4982   1.755   0.241  16.777 -1.6554  0.4371  1.5752
  328MPD2    H3 4983   1.789   0.417  16.613  0.6228 -0.9933  0.4704
  328MPD2     N 4984   1.418   0.332  16.389 -0.1852  0.3001 -0.0115
  328MPD2    H5 4985   1.449   0.412  16.334  0.8256 -1.0633 -1.4398
  328MPD2    N1 4986   1.546   0.088  16.791  0.7086  0.1677  0.2305
  328MPD2    H7 4987   1.608   0.096  16.871  1.5646 -0.2014 -0.3947
  329TMC3    C1 4988   1.490   4.617  16.883  0.1286 -0.2672  0.7606
  329TMC3    C2 4989   1.508   4.659  17.016  0.0935 -0.4561  0.5826
  329TMC3    C3 4990   1.525   4.553  17.108 -0.3679 -0.3221  0.1388
  329TMC3    C4 4991   1.466   4.485  16.855 -0.2157  0.5851  0.2760
  329TMC3    C5 4992   1.485   4.391  16.954 -0.0189 -0.7635 -0.7255
  329TMC3    C6 4993   1.525   4.424  17.078  0.0883 -0.0515  0.4720
  329TMC3     C 4994   1.453   4.714  16.784 -0.2459 -0.2135  0.9217
  329TMC3     O 4995   1.393   4.665  16.689  0.1774 -0.0237 -0.4246
  329TMC3     H 4996   1.498   0.029  17.046  1.3034  0.0555 -0.7831
  329TMC3    H1 4997   1.445   4.448  16.755  1.3800  0.8634 -0.1563
  329TMC3    H2 4998   1.539   4.349  17.155  3.3600  0.6561  0.5649
  329TMC3    C7 4999   1.482   4.251  16.929 -0.4354  0.7863 -0.4016
  329TMC3    C8 5000   1.594   4.592  17.236 -0.7620  0.3555 -0.0992
  329TMC3    O1 5001   1.485   4.171  17.023 -0.6765 -0.2747 -0.2280
  329TMC3    O2 5002   1.669   4.505  17.281  0.4383 -0.5396  0.4438
  330TMC3    C1 5003   3.901   3.884   9.160  0.2592  0.2164  0.4718
  330TMC3    C2 5004   3.940   3.781   9.078  0.5870 -0.1898 -0.3394
  330TMC3    C3 5005   3.984   3.670   9.141 -0.3027  0.2879  0.5550
  330TMC3    C4 5006   3.932   3.897   9.296 -0.4214  0.5089  0.1653
  330TMC3    C5 5007   4.002   3.793   9.343  0.5270  0.0619 -0.0950
  330TMC3    C6 5008   4.016   3.673   9.276  0.1235  0.1587  0.1697
  330TMC3     C 5009   3.858   4.007   9.100 -0.0227 -0.5843 -0.1029
  330TMC3     O 5010   3.914   4.101   9.159 -0.3508 -0.1080 -0.7286
  330TMC3     H 5011   3.890   3.783   8.982  1.8228  0.4028 -0.9683
  330TMC3    H1 5012   3.915   3.989   9.349 -0.1106  1.3281 -1.1424
  330TMC3    H2 5013   4.087   3.603   9.319  0.0832  0.6449  1.0251
  330TMC3    C7 5014   4.062   3.802   9.472  0.2982 -0.7216 -0.7462
  330TMC3    C8 5015   3.958   3.541   9.075 -0.4696  0.3849  0.1554
  330TMC3    O1 5016   4.099   3.695   9.528 -0.3216 -0.5726  0.6107
  330TMC3    O2 5017   3.919   3.552   8.960  0.3109 -0.0826 -0.3870
  331MPD2     C 5018   1.790   3.414  12.512  0.0868 -0.4564 -0.2801
  331MPD2    C1 5019   1.923   3.383  12.509 -0.2058 -0.1412  0.5495
  331MPD2    C2 5020   1.969   3.255  12.484  0.0800 -0.3138 -0.4590
  331MPD2    C3 5021   1.873   3.156  12.460 -0.5249  0.3258 -0.1144
  331MPD2    C4 5022   1.743   3.193  12.461  0.5768 -0.3088  0.6143
  331MPD2    C5 5023   1.699   3.318  12.487  0.9938 -0.1257 -0.0744
  331MPD2     H 5024   2.073   3.229  12.466 -0.1863 -0.6370 -1.5806
  331MPD2    H1 5025   1.659   3.126  12.447  1.4990 -1.6136  1.4259
  331MPD2    H2 5026   1.752   3.515  12.524 -2.5671 -1.6981  1.7703
  331MPD2    H3 5027   1.593   3.336  12.482  0.5958 -1.7037  2.6433
  331MPD2     N 5028   1.919   3.034  12.408 -0.7502 -0.5227  0.0911
  331MPD2    H5 5029   2.021   3.027  12.404 -0.8717 -2.7507  1.1596
  331MPD2    N1 5030   2.016   3.497  12.522  0.0863 -0.3568 -0.5676
  331MPD2    H7 5031   1.969   3.587  12.517  0.7695 -0.0012 -0.6391
  332TMC3    C1 5032   1.915   2.814  12.342  0.9081 -0.5184 -0.0680
  332TMC3    C2 5033   1.985   2.850  12.235  0.0632  0.2415 -0.3830
  332TMC3    C3 5034   2.096   2.777  12.199  0.0406  0.2959  0.0995
  332TMC3    C4 5035   1.952   2.702  12.419  0.4235 -0.6807  0.4337
  332TMC3    C5 5036   2.059   2.629  12.370  0.0750 -0.1164 -0.2526
  332TMC3    C6 5037   2.139   2.664  12.264  0.8500  0.3284 -0.2179
  332TMC3     C 5038   1.840   2.921  12.402 -0.5638  0.5183  0.3656
  332TMC3     O 5039   1.719   2.906  12.434  0.2671 -0.0110  0.3532
  332TMC3     H 5040   1.954   2.939  12.182 -3.6863 -0.5029  0.5523
  332TMC3    H1 5041   1.893   2.663  12.501  1.7108  0.2799  1.8024
  332TMC3    H2 5042   2.215   2.602  12.218  1.1967  0.0507  0.7306
  332TMC3    C7 5043   2.126   2.537  12.463  0.6792  0.5579 -0.6362
  332TMC3    C8 5044   2.185   2.827  12.092  0.3699  0.5664  0.3849
  332TMC3    O1 5045   2.056   2.470  12.534  0.4024  0.0774  0.5518
  332TMC3    O2 5046   2.306   2.811  12.118 -0.2438 -0.3807 -0.6397
  333MPD2     C 5047   2.104   3.364  11.207  0.4827 -0.0978 -0.4477
  333MPD2    C1 5048   2.136   3.256  11.131 -0.2553  0.6158  0.3160
  333MPD2    C2 5049   2.116   3.128  11.181 -0.1463 -0.0556 -0.0135
  333MPD2    C3 5050   2.046   3.100  11.294  0.0800  0.4920  0.4694
  333MPD2    C4 5051   2.017   3.214  11.371  0.7167 -0.3337 -0.0754
  333MPD2    C5 5052   2.052   3.341  11.333  0.4067  0.0857  0.2595
  333MPD2     H 5053   2.159   3.049  11.120  0.1779 -0.2890  0.5146
  333MPD2    H1 5054   1.957   3.208  11.461 -0.0229 -1.0023 -0.6083
  333MPD2    H2 5055   2.130   3.464  11.174 -2.2444  0.6756 -0.2039
  333MPD2    H3 5056   2.006   3.426  11.382 -0.5874 -0.1576 -0.2490
  333MPD2     N 5057   2.030   2.963  11.337  0.0483 -0.0381 -0.8529
  333MPD2    H5 5058   2.082   2.892  11.286 -1.5688 -3.4746  2.2532
  333MPD2    N1 5059   2.201   3.291  11.006 -0.1853  0.2205  0.0124
  333MPD2    H7 5060   2.216   3.389  10.983  2.2920 -0.4826 -1.3502
  334TMC3    C1 5061   2.324   3.258  10.810  0.5357 -0.1733 -0.0900
  334TMC3    C2 5062   2.368   3.165  10.720  0.3622  0.1811  0.2089
  334TMC3    C3 5063   2.423   3.210  10.604 -0.0775  0.0093 -0.0269
  334TMC3    C4 5064   2.325   3.397  10.786 -0.5708  0.4907 -0.5083
  334TMC3    C5 5065   2.378   3.429  10.666 -0.3189 -0.5310 -0.3882
  334TMC3    C6 5066   2.433   3.344  10.575 -0.1591 -0.0458  0.8833
  334TMC3     C 5067   2.250   3.197  10.917  0.4913  0.9467 -0.5615
  334TMC3     O 5068   2.248   3.075  10.922  0.0331 -0.8306  0.6174
  334TMC3     H 5069   2.384   3.060  10.744  1.2162 -0.2442 -2.1792
  334TMC3    H1 5070   2.281   3.471  10.852 -0.1629 -0.1372  0.4599
  334TMC3    H2 5071   2.477   3.377  10.482 -0.1822  1.0265  1.2481
  334TMC3    C7 5072   2.358   3.559  10.610  0.3425  0.0540  0.6798
  334TMC3    C8 5073   2.494   3.116  10.535 -0.2610 -0.1848 -0.1621
  334TMC3    O1 5074   2.437   3.584  10.522  0.1435  0.7868  0.2338
  334TMC3    O2 5075   2.431   3.016  10.504  0.1182  0.0174 -0.0070
  335TMC3    C1 5076   1.945   0.419  17.221  0.6934 -0.4018 -0.5108
  335TMC3    C2 5077   1.864   0.316  17.179 -0.2614 -1.0542  0.3825
  335TMC3    C3 5078   1.923   0.198  17.146  0.1677 -0.0289 -0.1184
  335TMC3    C4 5079   2.083   0.403  17.213 -0.0981  0.3903  0.1598
  335TMC3    C5 5080   2.135   0.280  17.190 -0.3313  0.3073 -0.8707
  335TMC3    C6 5081   2.058   0.172  17.158 -0.0568 -0.2574  0.3519
  335TMC3     C 5082   1.886   0.556  17.210  0.0545  0.4085 -0.2052
  335TMC3     O 5083   1.793   0.580  17.141  0.4687 -0.2957  0.2929
  335TMC3     H 5084   1.757   0.325  17.166  0.4767  2.8978 -2.8672
  335TMC3    H1 5085   2.161   0.473  17.242  0.3556  0.5895 -1.5087
  335TMC3    H2 5086   2.103   0.081  17.121  2.5629  1.1087  0.1899
  335TMC3    C7 5087   2.266   0.286  17.132  0.1248  0.4080  0.4440
  335TMC3    C8 5088   1.834   0.096  17.074  0.4619 -0.0418  0.0844
  335TMC3    O1 5089   2.308   0.389  17.081 -0.4155  0.1933 -0.0561
  335TMC3    O2 5090   1.751   0.145  16.992  0.0304 -0.2952  0.8441
  336MPD2     C 5091   1.663   2.672  15.865 -0.1707 -0.2443  0.3219
  336MPD2    C1 5092   1.591   2.603  15.776 -0.2355  0.2742  0.1836
  336MPD2    C2 5093   1.631   2.470  15.749 -0.7596 -0.2771  0.1325
  336MPD2    C3 5094   1.731   2.408  15.827  0.2033  0.6956 -0.2754
  336MPD2    C4 5095   1.805   2.487  15.915 -0.1179  0.2148  0.5516
  336MPD2    C5 5096   1.764   2.616  15.943  0.0025 -0.1841 -0.0253
  336MPD2     H 5097   1.586   2.420  15.664  0.3827 -0.3576 -0.4219
  336MPD2    H1 5098   1.886   2.439  15.969 -0.0899  0.7431  0.9695
  336MPD2    H2 5099   1.645   2.778  15.877  1.9663  0.0139  1.2395
  336MPD2    H3 5100   1.818   2.682  16.010  2.5674 -1.7059 -0.6049
  336MPD2     N 5101   1.776   2.277  15.807  0.5623 -0.1356 -0.1606
  336MPD2    H5 5102   1.834   2.237  15.880  3.1402  0.7139 -1.7261
  336MPD2    N1 5103   1.494   2.655  15.685  0.1336 -0.0255 -0.1981
  336MPD2    H7 5104   1.462   2.582  15.622  0.9799  1.2338 -2.0475
  337TMC3    C1 5105   1.349   2.808  15.585 -0.6822 -0.3584  0.0245
  337TMC3    C2 5106   1.289   2.700  15.521  0.4402 -0.4233  0.0750
  337TMC3    C3 5107   1.207   2.733  15.409 -0.5327 -0.3421  0.1838
  337TMC3    C4 5108   1.327   2.936  15.542  0.0817 -0.4298 -0.9290
  337TMC3    C5 5109   1.270   2.956  15.427 -0.2106  0.4140  0.3477
  337TMC3    C6 5110   1.210   2.859  15.353  0.5954 -0.1396 -0.4047
  337TMC3     C 5111   1.451   2.785  15.687 -0.2362  0.2537 -0.1652
  337TMC3     O 5112   1.486   2.881  15.754 -0.1892 -0.3198 -0.3853
  337TMC3     H 5113   1.280   2.602  15.566  0.3735 -0.2178  0.5062
  337TMC3    H1 5114   1.365   3.018  15.602  2.1144 -1.5519 -0.6616
  337TMC3    H2 5115   1.163   2.879  15.257 -0.6852 -0.0414  0.2448
  337TMC3    C7 5116   1.226   3.094  15.404 -0.6371 -0.1500 -0.5470
  337TMC3    C8 5117   1.152   2.619  15.338 -0.2858 -0.6477 -0.3749
  337TMC3    O1 5118   1.216   3.162  15.506  0.2902 -0.6085  0.2655
  337TMC3    O2 5119   1.181   2.511  15.384  0.3431  0.0942  0.3415
  338MPD2     C 5120   1.652   2.343   0.520 -0.3610 -0.3485  0.5527
  338MPD2    C1 5121   1.614   2.287   0.394 -0.1675  0.6526 -0.1409
  338MPD2    C2 5122   1.483   2.290   0.368 -0.2695 -0.2769  0.0939
  338MPD2    C3 5123   1.388   2.333   0.447  0.4229 -0.2752 -0.8758
  338MPD2    C4 5124   1.428   2.379   0.570 -0.7930 -0.5133 -0.7104
  338MPD2    C5 5125   1.559   2.388   0.610 -0.2249  0.2762 -0.8343
  338MPD2     H 5126   1.451   2.275   0.265 -0.2265 -1.6146  0.2801
  338MPD2    H1 5127   1.359   2.418   0.644 -2.0322 -0.7715 -1.7456
  338MPD2    H2 5128   1.758   2.347   0.541  0.0473  0.6857 -1.8059
  338MPD2    H3 5129   1.593   2.417   0.709  1.2191  1.6756 -1.7335
  338MPD2     N 5130   1.257   2.344   0.394  0.2791  0.2483 -0.2768
  338MPD2    H5 5131   1.247   2.313   0.298 -0.0467 -0.3795 -0.0427
  338MPD2    N1 5132   1.703   2.242   0.294 -0.0433  0.6191 -0.1547
  338MPD2    H7 5133   1.660   2.200   0.212  2.0442 -2.9720  0.5950
  339TMC3    C1 5134   1.033   2.393   0.374  0.2132 -0.2604 -0.6147
  339TMC3    C2 5135   0.945   2.293   0.419 -0.4504 -0.3780 -0.6223
  339TMC3    C3 5136   0.903   2.203   0.319 -0.3838 -0.0752  0.1219
  339TMC3    C4 5137   1.073   2.408   0.242 -0.1762 -0.3269  1.0563
  339TMC3    C5 5138   1.027   2.313   0.150 -0.0241 -0.2140  0.0499
  339TMC3    C6 5139   0.941   2.213   0.182  0.1883  0.2842 -0.8519
  339TMC3     C 5140   1.152   2.400   0.457  1.1357  0.9403 -1.0464
  339TMC3     O 5141   1.143   2.419   0.578  0.2316  0.1390  0.2406
  339TMC3     H 5142   0.936   2.278   0.526  0.8916  1.2004 -0.2931
  339TMC3    H1 5143   1.145   2.487   0.224  0.3664 -1.0303  0.1462
  339TMC3    H2 5144   0.918   2.137   0.108 -4.4834  1.6819 -0.8265
  339TMC3    C7 5145   1.118   2.312   0.038  0.3904  0.6392 -0.1883
  339TMC3    C8 5146   0.857   2.071   0.357  0.1816 -0.0467 -0.3034
  339TMC3    O1 5147   1.223   2.365   0.067  0.0317 -0.2607 -0.2870
  339TMC3    O2 5148   0.820   1.996   0.268 -0.0435 -0.7711 -0.7334
  340MPD2     C 5149   2.018   3.279  10.018 -0.4207  0.5944  0.4794
  340MPD2    C1 5150   2.129   3.296   9.937  0.6279 -0.1455  0.0000
  340MPD2    C2 5151   2.166   3.419   9.896 -0.7669 -0.3834 -0.3822
  340MPD2    C3 5152   2.105   3.532   9.947 -0.3207  0.2601  0.2588
  340MPD2    C4 5153   1.991   3.515  10.022 -0.3614 -0.5614  0.5686
  340MPD2    C5 5154   1.953   3.391  10.067 -0.6632  0.3835 -0.0308
  340MPD2     H 5155   2.250   3.432   9.829  0.1097 -1.6282  0.4753
  340MPD2    H1 5156   1.942   3.595  10.076 -0.4804 -0.3912  0.2054
  340MPD2    H2 5157   1.976   3.184  10.050 -0.0166  0.7694  1.5180
  340MPD2    H3 5158   1.869   3.381  10.135 -0.7131  1.9862  0.1432
  340MPD2     N 5159   2.158   3.661   9.927 -0.0876  0.0864 -0.2513
  340MPD2    H5 5160   2.112   3.740   9.972  2.8134  1.4997  0.2767
  340MPD2    N1 5161   2.204   3.183   9.898  0.0887  0.5288 -0.6183
  340MPD2    H7 5162   2.188   3.097   9.949  0.8055  2.1629  2.3624
  341TMC3    C1 5163   2.337   3.042   9.773 -0.1236 -0.5018 -0.1384
  341TMC3    C2 5164   2.269   2.932   9.816 -0.0253 -0.0038  0.0263
  341TMC3    C3 5165   2.303   2.810   9.760 -0.0043 -0.7622 -0.0012
  341TMC3    C4 5166   2.429   3.034   9.680 -0.1586  0.9672 -0.1219
  341TMC3    C5 5167   2.466   2.909   9.634 -0.0429 -0.1938 -0.7631
  341TMC3    C6 5168   2.400   2.794   9.671 -0.2514 -0.3111 -0.1698
  341TMC3     C 5169   2.291   3.176   9.799  0.7340  0.1045 -0.0627
  341TMC3     O 5170   2.324   3.263   9.719 -0.1527  0.3452  0.1126
  341TMC3     H 5171   2.181   2.941   9.878 -0.8443 -2.2569 -0.8000
  341TMC3    H1 5172   2.478   3.118   9.633 -1.2369  2.8664  2.1533
  341TMC3    H2 5173   2.429   2.696   9.636 -1.2012 -0.8231  0.4980
  341TMC3    C7 5174   2.571   2.905   9.532 -0.5430 -0.7068 -0.9556
  341TMC3    C8 5175   2.235   2.697   9.820 -0.8007 -0.4639 -0.1318
  341TMC3    O1 5176   2.639   3.001   9.513 -0.1084 -0.0280 -0.2090
  341TMC3    O2 5177   2.211   2.719   9.938  0.4106  0.4626 -0.0455
  342MPD2     C 5178   0.169   2.837  17.336  0.8720  0.0101  0.0932
  342MPD2    C1 5179   0.237   2.842  17.219  0.0047  0.1072 -0.2764
  342MPD2    C2 5180   0.266   2.969  17.176 -0.1102 -0.0277 -0.1694
  342MPD2    C3 5181   0.223   3.090  17.234 -0.4712  0.3907 -0.0652
  342MPD2    C4 5182   0.156   3.081  17.354  0.8245  0.6379  0.6781
  342MPD2    C5 5183   0.137   2.957  17.406 -0.0960 -0.1165 -0.4870
  342MPD2     H 5184   0.317   2.972  17.081 -0.5674  0.9551 -0.3836
  342MPD2    H1 5185   0.104   3.163  17.403  0.4165  2.1382 -2.2279
  342MPD2    H2 5186   0.132   2.744  17.378  0.6244 -0.4646 -1.1673
  342MPD2    H3 5187   0.075   2.954  17.494 -1.1423  1.2510 -1.1838
  342MPD2     N 5188   0.230   3.222  17.180 -0.4953  0.0386  0.4067
  342MPD2    H5 5189   0.216   3.298  17.245 -3.4675  2.2440 -2.7788
  342MPD2    N1 5190   0.278   2.720  17.147  0.4267  0.0625 -0.1531
  342MPD2    H7 5191   0.338   2.724  17.065  2.3169 -2.8007  1.1409
  343TMC3    C1 5192   0.289   2.495  17.088  1.1668  0.9653 -0.0517
  343TMC3    C2 5193   0.381   2.522  16.990  0.5600  0.4903  0.1766
  343TMC3    C3 5194   0.430   2.412  16.919 -0.6416  0.1462  0.4626
  343TMC3    C4 5195   0.258   2.367  17.119 -0.0226  0.7532 -0.3099
  343TMC3    C5 5196   0.309   2.257  17.052  0.2279  0.0261  0.0518
  343TMC3    C6 5197   0.390   2.279  16.943  0.7887 -0.3620  0.9515
  343TMC3     C 5198   0.232   2.595  17.174  0.7556  0.6015  0.5571
  343TMC3     O 5199   0.142   2.559  17.250 -1.0156  0.0345  0.4833
  343TMC3     H 5200   0.398   2.619  16.946  1.8636 -0.1848 -0.8266
  343TMC3    H1 5201   0.186   2.347  17.197  0.2239 -0.9395 -0.5115
  343TMC3    H2 5202   0.414   2.196  16.877  2.3068 -0.4958  1.6603
  343TMC3    C7 5203   0.229   2.135  17.053  0.3948  0.1615  0.6910
  343TMC3    C8 5204   0.526   2.441  16.803  0.8477  0.7104  0.1638
  343TMC3    O1 5205   0.171   2.106  16.948 -0.7545  0.1402  0.0176
  343TMC3    O2 5206   0.523   2.547  16.744  0.5330  0.0112 -0.1375
  344MPD2     C 5207   1.031   2.111  10.049 -0.3131 -0.2926 -0.1395
  344MPD2    C1 5208   0.901   2.143  10.078 -0.3037 -0.4260  0.3395
  344MPD2    C2 5209   0.853   2.272  10.089 -0.3844  0.4867 -0.1180
  344MPD2    C3 5210   0.941   2.373  10.075 -0.1168  0.8761  0.8756
  344MPD2    C4 5211   1.070   2.342  10.046  0.5700  0.1322  0.5693
  344MPD2    C5 5212   1.119   2.217  10.030  0.1716  0.9141 -0.2004
  344MPD2     H 5213   0.747   2.291  10.104 -0.5991 -0.3133 -0.6385
  344MPD2    H1 5214   1.139   2.425  10.041  3.6430 -2.4641 -0.1075
  344MPD2    H2 5215   1.070   2.011  10.057  0.5327  0.1343  1.1419
  344MPD2    H3 5216   1.218   2.184   9.999 -0.7045  0.0090 -2.0530
  344MPD2     N 5217   0.911   2.512  10.096 -0.0606  0.2728 -0.2172
  344MPD2    H5 5218   0.991   2.573  10.090  0.7891 -0.7727  0.4808
  344MPD2    N1 5219   0.813   2.040  10.109 -0.1577  0.2534  0.4310
  344MPD2    H7 5220   0.715   2.067  10.110 -0.1526  0.2541  1.3811
  345TMC3    C1 5221   0.815   2.712  10.180  0.4281 -0.4247 -0.6457
  345TMC3    C2 5222   0.910   2.742  10.275  0.0314 -0.4331 -0.2254
  345TMC3    C3 5223   0.891   2.857  10.345 -0.6822  0.0684  0.2597
  345TMC3    C4 5224   0.721   2.794  10.132  0.3997  0.3083  0.5267
  345TMC3    C5 5225   0.707   2.911  10.201  0.0907  0.2872  0.6471
  345TMC3    C6 5226   0.788   2.942  10.308  0.5390  0.3466  0.2672
  345TMC3     C 5227   0.793   2.578  10.129  0.4531 -0.4600 -0.7146
  345TMC3     O 5228   0.678   2.540  10.112 -0.5555  0.4833  0.6448
  345TMC3     H 5229   0.996   2.680  10.299  0.8542  0.9814  0.4976
  345TMC3    H1 5230   0.641   2.763  10.065 -0.5787  0.1404  1.7669
  345TMC3    H2 5231   0.752   3.019  10.376 -1.1581 -1.5636  1.5498
  345TMC3    C7 5232   0.634   3.019  10.158  0.4134  0.0796 -0.2146
  345TMC3    C8 5233   1.002   2.923  10.412 -0.6385  0.0043 -0.1037
  345TMC3    O1 5234   0.639   3.126  10.219  0.0096  0.4887  0.1141
  345TMC3    O2 5235   1.094   2.848  10.444  0.1683 -0.2318  0.2295
  346MPD2     C 5236   1.002   3.839  13.349  0.7606 -0.3702  0.7132
  346MPD2    C1 5237   1.116   3.914  13.361 -1.0195  0.2428 -0.0472
  346MPD2    C2 5238   1.131   4.001  13.471 -0.4380  0.0706  0.1026
  346MPD2    C3 5239   1.023   4.021  13.556 -0.1333 -0.3034  0.2051
  346MPD2    C4 5240   0.907   3.952  13.535  0.3909 -0.7068  0.6370
  346MPD2    C5 5241   0.897   3.858  13.435  0.0733 -0.7383 -0.3878
  346MPD2     H 5242   1.226   4.053  13.477 -0.5468  0.5470 -2.2943
  346MPD2    H1 5243   0.821   3.963  13.600 -0.3127  0.2985 -0.4548
  346MPD2    H2 5244   0.985   3.759  13.278 -0.8365  1.3586 -0.8455
  346MPD2    H3 5245   0.812   3.795  13.411 -0.3858  0.1301 -1.0273
  346MPD2     N 5246   1.033   4.114  13.662 -0.0709  0.4554 -0.1474
  346MPD2    H5 5247   1.117   4.171  13.660  0.6987 -0.6198  1.3998
  346MPD2    N1 5248   1.235   3.893  13.283 -0.7914 -0.1903 -0.4439
  346MPD2    H7 5249   1.305   3.965  13.289 -0.8166 -0.0892 -1.2955
  347TMC3    C1 5250   0.999   4.229  13.865  0.5371  0.0563  0.1739
  347TMC3    C2 5251   1.137   4.244  13.866 -0.4067 -0.3309 -1.1255
  347TMC3    C3 5252   1.196   4.286  13.981 -0.2284 -0.1537 -0.0370
  347TMC3    C4 5253   0.921   4.256  13.980 -0.0594  0.5848 -0.1340
  347TMC3    C5 5254   0.986   4.304  14.089  0.0855  0.1744  0.1237
  347TMC3    C6 5255   1.128   4.316  14.092  0.0972 -0.3497  0.9397
  347TMC3     C 5256   0.949   4.144  13.761 -1.1127  0.1214  0.5262
  347TMC3     O 5257   0.832   4.113  13.770  0.0449 -0.1446 -0.4354
  347TMC3     H 5258   1.206   4.216  13.786  0.5228  0.3672 -0.5716
  347TMC3    H1 5259   0.814   4.247  13.971  0.0976 -1.6321  0.0482
  347TMC3    H2 5260   1.171   4.342  14.188  0.0449 -0.3342  0.9592
  347TMC3    C7 5261   0.921   4.303  14.220 -0.0548  0.3093 -0.4293
  347TMC3    C8 5262   1.337   4.251  14.000 -0.3182 -0.0027 -0.2711
  347TMC3    O1 5263   0.978   4.301  14.328  0.4735  0.3510  0.3961
  347TMC3    O2 5264   1.366   4.141  13.955  0.2138  0.1529 -0.1124
  348MPD2     C 5265   4.316   3.839  11.836  0.2126 -0.7434 -0.6208
  348MPD2    C1 5266   4.387   3.916  11.741  0.0967 -0.9214 -0.2802
  348MPD2    C2 5267   4.326   3.960  11.624  0.5087  0.1403  0.2201
  348MPD2    C3 5268   4.196   3.915  11.591 -0.0802  0.2361 -0.4483
  348MPD2    C4 5269   4.133   3.833  11.680 -0.3160 -0.2303 -0.0000
  348MPD2    C5 5270   4.190   3.796  11.799  0.1514 -0.5779 -0.1654
  348MPD2     H 5271   4.379   4.032  11.562 -1.6216  0.4578 -1.2657
  348MPD2    H1 5272   4.038   3.793  11.644  0.2538 -0.6231 -1.0569
  348MPD2    H2 5273   4.355   3.821  11.936  0.2830 -1.1753 -0.7271
  348MPD2    H3 5274   4.132   3.731  11.863  2.0096  0.1595  2.2560
  348MPD2     N 5275   4.155   3.957  11.460  0.3413 -0.4452  0.4429
  348MPD2    H5 5276   4.209   4.030  11.413  0.4234 -0.0484  1.1526
  348MPD2    N1 5277   4.531   3.941  11.751  0.6716 -0.7589 -1.0197
  348MPD2    H7 5278   4.570   4.008  11.685  1.8111  1.5723  2.0165
  349TMC3    C1 5279   0.006   3.827  11.760 -0.1759 -0.5100  0.4695
  349TMC3    C2 5280   0.056   3.716  11.823  1.7143 -0.4839  0.1533
  349TMC3    C3 5281   0.073   3.602  11.751  0.1423 -0.1133  0.6832
  349TMC3    C4 5282   0.006   3.843  11.628  0.8648  0.4131 -0.0485
  349TMC3    C5 5283   0.019   3.726  11.558 -0.3829 -0.8178  0.1543
  349TMC3    C6 5284   0.044   3.606  11.624 -1.1503 -0.0415 -0.1131
  349TMC3     C 5285   4.606   3.847  11.824  0.1582 -0.1904  0.1584
  349TMC3     O 5286   4.582   3.777  11.921  0.3757 -0.2892  0.1296
  349TMC3     H 5287   0.056   3.710  11.931  0.3611  1.0027  0.2246
  349TMC3    H1 5288   4.701   3.927  11.572  1.0114  1.0486  0.7951
  349TMC3    H2 5289   0.033   3.512  11.571 -3.3246  0.2520 -0.1934
  349TMC3    C7 5290   4.630   3.712  11.478  0.1356 -0.1206  0.1656
  349TMC3    C8 5291   0.073   3.479  11.829 -0.2839 -0.7172  0.2324
  349TMC3    O1 5292   4.554   3.619  11.504  0.4602  0.4011  0.2927
  349TMC3    O2 5293   0.044   3.490  11.950  0.4148  0.6171  0.2463
  350MPD2     C 5294   3.348   1.606   9.602 -0.3069 -0.4542 -0.1686
  350MPD2    C1 5295   3.405   1.481   9.587  0.2811  0.3387 -0.7204
  350MPD2    C2 5296   3.531   1.463   9.632  0.5321 -0.3222  0.0923
  350MPD2    C3 5297   3.598   1.565   9.701  0.1072  0.6576 -0.5698
  350MPD2    C4 5298   3.544   1.689   9.714  0.3040 -0.3074  0.3848
  350MPD2    C5 5299   3.419   1.705   9.664  0.2727 -0.0602  0.6904
  350MPD2     H 5300   3.577   1.367   9.613 -1.4587 -1.2653  0.0305
  350MPD2    H1 5301   3.593   1.773   9.760  0.5120  0.1553 -0.6731
  350MPD2    H2 5302   3.251   1.623   9.556  0.2187  2.2632 -0.2510
  350MPD2    H3 5303   3.367   1.800   9.670  0.0212 -0.0241 -2.0908
  350MPD2     N 5304   3.711   1.521   9.773  0.1444 -0.5162 -0.5811
  350MPD2    H5 5305   3.743   1.426   9.759  0.1855 -0.4058 -1.2378
  350MPD2    N1 5306   3.338   1.366   9.536 -0.1187 -0.6596 -0.1307
  350MPD2    H7 5307   3.388   1.279   9.521  0.6663 -0.3650  0.8557
  351TMC3    C1 5308   3.170   1.233   9.435  0.5704 -0.8058  0.0543
  351TMC3    C2 5309   3.264   1.144   9.387 -0.0336 -0.0798  0.2648
  351TMC3    C3 5310   3.210   1.023   9.346 -0.3925  0.2881  0.1370
  351TMC3    C4 5311   3.039   1.201   9.451 -0.1916  0.0053 -0.3369
  351TMC3    C5 5312   2.994   1.077   9.413 -0.3603 -0.0865  0.0948
  351TMC3    C6 5313   3.080   0.989   9.358  0.6579 -0.2494  0.0061
  351TMC3     C 5314   3.210   1.365   9.489  0.3452  0.2580  0.4803
  351TMC3     O 5315   3.123   1.451   9.492 -1.0789 -0.0325  0.0406
  351TMC3     H 5316   3.367   1.172   9.371  0.2774 -0.9744  0.6773
  351TMC3    H1 5317   2.970   1.274   9.491  2.0512  2.7509 -1.4613
  351TMC3    H2 5318   3.046   0.887   9.342  1.2674 -0.2144 -1.4617
  351TMC3    C7 5319   2.862   1.041   9.465 -0.0643  0.2040 -0.5525
  351TMC3    C8 5320   3.297   0.925   9.279 -0.4128 -0.3200  0.1615
  351TMC3    O1 5321   2.805   1.132   9.522  0.5395  0.1688 -0.0471
  351TMC3    O2 5322   3.229   0.838   9.224 -0.8629  0.8109  0.2056
  352MPD2     C 5323   2.000   3.926   1.095  0.8012  0.1780 -0.3529
  352MPD2    C1 5324   1.918   3.857   1.008  0.0877 -0.4941  0.2788
  352MPD2    C2 5325   1.965   3.742   0.952  0.0559 -0.6254 -0.3572
  352MPD2    C3 5326   2.088   3.679   0.991  0.5661 -0.9193 -0.7999
  352MPD2    C4 5327   2.168   3.751   1.073  1.0402 -0.4748  0.5326
  352MPD2    C5 5328   2.122   3.871   1.117 -0.0758 -0.6076  0.0205
  352MPD2     H 5329   1.899   3.692   0.883  0.1216 -0.5352 -0.4848
  352MPD2    H1 5330   2.269   3.720   1.098  1.8069  1.0990 -0.6281
  352MPD2    H2 5331   1.971   4.023   1.133  0.7852 -0.0109  0.1263
  352MPD2    H3 5332   2.181   3.933   1.184 -0.6928  0.0277 -0.0256
  352MPD2     N 5333   2.132   3.554   0.940 -0.2207 -0.5501  0.4020
  352MPD2    H5 5334   2.216   3.515   0.982 -1.4816 -2.1699  1.4522
  352MPD2    N1 5335   1.804   3.926   0.968  1.0591 -0.2464  0.0311
  352MPD2    H7 5336   1.774   4.008   1.018 -0.7571  0.3491 -2.0455
  353TMC3    C1 5337   2.106   3.347   0.832 -0.2456  0.0160 -0.5185
  353TMC3    C2 5338   2.236   3.325   0.803 -0.0319 -0.1733 -0.7052
  353TMC3    C3 5339   2.265   3.203   0.748  0.1897 -0.2787 -0.3216
  353TMC3    C4 5340   2.005   3.255   0.803  0.3856  1.1409 -0.0308
  353TMC3    C5 5341   2.041   3.130   0.750 -0.4423  0.0495 -0.2025
  353TMC3    C6 5342   2.177   3.101   0.736 -0.0262  0.0043  0.5757
  353TMC3     C 5343   2.053   3.480   0.850 -0.0642  0.4426  0.3067
  353TMC3     O 5344   1.943   3.500   0.797 -0.1878 -0.4078  0.0752
  353TMC3     H 5345   2.313   3.397   0.831 -0.2604 -1.1427  2.3483
  353TMC3    H1 5346   1.902   3.285   0.818  0.2126  1.1666 -1.2774
  353TMC3    H2 5347   2.201   3.000   0.708  0.1072 -0.1046  1.0954
  353TMC3    C7 5348   1.947   3.027   0.709  0.3648  0.4787  0.0490
  353TMC3    C8 5349   2.403   3.161   0.740 -0.1845  0.2452  0.0713
  353TMC3    O1 5350   2.005   2.938   0.652 -0.4121  0.4528 -0.0124
  353TMC3    O2 5351   2.483   3.234   0.801  0.1371 -0.0743  0.2044
  354TMC3    C1 5352   2.972   0.235  13.374  0.1122 -0.5377 -0.0697
  354TMC3    C2 5353   3.022   0.362  13.382 -0.5054 -0.0120 -0.0988
  354TMC3    C3 5354   2.974   0.456  13.292 -0.1869 -0.1690 -0.4068
  354TMC3    C4 5355   2.883   0.190  13.284  0.6127  0.5213 -0.2259
  354TMC3    C5 5356   2.844   0.287  13.195 -0.1947  0.3300  0.2347
  354TMC3    C6 5357   2.871   0.421  13.208  0.3423 -0.2698  1.3083
  354TMC3     C 5358   2.989   0.149  13.493  0.1361  0.8579 -0.5418
  354TMC3     O 5359   2.904   0.065  13.510  0.0822  0.2285  0.5787
  354TMC3     H 5360   3.099   0.396  13.450 -0.2841 -0.7364  0.0118
  354TMC3    H1 5361   2.880   0.083  13.267 -3.7311  0.7492 -0.8068
  354TMC3    H2 5362   2.841   0.497  13.137 -1.5096 -0.7625  1.5816
  354TMC3    C7 5363   2.843   0.244  13.056 -0.1225  0.8650 -0.4142
  354TMC3    C8 5364   3.078   0.516  13.207  0.2284 -0.1869  0.2563
  354TMC3    O1 5365   2.901   0.138  13.040 -0.3891 -0.0793 -0.0718
  354TMC3    O2 5366   3.039   0.612  13.143  0.1268  0.6011  0.3031
  355MPD2     C 5367   3.496   0.966  11.503 -0.5526  0.2819  0.1598
  355MPD2    C1 5368   3.553   0.978  11.376 -0.7629  0.3326  0.1427
  355MPD2    C2 5369   3.690   0.979  11.371 -0.7822 -0.4662  0.0486
  355MPD2    C3 5370   3.772   0.982  11.483  0.4427  0.3545 -0.3111
  355MPD2    C4 5371   3.715   0.979  11.605  0.0213 -0.6191 -0.3214
  355MPD2    C5 5372   3.580   0.969  11.611 -0.5962  0.7936  0.6255
  355MPD2     H 5373   3.733   0.994  11.273  1.6847 -0.6112  1.1277
  355MPD2    H1 5374   3.769   0.985  11.699 -0.5233 -2.5866  0.1081
  355MPD2    H2 5375   3.389   0.964  11.518 -0.0176 -0.9594  3.9316
  355MPD2    H3 5376   3.535   0.966  11.710 -0.1442  0.8250  0.8322
  355MPD2     N 5377   3.912   0.999  11.480  0.0280 -0.2994  0.6672
  355MPD2    H5 5378   3.971   1.017  11.561  1.4422  1.1586 -0.6837
  355MPD2    N1 5379   3.458   0.990  11.269  0.5486  0.6550 -0.2871
  355MPD2    H7 5380   3.360   0.975  11.290  0.6375 -1.6372 -1.5529
  356TMC3    C1 5381   4.116   1.080  11.380 -0.0746 -0.9908  0.3799
  356TMC3    C2 5382   4.192   1.103  11.265 -0.6428 -0.1724 -0.2217
  356TMC3    C3 5383   4.298   1.185  11.270  0.0959 -0.6108  0.0725
  356TMC3    C4 5384   4.139   1.154  11.495 -0.5760 -0.4294  0.0252
  356TMC3    C5 5385   4.240   1.237  11.494  1.3217  0.4934 -0.0149
  356TMC3    C6 5386   4.326   1.252  11.385 -0.4850 -0.3841 -0.3296
  356TMC3     C 5387   3.985   1.019  11.362  0.5041 -0.0894 -0.4172
  356TMC3     O 5388   3.957   0.983  11.246  0.5399 -0.0797 -0.3761
  356TMC3     H 5389   4.169   1.051  11.174 -0.4108  0.6887 -0.7738
  356TMC3    H1 5390   4.069   1.150  11.578 -1.4937 -0.3660 -0.7386
  356TMC3    H2 5391   4.406   1.323  11.399  0.1765 -1.4067  1.0657
  356TMC3    C7 5392   4.250   1.313  11.619  0.0952 -0.2023  0.0464
  356TMC3    C8 5393   4.348   1.225  11.147  0.4443  0.2044 -0.0573
  356TMC3    O1 5394   4.171   1.283  11.707 -0.3814 -0.5819  0.4481
  356TMC3    O2 5395   4.296   1.174  11.048 -0.1000  0.4248 -0.4449
  357MPD2     C 5396   3.687   0.742   0.403 -0.8092 -0.7749 -0.0081
  357MPD2    C1 5397   3.738   0.677   0.510 -0.2039  0.6697 -0.1451
  357MPD2    C2 5398   3.698   0.712   0.638 -0.0289 -0.4064  0.0175
  357MPD2    C3 5399   3.591   0.794   0.659  0.4020  0.1696 -0.1669
  357MPD2    C4 5400   3.540   0.860   0.548  0.1272  0.0198  0.3391
  357MPD2    C5 5401   3.589   0.832   0.425 -0.4728  0.1055 -0.8598
  357MPD2     H 5402   3.755   0.669   0.719  3.5259 -1.3087 -2.9969
  357MPD2    H1 5403   3.451   0.918   0.571 -0.1602 -1.1449  2.2230
  357MPD2    H2 5404   3.698   0.698   0.305 -0.7837 -1.6475  0.3950
  357MPD2    H3 5405   3.547   0.871   0.333 -1.1537  0.1422 -0.5316
  357MPD2     N 5406   3.520   0.815   0.784 -0.5305 -0.0470  0.1706
  357MPD2    H5 5407   3.435   0.870   0.782  0.6524  1.8597  2.0532
  357MPD2    N1 5408   3.810   0.561   0.478  0.0331 -0.3079 -0.4924
  357MPD2    H7 5409   3.817   0.536   0.380 -0.9164 -1.7229 -0.1949
  358TMC3    C1 5410   3.899   0.341   0.505  0.4421 -0.0963 -0.3622
  358TMC3    C2 5411   3.824   0.285   0.407  0.6969  0.5713 -0.1057
  358TMC3    C3 5412   3.815   0.151   0.401  0.2363  0.0092  0.7041
  358TMC3    C4 5413   3.975   0.262   0.592  0.1900 -0.0557  0.2796
  358TMC3    C5 5414   3.961   0.128   0.583  0.6242 -0.1788  0.2348
  358TMC3    C6 5415   3.883   0.061   0.487 -0.0332  0.5651  0.4612
  358TMC3     C 5416   3.863   0.472   0.569  0.7916 -0.4784  0.5667
  358TMC3     O 5417   3.884   0.490   0.690 -0.1831  0.1879 -0.0360
  358TMC3     H 5418   3.787   0.359   0.336  0.5777 -1.5231 -2.2336
  358TMC3    H1 5419   4.028   0.313   0.671 -0.1765 -1.2346  1.2781
  358TMC3    H2 5420   3.850   4.694   0.506 -0.1607  0.7455  1.2065
  358TMC3    C7 5421   4.034   0.042   0.683  0.3703  0.6447  0.1107
  358TMC3    C8 5422   3.800   0.103   0.265  0.3311  1.1428 -0.0875
  358TMC3    O1 5423   4.078   0.102   0.782 -0.0635  0.5080 -0.5467
  358TMC3    O2 5424   3.812   0.180   0.173 -0.3369 -0.1025  0.1224
  359MPD2     C 5425   4.287   4.455  12.193  1.1408 -0.2694  0.8162
  359MPD2    C1 5426   4.220   4.470  12.074  0.2557 -0.2920  0.1550
  359MPD2    C2 5427   4.140   4.361  12.034 -0.4778  0.7324  0.6349
  359MPD2    C3 5428   4.124   4.252  12.118 -0.2660 -0.0446  0.1101
  359MPD2    C4 5429   4.172   4.258  12.249 -0.0875  0.2840 -0.1595
  359MPD2    C5 5430   4.255   4.360  12.279 -0.5161  0.6132  0.2893
  359MPD2     H 5431   4.094   4.355  11.936 -0.1681 -1.3920  0.6284
  359MPD2    H1 5432   4.149   4.179  12.320 -0.0218 -0.2246 -0.7000
  359MPD2    H2 5433   4.355   4.527  12.236  1.1224 -0.0942  0.5485
  359MPD2    H3 5434   4.307   4.353  12.373 -0.8505  0.5480  0.4706
  359MPD2     N 5435   4.042   4.142  12.085  0.0664 -0.1425 -0.2641
  359MPD2    H5 5436   4.028   4.086  12.168  1.5485 -0.4871 -0.2371
  359MPD2    N1 5437   4.228   4.586  11.993  0.5588 -0.1425 -0.1390
  359MPD2    H7 5438   4.163   4.597  11.917  1.5595 -2.9879 -1.4105
  360TMC3    C1 5439   4.280   0.062  11.916 -0.0951  0.3174  0.4561
  360TMC3    C2 5440   4.383   0.128  11.852 -0.1996  0.2995  0.4054
  360TMC3    C3 5441   4.351   0.258  11.820  0.1788 -0.2023 -0.1292
  360TMC3    C4 5442   4.152   0.093  11.910  0.2199 -0.1545 -0.1276
  360TMC3    C5 5443   4.123   0.222  11.868  0.4037 -0.3874 -0.0292
  360TMC3    C6 5444   4.219   0.310  11.827  0.5175  0.6980 -0.4500
  360TMC3     C 5445   4.311   4.687  12.012  0.6436  0.4705 -0.1118
  360TMC3     O 5446   4.403   4.705  12.088  0.2871 -0.5726  0.4400
  360TMC3     H 5447   4.485   0.111  11.886 -0.3750 -1.4053  0.0325
  360TMC3    H1 5448   4.077   0.028  11.952 -1.5391  1.3183 -0.9735
  360TMC3    H2 5449   4.196   0.408  11.787  0.9192  0.4291 -1.3416
  360TMC3    C7 5450   3.994   0.248  11.824 -0.7004  0.3005  1.3824
  360TMC3    C8 5451   4.444   0.320  11.729 -0.1760 -0.2336 -0.6637
  360TMC3    O1 5452   3.965   0.364  11.800 -0.5655  0.5636 -0.3856
  360TMC3    O2 5453   4.414   0.441  11.709  0.2499  0.3497  0.0420
  361MPD2     C 5454   1.037   3.784  16.710 -0.2292 -0.3340 -0.2373
  361MPD2    C1 5455   1.036   3.673  16.624  0.6757  0.7806  0.7823
  361MPD2    C2 5456   1.150   3.601  16.605 -0.2084  0.7862  0.2705
  361MPD2    C3 5457   1.257   3.615  16.696 -0.2457 -0.6161 -0.2608
  361MPD2    C4 5458   1.248   3.713  16.795 -0.9816  0.2203 -0.2779
  361MPD2    C5 5459   1.144   3.800  16.794 -0.0081  0.7505  0.1187
  361MPD2     H 5460   1.147   3.520  16.533  1.7347 -1.1681  2.4159
  361MPD2    H1 5461   1.320   3.724  16.875  1.9353 -2.4587 -2.5094
  361MPD2    H2 5462   0.958   3.855  16.729  1.7437  1.1696  2.3262
  361MPD2    H3 5463   1.141   3.877  16.870 -2.7262  0.7953 -0.0258
  361MPD2     N 5464   1.371   3.537  16.692  0.3619 -0.2710  0.0846
  361MPD2    H5 5465   1.430   3.536  16.775  0.1686 -0.6134  0.2134
  361MPD2    N1 5466   0.915   3.638  16.547 -0.0642 -0.4621 -0.1532
  361MPD2    H7 5467   0.927   3.584  16.462 -2.5585 -0.1293 -0.6992
  362TMC3    C1 5468   0.693   3.648  16.482 -0.6079 -0.3282 -0.4430
  362TMC3    C2 5469   0.570   3.618  16.523 -0.2593 -0.4808  0.0832
  362TMC3    C3 5470   0.463   3.600  16.435  0.2279 -0.2575  0.0411
  362TMC3    C4 5471   0.717   3.667  16.348 -0.6423  0.6286  0.2021
  362TMC3    C5 5472   0.613   3.645  16.266 -0.5690  0.1362 -0.8863
  362TMC3    C6 5473   0.485   3.599  16.298 -0.6810 -0.1398 -0.0860
  362TMC3     C 5474   0.794   3.680  16.581 -0.9046 -0.6622 -0.3746
  362TMC3     O 5475   0.758   3.761  16.671 -0.4981 -0.1727  0.2518
  362TMC3     H 5476   0.562   3.576  16.623  0.5698 -2.6570 -0.7734
  362TMC3    H1 5477   0.813   3.711  16.323  0.7586 -3.0376 -0.9284
  362TMC3    H2 5478   0.392   3.603  16.242 -0.3165  1.2699 -0.5899
  362TMC3    C7 5479   0.612   3.727  16.145  0.2699  0.4228 -0.7940
  362TMC3    C8 5480   0.328   3.589  16.496 -0.1759 -0.0718  0.0123
  362TMC3    O1 5481   0.694   3.818  16.152  0.5583  0.4688 -0.1659
  362TMC3    O2 5482   0.238   3.539  16.431  0.2320 -0.0135  0.0030
  363TMC3    C1 5483   3.605   0.973   8.663  1.0514  0.3789 -0.0165
  363TMC3    C2 5484   3.717   0.991   8.737  0.5044 -0.7543 -0.6630
  363TMC3    C3 5485   3.735   1.122   8.790 -0.5272 -0.5768  0.6523
  363TMC3    C4 5486   3.525   1.070   8.625  0.4977 -0.0608 -0.1323
  363TMC3    C5 5487   3.546   1.199   8.680  0.1451  0.3504 -0.5350
  363TMC3    C6 5488   3.651   1.230   8.765 -0.6516 -0.1184 -0.7404
  363TMC3     C 5489   3.598   0.840   8.599  0.4596 -0.2254 -0.6998
  363TMC3     O 5490   3.686   0.759   8.625  0.1785 -0.4734 -0.4524
  363TMC3     H 5491   3.771   0.909   8.782  0.4515 -0.7166 -0.5298
  363TMC3    H1 5492   3.436   1.067   8.562  1.2282 -0.5933 -1.1376
  363TMC3    H2 5493   3.678   1.329   8.801  1.8005 -0.7676 -0.7724
  363TMC3    C7 5494   3.427   1.282   8.681 -0.8632  0.5070 -0.4233
  363TMC3    C8 5495   3.831   1.134   8.899  0.6894  0.1926  0.5832
  363TMC3    O1 5496   3.326   1.239   8.625 -0.5321 -0.0404  0.2438
  363TMC3    O2 5497   3.824   1.237   8.965  0.2175 -0.7157  0.2791
  364MPD2     C 5498   2.663   0.671  10.166  0.6319 -0.0606 -0.3098
  364MPD2    C1 5499   2.768   0.718  10.243  0.3212 -0.7372  0.9946
  364MPD2    C2 5500   2.804   0.653  10.365  0.1300  0.0493  0.2968
  364MPD2    C3 5501   2.755   0.522  10.387 -0.4378  0.3240  0.1395
  364MPD2    C4 5502   2.656   0.476  10.303  0.2485  0.3487 -0.5687
  364MPD2    C5 5503   2.600   0.558  10.210 -0.0130 -0.2552 -0.0865
  364MPD2     H 5504   2.887   0.697  10.418 -1.6271  1.9836  1.4196
  364MPD2    H1 5505   2.607   0.382  10.328 -2.5202  2.3390  1.4375
  364MPD2    H2 5506   2.611   0.726  10.089  1.9763  1.8638  0.1663
  364MPD2    H3 5507   2.517   0.527  10.147 -0.8271 -1.5380  1.6258
  364MPD2     N 5508   2.795   0.442  10.499  0.4423 -0.1316 -0.3844
  364MPD2    H5 5509   2.739   0.360  10.517  0.6577  0.0978  1.3114
  364MPD2    N1 5510   2.830   0.839  10.211  0.0342  0.5898 -0.1593
  364MPD2    H7 5511   2.893   0.882  10.278 -1.5841 -0.7080  2.1621
  365TMC3    C1 5512   2.930   1.001  10.089 -0.2092 -0.8569  0.3762
  365TMC3    C2 5513   3.028   1.016   9.990 -0.5249  0.7824  0.4937
  365TMC3    C3 5514   3.080   1.141   9.974  0.5861  0.5225  0.3611
  365TMC3    C4 5515   2.881   1.106  10.160 -0.2215  0.3186 -0.9338
  365TMC3    C5 5516   2.940   1.231  10.142 -0.4170 -0.2157  0.1885
  365TMC3    C6 5517   3.037   1.255  10.048  0.6627  0.0617 -0.7935
  365TMC3     C 5518   2.854   0.874  10.083  0.8520 -0.5350  0.0606
  365TMC3     O 5519   2.849   0.805   9.982  0.1569  0.2435 -0.4592
  365TMC3     H 5520   3.053   0.931   9.927  0.6547  0.0803  1.9227
  365TMC3    H1 5521   2.791   1.087  10.218 -1.0692  2.9054 -1.4072
  365TMC3    H2 5522   3.093   1.348  10.042  1.2400 -0.2971 -1.0190
  365TMC3    C7 5523   2.898   1.343  10.223  0.9558  0.3642 -0.0664
  365TMC3    C8 5524   3.195   1.163   9.884 -0.0429 -0.2565 -0.1876
  365TMC3    O1 5525   2.918   1.451  10.172 -0.0891 -0.2240  0.3845
  365TMC3    O2 5526   3.255   1.266   9.894  0.3180  0.7139  0.3442
  366MPD2     C 5527   1.024   2.135  14.827 -0.5576 -0.6109  0.9951
  366MPD2    C1 5528   1.138   2.130  14.902 -0.7899 -0.3901  0.2449
  366MPD2    C2 5529   1.184   2.001  14.945 -0.1193  0.0715 -0.0140
  366MPD2    C3 5530   1.123   1.882  14.906  0.1192  0.0198 -0.4123
  366MPD2    C4 5531   1.015   1.893  14.820 -0.4260 -0.5301 -0.0004
  366MPD2    C5 5532   0.967   2.017  14.789 -0.3960 -0.3326 -0.0624
  366MPD2     H 5533   1.274   2.010  15.004 -1.3150 -3.6049  2.3953
  366MPD2    H1 5534   0.969   1.799  14.791 -1.2717  0.1991 -1.0065
  366MPD2    H2 5535   0.988   2.224  14.777 -0.6575 -1.4058 -0.3744
  366MPD2    H3 5536   0.875   2.019  14.732 -1.5197 -0.2921  1.7625
  366MPD2     N 5537   1.188   1.758  14.942 -0.0900 -0.2747 -0.3381
  366MPD2    H5 5538   1.275   1.756  14.994  0.1514  0.9041 -0.6989
  366MPD2    N1 5539   1.212   2.248  14.936 -0.2108 -0.0652  0.2941
  366MPD2    H7 5540   1.178   2.331  14.888  0.0359  0.5670  1.2186
  367TMC3    C1 5541   1.362   2.406  15.033 -0.9423 -0.2448  0.3241
  367TMC3    C2 5542   1.393   2.462  15.160  0.0016 -0.6597  0.5061
  367TMC3    C3 5543   1.459   2.583  15.169 -0.1674  0.9643 -0.5979
  367TMC3    C4 5544   1.420   2.453  14.925 -0.2405  1.1384  0.2890
  367TMC3    C5 5545   1.483   2.576  14.939 -0.5698  0.4360 -0.4456
  367TMC3    C6 5546   1.509   2.641  15.053  1.0533  0.0433 -0.1263
  367TMC3     C 5547   1.314   2.265  15.032  1.0349  0.3783  0.3134
  367TMC3     O 5548   1.354   2.193  15.119 -0.0934 -0.4680 -0.3635
  367TMC3     H 5549   1.356   2.415  15.251 -4.4766  0.3000 -0.8544
  367TMC3    H1 5550   1.400   2.398  14.834 -0.1610  1.0824  0.3058
  367TMC3    H2 5551   1.562   2.736  15.057  0.7805  0.1697  0.4957
  367TMC3    C7 5552   1.438   2.659  14.828 -0.1620 -0.2755  0.4202
  367TMC3    C8 5553   1.521   2.605  15.298 -0.0762  0.6612 -0.9270
  367TMC3    O1 5554   1.365   2.754  14.845  0.3545 -0.2107  0.5156
  367TMC3    O2 5555   1.485   2.533  15.389  0.4852 -0.0416  0.6067
  368MPD2     C 5556   2.737   3.531  13.211 -0.2136 -0.2282 -0.2959
  368MPD2    C1 5557   2.717   3.628  13.111  0.5286 -0.1646 -0.2468
  368MPD2    C2 5558   2.802   3.630  13.003 -0.0059  0.6869  0.1704
  368MPD2    C3 5559   2.905   3.536  12.999  0.3941  0.3913  0.2348
  368MPD2    C4 5560   2.936   3.454  13.101 -0.1662 -0.2648 -0.3436
  368MPD2    C5 5561   2.849   3.446  13.205 -0.7894 -0.5592 -0.0098
  368MPD2     H 5562   2.785   3.697  12.920  1.6886  1.2208  0.2549
  368MPD2    H1 5563   3.019   3.384  13.094  0.7621  0.6612  1.3092
  368MPD2    H2 5564   2.669   3.517  13.294  0.3657 -1.0102  0.0474
  368MPD2    H3 5565   2.863   3.380  13.289  2.1779 -0.0098 -0.0655
  368MPD2     N 5566   3.004   3.533  12.892 -0.0626  0.4659 -0.2018
  368MPD2    H5 5567   3.083   3.470  12.898 -0.7887 -0.4068  0.1852
  368MPD2    N1 5568   2.602   3.720  13.116  0.6775  0.4297  0.2111
  368MPD2    H7 5569   2.534   3.706  13.190  0.2812 -2.8552 -0.7375
  369TMC3    C1 5570   2.448   3.884  13.040 -0.1120 -0.1198 -0.4830
  369TMC3    C2 5571   2.442   3.994  12.954  0.8111  0.3505  0.1601
  369TMC3    C3 5572   2.341   4.003  12.865  0.1944  0.0567  0.1656
  369TMC3    C4 5573   2.341   3.796  13.042 -0.0353 -0.1492 -0.0107
  369TMC3    C5 5574   2.240   3.810  12.952  0.6330 -0.4940  0.3208
  369TMC3    C6 5575   2.244   3.912  12.862 -0.4565 -0.0453 -0.5306
  369TMC3     C 5576   2.581   3.831  13.035  0.2734 -0.2961  0.1660
  369TMC3     O 5577   2.655   3.889  12.953  0.5397  0.4354 -0.2102
  369TMC3     H 5578   2.519   4.071  12.948  2.1960 -1.0854 -0.5321
  369TMC3    H1 5579   2.334   3.711  13.109 -1.5645  1.2773  1.6592
  369TMC3    H2 5580   2.176   3.930  12.779 -0.7099 -1.3347 -0.6026
  369TMC3    C7 5581   2.118   3.743  12.980  1.0940 -0.2465 -0.2659
  369TMC3    C8 5582   2.385   4.039  12.726 -0.8259  0.4002  0.5019
  369TMC3    O1 5583   2.120   3.671  13.080  0.1792 -0.3276  0.5459
  369TMC3    O2 5584   2.300   4.086  12.649  0.2909 -0.3867 -0.0255
  370TMC3    C1 5585   2.176   4.576  15.770  0.1070 -0.5037  0.4532
  370TMC3    C2 5586   2.095   4.510  15.858  0.3620 -1.0097  1.0471
  370TMC3    C3 5587   2.065   4.378  15.843 -0.1733 -0.5957  1.3214
  370TMC3    C4 5588   2.223   4.512  15.655  0.2871  0.2843 -0.4499
  370TMC3    C5 5589   2.196   4.376  15.648  0.1502  0.0473  0.2667
  370TMC3    C6 5590   2.120   4.310  15.737  0.2707  0.7031  0.3055
  370TMC3     C 5591   2.250   4.692  15.823 -0.0312 -0.0797  0.2105
  370TMC3     O 5592   2.233   4.708  15.941  0.5121  0.1644  0.1315
  370TMC3     H 5593   2.065   4.566  15.946 -2.1039 -2.4828  1.1478
  370TMC3    H1 5594   2.291   4.553  15.582  0.0632 -0.0014 -0.8179
  370TMC3    H2 5595   2.080   4.210  15.727  0.2794  1.0628 -3.2201
  370TMC3    C7 5596   2.278   4.300  15.548  0.0285 -0.1429 -0.3182
  370TMC3    C8 5597   2.050   4.296  15.962  0.0426 -0.2636  0.2221
  370TMC3    O1 5598   2.335   4.366  15.459  0.0327 -0.7267  0.0435
  370TMC3    O2 5599   2.085   4.178  15.953  0.5487 -0.3394  0.3770
  371TMC3    C1 5600   3.561   2.765  15.037 -0.4030 -0.5857  0.7182
  371TMC3    C2 5601   3.426   2.762  15.068 -0.2712 -0.0118 -0.6064
  371TMC3    C3 5602   3.363   2.884  15.094  0.2880 -0.1555 -0.7001
  371TMC3    C4 5603   3.633   2.880  15.040 -0.6197  0.0804 -0.1230
  371TMC3    C5 5604   3.562   2.994  15.069 -0.3623  0.6261 -0.9320
  371TMC3    C6 5605   3.433   3.000  15.095 -0.1770 -0.6848 -0.5514
  371TMC3     C 5606   3.630   2.643  15.007 -0.0532  0.1329 -0.1483
  371TMC3     O 5607   3.739   2.649  14.945 -0.6972 -0.2702  0.0999
  371TMC3     H 5608   3.359   2.680  15.047  0.2976 -0.5783 -0.2158
  371TMC3    H1 5609   3.741   2.871  15.031 -0.6758  0.2432 -0.9256
  371TMC3    H2 5610   3.385   3.089  15.135  0.2700 -0.6445 -0.0936
  371TMC3    C7 5611   3.623   3.116  15.036  1.0958 -0.1188  0.7900
  371TMC3    C8 5612   3.237   2.875  15.168  0.1145  0.1360  0.2469
  371TMC3    O1 5613   3.561   3.214  15.082  0.1141  0.0774  0.3846
  371TMC3    O2 5614   3.207   2.763  15.207  0.8508 -0.0224 -0.1147
  372MPD2     C 5615   3.210   4.007  12.808 -1.0917  0.4697 -0.0867
  372MPD2    C1 5616   3.326   3.938  12.843 -0.4582 -0.3401 -0.0038
  372MPD2    C2 5617   3.322   3.854  12.959  0.0480 -0.0241  0.0692
  372MPD2    C3 5618   3.205   3.843  13.039  0.7679 -0.1492 -0.1906
  372MPD2    C4 5619   3.093   3.918  12.999  0.2851  1.1499 -0.2107
  372MPD2    C5 5620   3.101   3.997  12.888  0.6458 -0.0800 -0.2879
  372MPD2     H 5621   3.416   3.806  12.987  0.8395  1.4520 -0.0407
  372MPD2    H1 5622   2.995   3.908  13.043  1.5711 -1.1192  2.0928
  372MPD2    H2 5623   3.202   4.051  12.710 -1.7449  0.5700  0.0089
  372MPD2    H3 5624   3.015   4.051  12.851  0.7536  0.0151 -0.3998
  372MPD2     N 5625   3.207   3.741  13.140  0.0447  0.5766 -0.0569
  372MPD2    H5 5626   3.288   3.680  13.149 -1.9368 -2.0953 -0.4157
  372MPD2    N1 5627   3.456   3.964  12.784 -0.0859 -0.8312  0.5890
  372MPD2    H7 5628   3.536   3.920  12.828  0.0076  0.2833  1.5332
  373TMC3    C1 5629   3.118   3.610  13.317 -0.0182 -0.5216  0.3306
  373TMC3    C2 5630   3.034   3.610  13.426  0.3429  1.2253 -0.3046
  373TMC3    C3 5631   3.032   3.502  13.510  0.3883  0.6624 -0.1570
  373TMC3    C4 5632   3.208   3.509  13.294 -0.4304  0.2936 -0.8066
  373TMC3    C5 5633   3.196   3.397  13.374  0.7582 -0.3881 -0.4699
  373TMC3    C6 5634   3.107   3.387  13.480 -0.6382 -0.1272  0.3185
  373TMC3     C 5635   3.101   3.720  13.229  0.2055  0.8048  0.3228
  373TMC3     O 5636   3.004   3.793  13.257  0.0062 -0.0742 -0.4239
  373TMC3     H 5637   2.970   3.694  13.452 -0.6069 -0.3821  2.5051
  373TMC3    H1 5638   3.277   3.511  13.210 -0.6662  2.9164 -0.9411
  373TMC3    H2 5639   3.088   3.290  13.525  0.7226 -0.1369  0.8577
  373TMC3    C7 5640   3.288   3.286  13.349  0.1800  0.1174  0.1694
  373TMC3    C8 5641   2.938   3.493  13.617  0.4082 -0.1182 -0.2147
  373TMC3    O1 5642   3.333   3.264  13.239 -0.3848 -0.6338 -0.0612
  373TMC3    O2 5643   2.830   3.544  13.591  0.9224 -0.0732 -0.5090
  374TMC3    C1 5644   3.527   3.293   9.190 -1.0583 -0.0704  0.4088
  374TMC3    C2 5645   3.518   3.428   9.226  0.0215 -0.3230 -0.1768
  374TMC3    C3 5646   3.556   3.529   9.138  0.0479 -0.0180 -0.0871
  374TMC3    C4 5647   3.575   3.259   9.060  0.3128  0.8069 -0.4122
  374TMC3    C5 5648   3.621   3.365   8.979  0.7171  0.4384 -0.1755
  374TMC3    C6 5649   3.615   3.502   9.020  0.4203 -0.2452 -0.1125
  374TMC3     C 5650   3.505   3.180   9.285  0.4675 -0.5552 -0.3348
  374TMC3     O 5651   3.476   3.070   9.241 -0.9191  0.0531 -0.1748
  374TMC3     H 5652   3.462   3.451   9.316 -0.7511  2.9903 -1.4983
  374TMC3    H1 5653   3.576   3.154   9.034 -0.9307  1.2876 -2.4138
  374TMC3    H2 5654   3.643   3.580   8.950 -1.8926 -0.4541 -1.2949
  374TMC3    C7 5655   3.675   3.327   8.850  0.0111  0.6266  0.0689
  374TMC3    C8 5656   3.559   3.666   9.183  0.2856 -0.2062 -0.2329
  374TMC3    O1 5657   3.631   3.220   8.804  0.3172 -0.3379 -0.9523
  374TMC3    O2 5658   3.558   3.744   9.088 -0.3190 -0.2826 -0.2693
  375MPD2     C 5659   3.531   0.404  16.637  0.1668  0.5923 -0.2596
  375MPD2    C1 5660   3.438   0.309  16.621 -0.4331  1.1367  0.7896
  375MPD2    C2 5661   3.478   0.183  16.592  0.2080  0.6089 -0.2749
  375MPD2    C3 5662   3.615   0.156  16.574  0.6003  0.4359 -0.7255
  375MPD2    C4 5663   3.708   0.253  16.601 -0.4939  0.0848  0.0179
  375MPD2    C5 5664   3.667   0.381  16.621  0.0617  1.2129  0.2438
  375MPD2     H 5665   3.404   0.107  16.570  0.0568  0.0903  2.0641
  375MPD2    H1 5666   3.815   0.237  16.598 -0.3039  1.5132 -1.0190
  375MPD2    H2 5667   3.497   0.504  16.661 -0.7941  0.0697  0.5986
  375MPD2    H3 5668   3.738   0.462  16.637  2.0387 -0.5217  0.3238
  375MPD2     N 5669   3.667   0.032  16.528 -0.9524 -0.8274  0.0746
  375MPD2    H5 5670   3.764   0.029  16.497 -0.6539 -1.5394  1.0323
  375MPD2    N1 5671   3.296   0.331  16.618 -0.6080 -0.3147  0.2293
  375MPD2    H7 5672   3.232   0.255  16.602 -1.3708  0.2536  0.5999
  376TMC3    C1 5673   3.658   4.558  16.420 -0.4997  0.3542  0.2726
  376TMC3    C2 5674   3.793   4.540  16.433 -0.3927  0.4429 -0.2372
  376TMC3    C3 5675   3.843   4.426  16.375  0.2330 -0.7478  0.1985
  376TMC3    C4 5676   3.580   4.471  16.340 -0.2105 -0.0039 -0.1036
  376TMC3    C5 5677   3.644   4.364  16.290 -0.7112  0.3005  0.1076
  376TMC3    C6 5678   3.776   4.343  16.291  0.0420  0.2942 -0.0587
  376TMC3     C 5679   3.589   4.664  16.491 -0.5013 -0.0707  0.3858
  376TMC3     O 5680   3.465   4.650  16.490 -0.3829 -0.7397  0.3618
  376TMC3     H 5681   3.854   4.609  16.491  0.4249  0.4639 -1.1123
  376TMC3    H1 5682   3.473   4.487  16.334 -0.5975 -2.5806  0.1759
  376TMC3    H2 5683   3.816   4.264  16.229 -1.7063 -1.3866  0.9501
  376TMC3    C7 5684   3.583   4.298  16.183 -0.0629  0.0404  0.9765
  376TMC3    C8 5685   3.986   4.420  16.338  0.1597 -0.0822 -0.2608
  376TMC3    O1 5686   3.597   4.174  16.188 -0.1849 -0.2328  0.9869
  376TMC3    O2 5687   4.047   4.524  16.317  0.2992 -0.3774  0.7463
  377MPD2     C 5688   1.908   4.262  12.109 -0.2083 -0.0175 -0.3660
  377MPD2    C1 5689   1.787   4.327  12.084 -0.2259  0.0092 -0.3256
  377MPD2    C2 5690   1.678   4.296  12.159 -0.0244 -0.3232 -0.5646
  377MPD2    C3 5691   1.685   4.212  12.266  0.5179  0.4797  0.2063
  377MPD2    C4 5692   1.803   4.143  12.292  0.0015  0.0884  0.2039
  377MPD2    C5 5693   1.912   4.168  12.211 -0.0194  0.4032 -0.3745
  377MPD2     H 5694   1.577   4.328  12.134  0.7076  3.0978  0.8759
  377MPD2    H1 5695   1.798   4.062  12.364 -1.2231 -2.0394 -2.2581
  377MPD2    H2 5696   1.997   4.276  12.048  0.3459 -0.3723  0.3623
  377MPD2    H3 5697   1.995   4.100  12.225 -0.9140 -0.8269 -1.1051
  377MPD2     N 5698   1.568   4.198  12.336 -0.4667 -0.8169 -0.6220
  377MPD2    H5 5699   1.493   4.261  12.307  1.7664  1.9189 -0.4405
  377MPD2    N1 5700   1.798   4.430  11.982 -0.8850  0.1855 -0.3722
  377MPD2    H7 5701   1.894   4.433  11.948 -0.8397  2.2478 -0.1155
  378TMC3    C1 5702   1.686   4.632  11.599  0.2283 -0.0133 -0.1386
  378TMC3    C2 5703   1.656   4.634  11.737  0.4195  0.0818  0.3111
  378TMC3    C3 5704   1.753   4.586  11.820  0.4125  0.5248  0.1107
  378TMC3    C4 5705   1.801   4.575  11.548  0.5059  0.3845 -0.4182
  378TMC3    C5 5706   1.891   4.521  11.638 -0.3610  0.4257 -0.3690
  378TMC3    C6 5707   1.873   4.538  11.771 -0.3742 -0.0520  0.4016
  378TMC3     C 5708   1.565   4.613  11.522 -0.1925  0.3223  0.0563
  378TMC3     O 5709   1.467   4.564  11.576  0.3141 -0.5306  0.1151
  378TMC3     H 5710   1.553   4.640  11.771  0.8749  0.7799  1.5371
  378TMC3    H1 5711   1.818   4.565  11.441  0.3933 -1.0923 -0.2966
  378TMC3    H2 5712   1.950   4.504  11.839  0.0873 -0.6068 -0.3883
  378TMC3    C7 5713   1.921   4.383  11.607 -0.6058 -0.1720  0.9028
  378TMC3    C8 5714   1.701   4.515  11.940  0.0498 -0.4770 -0.1975
  378TMC3    O1 5715   1.897   4.304  11.697  0.2513 -0.2621 -0.2292
  378TMC3    O2 5716   1.582   4.516  11.965  0.6939 -0.3324 -0.3402
  379MPD2     C 5717   2.699   2.588  15.724  0.5300 -0.0628  0.1910
  379MPD2    C1 5718   2.631   2.495  15.801  1.2348  0.9540  0.1147
  379MPD2    C2 5719   2.685   2.449  15.922  0.0573  0.9797 -0.2789
  379MPD2    C3 5720   2.815   2.481  15.951 -0.9656 -0.1490  0.4136
  379MPD2    C4 5721   2.882   2.579  15.875 -0.3453  0.1476  0.5059
  379MPD2    C5 5722   2.821   2.631  15.762  0.5932  0.8972 -0.0742
  379MPD2     H 5723   2.628   2.377  15.979  3.0875 -0.2155  1.2234
  379MPD2    H1 5724   2.982   2.613  15.899 -1.2324  1.6411  2.0732
  379MPD2    H2 5725   2.654   2.637  15.638  1.0397  0.2768  0.1193
  379MPD2    H3 5726   2.865   2.709  15.700  0.2752  0.9104 -0.2865
  379MPD2     N 5727   2.882   2.424  16.065 -0.1655  0.2442  0.0406
  379MPD2    H5 5728   2.979   2.453  16.074 -0.0588  0.1853 -0.9045
  379MPD2    N1 5729   2.500   2.473  15.760 -0.4791 -0.1488 -0.6998
  379MPD2    H7 5730   2.458   2.539  15.696 -2.6652  0.8827  1.8150
  380TMC3    C1 5731   2.315   2.349  15.723  0.3634  0.3276 -0.4990
  380TMC3    C2 5732   2.312   2.280  15.604 -0.0626  0.9661 -0.5536
  380TMC3    C3 5733   2.204   2.298  15.518 -0.6536  0.0838  0.2566
  380TMC3    C4 5734   2.233   2.453  15.745 -0.3297 -0.1139 -0.1318
  380TMC3    C5 5735   2.118   2.468  15.666  0.4960 -0.3594  0.0341
  380TMC3    C6 5736   2.108   2.392  15.548  0.5870 -0.0481 -0.6911
  380TMC3     C 5737   2.440   2.353  15.786 -0.0999 -0.0637  0.0980
  380TMC3     O 5738   2.487   2.248  15.824  0.7194  0.5448 -0.2243
  380TMC3     H 5739   2.398   2.228  15.562  1.5547  1.3060  2.3345
  380TMC3    H1 5740   2.241   2.512  15.836 -3.6504  0.3817 -0.1387
  380TMC3    H2 5741   2.022   2.402  15.482  0.2442  1.9013  0.0236
  380TMC3    C7 5742   2.037   2.590  15.675  0.1861 -0.2594  0.5948
  380TMC3    C8 5743   2.225   2.270  15.375  0.5866  0.8387 -0.1537
  380TMC3    O1 5744   2.100   2.685  15.727  0.1278  0.2559  0.6021
  380TMC3    O2 5745   2.172   2.350  15.297  0.2951  0.1102 -0.0449
  381TMC3    C1 5746   2.097   3.701  15.781  0.4436 -0.4084 -0.8527
  381TMC3    C2 5747   2.158   3.818  15.808 -0.5227  0.6760  0.7759
  381TMC3    C3 5748   2.201   3.857  15.932 -0.1070 -0.3813 -0.4443
  381TMC3    C4 5749   2.067   3.615  15.880 -0.3779 -0.7206  0.3583
  381TMC3    C5 5750   2.097   3.655  16.010 -0.4281 -0.1846 -0.5132
  381TMC3    C6 5751   2.162   3.778  16.035  0.5303  0.3478 -1.1322
  381TMC3     C 5752   2.074   3.670  15.642 -0.1932 -0.7986  0.2160
  381TMC3     O 5753   2.084   3.759  15.559 -0.2776 -0.9107 -0.0403
  381TMC3     H 5754   2.202   3.873  15.725 -2.5993  0.5435 -0.4280
  381TMC3    H1 5755   1.997   3.534  15.864  1.9499 -2.7132  0.2737
  381TMC3    H2 5756   2.184   3.802  16.138  0.5350  0.6501 -1.2017
  381TMC3    C7 5757   2.045   3.567  16.117 -0.1467  0.1114  0.6946
  381TMC3    C8 5758   2.329   3.929  15.937  0.4241 -0.2159 -0.0241
  381TMC3    O1 5759   2.024   3.452  16.084 -0.0325  0.1472 -0.3166
  381TMC3    O2 5760   2.434   3.865  15.932 -0.2248 -0.0821 -0.4013
  382MPD2     C 5761   1.758   1.342  16.609 -0.6231  0.0726 -0.0351
  382MPD2    C1 5762   1.651   1.392  16.680 -0.4579 -0.3709  0.0442
  382MPD2    C2 5763   1.571   1.298  16.735 -0.1639 -0.2308  0.1493
  382MPD2    C3 5764   1.590   1.168  16.736  0.9712 -0.2586  0.4080
  382MPD2    C4 5765   1.700   1.116  16.665  0.0499  0.4813  0.7502
  382MPD2    C5 5766   1.787   1.205  16.607 -0.5476  0.2129 -0.2581
  382MPD2     H 5767   1.488   1.335  16.796 -0.4343 -1.0933  0.3030
  382MPD2    H1 5768   1.707   1.009  16.647 -0.0265  0.8422 -1.4877
  382MPD2    H2 5769   1.829   1.401  16.553 -1.1542  0.2111 -0.5595
  382MPD2    H3 5770   1.874   1.170  16.553  0.6116  1.0753  1.0489
  382MPD2     N 5771   1.495   1.075  16.785  0.1408  0.8760  0.6191
  382MPD2    H5 5772   1.518   0.979  16.763  0.8404  0.9859  0.8618
  382MPD2    N1 5773   1.620   1.526  16.707  0.1150  0.1463 -0.0122
  382MPD2    H7 5774   1.533   1.541  16.757  0.3685 -1.1829  0.8255
  383TMC3    C1 5775   1.292   1.018  16.889 -0.1054  0.2918 -0.1393
  383TMC3    C2 5776   1.275   0.913  16.799 -0.2176  0.2679  0.2101
  383TMC3    C3 5777   1.159   0.832  16.811  0.6142  0.1860  0.4350
  383TMC3    C4 5778   1.195   1.051  16.983  0.2652 -0.2789 -0.1892
  383TMC3    C5 5779   1.084   0.970  16.988  0.1464  0.7013 -0.3795
  383TMC3    C6 5780   1.064   0.860  16.910 -0.1578  0.1419 -0.6909
  383TMC3     C 5781   1.408   1.107  16.883  0.1661  0.3542 -0.2350
  383TMC3     O 5782   1.428   1.200  16.960  0.5712 -0.4322  0.5781
  383TMC3     H 5783   1.358   0.891  16.733  0.1902 -0.1167  0.8468
  383TMC3    H1 5784   1.208   1.131  17.054 -2.9947  0.1120  0.0040
  383TMC3    H2 5785   0.976   0.797  16.912 -0.8841  1.1291 -1.6288
  383TMC3    C7 5786   0.970   1.026  17.045 -0.8384 -0.1547  0.2142
  383TMC3    C8 5787   1.157   0.718  16.724  0.5378  0.6809 -0.5519
  383TMC3    O1 5788   0.861   0.980  17.012  0.4424  0.0513 -0.3610
  383TMC3    O2 5789   1.264   0.671  16.695  0.9196 -0.3243  0.1670
  384MPD2     C 5790   3.272   1.928  11.439 -0.0034  0.2450  0.0937
  384MPD2    C1 5791   3.178   1.908  11.535  0.4167 -0.0833  0.1667
  384MPD2    C2 5792   3.157   1.776  11.567  0.0710 -0.4281 -0.0853
  384MPD2    C3 5793   3.235   1.677  11.513  0.4418 -0.5463  0.3758
  384MPD2    C4 5794   3.335   1.710  11.425  0.3787 -0.2041 -0.5149
  384MPD2    C5 5795   3.351   1.834  11.386 -0.5475 -0.5776 -0.5457
  384MPD2     H 5796   3.088   1.752  11.648 -0.2744  0.2813 -0.1668
  384MPD2    H1 5797   3.404   1.636  11.385 -0.2150 -1.7760  1.3643
  384MPD2    H2 5798   3.295   2.031  11.412  2.0269 -0.2744 -0.1945
  384MPD2    H3 5799   3.438   1.853  11.325  0.4440 -1.6367  0.5279
  384MPD2     N 5800   3.231   1.543  11.557  0.0490 -0.4413 -0.6043
  384MPD2    H5 5801   3.284   1.473  11.506 -0.3759 -0.8228 -0.5260
  384MPD2    N1 5802   3.128   2.014  11.617  0.6340 -0.2089  0.0002
  384MPD2    H7 5803   3.179   2.101  11.604 -2.0465  1.1886 -1.0533
  385TMC3    C1 5804   3.157   1.349  11.671  0.5532  0.1991  0.6938
  385TMC3    C2 5805   3.039   1.282  11.679 -0.5648  0.4434 -0.2467
  385TMC3    C3 5806   3.024   1.181  11.769  0.0209  0.4553  0.0944
  385TMC3    C4 5807   3.265   1.311  11.748 -1.0651 -0.1828 -0.4654
  385TMC3    C5 5808   3.241   1.223  11.847 -0.3315  0.2142  0.7999
  385TMC3    C6 5809   3.122   1.159  11.861  0.8832  0.2957  0.5280
  385TMC3     C 5810   3.137   1.486  11.648 -0.0840 -0.3451  0.2996
  385TMC3     O 5811   3.056   1.540  11.720  0.2395 -0.4683 -0.0894
  385TMC3     H 5812   2.959   1.313  11.612  0.6270  1.8895 -1.0010
  385TMC3    H1 5813   3.353   1.375  11.754  0.3775 -2.2373  0.2657
  385TMC3    H2 5814   3.103   1.087  11.940 -0.7988  1.2968  1.0281
  385TMC3    C7 5815   3.299   1.273  11.966  0.7168  0.0002  0.1889
  385TMC3    C8 5816   2.904   1.109  11.788  0.3204 -0.0390 -0.4210
  385TMC3    O1 5817   3.360   1.194  12.041 -0.4201 -0.1425  0.4768
  385TMC3    O2 5818   2.899   1.019  11.873  0.2755  0.2262  0.0863
  386TMC3    C1 5819   3.072   3.735  11.126  0.1293  0.2559 -1.0599
  386TMC3    C2 5820   3.066   3.803  11.004  0.0065 -0.8221  0.2230
  386TMC3    C3 5821   2.969   3.891  10.985 -0.1179  0.0834  0.1770
  386TMC3    C4 5822   2.982   3.750  11.230 -0.7221  0.7136  0.0268
  386TMC3    C5 5823   2.893   3.850  11.207 -0.3602  0.0215 -0.4252
  386TMC3    C6 5824   2.873   3.917  11.086 -0.3596  1.3071  0.1968
  386TMC3     C 5825   3.170   3.632  11.127  0.9518  0.0278 -0.0528
  386TMC3     O 5826   3.206   3.595  11.018 -0.2162 -0.5487 -0.0269
  386TMC3     H 5827   3.143   3.782  10.931  0.4491 -0.8709  0.7031
  386TMC3    H1 5828   2.988   3.696  11.324  1.6883 -0.4101 -0.7806
  386TMC3    H2 5829   2.792   3.988  11.075 -0.1569  1.3654 -0.9131
  386TMC3    C7 5830   2.786   3.865  11.307  1.2308  0.4080 -0.4097
  386TMC3    C8 5831   2.942   3.957  10.861 -0.0346 -0.5718  0.1241
  386TMC3    O1 5832   2.802   3.820  11.422  0.1738 -0.0789 -0.5956
  386TMC3    O2 5833   2.858   4.043  10.874 -0.4948  0.0884 -0.2551
  387MPD2     C 5834   0.316   4.542  10.042  0.0800 -0.6582  0.1946
  387MPD2    C1 5835   0.386   4.484  10.146  0.5292  0.3544  0.0486
  387MPD2    C2 5836   0.387   4.343  10.150  0.4094  0.2028 -0.2170
  387MPD2    C3 5837   0.322   4.260  10.058  0.0068 -0.1904 -0.3234
  387MPD2    C4 5838   0.247   4.324   9.960 -0.5394  0.4042 -0.5018
  387MPD2    C5 5839   0.248   4.459   9.950 -0.4643  0.1262 -1.3061
  387MPD2     H 5840   0.439   4.299  10.234  2.1611 -1.0673 -1.9632
  387MPD2    H1 5841   0.193   4.273   9.881  3.2164  0.8840 -3.4214
  387MPD2    H2 5842   0.305   4.648  10.022  1.2721 -0.6173 -0.1887
  387MPD2    H3 5843   0.189   4.502   9.870  1.1570  1.2714 -1.9055
  387MPD2     N 5844   0.353   4.121  10.060 -0.0351  0.0457 -0.4684
  387MPD2    H5 5845   0.406   4.092  10.141  0.8487 -1.1895 -1.4765
  387MPD2    N1 5846   0.474   4.547  10.232 -0.0059 -0.2689  0.2652
  387MPD2    H7 5847   0.516   4.488  10.303 -1.6214 -1.4208  0.2699
  388TMC3    C1 5848   0.650   4.703  10.294  0.1720  0.0170  0.7254
  388TMC3    C2 5849   0.702   0.094  10.297  0.4303 -0.0932  0.0295
  388TMC3    C3 5850   0.839   0.103  10.294 -0.4060  0.2254 -0.1127
  388TMC3    C4 5851   0.729   4.598  10.299 -0.1951 -0.1095  0.5097
  388TMC3    C5 5852   0.862   4.612  10.308 -0.4767  0.1555  0.4551
  388TMC3    C6 5853   0.922   4.734  10.288 -0.2352 -0.4083 -0.5506
  388TMC3     C 5854   0.513   4.682  10.236 -0.3484  0.2519 -0.5155
  388TMC3     O 5855   0.456   0.045  10.187  0.0303 -0.3277  0.3022
  388TMC3     H 5856   0.640   0.181  10.283  1.7397  0.6726 -0.9329
  388TMC3    H1 5857   0.699   4.497  10.271 -1.7368  0.5634 -0.2985
  388TMC3    H2 5858   1.029   0.013  10.284 -0.1392 -0.4509  1.9101
  388TMC3    C7 5859   0.954   4.499  10.271  0.1089 -0.1963  0.8666
  388TMC3    C8 5860   0.897   0.227  10.246 -0.2143 -0.7411  0.3557
  388TMC3    O1 5861   1.056   4.533  10.214 -0.1272 -0.1391 -0.5077
  388TMC3    O2 5862   0.829   0.326  10.269 -0.3477  0.1705 -0.2596
  389MPD2     C 5863   0.221   2.272  10.832 -0.7031 -0.3259 -0.0472
  389MPD2    C1 5864   0.104   2.202  10.794  0.0670 -0.0858  0.3802
  389MPD2    C2 5865   0.036   2.133  10.892  0.0640  0.0850 -0.3124
  389MPD2    C3 5866   0.094   2.112  11.014  0.2542 -0.0967 -0.1584
  389MPD2    C4 5867   0.206   2.189  11.048 -0.2376 -0.1984  0.3455
  389MPD2    C5 5868   0.276   2.257  10.955 -0.6472  0.1933  0.3136
  389MPD2     H 5869   4.679   2.081  10.863  0.5413 -1.0468  0.2053
  389MPD2    H1 5870   0.241   2.200  11.150  0.5769  1.8937 -0.1694
  389MPD2    H2 5871   0.279   2.330  10.762 -0.7027 -1.1951 -0.7651
  389MPD2    H3 5872   0.372   2.303  10.973  0.3713 -0.4961 -3.2378
  389MPD2     N 5873   0.031   2.040  11.120 -0.2214  0.8376 -0.2140
  389MPD2    H5 5874   0.058   2.056  11.216  0.1658  1.2013 -0.3853
  389MPD2    N1 5875   0.066   2.215  10.660  0.3571 -0.1729 -0.1159
  389MPD2    H7 5876   0.131   2.266  10.601  0.7872 -1.1628 -0.5040
  390TMC3    C1 5877   4.597   1.913  11.236  0.7085 -0.5572  0.1445
  390TMC3    C2 5878   4.524   1.797  11.224 -0.2236 -0.0288  0.1543
  390TMC3    C3 5879   4.454   1.765  11.342 -0.2928 -0.6107  0.3632
  390TMC3    C4 5880   4.594   2.007  11.333 -0.7889 -0.4258 -0.5088
  390TMC3    C5 5881   4.524   1.970  11.442 -0.3138  1.0574  0.0504
  390TMC3    C6 5882   4.454   1.853  11.451 -0.5565  0.5090  0.0480
  390TMC3     C 5883   4.668   1.943  11.110  0.4202 -0.1544 -0.3831
  390TMC3     O 5884   4.608   1.900  11.013 -0.1223  0.2427  0.1437
  390TMC3     H 5885   4.516   1.740  11.133  2.6551 -0.2996  0.0648
  390TMC3    H1 5886   4.649   2.100  11.328  0.2351 -0.9348  1.5425
  390TMC3    H2 5887   4.404   1.816  11.540 -1.5051 -0.1492 -0.7640
  390TMC3    C7 5888   4.531   2.061  11.557  0.0182  0.6919  0.5752
  390TMC3    C8 5889   4.355   1.650  11.338  0.3002 -0.0415  0.3575
  390TMC3    O1 5890   4.617   2.149  11.564  0.1395 -0.2707 -0.2579
  390TMC3    O2 5891   4.383   1.541  11.291  0.2227 -0.0019 -0.7540
  391MPD2     C 5892   3.682   3.706  10.782 -0.2408  0.2846  0.6024
  391MPD2    C1 5893   3.735   3.830  10.762  0.3620 -0.4255  0.3581
  391MPD2    C2 5894   3.748   3.873  10.630  0.1537  0.5277 -0.7191
  391MPD2    C3 5895   3.711   3.792  10.520 -0.0902 -0.8523  0.7386
  391MPD2    C4 5896   3.659   3.665  10.548  0.2551  0.3227 -0.3607
  391MPD2    C5 5897   3.647   3.625  10.680  0.5458 -0.1886 -0.3172
  391MPD2     H 5898   3.791   3.971  10.615  1.1403  0.0719 -0.8941
  391MPD2    H1 5899   3.631   3.588  10.476  2.3059 -0.8023  0.0216
  391MPD2    H2 5900   3.671   3.665  10.882 -2.6419 -2.9405 -0.9846
  391MPD2    H3 5901   3.610   3.526  10.701  0.6625 -0.4998 -1.6164
  391MPD2     N 5902   3.756   3.835  10.391 -0.0850 -0.2424  0.0896
  391MPD2    H5 5903   3.814   3.917  10.400 -1.6666  0.8655  0.1129
  391MPD2    N1 5904   3.794   3.909  10.863  0.0999  0.0963 -0.5437
  391MPD2    H7 5905   3.851   3.984  10.826  1.0352 -0.1773  0.3326
  392TMC3    C1 5906   3.765   3.851  10.159  0.5312  0.4336 -0.1749
  392TMC3    C2 5907   3.739   3.801  10.033 -0.0290  1.0540  0.2971
  392TMC3    C3 5908   3.781   3.877   9.926 -0.5113  0.3118 -0.5104
  392TMC3    C4 5909   3.827   3.975  10.173 -0.3284 -0.1832  0.2778
  392TMC3    C5 5910   3.849   4.053  10.064 -0.1910  0.5767 -0.4152
  392TMC3    C6 5911   3.841   3.999   9.935 -0.3874 -0.4063 -0.1773
  392TMC3     C 5912   3.727   3.774  10.274 -0.7258 -0.6077 -0.1597
  392TMC3     O 5913   3.675   3.666  10.253  0.0876  0.1542  0.3192
  392TMC3     H 5914   3.684   3.708  10.024 -1.5454  2.1111 -1.3210
  392TMC3    H1 5915   3.817   4.035  10.262  1.4614  2.0164 -1.0133
  392TMC3    H2 5916   3.874   4.054   9.847  1.2855  0.2101  0.8323
  392TMC3    C7 5917   3.924   4.177  10.092  0.5738  0.6616 -0.6099
  392TMC3    C8 5918   3.743   3.836   9.796  0.0604  0.5843 -0.2754
  392TMC3    O1 5919   3.963   4.196  10.205 -0.3380  0.4180 -0.3414
  392TMC3    O2 5920   3.723   3.715   9.790 -0.0479 -0.2268  0.0276
  393TMC3    C1 5921   3.025   1.740  10.732  0.3885  0.0896 -0.4061
  393TMC3    C2 5922   2.941   1.728  10.842  0.0025 -0.8270 -0.0542
  393TMC3    C3 5923   2.913   1.604  10.883 -0.4677 -0.7698 -0.4428
  393TMC3    C4 5924   3.099   1.636  10.682  0.0304 -0.0893  0.1122
  393TMC3    C5 5925   3.073   1.510  10.733  0.1851 -0.9801  0.7957
  393TMC3    C6 5926   2.977   1.496  10.828  0.3747  0.1247 -0.1142
  393TMC3     C 5927   3.001   1.858  10.645  0.0408 -0.9728  0.4468
  393TMC3     O 5928   3.008   1.820  10.528 -0.1120 -0.1259  0.0608
  393TMC3     H 5929   2.898   1.820  10.881  0.6298 -0.8309  0.6500
  393TMC3    H1 5930   3.160   1.660  10.596 -0.3513  0.0962 -0.1072
  393TMC3    H2 5931   2.938   1.399  10.857  0.6142 -0.1017 -0.5486
  393TMC3    C7 5932   3.117   1.401  10.650  0.6919 -0.1649 -0.5932
  393TMC3    C8 5933   2.817   1.580  10.990  0.2383  0.1410  0.1282
  393TMC3    O1 5934   3.052   1.299  10.648  0.5913 -0.0335 -0.2539
  393TMC3    O2 5935   2.806   1.470  11.039  0.1050  0.2038 -0.6327
  394TMC3    C1 5936   4.667   2.203  10.472 -0.5720  0.2503 -0.2719
  394TMC3    C2 5937   4.585   2.126  10.392 -0.0280 -0.5444 -0.4992
  394TMC3    C3 5938   4.541   2.182  10.274 -1.1311  0.6125 -0.2272
  394TMC3    C4 5939   4.721   2.314  10.418 -0.5796 -0.1188  0.0369
  394TMC3    C5 5940   4.695   2.352  10.288  0.1764 -0.4769 -0.0427
  394TMC3    C6 5941   4.588   2.299  10.222 -0.1319  0.0756  0.5635
  394TMC3     C 5942   4.694   2.159  10.606 -0.3451 -0.6672  0.0905
  394TMC3     O 5943   4.613   2.086  10.654  0.4090 -0.2403 -0.3653
  394TMC3     H 5944   4.539   2.037  10.431  0.1298  0.3848  1.8470
  394TMC3    H1 5945   0.061   2.368  10.475 -1.1908 -0.5586  1.2542
  394TMC3    H2 5946   4.565   2.335  10.123  1.5896  0.0484  0.1720
  394TMC3    C7 5947   0.004   2.482  10.244  0.1660 -0.3091 -0.5448
  394TMC3    C8 5948   4.449   2.101  10.193  0.1853  0.3538  0.6252
  394TMC3    O1 5949   4.653   2.569  10.224  0.5251 -0.0514 -0.6650
  394TMC3    O2 5950   4.435   1.981  10.219  0.1078  0.8634  0.1467
  395TMC3    C1 5951   3.927   4.429  14.708 -0.0889  0.2582  0.0637
  395TMC3    C2 5952   3.834   4.450  14.608  0.0117 -0.2147  0.4448
  395TMC3    C3 5953   3.835   4.563  14.531  0.5269 -0.4996 -0.0035
  395TMC3    C4 5954   4.028   4.520  14.730  0.0245 -1.0505 -0.4976
  395TMC3    C5 5955   4.031   4.630  14.644 -0.1204  0.8951  0.9346
  395TMC3    C6 5956   3.939   4.650  14.551  0.0994  0.6245  0.3418
  395TMC3     C 5957   3.940   4.306  14.772  0.2789 -0.2525  0.0368
  395TMC3     O 5958   3.866   4.216  14.729 -0.0805 -0.3572  0.1037
  395TMC3     H 5959   3.756   4.376  14.595 -1.1733  0.7900  1.8854
  395TMC3    H1 5960   4.114   4.498  14.791 -0.7653  1.7616  1.6046
  395TMC3    H2 5961   3.948   4.733  14.481 -1.5716 -0.0422 -0.6707
  395TMC3    C7 5962   4.152   4.712  14.645 -0.0525  0.2535  0.2934
  395TMC3    C8 5963   3.716   4.614  14.471  0.1659  0.2229 -0.1015
  395TMC3    O1 5964   4.241   4.664  14.715  0.2870  0.4667 -0.0490
  395TMC3    O2 5965   3.731   0.000  14.444 -0.6029  0.0109  0.0468
  396MPD2     C 5966   4.183   0.611  16.639  0.6291 -0.2019 -0.4074
  396MPD2    C1 5967   4.308   0.653  16.674 -0.3821 -0.3346 -0.1699
  396MPD2    C2 5968   4.374   0.740  16.590 -0.4526  0.5508 -0.3651
  396MPD2    C3 5969   4.316   0.786  16.472 -0.2112 -0.5286  0.3212
  396MPD2    C4 5970   4.189   0.744  16.435 -0.3571 -0.4875  0.2540
  396MPD2    C5 5971   4.133   0.655  16.521 -0.5183 -0.5037  0.5128
  396MPD2     H 5972   4.479   0.758  16.609 -0.5060 -0.2039  0.6186
  396MPD2    H1 5973   4.142   0.785  16.347 -2.3256 -3.7445 -0.2176
  396MPD2    H2 5974   4.116   0.543  16.691 -1.3184  1.2034 -1.0932
  396MPD2    H3 5975   4.035   0.613  16.500 -1.7563  1.1785  2.9982
  396MPD2     N 5976   4.387   0.874  16.391  0.4421 -0.4403  0.1422
  396MPD2    H5 5977   4.478   0.915  16.410  0.7265 -0.5135 -1.0371
  396MPD2    N1 5978   4.357   0.608  16.794 -0.2578  0.3459  0.5915
  396MPD2    H7 5979   4.293   0.542  16.837  3.2184 -1.5474  2.9007
  397TMC3    C1 5980   4.513   0.547  16.959 -1.0493  0.2148 -0.3500
  397TMC3    C2 5981   4.617   0.488  16.903 -0.5877  0.0154 -0.2618
  397TMC3    C3 5982   4.599   0.366  16.844 -0.2413  0.1005  0.5377
  397TMC3    C4 5983   4.409   0.463  16.994 -0.4467 -0.3410  0.4499
  397TMC3    C5 5984   4.416   0.328  16.967  0.3963 -0.0438  0.6219
  397TMC3    C6 5985   4.504   0.281  16.875 -0.7957 -0.8321 -0.4607
  397TMC3     C 5986   4.477   0.639  16.852 -0.7149 -0.7240 -0.8692
  397TMC3     O 5987   4.557   0.725  16.823 -0.0431 -0.2822  0.2664
  397TMC3     H 5988   4.693   0.556  16.866 -0.0715 -0.0185  0.7402
  397TMC3    H1 5989   4.333   0.507  17.057 -0.7786 -0.7804  0.3562
  397TMC3    H2 5990   4.512   0.179  16.839  1.0443 -0.3786 -1.2887
  397TMC3    C7 5991   4.332   0.248  17.053 -0.9998 -0.1213 -0.6445
  397TMC3    C8 5992   4.615   0.366  16.703  0.2389 -0.1969  0.3890
  397TMC3    O1 5993   4.262   0.305  17.134  0.0846 -0.6343 -0.1652
  397TMC3    O2 5994   4.529   0.306  16.638 -0.0592 -0.5662 -0.0131
  398MPD2     C 5995   2.355   2.210  17.402  0.4550  0.3889 -0.1392
  398MPD2    C1 5996   2.442   2.124  17.466  0.9669 -0.1974  0.4404
  398MPD2    C2 5997   2.550   2.179  17.529  0.0591 -0.1955  0.8547
  398MPD2    C3 5998   2.579   2.310  17.526 -0.1288  0.6554 -0.1564
  398MPD2    C4 5999   2.494   2.396  17.458  0.1594  0.0946 -0.8585
  398MPD2    C5 6000   2.386   2.342  17.398 -0.4390 -0.0765  0.3263
  398MPD2     H 6001   2.611   2.127  17.603  0.1656 -1.4111 -0.0803
  398MPD2    H1 6002   2.504   2.503  17.449 -0.2916  0.2277  0.2920
  398MPD2    H2 6003   2.263   2.179  17.353  0.1255  1.3521 -0.1346
  398MPD2    H3 6004   2.314   2.404  17.345  0.4098  2.0302  1.6016
  398MPD2     N 6005   2.692   2.360  17.599 -0.1582 -0.9801 -0.1128
  398MPD2    H5 6006   2.759   2.290  17.628  1.0285  0.8703  1.6384
  398MPD2    N1 6007   2.415   1.985  17.488 -0.6319 -0.5810  0.0211
  398MPD2    H7 6008   2.484   1.934  17.542 -0.4056 -0.7665 -0.4387
  399TMC3    C1 6009   2.298   1.778  17.498 -0.5021  0.2930  0.3807
  399TMC3    C2 6010   2.398   1.722  17.572  0.7472 -0.2793  0.1830
  399TMC3    C3 6011   2.409   1.585  17.566  0.2423 -0.7086  0.3542
  399TMC3    C4 6012   2.215   1.702  17.420 -0.2030  0.3943 -0.1181
  399TMC3    C5 6013   2.237   1.567  17.411  0.0815 -0.1820 -0.2647
  399TMC3    C6 6014   2.325   1.506  17.493  0.2060  0.6051  0.6454
  399TMC3     C 6015   2.304   1.917  17.447  0.8796 -0.2297  0.7985
  399TMC3     O 6016   2.212   1.961  17.380 -0.3448  0.0120 -0.0654
  399TMC3     H 6017   2.469   1.785  17.623  0.8144 -0.4126  0.2556
  399TMC3    H1 6018   2.151   1.754  17.350 -0.2699 -1.3539 -1.3535
  399TMC3    H2 6019   2.328   1.397  17.497 -1.6370  0.5074 -1.1335
  399TMC3    C7 6020   2.128   1.494  17.363  0.5203  0.2968 -0.3566
  399TMC3    C8 6021   2.515   1.522  17.655 -0.5858  0.3210 -0.7328
  399TMC3    O1 6022   2.084   1.404  17.433 -0.1594 -0.6991 -0.3782
  399TMC3    O2 6023   2.596   1.603  17.697  0.3741 -0.7112 -0.6818
  400TMC3    C1 6024   1.209   0.365  16.294  0.2467  0.4651 -1.0502
  400TMC3    C2 6025   1.095   0.316  16.229 -0.8143  0.4210 -0.5395
  400TMC3    C3 6026   0.993   0.402  16.197  0.3431  0.3367 -0.0776
  400TMC3    C4 6027   1.212   0.502  16.327  0.0275  0.3777  0.4772
  400TMC3    C5 6028   1.115   0.583  16.277  0.4312  0.2881  0.1023
  400TMC3    C6 6029   1.004   0.539  16.201 -0.0363 -0.7610 -0.2527
  400TMC3     C 6030   1.299   0.269  16.358 -0.1384 -0.2639  0.4391
  400TMC3     O 6031   1.263   0.153  16.372  0.6892 -0.4239  0.2690
  400TMC3     H 6032   1.078   0.209  16.224  0.9318  0.0547  1.5065
  400TMC3    H1 6033   1.285   0.546  16.394 -2.2187 -1.4976  4.1095
  400TMC3    H2 6034   0.946   0.615  16.150  2.7049  1.4413 -0.1476
  400TMC3    C7 6035   1.110   0.716  16.325  0.1234  0.3300  0.4068
  400TMC3    C8 6036   0.855   0.361  16.177 -0.6849  0.7018 -0.2867
  400TMC3    O1 6037   1.002   0.777  16.331  0.4386  0.2515 -0.0480
  400TMC3    O2 6038   0.769   0.447  16.173  0.4369  0.8036  0.1922
  401MPD2     C 6039   4.174   3.656   0.475 -0.0315 -0.0927  0.4246
  401MPD2    C1 6040   4.283   3.571   0.509  0.0475  0.2274  1.0497
  401MPD2    C2 6041   4.261   3.432   0.507 -0.6971 -0.1788  0.1507
  401MPD2    C3 6042   4.139   3.377   0.464 -0.0135  0.1224 -0.6657
  401MPD2    C4 6043   4.043   3.462   0.412 -0.7185 -0.2704  0.2846
  401MPD2    C5 6044   4.063   3.603   0.420  0.4710 -0.9420 -0.3911
  401MPD2     H 6045   4.340   3.361   0.528  0.1998  1.4935  2.3347
  401MPD2    H1 6046   3.947   3.431   0.372  0.1873 -2.8557  0.0931
  401MPD2    H2 6047   4.189   3.763   0.482  0.1411 -0.1656  1.2072
  401MPD2    H3 6048   3.969   3.650   0.394  0.9063  0.5532  0.7582
  401MPD2     N 6049   4.118   3.238   0.473 -0.9559  1.0547 -0.0790
  401MPD2    H5 6050   4.191   3.190   0.524 -1.8863 -1.0522 -0.7257
  401MPD2    N1 6051   4.408   3.604   0.544  0.4531 -0.0809  0.0740
  401MPD2    H7 6052   4.470   3.524   0.550 -0.1655 -0.6244 -0.6523
  402TMC3    C1 6053   4.019   3.028   0.440 -0.2024 -0.2656 -0.1065
  402TMC3    C2 6054   4.086   2.967   0.547  0.3081 -0.1774 -0.1412
  402TMC3    C3 6055   4.090   2.829   0.552 -0.4981 -0.1927  0.2221
  402TMC3    C4 6056   3.943   2.949   0.358  0.5563 -0.3965 -0.1607
  402TMC3    C5 6057   3.939   2.812   0.381 -0.4036 -0.0688  0.1816
  402TMC3    C6 6058   4.005   2.748   0.479  0.0152  0.2105  0.2125
  402TMC3     C 6059   4.012   3.174   0.424  0.5260  1.0806 -0.0774
  402TMC3     O 6060   3.924   3.212   0.348  0.4318 -0.4533 -0.6296
  402TMC3     H 6061   4.148   3.032   0.607  0.8535 -0.7452 -0.1026
  402TMC3    H1 6062   3.895   2.997   0.273 -1.7694  1.2345  2.0680
  402TMC3    H2 6063   4.010   2.640   0.476 -2.0494  0.0451  2.5869
  402TMC3    C7 6064   3.869   2.726   0.285  0.6100 -0.5312 -0.0312
  402TMC3    C8 6065   4.178   2.749   0.638 -0.2685 -0.0513  0.0958
  402TMC3    O1 6066   3.817   2.631   0.347  0.2053  0.2487  0.8809
  402TMC3    O2 6067   4.190   2.633   0.606 -0.3497  0.2630 -0.1145
  403MPD2     C 6068   2.860   1.711  12.815 -0.0681  0.0091 -0.8130
  403MPD2    C1 6069   2.806   1.624  12.899  0.1196  0.0726 -0.3738
  403MPD2    C2 6070   2.838   1.632  13.038 -0.0690 -0.0002  0.6239
  403MPD2    C3 6071   2.915   1.738  13.089  0.1595  0.0233 -0.9574
  403MPD2    C4 6072   2.979   1.825  12.998 -0.6346  0.4944 -0.3024
  403MPD2    C5 6073   2.951   1.807  12.865  0.2869 -0.6134 -0.0292
  403MPD2     H 6074   2.793   1.569  13.114 -1.8620  0.7918  0.2079
  403MPD2    H1 6075   3.058   1.895  13.021 -1.5062  0.8876  1.5049
  403MPD2    H2 6076   2.852   1.705  12.707 -1.0323  0.9966 -0.8044
  403MPD2    H3 6077   3.016   1.863  12.799  0.0649  0.7931  0.9501
  403MPD2     N 6078   2.940   1.746  13.226 -0.3756 -0.3996 -0.0133
  403MPD2    H5 6079   2.921   1.663  13.281  1.2971  0.2244  1.5082
  403MPD2    N1 6080   2.710   1.540  12.848 -0.3088 -0.2073 -0.2593
  403MPD2    H7 6081   2.696   1.552  12.749  0.0942 -0.6263 -0.3648
  404TMC3    C1 6082   2.553   1.373  12.828  0.4814  0.0071 -0.0481
  404TMC3    C2 6083   2.508   1.254  12.887  0.3508 -0.1439  0.6082
  404TMC3    C3 6084   2.375   1.213  12.857 -0.4266 -0.4171 -0.4830
  404TMC3    C4 6085   2.475   1.445  12.746  0.0096 -0.1989  0.0038
  404TMC3    C5 6086   2.348   1.403  12.716 -0.1330 -0.0416  0.0925
  404TMC3    C6 6087   2.297   1.285  12.768  0.0003 -0.3309 -0.0982
  404TMC3     C 6088   2.636   1.453  12.918  0.4147 -0.1080 -0.1552
  404TMC3     O 6089   2.645   1.415  13.030 -0.3117  0.6955 -0.0672
  404TMC3     H 6090   2.573   1.199  12.954  2.3607  0.5857 -0.7824
  404TMC3    H1 6091   2.511   1.542  12.713 -1.0080  1.2631  3.2485
  404TMC3    H2 6092   2.195   1.258  12.742 -0.6729 -0.2577  2.4135
  404TMC3    C7 6093   2.276   1.465  12.605 -0.6919 -0.1659 -0.0189
  404TMC3    C8 6094   2.307   1.143  12.962  1.1865 -0.2025 -0.1403
  404TMC3    O1 6095   2.163   1.427  12.577  0.3552  0.3826 -0.4102
  404TMC3    O2 6096   2.191   1.175  12.985 -0.1987 -0.2907  0.5066
  405MPD2     C 6097   2.317   1.743  14.482 -0.0232  0.1965 -0.4249
  405MPD2    C1 6098   2.215   1.730  14.387 -0.2547  0.0872  0.1638
  405MPD2    C2 6099   2.245   1.767  14.257 -0.0719 -0.9015 -0.2254
  405MPD2    C3 6100   2.376   1.792  14.210 -0.2901  0.5449  0.0701
  405MPD2    C4 6101   2.476   1.810  14.303 -0.8781  0.4196 -0.6172
  405MPD2    C5 6102   2.441   1.798  14.437  0.5162  0.3437  0.5911
  405MPD2     H 6103   2.162   1.763  14.186  1.3614 -1.5154 -1.8749
  405MPD2    H1 6104   2.577   1.838  14.277 -0.4686  0.1374  0.6689
  405MPD2    H2 6105   2.291   1.730  14.587 -0.7560  0.3270 -0.5953
  405MPD2    H3 6106   2.520   1.806  14.511  0.0756 -0.6669  1.1756
  405MPD2     N 6107   2.394   1.827  14.076 -0.5999 -0.1278  0.1242
  405MPD2    H5 6108   2.310   1.830  14.020 -1.0475  2.2290  0.9063
  405MPD2    N1 6109   2.080   1.714  14.436 -0.1649 -0.0996  0.1252
  405MPD2    H7 6110   2.081   1.686  14.534 -0.5017  3.8413  1.2249
  406TMC3    C1 6111   2.570   2.127  13.760 -0.1834  0.6639 -0.7492
  406TMC3    C2 6112   2.450   2.200  13.761 -0.1485 -0.1053  0.0438
  406TMC3    C3 6113   2.358   2.163  13.857  0.3818  0.5689 -0.5861
  406TMC3    C4 6114   2.589   2.012  13.839 -0.0335  0.3931 -0.4490
  406TMC3    C5 6115   2.487   1.981  13.928  0.4681  0.0097  0.8612
  406TMC3    C6 6116   2.383   2.064  13.943  0.0427  0.6521 -0.1455
  406TMC3     C 6117   2.666   2.166  13.661  0.0390 -0.3982 -0.0569
  406TMC3     O 6118   2.775   2.104  13.654 -0.2322  0.1944  0.4658
  406TMC3     H 6119   2.433   2.291  13.704 -3.5487 -0.1937  0.9179
  406TMC3    H1 6120   2.679   1.953  13.835 -1.0623 -1.1291 -1.2283
  406TMC3    H2 6121   2.317   2.048  14.028  0.0892 -0.1443 -0.2547
  406TMC3    C7 6122   2.503   1.877  14.023 -0.6803 -0.0591  0.0345
  406TMC3    C8 6123   2.232   2.233  13.868 -0.3138  0.2752  0.2252
  406TMC3    O1 6124   2.620   1.861  14.053  0.0784  0.3512  0.0779
  406TMC3    O2 6125   2.227   2.349  13.830  0.0365  0.6526  0.8243
  407MPD2     C 6126   0.000   4.003   9.454  0.0478 -0.0087  1.0785
  407MPD2    C1 6127   0.072   4.032   9.571  0.8533  0.6572 -0.0077
  407MPD2    C2 6128   0.008   4.102   9.674 -0.1367 -0.3179 -0.3371
  407MPD2    C3 6129   4.610   4.139   9.664  0.3378 -0.3885  0.0098
  407MPD2    C4 6130   4.544   4.111   9.544 -0.1962  0.0135  1.0313
  407MPD2    C5 6131   4.601   4.042   9.440 -0.3037  0.0862 -0.5143
  407MPD2     H 6132   0.064   4.130   9.762 -0.8209 -0.4744  0.1539
  407MPD2    H1 6133   4.446   4.155   9.525  1.1867  2.9116  0.5200
  407MPD2    H2 6134   0.047   3.965   9.363 -0.2845  0.7394  0.5948
  407MPD2    H3 6135   4.558   4.035   9.341 -0.6244 -1.8482 -0.2504
  407MPD2     N 6136   4.550   4.225   9.759 -0.1350 -0.1744 -0.4345
  407MPD2    H5 6137   4.461   4.267   9.738  0.6007  2.6877  2.2514
  407MPD2    N1 6138   0.208   3.998   9.588  0.2786 -0.3785  0.5220
  407MPD2    H7 6139   0.251   4.025   9.676  0.9504 -1.6068  0.5679
  408TMC3    C1 6140   0.410   3.879   9.570  0.3802  0.1570 -0.0589
  408TMC3    C2 6141   0.460   3.750   9.573  0.4323  0.7203 -0.4045
  408TMC3    C3 6142   0.583   3.727   9.624  0.6492 -0.2980 -0.4473
  408TMC3    C4 6143   0.477   3.983   9.625 -0.1530  0.3742  0.6075
  408TMC3    C5 6144   0.600   3.959   9.676 -0.0767 -0.2929 -0.6625
  408TMC3    C6 6145   0.654   3.834   9.672 -0.7033 -0.3446  0.8418
  408TMC3     C 6146   0.277   3.903   9.515  0.4679  0.7461  0.0754
  408TMC3     O 6147   0.233   3.823   9.436 -0.1752 -0.6487 -0.1708
  408TMC3     H 6148   0.395   3.671   9.537 -2.1777  2.8261 -0.3135
  408TMC3    H1 6149   0.429   4.079   9.639  0.6333  0.8471  0.0507
  408TMC3    H2 6150   0.750   3.824   9.722 -0.3714  0.4870  0.3808
  408TMC3    C7 6151   0.693   4.061   9.723 -0.0847  0.2428  0.2308
  408TMC3    C8 6152   0.617   3.592   9.646 -0.1132  0.1920 -0.5318
  408TMC3    O1 6153   0.809   4.030   9.745 -0.3566  0.2602 -0.3849
  408TMC3    O2 6154   0.540   3.511   9.604  0.0458 -0.1545  0.6056
  409MPD2     C 6155   4.606   4.545  16.559  0.0651  0.5344  0.2008
  409MPD2    C1 6156   4.727   4.557  16.618 -0.6371 -0.4561  0.4453
  409MPD2    C2 6157   0.087   4.650  16.575 -0.7220 -0.4365  0.3042
  409MPD2    C3 6158   0.052   0.002  16.472 -0.1133  0.2691  0.1408
  409MPD2    C4 6159   4.657   4.730  16.418 -0.1271 -0.0447 -0.1206
  409MPD2    C5 6160   4.569   4.638  16.464  0.2747 -0.4835  0.0316
  409MPD2     H 6161   0.190   4.657  16.609  0.1458 -1.1180 -2.1952
  409MPD2    H1 6162   4.627   0.054  16.331 -2.2122 -0.5491  0.2616
  409MPD2    H2 6163   4.530   4.474  16.588 -1.3336  2.0427  0.2431
  409MPD2    H3 6164   4.465   4.644  16.432  0.5294  0.5999 -0.5977
  409MPD2     N 6165   0.147   0.089  16.418  0.3551  0.2694 -0.0777
  409MPD2    H5 6166   0.121   0.127  16.328 -0.2973  0.2997  0.1275
  409MPD2    N1 6167   0.038   4.465  16.716 -0.4181  0.7616  0.0225
  409MPD2    H7 6168   0.116   4.497  16.773  0.2200  1.0037 -0.9826
  410TMC3    C1 6169   0.325   0.251  16.411  0.4577  0.6844 -0.1291
  410TMC3    C2 6170   0.430   0.314  16.478  0.8927 -0.3537 -0.2850
  410TMC3    C3 6171   0.491   0.421  16.408 -0.5405  0.0023 -0.0855
  410TMC3    C4 6172   0.289   0.298  16.285  0.7562 -0.1156 -0.7018
  410TMC3    C5 6173   0.350   0.400  16.232  0.6052 -0.0875 -0.1001
  410TMC3    C6 6174   0.456   0.474  16.287  0.1557 -0.0329 -0.4018
  410TMC3     C 6175   0.256   0.144  16.482 -0.1916  0.1956 -0.8731
  410TMC3     O 6176   0.297   0.128  16.596  0.4707  0.4345  0.1983
  410TMC3     H 6177   0.469   0.284  16.575  0.3428 -0.2016 -0.0209
  410TMC3    H1 6178   0.204   0.258  16.231 -0.6393  2.2024 -0.2300
  410TMC3    H2 6179   0.524   0.537  16.232  1.2092  0.1521  1.1179
  410TMC3    C7 6180   0.298   0.451  16.111 -0.1723  0.1838  0.3768
  410TMC3    C8 6181   0.618   0.468  16.457  0.6919  0.6223  0.6694
  410TMC3    O1 6182   0.219   0.380  16.051 -0.1008 -0.5879  0.3357
  410TMC3    O2 6183   0.642   0.585  16.430  0.2316 -0.3286 -0.2438
  411MPD2     C 6184   0.340   0.495  14.211  0.4682 -0.1587  0.3378
  411MPD2    C1 6185   0.207   0.532  14.203  0.0378  0.2709  0.2141
  411MPD2    C2 6186   0.108   0.443  14.186 -0.7957 -0.8798  0.3624
  411MPD2    C3 6187   0.140   0.307  14.189  0.0876 -0.0026  0.5218
  411MPD2    C4 6188   0.270   0.269  14.197  0.0147 -0.0969  0.7764
  411MPD2    C5 6189   0.369   0.359  14.206 -0.6726  0.4376  0.5495
  411MPD2     H 6190   0.012   0.479  14.151 -0.1342 -1.0411 -1.5828
  411MPD2    H1 6191   0.293   0.169  14.233  1.1130 -0.0659  0.1669
  411MPD2    H2 6192   0.425   0.562  14.219 -1.6525  2.1852  3.2933
  411MPD2    H3 6193   0.471   0.329  14.225 -1.1478 -0.1812  2.1822
  411MPD2     N 6194   0.041   0.210  14.213  0.0701 -0.4679 -0.1239
  411MPD2    H5 6195   0.075   0.115  14.221 -0.4681 -0.6192  0.4029
  411MPD2    N1 6196   0.173   0.670  14.200 -0.1984  0.2321 -0.1069
  411MPD2    H7 6197   0.075   0.689  14.185 -0.1584 -1.0036 -1.9378
  412TMC3    C1 6198   4.574   0.104  14.264 -0.2307 -0.1114 -0.4103
  412TMC3    C2 6199   4.434   0.102  14.297  0.5602 -0.5181 -0.6097
  412TMC3    C3 6200   4.372   4.712  14.296  0.0780  0.1290  0.1432
  412TMC3    C4 6201   4.627   4.729  14.202  0.8707 -0.5334 -0.2113
  412TMC3    C5 6202   4.557   4.614  14.188  0.7405 -0.1849  0.3254
  412TMC3    C6 6203   4.443   4.602  14.258  0.2983 -0.3812 -1.1622
  412TMC3     C 6204   4.643   0.230  14.250  0.2928  0.2290  0.2457
  412TMC3     O 6205   4.578   0.337  14.267 -0.0953  0.1847 -0.2249
  412TMC3     H 6206   4.388   0.191  14.341 -0.9626 -1.6438  0.0772
  412TMC3    H1 6207   4.719   0.005  14.147  0.2345  1.6134 -0.8816
  412TMC3    H2 6208   4.401   4.502  14.255  1.2143 -0.7921 -0.1519
  412TMC3    C7 6209   4.519   4.588  14.050 -0.1233  0.3838 -0.4435
  412TMC3    C8 6210   4.227   4.713  14.280  0.2124 -0.0066 -0.5016
  412TMC3    O1 6211   4.430   4.510  14.034  0.3702  0.1529 -0.7320
  412TMC3    O2 6212   4.182   0.085  14.234  0.1064 -0.9035 -0.8597
  413MPD2     C 6213   2.425   2.889  15.278 -0.1839  0.4486  0.8799
  413MPD2    C1 6214   2.378   2.876  15.154 -0.4191 -0.1565 -0.0274
  413MPD2    C2 6215   2.470   2.825  15.060 -0.2546 -0.4794 -0.4277
  413MPD2    C3 6216   2.598   2.783  15.098  0.4301  0.0518 -0.0470
  413MPD2    C4 6217   2.633   2.786  15.232 -0.0317  0.6655 -0.3130
  413MPD2    C5 6218   2.545   2.840  15.320  0.2209  0.3024 -1.0876
  413MPD2     H 6219   2.449   2.805  14.956 -1.1752 -0.0035 -0.3348
  413MPD2    H1 6220   2.727   2.765  15.282 -0.6378  0.1949  0.6268
  413MPD2    H2 6221   2.362   2.920  15.361  0.5889  0.6268  1.3945
  413MPD2    H3 6222   2.561   2.835  15.427 -0.2872  0.2414 -1.0137
  413MPD2     N 6223   2.687   2.737  15.005  0.4197  0.3623  0.2041
  413MPD2    H5 6224   2.646   2.716  14.914 -0.0364  1.3233  0.1920
  413MPD2    N1 6225   2.249   2.928  15.134  0.8777  0.2827  0.2588
  413MPD2    H7 6226   2.208   2.965  15.219 -1.0956 -2.8374  0.6762
  414TMC3    C1 6227   2.886   2.660  14.899 -0.2765  0.2058  0.3610
  414TMC3    C2 6228   2.810   2.580  14.812  0.5853 -0.2697 -0.1799
  414TMC3    C3 6229   2.867   2.520  14.707 -0.9707  0.0618  0.6005
  414TMC3    C4 6230   3.023   2.653  14.891  0.0520 -0.0954 -0.2663
  414TMC3    C5 6231   3.076   2.596  14.784 -0.2150  1.0839  0.0181
  414TMC3    C6 6232   3.004   2.526  14.688 -0.4079  0.3894  0.3219
  414TMC3     C 6233   2.818   2.695  15.019 -0.1279  0.1436 -0.7403
  414TMC3     O 6234   2.880   2.685  15.124  0.3484 -0.3608  0.2423
  414TMC3     H 6235   2.703   2.591  14.824  0.6991  0.3682  0.2861
  414TMC3    H1 6236   3.081   2.702  14.968  1.2805 -1.3270 -0.3912
  414TMC3    H2 6237   3.057   2.453  14.628 -1.5794 -0.5567  0.4413
  414TMC3    C7 6238   3.193   2.668  14.740  0.5121 -0.4681 -0.4099
  414TMC3    C8 6239   2.777   2.426  14.647  0.2733 -0.3733  0.5595
  414TMC3    O1 6240   3.234   2.753  14.820  0.0687 -0.1173 -0.0151
  414TMC3    O2 6241   2.673   2.413  14.709  0.2708  0.6032  0.8130
  415TMC3    C1 6242   2.427   1.180   9.475  0.1831 -0.7149  0.2067
  415TMC3    C2 6243   2.510   1.173   9.364  0.1790 -0.1437 -1.0319
  415TMC3    C3 6244   2.487   1.075   9.267  0.5547 -0.3801  1.4047
  415TMC3    C4 6245   2.317   1.098   9.491 -0.4511  0.4292  0.8535
  415TMC3    C5 6246   2.298   0.997   9.396 -0.0582  0.7411 -0.6553
  415TMC3    C6 6247   2.377   0.993   9.282 -0.0549 -0.1857  0.5847
  415TMC3     C 6248   2.479   1.226   9.606  0.3954 -0.0351 -0.2167
  415TMC3     O 6249   2.433   1.174   9.707 -0.6081  0.3169 -0.2055
  415TMC3     H 6250   2.597   1.237   9.362 -0.2963  0.4932 -1.3201
  415TMC3    H1 6251   2.252   1.114   9.577  1.9916  1.0909  2.5656
  415TMC3    H2 6252   2.362   0.923   9.201  2.6286  0.2844 -0.3238
  415TMC3    C7 6253   2.199   0.892   9.417 -0.8349  0.1338 -0.2455
  415TMC3    C8 6254   2.595   1.036   9.176 -0.1434  0.5789  0.2349
  415TMC3    O1 6255   2.178   0.810   9.330 -0.2435 -0.3460 -0.5869
  415TMC3    O2 6256   2.578   0.934   9.107  0.2026 -0.1263  0.2048
  416MPD2     C 6257   4.178   0.211  11.508 -0.2796  0.4950 -0.3637
  416MPD2    C1 6258   4.062   0.237  11.446  0.2167  0.1420 -0.3216
  416MPD2    C2 6259   4.007   0.145  11.357 -0.1274 -0.2530  0.3663
  416MPD2    C3 6260   4.077   0.025  11.341  0.4157  0.3714  0.6802
  416MPD2    C4 6261   4.185   4.730  11.420  0.0689  0.2085 -0.4597
  416MPD2    C5 6262   4.255   0.093  11.480 -0.3258  0.2533  0.1207
  416MPD2     H 6263   3.911   0.154  11.307 -0.7610  3.4352  2.2600
  416MPD2    H1 6264   4.237   4.636  11.405  1.9189  1.3173 -1.0154
  416MPD2    H2 6265   4.218   0.279  11.582  0.4024  1.2220 -1.3932
  416MPD2    H3 6266   4.352   0.070  11.521  0.4262 -0.2903 -1.9966
  416MPD2     N 6267   4.033   4.662  11.255  0.0631  0.5714  0.0732
  416MPD2    H5 6268   4.073   4.569  11.263  2.0526  1.4117  0.0034
  416MPD2    N1 6269   3.983   0.349  11.490 -0.6637  0.8586  0.3357
  416MPD2    H7 6270   4.009   0.392  11.578  2.1116 -0.0072 -0.0451
  417TMC3    C1 6271   3.801   0.503  11.463 -0.0673 -0.5384 -0.2050
  417TMC3    C2 6272   3.800   0.537  11.598  0.0932 -0.9750  0.9476
  417TMC3    C3 6273   3.691   0.588  11.657 -0.5749 -0.1160  0.6078
  417TMC3    C4 6274   3.699   0.529  11.378  0.6274  0.0259  0.1634
  417TMC3    C5 6275   3.588   0.576  11.446  0.0648 -1.0157  0.7130
  417TMC3    C6 6276   3.578   0.604  11.585 -0.2497  0.2875 -0.3434
  417TMC3     C 6277   3.889   0.402  11.407  0.5627 -0.1768 -0.3309
  417TMC3     O 6278   3.878   0.378  11.286 -0.0218  0.1060  0.1733
  417TMC3     H 6279   3.892   0.543  11.655  0.1072 -0.9302  0.9198
  417TMC3    H1 6280   3.695   0.518  11.270 -0.9222  0.7420  0.1511
  417TMC3    H2 6281   3.484   0.641  11.623 -1.2103 -1.4086 -1.0741
  417TMC3    C7 6282   3.484   0.630  11.356  0.3625 -0.5247  0.6119
  417TMC3    C8 6283   3.681   0.628  11.804 -0.3697  0.2615 -0.9147
  417TMC3    O1 6284   3.522   0.663  11.244  0.1660  0.0239  0.1523
  417TMC3    O2 6285   3.580   0.692  11.837 -0.8646  0.4783 -0.1591
  418TMC3    C1 6286   3.081   2.539   0.012  0.2487 -0.4087 -0.4721
  418TMC3    C2 6287   2.969   2.553  17.662 -0.1821 -0.2286  0.1046
  418TMC3    C3 6288   2.854   2.496  17.686  0.1508  0.3139 -0.4516
  418TMC3    C4 6289   3.055   2.484   0.137 -0.6573 -0.5777  0.0702
  418TMC3    C5 6290   2.932   2.432   0.164 -0.0965  0.6802 -0.3485
  418TMC3    C6 6291   2.837   2.430   0.070  0.2963  1.3767 -0.1875
  418TMC3     C 6292   3.195   2.486  17.680  0.3427  0.0660  0.1904
  418TMC3     O 6293   3.248   2.400   0.012 -0.2978  0.2323  0.4393
  418TMC3     H 6294   2.984   2.596  17.563 -0.0180 -0.8961 -0.1602
  418TMC3    H1 6295   3.139   2.465   0.202  1.0534  0.4169 -1.8476
  418TMC3    H2 6296   2.739   2.392   0.094  0.4798  1.1086  0.1373
  418TMC3    C7 6297   2.909   2.340   0.263  0.4384 -0.3887  0.5310
  418TMC3    C8 6298   2.742   2.488  17.590  0.6757 -0.4482 -0.6579
  418TMC3    O1 6299   2.815   2.259   0.249  0.4408  0.2956 -0.3552
  418TMC3    O2 6300   2.689   2.586  17.545  0.0725 -0.0616  0.0935
  419MPD2     C 6301   1.509   0.198  11.893 -0.1207  0.0128 -0.1594
  419MPD2    C1 6302   1.449   0.320  11.893  0.1082 -0.1036  0.0683
  419MPD2    C2 6303   1.356   0.349  11.986 -0.0310  0.2282  0.0507
  419MPD2    C3 6304   1.312   0.261  12.080  0.0521  0.2694 -0.4534
  419MPD2    C4 6305   1.369   0.140  12.083 -0.2816  0.1865  0.1964
  419MPD2    C5 6306   1.472   0.116  11.997  0.1129 -0.0173 -0.1169
  419MPD2     H 6307   1.302   0.443  11.984 -0.3221  0.1377  3.3379
  419MPD2    H1 6308   1.344   0.067  12.158  0.3240 -1.9973 -1.7265
  419MPD2    H2 6309   1.592   0.163  11.833  0.6306  1.2569  0.1364
  419MPD2    H3 6310   1.529   0.026  12.015 -0.7903 -0.7067 -0.7140
  419MPD2     N 6311   1.214   0.303  12.172  0.2257 -0.4557  0.1591
  419MPD2    H5 6312   1.181   0.399  12.162  1.8038  0.3202  2.2521
  419MPD2    N1 6313   1.471   0.414  11.793 -0.5218  0.3861 -0.0614
  419MPD2    H7 6314   1.422   0.502  11.805 -0.6803  0.5002 -1.4943
  420TMC3    C1 6315   1.059   0.315  12.334  0.3872 -0.3530 -0.1873
  420TMC3    C2 6316   0.991   0.410  12.258 -0.0597  0.0257  0.1162
  420TMC3    C3 6317   0.893   0.482  12.317  0.7837 -0.1876 -0.0976
  420TMC3    C4 6318   1.035   0.283  12.459 -0.2671 -0.6312 -0.0496
  420TMC3    C5 6319   0.933   0.360  12.516  0.3255  0.4118  0.3261
  420TMC3    C6 6320   0.861   0.461  12.451  0.0756  0.0325 -0.1705
  420TMC3     C 6321   1.157   0.235  12.279 -0.0361 -0.1383  0.5915
  420TMC3     O 6322   1.193   0.130  12.328 -0.0972 -0.2474  0.4182
  420TMC3     H 6323   1.018   0.434  12.156 -1.0987 -1.2538 -0.4535
  420TMC3    H1 6324   1.101   0.224  12.521  0.4412 -0.5682 -0.7428
  420TMC3    H2 6325   0.782   0.517  12.500 -1.5107 -2.3146 -0.0520
  420TMC3    C7 6326   0.931   0.353  12.662  0.5581  0.2738 -0.2627
  420TMC3    C8 6327   0.838   0.605  12.262 -0.8794 -0.0207  0.7566
  420TMC3    O1 6328   0.987   0.251  12.701  0.4079 -0.7460  0.1805
  420TMC3    O2 6329   0.904   0.663  12.180 -0.5289 -0.5745 -0.1036
  421TMC3    C1 6330   3.026   1.820  13.429 -0.0738  0.0153 -0.3231
  421TMC3    C2 6331   3.042   1.926  13.507 -0.3313  0.5910  0.9681
  421TMC3    C3 6332   3.138   1.924  13.607  0.2084 -0.0680 -0.4757
  421TMC3    C4 6333   3.093   1.701  13.451 -0.0220  0.3587 -0.5766
  421TMC3    C5 6334   3.185   1.705  13.550 -0.5374  0.7156  0.2709
  421TMC3    C6 6335   3.215   1.811  13.626  0.1666  0.3783  0.3232
  421TMC3     C 6336   2.999   1.847  13.289  0.3083  0.1378 -0.8297
  421TMC3     O 6337   3.032   1.961  13.251 -0.1858 -0.6225  0.0495
  421TMC3     H 6338   2.998   2.021  13.479  0.2762  0.1905 -1.3396
  421TMC3    H1 6339   3.099   1.624  13.374 -1.1870 -1.7231  1.4204
  421TMC3    H2 6340   3.292   1.805  13.701  0.6301 -1.3207 -0.2776
  421TMC3    C7 6341   3.289   1.607  13.555  0.0378 -0.1040  0.5841
  421TMC3    C8 6342   3.177   2.050  13.676 -1.1494 -0.1763  0.2514
  421TMC3    O1 6343   3.397   1.647  13.598  0.0106  0.0234 -0.2038
  421TMC3    O2 6344   3.290   2.057  13.727 -0.1560  0.0968 -0.0433
  422TMC3    C1 6345   0.456   3.494  12.391 -0.1405 -0.3663  0.9362
  422TMC3    C2 6346   0.443   3.626  12.409  0.0689 -0.0007 -0.7074
  422TMC3    C3 6347   0.321   3.682  12.424  0.3931 -0.4967  0.3386
  422TMC3    C4 6348   0.338   3.423  12.372 -0.0826  0.3658  0.1949
  422TMC3    C5 6349   0.213   3.485  12.389  0.7321 -0.1921  0.6954
  422TMC3    C6 6350   0.203   3.613  12.436 -0.3523 -0.7224  0.3392
  422TMC3     C 6351   0.562   3.454  12.303  0.1732  0.0632 -0.8568
  422TMC3     O 6352   0.633   3.548  12.259  0.1352  0.2742 -0.4822
  422TMC3     H 6353   0.528   3.693  12.409  1.7723 -2.1872  1.1644
  422TMC3    H1 6354   0.345   3.328  12.321  0.7467 -0.6427  2.1728
  422TMC3    H2 6355   0.106   3.661  12.432 -0.1555 -0.1951  1.9181
  422TMC3    C7 6356   0.098   3.422  12.336 -0.0709 -0.1772 -0.3351
  422TMC3    C8 6357   0.323   3.822  12.430  0.1496 -0.1903 -0.5724
  422TMC3    O1 6358   0.119   3.322  12.271 -0.3586 -0.1295 -0.6281
  422TMC3    O2 6359   0.401   3.895  12.369 -0.4613 -0.4721 -0.5846
  423MPD2     C 6360   1.404   4.166   0.238  0.5444  0.0042 -0.1177
  423MPD2    C1 6361   1.502   4.073   0.288 -0.7093 -0.8575  0.1013
  423MPD2    C2 6362   1.584   4.007   0.199 -0.2835 -0.0493 -0.0518
  423MPD2    C3 6363   1.596   4.044   0.066  0.6752 -0.0687  0.9248
  423MPD2    C4 6364   1.507   4.145   0.024 -0.4192  0.8438 -0.8429
  423MPD2    C5 6365   1.410   4.193   0.109 -0.9154 -0.2462 -0.3928
  423MPD2     H 6366   1.651   3.931   0.236 -0.4993 -1.0162 -1.6430
  423MPD2    H1 6367   1.515   4.183  17.658  0.6295 -0.6507 -1.3237
  423MPD2    H2 6368   1.330   4.216   0.299  0.5161  0.4425 -0.5160
  423MPD2    H3 6369   1.361   4.284   0.076 -0.8675 -0.1166 -0.1108
  423MPD2     N 6370   1.697   3.989  17.722  0.4874 -0.3388 -0.2109
  423MPD2    H5 6371   1.750   3.914   0.028 -0.2740 -1.4789 -1.3120
  423MPD2    N1 6372   1.519   4.046   0.431  0.1834 -0.1480 -0.2152
  423MPD2    H7 6373   1.599   3.998   0.470  0.0198  1.4130  2.0840
  424TMC3    C1 6374   1.489   4.080   0.670  0.4983 -0.3267 -0.5348
  424TMC3    C2 6375   1.605   4.019   0.697  0.1946 -0.4881 -0.1849
  424TMC3    C3 6376   1.639   4.000   0.826 -0.0546 -0.2238 -0.1922
  424TMC3    C4 6377   1.404   4.122   0.767  0.0879 -0.3853 -0.2103
  424TMC3    C5 6378   1.444   4.113   0.898 -0.3128 -0.3463 -0.9167
  424TMC3    C6 6379   1.561   4.052   0.929 -0.2356 -0.2210  0.0723
  424TMC3     C 6380   1.425   4.076   0.531  0.3613 -0.2798 -0.1081
  424TMC3     O 6381   1.316   4.130   0.519 -0.2029  0.5827 -0.2914
  424TMC3     H 6382   1.673   3.993   0.617 -0.2737  0.2506 -0.8369
  424TMC3    H1 6383   1.321   4.182   0.731 -1.9803 -0.6431  4.1538
  424TMC3    H2 6384   1.577   4.030   1.034 -3.7682 -1.6459  0.3167
  424TMC3    C7 6385   1.344   4.131   1.003 -0.3424  0.0763 -0.1404
  424TMC3    C8 6386   1.747   3.904   0.846 -0.4192 -0.3515  0.1410
  424TMC3    O1 6387   1.383   4.120   1.119 -0.3521 -0.3103 -0.6451
  424TMC3    O2 6388   1.789   3.840   0.749  0.6251 -0.0957 -0.0705
  425MPD2     C 6389   1.060   3.526  17.015  0.3674 -0.2122 -0.4540
  425MPD2    C1 6390   1.010   3.445  16.914  0.2938 -0.1892  0.0040
  425MPD2    C2 6391   0.873   3.445  16.883 -0.5000  1.1113  0.5148
  425MPD2    C3 6392   0.790   3.530  16.963  0.8007  0.3628 -0.7246
  425MPD2    C4 6393   0.845   3.618  17.053  0.9131 -0.5016 -0.3004
  425MPD2    C5 6394   0.979   3.618  17.081  0.0420  0.0173  0.1767
  425MPD2     H 6395   0.826   3.378  16.812  1.8436  0.7019 -0.6331
  425MPD2    H1 6396   0.790   3.683  17.120  1.9383 -0.7856  0.8315
  425MPD2    H2 6397   1.166   3.541  17.031  0.3123 -1.1191  0.7768
  425MPD2    H3 6398   1.023   3.703  17.132  0.9494  2.0337 -3.9534
  425MPD2     N 6399   0.648   3.532  16.935  0.5791  0.0613  0.3881
  425MPD2    H5 6400   0.612   3.449  16.889 -0.0785  0.7165 -0.2905
  425MPD2    N1 6401   1.109   3.358  16.858 -0.0125  0.0488 -0.0589
  425MPD2    H7 6402   1.202   3.357  16.899  1.1449  0.1423 -2.6885
  426TMC3    C1 6403   1.197   3.196  16.734  0.3313 -0.2356  0.4319
  426TMC3    C2 6404   1.220   3.159  16.608 -0.3942  0.3524  0.6117
  426TMC3    C3 6405   1.287   3.040  16.583 -0.1011  0.3935 -0.3916
  426TMC3    C4 6406   1.249   3.120  16.839 -0.8610  0.6155 -0.8799
  426TMC3    C5 6407   1.315   3.000  16.815 -0.9351 -0.9128  0.1531
  426TMC3    C6 6408   1.342   2.966  16.686  0.0116  0.1688  0.2608
  426TMC3     C 6409   1.073   3.266  16.761  0.3436 -0.6431 -0.8798
  426TMC3     O 6410   0.973   3.250  16.686 -0.3037 -0.1739  0.1255
  426TMC3     H 6411   1.167   3.208  16.527 -0.9329  2.4271  2.1942
  426TMC3    H1 6412   1.230   3.152  16.941  1.5881  0.8527 -0.5025
  426TMC3    H2 6413   1.386   2.869  16.667  0.4289  0.7526 -1.7637
  426TMC3    C7 6414   1.229   2.890  16.870  1.0087  0.2931  0.2040
  426TMC3    C8 6415   1.236   2.945  16.487  0.0241 -0.6474  0.6460
  426TMC3    O1 6416   1.218   2.786  16.807 -0.8284 -0.1286 -0.1247
  426TMC3    O2 6417   1.306   2.858  16.434  0.3973  0.1782 -0.1757
  427MPD2     C 6418   4.106   0.869  14.619 -0.0294 -0.1719  0.2194
  427MPD2    C1 6419   4.040   0.766  14.684 -0.5010  0.0699 -0.4925
  427MPD2    C2 6420   3.903   0.778  14.705 -0.7519 -0.0489  0.2078
  427MPD2    C3 6421   3.843   0.897  14.661  0.0955  0.0312  1.1543
  427MPD2    C4 6422   3.916   0.993  14.592 -0.8572 -0.3844 -0.3151
  427MPD2    C5 6423   4.045   0.977  14.571 -0.3378  0.6528  0.6517
  427MPD2     H 6424   3.843   0.703  14.755  2.4351  0.5250  4.9557
  427MPD2    H1 6425   3.868   1.081  14.549 -0.8764 -0.4222 -0.3718
  427MPD2    H2 6426   4.213   0.863  14.601 -0.2172  0.7935 -1.2388
  427MPD2    H3 6427   4.097   1.054  14.515 -2.2518 -0.9149 -3.3435
  427MPD2     N 6428   3.704   0.928  14.677  0.1033  0.5256  0.1293
  427MPD2    H5 6429   3.670   1.006  14.621  0.5741  0.3325 -0.4300
  427MPD2    N1 6430   4.114   0.656  14.737 -0.1578 -0.2335 -0.8657
  427MPD2    H7 6431   4.214   0.658  14.723  0.1067 -1.0677  0.9508
  428TMC3    C1 6432   4.162   0.453  14.853 -0.7645  0.1354  0.4004
  428TMC3    C2 6433   4.122   0.324  14.896  0.0491 -0.1173  0.1238
  428TMC3    C3 6434   4.202   0.239  14.969  0.4822 -0.3177  0.5344
  428TMC3    C4 6435   4.289   0.498  14.884  0.4514  0.4100  0.7082
  428TMC3    C5 6436   4.371   0.406  14.960 -0.2013 -0.1490  0.4701
  428TMC3    C6 6437   4.326   0.286  15.006 -0.0153  0.1308  0.0512
  428TMC3     C 6438   4.059   0.540  14.805  0.5040 -0.0157 -0.4480
  428TMC3     O 6439   3.942   0.501  14.797 -0.1774 -0.1619 -0.5499
  428TMC3     H 6440   4.015   0.309  14.893 -0.0269  1.0331 -3.0065
  428TMC3    H1 6441   4.326   0.600  14.882  1.6092 -0.0264 -0.1979
  428TMC3    H2 6442   4.393   0.223  15.065  1.3718  0.5166 -1.1044
  428TMC3    C7 6443   4.508   0.432  14.975  0.2514 -1.0116 -0.5514
  428TMC3    C8 6444   4.156   0.116  15.024 -0.2678 -0.7926 -0.2474
  428TMC3    O1 6445   4.566   0.372  15.060  0.2193  0.4390  0.5578
  428TMC3    O2 6446   4.226   0.039  15.091 -0.3476  0.1133 -0.0474
  429MPD2     C 6447   0.294   0.840  17.026  0.3416 -0.1097  0.3423
  429MPD2    C1 6448   0.428   0.816  17.063 -0.5267 -0.3891 -0.5844
  429MPD2    C2 6449   0.524   0.907  17.019 -0.6259  0.3598  0.3785
  429MPD2    C3 6450   0.495   1.019  16.948  0.5292 -0.5462  0.5362
  429MPD2    C4 6451   0.363   1.044  16.921 -0.2673 -0.1544  0.4470
  429MPD2    C5 6452   0.263   0.956  16.957  0.0530 -0.2913  0.0652
  429MPD2     H 6453   0.627   0.898  17.051  0.3458  1.5055 -2.4508
  429MPD2    H1 6454   0.324   1.136  16.879 -0.8262 -1.5291 -2.0102
  429MPD2    H2 6455   0.220   0.778  17.075  0.2897  0.1638  0.6107
  429MPD2    H3 6456   0.159   0.972  16.934 -0.1334 -1.4888  0.0739
  429MPD2     N 6457   0.591   1.112  16.915  0.4525  0.1257  0.0529
  429MPD2    H5 6458   0.685   1.074  16.913  0.6713  0.4595  4.9436
  429MPD2    N1 6459   0.465   0.718  17.150  0.4375 -0.4901  0.2986
  429MPD2    H7 6460   0.563   0.706  17.174 -0.0238 -0.7319  2.0787
  430TMC3    C1 6461   0.691   1.275  16.761  0.8392 -0.1742 -0.1002
  430TMC3    C2 6462   0.670   1.390  16.685 -0.4161  0.2025  0.1282
  430TMC3    C3 6463   0.768   1.428  16.600 -0.5075 -0.6182 -0.3125
  430TMC3    C4 6464   0.813   1.219  16.768 -0.3115 -0.5106  0.4689
  430TMC3    C5 6465   0.907   1.257  16.681 -0.0554 -0.3530 -0.5511
  430TMC3    C6 6466   0.885   1.352  16.592  0.7767  0.1727 -0.3517
  430TMC3     C 6467   0.576   1.232  16.847  0.1353 -0.0219  0.3808
  430TMC3     O 6468   0.473   1.291  16.827 -0.0729 -0.4982  0.4391
  430TMC3     H 6469   0.572   1.436  16.677 -0.0189  0.6501 -2.1798
  430TMC3    H1 6470   0.828   1.140  16.840  2.8470 -2.5111 -2.3385
  430TMC3    H2 6471   0.969   1.387  16.533 -0.5812  1.0933 -1.7573
  430TMC3    C7 6472   0.995   1.148  16.654 -0.8210  0.9477  0.1760
  430TMC3    C8 6473   0.730   1.469  16.469 -0.0916  0.0414  0.2384
  430TMC3    O1 6474   0.945   1.043  16.676  0.2767  0.1244  0.1648
  430TMC3    O2 6475   0.802   1.432  16.378 -0.1044  0.2821  0.1856
  431MPD2     C 6476   1.299   1.206  11.981  1.1182  0.2563  0.4270
  431MPD2    C1 6477   1.428   1.215  11.929 -0.5657 -0.2631 -0.6815
  431MPD2    C2 6478   1.464   1.117  11.838  0.2501 -0.5762  0.3469
  431MPD2    C3 6479   1.387   1.004  11.820 -0.7212 -0.1821 -0.0059
  431MPD2    C4 6480   1.274   0.981  11.893 -0.1432 -0.1186  0.6319
  431MPD2    C5 6481   1.223   1.092  11.961 -0.1886  0.4348  0.2340
  431MPD2     H 6482   1.560   1.116  11.788  0.3425 -0.9979  0.5380
  431MPD2    H1 6483   1.222   0.889  11.870 -0.7891  0.4491 -0.1723
  431MPD2    H2 6484   1.262   1.278  12.053 -0.2111 -1.1306  1.1647
  431MPD2    H3 6485   1.126   1.074  12.006  0.6237 -0.8368  1.4506
  431MPD2     N 6486   1.422   0.896  11.739 -0.2325 -0.5517 -0.0688
  431MPD2    H5 6487   1.363   0.817  11.761  0.6311 -1.2665 -0.2931
  431MPD2    N1 6488   1.515   1.322  11.954  0.6238  0.7093 -0.4089
  431MPD2    H7 6489   1.604   1.324  11.906  0.4023  1.7053 -0.7809
  432TMC3    C1 6490   1.531   0.758  11.586 -0.2628  0.0816  0.7039
  432TMC3    C2 6491   1.585   0.758  11.462  0.1396 -0.2037  0.7781
  432TMC3    C3 6492   1.640   0.640  11.422  0.1679 -0.2673 -0.2700
  432TMC3    C4 6493   1.526   0.651  11.677  0.1241 -0.3643  0.0628
  432TMC3    C5 6494   1.581   0.534  11.624 -0.0906  0.3428  0.8409
  432TMC3    C6 6495   1.648   0.530  11.506  0.0295 -0.1956 -0.0352
  432TMC3     C 6496   1.514   0.888  11.645  0.6085 -0.7802  0.5536
  432TMC3     O 6497   1.582   0.980  11.596 -0.4219 -0.0698 -0.1791
  432TMC3     H 6498   1.570   0.846  11.400  3.0226 -0.6609 -0.5584
  432TMC3    H1 6499   1.499   0.662  11.781  0.6921  0.4408  0.1238
  432TMC3    H2 6500   1.700   0.442  11.469 -0.2913  0.4241 -1.9719
  432TMC3    C7 6501   1.568   0.407  11.691  0.8295 -0.6933  0.5973
  432TMC3    C8 6502   1.745   0.644  11.323  0.2151 -0.6168  0.0496
  432TMC3    O1 6503   1.631   0.312  11.651  0.2577  0.0448 -0.3176
  432TMC3    O2 6504   1.725   0.693  11.214 -0.5737 -0.3112  0.0794
  433MPD2     C 6505   4.532   4.282  10.485  0.2871  0.6465  0.1985
  433MPD2    C1 6506   4.613   4.201  10.557  0.6443 -0.3463 -0.3716
  433MPD2    C2 6507   4.674   4.253  10.671  1.0084 -0.3445 -0.0430
  433MPD2    C3 6508   4.669   4.383  10.711  0.2302  0.2573 -0.6788
  433MPD2    C4 6509   4.597   4.467  10.630 -0.7318  0.2192  0.1636
  433MPD2    C5 6510   4.531   4.417  10.518  0.1612 -0.5410  0.8916
  433MPD2     H 6511   0.002   4.188  10.730  0.4685 -1.9696 -1.2663
  433MPD2    H1 6512   4.601   4.573  10.655 -0.4119 -0.4022  2.7329
  433MPD2    H2 6513   4.470   4.256  10.400  0.7605 -0.2428  0.1186
  433MPD2    H3 6514   4.475   4.485  10.455  2.0946  1.2800  1.1305
  433MPD2     N 6515   0.003   4.426  10.833  0.6490  0.5181 -0.4778
  433MPD2    H5 6516   0.048   4.354  10.888  1.0409  0.7492 -0.5005
  433MPD2    N1 6517   4.629   4.063  10.509  0.6086  0.8324  0.1431
  433MPD2    H7 6518   4.564   4.021  10.444  0.1443  1.6749  0.0660
  434TMC3    C1 6519   0.002   3.852  10.501  0.5763  0.0577 -0.7826
  434TMC3    C2 6520   0.115   3.784  10.543  0.4682 -0.2181 -0.1073
  434TMC3    C3 6521   0.100   3.653  10.582  0.6996 -0.3135  0.4441
  434TMC3    C4 6522   4.618   3.790  10.472  0.2682 -0.0364  0.2441
  434TMC3    C5 6523   4.609   3.657  10.497  0.5651  0.0338 -0.5765
  434TMC3    C6 6524   4.706   3.588  10.557 -0.0314  0.6253 -0.1227
  434TMC3     C 6525   4.731   3.986  10.559 -0.4278 -0.2066  0.2405
  434TMC3     O 6526   0.102   4.020  10.612 -0.3278 -0.6565 -0.3762
  434TMC3     H 6527   0.209   3.837  10.549 -0.3874  1.1745  1.0578
  434TMC3    H1 6528   4.527   3.837  10.436  0.9566  0.7809 -0.4438
  434TMC3    H2 6529   4.697   3.480  10.562 -0.0129  0.4865 -2.8193
  434TMC3    C7 6530   4.525   3.599  10.400  0.4085  0.7014 -0.0437
  434TMC3    C8 6531   0.208   3.595  10.661 -0.0225 -0.0668  0.1279
  434TMC3    O1 6532   4.500   3.653  10.296  0.0449  0.4279 -0.4093
  434TMC3    O2 6533   0.312   3.661  10.654  0.2159 -0.2481 -0.1032
  435MPD2     C 6534   2.425   4.334  14.960 -0.6714 -0.7154  0.2885
  435MPD2    C1 6535   2.404   4.317  15.092 -0.6004 -0.1976 -0.4544
  435MPD2    C2 6536   2.500   4.254  15.162 -0.4842 -0.6116 -0.1416
  435MPD2    C3 6537   2.621   4.215  15.101 -0.3470  0.0492  0.1940
  435MPD2    C4 6538   2.648   4.237  14.963 -0.2431  0.4500 -0.3020
  435MPD2    C5 6539   2.540   4.294  14.896 -0.2458  0.2636 -0.2850
  435MPD2     H 6540   2.498   4.249  15.270  1.2291 -0.7084 -0.1174
  435MPD2    H1 6541   2.739   4.202  14.915  0.0091  0.0725  0.4485
  435MPD2    H2 6542   2.346   4.384  14.905  0.7122  0.7661 -0.3484
  435MPD2    H3 6543   2.551   4.300  14.788  0.9679  1.8564 -0.0673
  435MPD2     N 6544   2.702   4.146  15.190  0.5026 -0.5672  0.1110
  435MPD2    H5 6545   2.659   4.129  15.280 -0.8315 -0.3759 -0.4865
  435MPD2    N1 6546   2.279   4.356  15.162  0.1487  0.1498  0.5306
  435MPD2    H7 6547   2.270   4.340  15.261  1.2898 -0.8058  0.4789
  436TMC3    C1 6548   1.932   4.344  15.368 -0.3285 -0.0016 -0.1239
  436TMC3    C2 6549   2.044   4.333  15.285 -0.2159 -0.0443  0.9061
  436TMC3    C3 6550   2.067   4.433  15.195  0.7097  0.1549  0.8496
  436TMC3    C4 6551   1.843   4.445  15.352 -0.7746  1.0478 -0.3937
  436TMC3    C5 6552   1.873   4.536  15.258  0.1673 -0.9601  0.5339
  436TMC3    C6 6553   1.984   4.538  15.183  0.1825 -0.5686 -0.2694
  436TMC3     C 6554   1.903   4.231  15.465 -0.6866  0.1124  0.2939
  436TMC3     O 6555   1.966   4.130  15.458 -0.4773 -0.6710 -0.0017
  436TMC3     H 6556   2.102   4.244  15.304 -0.7285 -0.2712  1.4160
  436TMC3    H1 6557   1.741   4.449  15.389  0.2153  1.2907  2.3238
  436TMC3    H2 6558   2.006   4.613  15.107 -0.9657  0.7194  0.6850
  436TMC3    C7 6559   1.756   4.601  15.197  0.5330  0.5210  0.0783
  436TMC3    C8 6560   2.178   4.428  15.101  0.1700  0.4263 -0.1594
  436TMC3    O1 6561   1.660   4.529  15.174  0.4744  0.0289  0.2868
  436TMC3    O2 6562   2.176   4.500  15.002 -0.4141  0.2311 -0.7056
  437TMC3    C1 6563   1.417   2.835  12.422  0.0567  0.4760  0.3014
  437TMC3    C2 6564   1.390   2.742  12.511  0.0982  0.7232  0.5376
  437TMC3    C3 6565   1.402   2.610  12.475 -0.1223 -0.2200 -0.5546
  437TMC3    C4 6566   1.454   2.814  12.293 -0.6453  0.1614 -0.1578
  437TMC3    C5 6567   1.472   2.685  12.260  0.6853  0.5481  0.1578
  437TMC3    C6 6568   1.451   2.585  12.347  0.3359 -0.1159 -0.0398
  437TMC3     C 6569   1.386   2.976  12.461  0.5029 -0.0815 -0.5147
  437TMC3     O 6570   1.335   2.991  12.572  0.3486 -0.0205  0.1679
  437TMC3     H 6571   1.353   2.766  12.610  0.8636  1.5822  0.6116
  437TMC3    H1 6572   1.473   2.896  12.223  1.3023 -0.1298  0.0305
  437TMC3    H2 6573   1.461   2.484  12.310 -1.0443 -0.5162  0.6611
  437TMC3    C7 6574   1.603   2.675  12.197 -0.5590 -0.9156  0.6837
  437TMC3    C8 6575   1.471   2.520  12.566 -0.3216 -0.0165  0.3424
  437TMC3    O1 6576   1.643   2.771  12.132 -0.4692 -0.0304 -0.2113
  437TMC3    O2 6577   1.576   2.473  12.520 -0.4383  0.2322 -0.4580
  438MPD2     C 6578   3.309   2.349  16.401  0.0233 -0.0057  0.2345
  438MPD2    C1 6579   3.377   2.244  16.450  0.0988 -0.7039  0.0466
  438MPD2    C2 6580   3.367   2.214  16.584 -0.3779 -0.0876  0.9118
  438MPD2    C3 6581   3.271   2.279  16.665 -0.0855  0.0417 -0.1187
  438MPD2    C4 6582   3.198   2.385  16.608  0.3704  0.3866  0.3831
  438MPD2    C5 6583   3.221   2.417  16.483  0.6596 -0.0220 -0.5816
  438MPD2     H 6584   3.434   2.143  16.632 -1.3924 -0.8879  1.1379
  438MPD2    H1 6585   3.129   2.443  16.669  1.3752  1.1020  0.8474
  438MPD2    H2 6586   3.316   2.390  16.301 -1.0084 -0.2753  0.0531
  438MPD2    H3 6587   3.179   2.502  16.430 -0.0628 -0.6686 -1.0608
  438MPD2     N 6588   3.242   2.247  16.805  0.2427  0.2570 -0.0969
  438MPD2    H5 6589   3.165   2.302  16.841 -0.2461  1.1250 -2.4200
  438MPD2    N1 6590   3.472   2.176  16.372  0.3096  0.2108 -0.5022
  438MPD2    H7 6591   3.519   2.104  16.427  3.4122  1.2116 -1.8453
  439TMC3    C1 6592   3.613   2.114  16.199 -0.2114  0.4589  0.4960
  439TMC3    C2 6593   3.587   2.060  16.073  0.3692  0.0275 -0.5419
  439TMC3    C3 6594   3.652   1.945  16.038 -0.5955  0.9780  0.1815
  439TMC3    C4 6595   3.694   2.051  16.284  0.2587 -0.0168  0.1641
  439TMC3    C5 6596   3.756   1.942  16.239  0.1720  0.4149 -0.2295
  439TMC3    C6 6597   3.745   1.889  16.122  0.5825  0.4279  0.5535
  439TMC3     C 6598   3.509   2.200  16.242  0.1482  0.1228  0.1851
  439TMC3     O 6599   3.451   2.266  16.154 -0.5224 -0.3940 -0.3985
  439TMC3     H 6600   3.515   2.113  16.012 -0.4738  1.6370  1.8771
  439TMC3    H1 6601   3.731   2.093  16.377  2.8579  1.0088 -1.3340
  439TMC3    H2 6602   3.792   1.794  16.100  0.4499  0.8792 -1.7174
  439TMC3    C7 6603   3.858   1.892  16.323  0.1673  0.0937  0.7248
  439TMC3    C8 6604   3.640   1.906  15.897 -0.8276  0.0756  0.0762
  439TMC3    O1 6605   3.840   1.910  16.444 -0.2141  0.1423  0.1967
  439TMC3    O2 6606   3.656   1.787  15.872  0.4669 -0.2809  0.9186
  440MPD2     C 6607   1.845   2.761  14.165  0.6204  0.2239 -0.2855
  440MPD2    C1 6608   1.792   2.736  14.288 -0.3628 -0.5047  0.0959
  440MPD2    C2 6609   1.838   2.630  14.357 -0.5908 -0.5813  0.4347
  440MPD2    C3 6610   1.936   2.549  14.312  0.6018 -0.3335 -0.4707
  440MPD2    C4 6611   1.991   2.573  14.188  0.1424 -0.1795  0.6534
  440MPD2    C5 6612   1.952   2.687  14.121 -0.1287 -0.2314  0.4274
  440MPD2     H 6613   1.797   2.610  14.455  0.1417 -0.4347  0.7768
  440MPD2    H1 6614   2.072   2.517  14.142 -2.5427 -1.5144 -2.4800
  440MPD2    H2 6615   1.828   2.852  14.109 -0.2600  1.3182  1.7618
  440MPD2    H3 6616   1.999   2.693  14.024 -0.8806 -0.4523  0.0460
  440MPD2     N 6617   1.985   2.432  14.374 -0.5089 -0.2092 -0.0855
  440MPD2    H5 6618   2.048   2.374  14.321 -1.6106 -0.8100 -0.7432
  440MPD2    N1 6619   1.676   2.804  14.335  0.2744 -0.1028  0.3580
  440MPD2    H7 6620   1.635   2.766  14.420  0.8173 -1.0086  0.2087
  441TMC3    C1 6621   2.021   2.261  14.537  0.0406  0.2037  0.5856
  441TMC3    C2 6622   2.076   2.180  14.440  0.2217  0.6178  0.5653
  441TMC3    C3 6623   2.178   2.103  14.481  0.2388  0.2028 -0.5980
  441TMC3    C4 6624   2.069   2.266  14.664 -0.1054 -0.1984  0.0967
  441TMC3    C5 6625   2.172   2.179  14.700 -0.4636 -0.5939  0.0973
  441TMC3    C6 6626   2.224   2.091  14.604  0.4529 -0.2295 -0.5949
  441TMC3     C 6627   1.960   2.388  14.502 -0.3481 -0.1040 -0.6614
  441TMC3     O 6628   1.899   2.450  14.585 -0.0901  0.5982 -0.2285
  441TMC3     H 6629   2.055   2.180  14.333 -0.4492 -3.4915  0.6944
  441TMC3    H1 6630   2.032   2.339  14.735  0.2482  1.2039 -1.1565
  441TMC3    H2 6631   2.304   2.020  14.618 -0.4775 -0.8504  1.5459
  441TMC3    C7 6632   2.238   2.208  14.828 -0.7302  0.2101  0.7417
  441TMC3    C8 6633   2.283   2.122  14.389 -0.2462 -0.1060 -0.0007
  441TMC3    O1 6634   2.218   2.313  14.889 -0.4908  0.0662 -0.2558
  441TMC3    O2 6635   2.257   2.110  14.267 -0.3238  0.2362 -0.5282
  442MPD2     C 6636   0.489   3.014  16.044  0.6616  0.1087  0.3648
  442MPD2    C1 6637   0.422   2.927  16.128  0.2772 -0.0407  0.5043
  442MPD2    C2 6638   0.418   2.792  16.088  0.0234  0.3759 -0.4741
  442MPD2    C3 6639   0.445   2.757  15.956  0.1606 -0.3366  0.2631
  442MPD2    C4 6640   0.493   2.859  15.868  0.0999 -0.1752  0.8900
  442MPD2    C5 6641   0.524   2.978  15.915 -0.1595 -0.2059  0.1494
  442MPD2     H 6642   0.372   2.725  16.160 -0.1198  0.3223 -0.6149
  442MPD2    H1 6643   0.500   2.845  15.760  0.1461  2.7274  0.5035
  442MPD2    H2 6644   0.520   3.107  16.091 -1.0906 -0.2690  2.2755
  442MPD2    H3 6645   0.567   3.054  15.851 -0.6009 -0.4106 -0.3865
  442MPD2     N 6646   0.445   2.629  15.892 -0.1698 -0.3775 -0.3419
  442MPD2    H5 6647   0.498   2.611  15.807 -0.1740  0.0715 -0.4401
  442MPD2    N1 6648   0.369   2.959  16.254 -0.2513 -0.1700 -0.4481
  442MPD2    H7 6649   0.342   2.877  16.306  1.2280 -1.0974 -1.1594
  443TMC3    C1 6650   0.310   3.110  16.437 -0.1694  0.5162 -0.3238
  443TMC3    C2 6651   0.231   3.220  16.462  0.1018 -0.2903 -0.6872
  443TMC3    C3 6652   0.172   3.234  16.577  0.7430 -0.1034  0.3459
  443TMC3    C4 6653   0.326   3.016  16.537  1.0158  0.5094 -0.2158
  443TMC3    C5 6654   0.274   3.047  16.666  0.0496  0.2294 -0.7645
  443TMC3    C6 6655   0.208   3.164  16.691 -0.2537  0.0412 -0.8426
  443TMC3     C 6656   0.347   3.091  16.298  0.2496  0.1033 -0.1186
  443TMC3     O 6657   0.338   3.189  16.220 -0.3222 -0.2399 -0.0322
  443TMC3     H 6658   0.216   3.297  16.388  0.1964 -0.7464 -1.1754
  443TMC3    H1 6659   0.370   2.919  16.517 -0.5931 -0.1992 -0.3526
  443TMC3    H2 6660   0.156   3.194  16.781 -0.2943  0.2673 -0.9404
  443TMC3    C7 6661   0.252   2.927  16.760 -0.1110 -0.1794 -0.1002
  443TMC3    C8 6662   0.031   3.240  16.560 -0.1548  0.8333 -0.0926
  443TMC3    O1 6663   0.292   2.816  16.723  0.0780  0.1448  0.3146
  443TMC3    O2 6664   4.699   3.247  16.665  0.5075  0.9238 -0.2613
  444MPD2     C 6665   0.776   2.448  16.631  1.1607  0.5397  0.3648
  444MPD2    C1 6666   0.717   2.336  16.689  0.5549 -0.1422 -0.5191
  444MPD2    C2 6667   0.764   2.209  16.646  0.0994  0.3191  0.1070
  444MPD2    C3 6668   0.874   2.206  16.563  0.1115 -0.2679 -0.5925
  444MPD2    C4 6669   0.936   2.319  16.521 -0.0410 -0.5041  0.4882
  444MPD2    C5 6670   0.881   2.441  16.544  0.4287  0.8742  0.0609
  444MPD2     H 6671   0.725   2.115  16.682  1.1298 -0.0533  0.2550
  444MPD2    H1 6672   1.028   2.319  16.463 -0.2828  1.9674  0.1183
  444MPD2    H2 6673   0.733   2.545  16.652  0.2018 -0.1335  1.5249
  444MPD2    H3 6674   0.925   2.531  16.500  0.0784  0.8778 -0.2860
  444MPD2     N 6675   0.930   2.083  16.523 -0.2786 -0.0434  0.3046
  444MPD2    H5 6676   0.884   1.996  16.549 -0.4628 -0.1800 -0.4868
  444MPD2    N1 6677   0.604   2.334  16.774 -0.9464 -0.3003  0.1284
  444MPD2    H7 6678   0.586   2.256  16.836  0.7124 -2.0205 -1.5337
  445TMC3    C1 6679   1.063   1.908  16.448 -0.7863  0.2293  0.3009
  445TMC3    C2 6680   0.954   1.843  16.393  0.1878 -0.5900  0.2159
  445TMC3    C3 6681   0.981   1.717  16.337  0.2409 -0.1027 -0.2061
  445TMC3    C4 6682   1.185   1.852  16.456  0.6947  0.2831 -0.1601
  445TMC3    C5 6683   1.189   1.715  16.429 -0.2323  0.6793  0.3996
  445TMC3    C6 6684   1.092   1.651  16.367  0.5621  0.3360  0.0435
  445TMC3     C 6685   1.051   2.053  16.460 -0.0662 -0.2191  0.3357
  445TMC3     O 6686   1.143   2.125  16.421 -0.9576 -0.2775 -0.3815
  445TMC3     H 6687   0.871   1.902  16.356 -0.8779 -0.9748  1.9910
  445TMC3    H1 6688   1.273   1.902  16.497  0.5529  1.3191 -1.1409
  445TMC3    H2 6689   1.115   1.557  16.317  2.5599  0.6804  0.3084
  445TMC3    C7 6690   1.324   1.652  16.409  0.4304 -0.3141 -0.4042
  445TMC3    C8 6691   0.941   1.698  16.198  0.0247 -0.2406  0.1186
  445TMC3    O1 6692   1.320   1.530  16.415  0.2123 -0.7519  0.1206
  445TMC3    O2 6693   0.980   1.780  16.116 -0.3320  0.2053  0.2325
  446MPD2     C 6694   4.709   3.489  11.204  0.3645  0.0273  0.4890
  446MPD2    C1 6695   4.648   3.507  11.080 -0.3617 -0.0797  0.0333
  446MPD2    C2 6696   4.704   3.605  10.995  0.1967 -0.6599  0.1105
  446MPD2    C3 6697   0.077   3.687  11.029 -0.6643 -0.7976  0.2899
  446MPD2    C4 6698   0.133   3.665  11.154 -0.7226  0.4993  0.0784
  446MPD2    C5 6699   0.079   3.567  11.240  0.8006  0.3540 -0.4850
  446MPD2     H 6700   4.658   3.630  10.900 -0.1646 -0.3076  0.3794
  446MPD2    H1 6701   0.223   3.716  11.187 -0.1865  0.1878 -0.9182
  446MPD2    H2 6702   4.660   3.421  11.272  1.1939  0.7937  1.8570
  446MPD2    H3 6703   0.119   3.563  11.340 -0.3942 -0.8750 -0.0592
  446MPD2     N 6704   0.122   3.793  10.943 -0.2067  0.2645 -0.0641
  446MPD2    H5 6705   0.097   3.774  10.847 -0.8518  0.3833  0.0828
  446MPD2    N1 6706   4.532   3.438  11.042  0.4861  0.2952 -0.2589
  446MPD2    H7 6707   4.496   3.474  10.954  0.4707  1.8199  0.3728
  447TMC3    C1 6708   0.285   3.945  10.856 -0.0190 -0.2448  0.2499
  447TMC3    C2 6709   0.297   4.082  10.838 -0.5732  0.5770  0.1114
  447TMC3    C3 6710   0.418   4.131  10.797 -0.4235  0.6908  0.3931
  447TMC3    C4 6711   0.392   3.862  10.832 -0.0553  0.2883  0.0274
  447TMC3    C5 6712   0.511   3.915  10.788 -0.0004  0.2008 -0.0643
  447TMC3    C6 6713   0.527   4.052  10.768  1.1919  0.3695 -0.2761
  447TMC3     C 6714   0.207   3.898  10.975 -0.1076 -0.8397 -0.1941
  447TMC3     O 6715   0.244   3.923  11.085  0.3951  0.0074  0.4752
  447TMC3     H 6716   0.210   4.144  10.852  0.6119  1.8410  1.8287
  447TMC3    H1 6717   0.388   3.758  10.860 -0.4472  0.2666 -0.1040
  447TMC3    H2 6718   0.616   4.086  10.716  1.3874 -0.7072 -0.6379
  447TMC3    C7 6719   0.619   3.820  10.766 -0.1127  0.2382  0.6223
  447TMC3    C8 6720   0.409   4.244  10.712  0.3457  0.3002  0.5762
  447TMC3    O1 6721   0.730   3.862  10.794 -0.0522  0.5319 -0.4031
  447TMC3    O2 6722   0.512   4.302  10.686 -0.4028  0.0449  0.0855
  448TMC3    C1 6723   3.897   3.355  16.975 -0.5027  0.0100 -0.6224
  448TMC3    C2 6724   3.803   3.287  16.909 -0.3821 -0.0429  0.4340
  448TMC3    C3 6725   3.770   3.162  16.963  0.0906 -0.5460 -0.2227
  448TMC3    C4 6726   3.950   3.310  17.083 -0.2430  0.9463  0.7046
  448TMC3    C5 6727   3.894   3.205  17.153 -0.7520  0.1819 -0.4808
  448TMC3    C6 6728   3.804   3.125  17.088  0.7679 -0.1628  1.0305
  448TMC3     C 6729   3.947   3.468  16.904  0.8137 -0.4711  0.5561
  448TMC3     O 6730   4.067   3.490  16.920  0.2328 -0.0139 -0.1635
  448TMC3     H 6731   3.777   3.305  16.806  1.2687  0.1013  0.0457
  448TMC3    H1 6732   4.019   3.384  17.122 -1.3546  1.5980  1.4587
  448TMC3    H2 6733   3.752   3.039  17.129 -0.8669  0.8359  1.0652
  448TMC3    C7 6734   3.928   3.192  17.290  0.4055  0.3122 -0.5431
  448TMC3    C8 6735   3.690   3.071  16.889  0.6911 -0.1818 -0.2015
  448TMC3    O1 6736   4.048   3.199  17.323 -0.6395  0.0947 -0.3116
  448TMC3    O2 6737   3.700   2.957  16.927 -0.0554  0.3136 -0.0329
  449MPD2     C 6738   0.168   2.395  13.022 -0.4850  0.4518 -0.1866
  449MPD2    C1 6739   0.041   2.367  13.052  0.6144  0.2158 -0.3628
  449MPD2    C2 6740   4.730   2.240  13.083  0.3785 -0.5971 -0.3699
  449MPD2    C3 6741   0.084   2.134  13.074 -0.2023 -0.0061  0.0564
  449MPD2    C4 6742   0.216   2.161  13.052  0.2472  0.0843  0.6271
  449MPD2    C5 6743   0.249   2.289  13.022 -0.1454  0.4728  0.0712
  449MPD2     H 6744   4.630   2.238  13.126 -0.0491 -1.4362 -1.4110
  449MPD2    H1 6745   0.292   2.084  13.057 -0.8012 -0.9705  0.1286
  449MPD2    H2 6746   0.207   2.493  12.998 -1.0235  0.7700  0.2193
  449MPD2    H3 6747   0.352   2.309  12.995 -0.1718  1.0253  0.3755
  449MPD2     N 6748   0.033   2.004  13.105 -0.3703 -0.8002  0.1056
  449MPD2    H5 6749   4.666   1.999  13.104 -0.3006 -2.2354  0.7099
  449MPD2    N1 6750   4.678   2.466  13.049 -0.1312  1.0726 -0.3735
  449MPD2    H7 6751   4.587   2.441  13.088  0.2388  0.1753 -0.0893
  450TMC3    C1 6752   4.555   2.646  13.004 -0.2350 -0.0985  0.1595
  450TMC3    C2 6753   4.504   2.638  12.877 -0.4852  0.4447 -0.5644
  450TMC3    C3 6754   4.382   2.588  12.852 -0.3709  0.1994  0.1390
  450TMC3    C4 6755   4.473   2.588  13.097  1.1150 -0.3279 -0.6048
  450TMC3    C5 6756   4.344   2.552  13.082  0.3044  0.3791  0.0821
  450TMC3    C6 6757   4.294   2.561  12.954  0.9722  0.2579  0.8099
  450TMC3     C 6758   4.689   2.596  13.010 -0.5250  0.1107 -0.2483
  450TMC3     O 6759   0.043   2.652  12.948  0.2349 -0.2896  0.2742
  450TMC3     H 6760   4.563   2.652  12.787  0.7762  2.8269  0.6312
  450TMC3    H1 6761   4.511   2.559  13.194  2.5510 -0.5765 -1.2278
  450TMC3    H2 6762   4.190   2.549  12.927  0.5221  2.0380  1.7228
  450TMC3    C7 6763   4.330   2.429  13.141  0.4025  0.6528 -0.0426
  450TMC3    C8 6764   4.380   2.477  12.763  0.1910 -0.8156  0.2961
  450TMC3    O1 6765   4.435   2.370  13.173 -0.3934 -0.1439 -0.1940
  450TMC3    O2 6766   4.271   2.467  12.705  0.4792 -0.2852 -0.4834
  451MPD2     C 6767   1.467   1.312   0.907  0.5076 -0.6650 -0.3444
  451MPD2    C1 6768   1.348   1.252   0.877 -0.0599 -0.4452 -0.2414
  451MPD2    C2 6769   1.346   1.122   0.829 -0.0486  0.4158  1.1491
  451MPD2    C3 6770   1.461   1.053   0.803 -0.1696 -0.6540 -0.4385
  451MPD2    C4 6771   1.578   1.117   0.837  0.1820 -0.3512 -1.2697
  451MPD2    C5 6772   1.583   1.242   0.886  0.4166  0.2463  0.2802
  451MPD2     H 6773   1.254   1.078   0.792 -0.2516  1.2691  0.6379
  451MPD2    H1 6774   1.677   1.079   0.814  1.6480  3.2382 -0.9038
  451MPD2    H2 6775   1.472   1.415   0.942 -2.1138 -0.6056 -0.1366
  451MPD2    H3 6776   1.679   1.289   0.902  1.4158 -1.1518 -1.7986
  451MPD2     N 6777   1.473   0.922   0.748 -0.2599  0.3599  0.0944
  451MPD2    H5 6778   1.564   0.877   0.757 -1.1132 -1.2016  0.9250
  451MPD2    N1 6779   1.224   1.316   0.899 -0.4521  0.0005  0.5706
  451MPD2    H7 6780   1.140   1.259   0.895 -0.9582  0.8349 -0.4201
  452TMC3    C1 6781   1.413   0.725   0.637 -1.1924  0.3257 -0.0583
  452TMC3    C2 6782   1.328   0.612   0.633  0.8084  0.3436 -0.4520
  452TMC3    C3 6783   1.357   0.524   0.532 -0.4701  0.3763 -0.5417
  452TMC3    C4 6784   1.516   0.743   0.552  1.0237 -0.2399 -0.1028
  452TMC3    C5 6785   1.549   0.639   0.471 -0.6455  0.2504 -0.5484
  452TMC3    C6 6786   1.466   0.534   0.457  0.6672  0.3365  0.1616
  452TMC3     C 6787   1.371   0.844   0.706  0.3135 -0.0792  0.0355
  452TMC3     O 6788   1.252   0.853   0.734 -0.5740  0.1993  0.9558
  452TMC3     H 6789   1.248   0.612   0.706 -0.3635  1.6697 -1.7462
  452TMC3    H1 6790   1.574   0.835   0.544  0.2688  0.2375 -0.0677
  452TMC3    H2 6791   1.469   0.471   0.369  0.5055 -1.4432  1.4140
  452TMC3    C7 6792   1.621   0.676   0.350 -0.5257 -0.9486  0.3012
  452TMC3    C8 6793   1.241   0.444   0.501  0.6698 -0.5376 -0.7951
  452TMC3    O1 6794   1.621   0.793   0.319 -0.4106 -0.4141  0.9137
  452TMC3    O2 6795   1.134   0.487   0.537  0.1311 -0.0253 -0.0341
  453TMC3    C1 6796   2.568   2.753  11.783 -0.1903  0.0978 -0.2231
  453TMC3    C2 6797   2.463   2.672  11.821 -0.2054 -0.6709 -0.0300
  453TMC3    C3 6798   2.342   2.681  11.757 -0.3749 -0.3241 -0.3800
  453TMC3    C4 6799   2.560   2.829  11.668 -0.1804 -0.4954 -0.2225
  453TMC3    C5 6800   2.441   2.826  11.593  0.0855 -0.1524  0.3419
  453TMC3    C6 6801   2.335   2.755  11.638  0.5975 -0.7333  1.1534
  453TMC3     C 6802   2.704   2.738  11.840 -0.7509 -0.0256  0.2025
  453TMC3     O 6803   2.794   2.807  11.798  0.2723  0.2773 -0.0945
  453TMC3     H 6804   2.473   2.599  11.901  3.9024  3.1226  2.9228
  453TMC3    H1 6805   2.653   2.874  11.636  1.3829 -2.3711  1.6404
  453TMC3    H2 6806   2.238   2.761  11.590  1.3168  2.0603  0.0616
  453TMC3    C7 6807   2.426   2.870  11.453 -0.1578  0.1620 -0.2129
  453TMC3    C8 6808   2.271   2.551  11.744 -0.0398 -0.6164  0.1880
  453TMC3    O1 6809   2.345   2.806  11.385 -0.0534  0.0729 -0.6153
  453TMC3    O2 6810   2.148   2.556  11.735  0.3099  0.5989  0.3076
  454MPD2     C 6811   1.509   1.808  15.690 -0.4364 -0.0493 -0.0857
  454MPD2    C1 6812   1.491   1.933  15.643  0.0036  0.1560  0.7327
  454MPD2    C2 6813   1.459   2.030  15.739  0.3842 -0.3589 -0.0279
  454MPD2    C3 6814   1.441   1.990  15.874  0.5829  0.1685  0.5942
  454MPD2    C4 6815   1.476   1.862  15.915 -0.1720  0.4039  0.3511
  454MPD2    C5 6816   1.530   1.777  15.823  0.1798 -0.2085  0.2735
  454MPD2     H 6817   1.430   2.129  15.705 -2.3961 -0.8981  0.7561
  454MPD2    H1 6818   1.452   1.831  16.016  0.7182 -1.4607  0.0005
  454MPD2    H2 6819   1.520   1.725  15.620 -1.4199  0.7387 -1.1835
  454MPD2    H3 6820   1.566   1.677  15.845  0.3473 -0.3602 -0.6831
  454MPD2     N 6821   1.364   2.067  15.968  0.2414  0.0538  0.1710
  454MPD2    H5 6822   1.337   2.026  16.057 -0.4071  1.8892  0.8132
  454MPD2    N1 6823   1.474   1.970  15.507  0.0131 -0.2317  0.3466
  454MPD2    H7 6824   1.442   2.064  15.484  0.3002  0.4176  2.6122
  455TMC3    C1 6825   1.227   2.238  16.028 -0.4119  0.1696 -0.1167
  455TMC3    C2 6826   1.201   2.367  16.046  0.8365 -0.1320 -0.1999
  455TMC3    C3 6827   1.081   2.403  16.104 -0.6339 -0.0014 -0.3964
  455TMC3    C4 6828   1.140   2.142  16.054  0.6043  0.0119 -0.5054
  455TMC3    C5 6829   1.013   2.186  16.086  0.3154  0.7974 -0.3127
  455TMC3    C6 6830   0.984   2.311  16.124 -0.6856 -0.3712  0.2595
  455TMC3     C 6831   1.341   2.205  15.954 -0.0816  0.1215 -0.7012
  455TMC3     O 6832   1.382   2.286  15.868  0.1936  0.2221 -0.0920
  455TMC3     H 6833   1.289   2.426  16.024  0.5061  0.3613 -0.1780
  455TMC3    H1 6834   1.146   2.034  16.048  1.9700  0.1029 -0.8029
  455TMC3    H2 6835   0.894   2.341  16.177 -0.7332  0.8245 -0.4919
  455TMC3    C7 6836   0.901   2.098  16.051  0.3856  0.2816  0.9974
  455TMC3    C8 6837   1.088   2.530  16.161 -0.5057  0.5945  0.4221
  455TMC3    O1 6838   0.802   2.116  16.124  0.2592  0.5106 -0.1254
  455TMC3    O2 6839   1.200   2.571  16.176  0.4883 -0.5979 -0.2158
  456MPD2     C 6840   3.874   2.383  15.757  0.1787  0.3562  0.3459
  456MPD2    C1 6841   3.909   2.277  15.843  0.2101 -0.1364  0.0684
  456MPD2    C2 6842   3.874   2.294  15.976 -0.5743  0.0012 -0.1119
  456MPD2    C3 6843   3.795   2.404  16.019 -0.1008  0.0243 -0.3849
  456MPD2    C4 6844   3.768   2.513  15.932  0.1007  0.5200  0.1115
  456MPD2    C5 6845   3.819   2.499  15.803 -0.4890 -0.7479 -0.4642
  456MPD2     H 6846   3.899   2.216  16.047 -0.1592  2.1931  2.1538
  456MPD2    H1 6847   3.716   2.604  15.956 -2.5960 -0.7321 -1.0122
  456MPD2    H2 6848   3.904   2.375  15.653 -1.6426 -0.7617 -0.0982
  456MPD2    H3 6849   3.831   2.579  15.731 -2.6719 -0.8584 -0.9608
  456MPD2     N 6850   3.762   2.411  16.162  0.1250  0.3585 -0.2352
  456MPD2    H5 6851   3.795   2.338  16.224  0.5899  0.3357 -0.5070
  456MPD2    N1 6852   3.965   2.153  15.789 -0.1510  0.4320  0.2108
  456MPD2    H7 6853   3.998   2.152  15.693 -0.0142 -1.1659  0.2742
  457TMC3    C1 6854   3.677   2.484  16.365  0.4138  0.0529  0.0198
  457TMC3    C2 6855   3.578   2.565  16.427  0.8504 -0.0074  0.5817
  457TMC3    C3 6856   3.552   2.547  16.560 -0.5658 -0.4242 -0.4021
  457TMC3    C4 6857   3.764   2.414  16.445 -0.3343  0.2345 -0.2061
  457TMC3    C5 6858   3.736   2.398  16.581  0.0406 -0.3644 -0.5552
  457TMC3    C6 6859   3.633   2.466  16.638 -0.7925  1.1779 -0.1679
  457TMC3     C 6860   3.709   2.526  16.227  0.1286 -0.1363 -0.2325
  457TMC3     O 6861   3.659   2.632  16.192 -0.2463  0.1716 -0.2823
  457TMC3     H 6862   3.511   2.628  16.370  1.3051  1.1531  1.3183
  457TMC3    H1 6863   3.854   2.369  16.406  0.8481  1.7020  0.8275
  457TMC3    H2 6864   3.599   2.448  16.739  0.3913 -0.4948 -0.0723
  457TMC3    C7 6865   3.851   2.369  16.659  0.0474  0.2891  0.3253
  457TMC3    C8 6866   3.496   2.657  16.632  0.4466  0.0891  0.1563
  457TMC3    O1 6867   3.838   2.299  16.758  0.3905 -0.3896  1.0157
  457TMC3    O2 6868   3.503   2.650  16.754 -0.0067  0.2140  0.0009
  458MPD2     C 6869   2.005   2.382  12.081  0.1422  0.1969  0.2825
  458MPD2    C1 6870   1.947   2.338  12.195  0.4689 -0.3908  0.0970
  458MPD2    C2 6871   1.837   2.398  12.243 -0.4166 -0.5221 -0.1823
  458MPD2    C3 6872   1.783   2.502  12.178 -0.0928  0.1521  0.0708
  458MPD2    C4 6873   1.834   2.550  12.058  0.2186 -0.6902 -0.2926
  458MPD2    C5 6874   1.950   2.491  12.019  0.1184 -0.4423 -0.2009
  458MPD2     H 6875   1.786   2.362  12.331  1.5267  1.4133  1.7342
  458MPD2    H1 6876   1.798   2.627  11.991  2.1428 -0.1446 -0.6957
  458MPD2    H2 6877   2.092   2.333  12.040  1.8033  1.7132  2.0314
  458MPD2    H3 6878   1.997   2.519  11.926  0.5233 -1.4895 -0.3189
  458MPD2     N 6879   1.673   2.558  12.241 -0.6826  0.4680  0.1536
  458MPD2    H5 6880   1.635   2.517  12.325 -1.8033 -1.2453 -1.1904
  458MPD2    N1 6881   2.007   2.232  12.265  0.2249 -0.4294  0.3577
  458MPD2    H7 6882   2.095   2.202  12.225  0.4255 -1.5178  1.5913
  459TMC3    C1 6883   2.065   2.080  12.429 -0.1500 -0.3408 -0.0188
  459TMC3    C2 6884   2.195   2.120  12.411 -0.1823  0.0514 -0.6006
  459TMC3    C3 6885   2.289   2.043  12.469 -0.0539 -0.0445 -0.7814
  459TMC3    C4 6886   2.030   1.980  12.514 -0.0175  0.1201 -0.1343
  459TMC3    C5 6887   2.126   1.900  12.579  0.0469  0.1385  1.2458
  459TMC3    C6 6888   2.259   1.932  12.550 -0.5191 -0.8799 -0.5379
  459TMC3     C 6889   1.959   2.157  12.366 -0.8799  0.2414 -0.3595
  459TMC3     O 6890   1.846   2.154  12.404  0.4939  0.3981  0.2394
  459TMC3     H 6891   2.226   2.209  12.359 -2.7253  0.3901 -1.5546
  459TMC3    H1 6892   1.924   1.967  12.534 -0.2182 -1.4679 -2.3272
  459TMC3    H2 6893   2.340   1.875  12.594 -2.6768 -2.8209  0.8960
  459TMC3    C7 6894   2.082   1.793  12.668 -0.7115  0.1037  0.0585
  459TMC3    C8 6895   2.421   2.074  12.426  0.4534 -0.4980  0.3576
  459TMC3    O1 6896   1.964   1.762  12.674  0.6767 -0.2382  0.3870
  459TMC3    O2 6897   2.442   2.145  12.329 -0.0979 -0.3233  0.6600
  460MPD2     C 6898   0.324   4.476  10.569  0.4067 -0.1481  0.0584
  460MPD2    C1 6899   0.265   4.353  10.543  0.1857  0.7435  0.3148
  460MPD2    C2 6900   0.159   4.349  10.455 -0.3079  0.0170  0.6503
  460MPD2    C3 6901   0.124   4.464  10.384  0.7941  0.0445 -0.2367
  460MPD2    C4 6902   0.185   4.588  10.406 -0.1421 -0.3827 -0.6881
  460MPD2    C5 6903   0.282   4.588  10.499  0.4213  0.7483  0.4632
  460MPD2     H 6904   0.118   4.249  10.444 -0.3384  0.0760  0.2491
  460MPD2    H1 6905   0.164   4.674  10.343  0.8185  0.5338  0.2375
  460MPD2    H2 6906   0.405   4.488  10.640  0.4501  0.8839 -0.1649
  460MPD2    H3 6907   0.336   4.680  10.517  3.5016 -0.8208 -0.7354
  460MPD2     N 6908   0.026   4.448  10.286 -0.0361  0.1688  0.3501
  460MPD2    H5 6909   0.005   4.356  10.248  0.9389 -0.2629  0.8671
  460MPD2    N1 6910   0.295   4.246  10.631 -0.2673  0.3818  0.1926
  460MPD2    H7 6911   0.240   4.161  10.625 -0.3749  0.7443 -3.9168
  461TMC3    C1 6912   4.588   4.515  10.125 -0.3719 -0.1616 -0.2746
  461TMC3    C2 6913   4.587   4.389  10.078  0.0546  0.1585 -0.6272
  461TMC3    C3 6914   4.546   4.374   9.944  0.4784  0.6504 -0.1590
  461TMC3    C4 6915   4.563   4.622  10.044 -0.2635 -0.2900  0.3135
  461TMC3    C5 6916   4.524   4.604   9.912 -0.2234  0.5232 -0.1877
  461TMC3    C6 6917   4.505   4.475   9.862 -0.0278 -0.0403  0.5442
  461TMC3     C 6918   4.683   4.551  10.229  0.5071  0.1911 -1.1019
  461TMC3     O 6919   4.677   4.667  10.270 -0.2525 -0.4438 -0.0729
  461TMC3     H 6920   4.593   4.299  10.139 -1.3240 -0.6957 -1.7471
  461TMC3    H1 6921   4.562   4.721  10.089 -0.9719 -0.7160  1.2254
  461TMC3    H2 6922   4.466   4.460   9.762  3.1047 -1.2195 -0.4950
  461TMC3    C7 6923   4.554   4.712   9.815 -0.0545  0.0628 -0.4095
  461TMC3    C8 6924   4.596   4.251   9.886  0.4192  0.8045  0.0102
  461TMC3    O1 6925   4.517   4.687   9.703  0.2068  0.7224  0.4224
  461TMC3    O2 6926   4.680   4.190   9.951  0.2975  0.0156  0.2913
  462TMC3    C1 6927   1.149   0.552   0.145 -0.0078 -0.0208  0.4770
  462TMC3    C2 6928   1.274   0.511   0.112 -0.8460  0.2563 -0.2498
  462TMC3    C3 6929   1.288   0.414   0.027  0.2128  0.1188 -0.3026
  462TMC3    C4 6930   1.033   0.493   0.113 -0.2137 -0.6435 -0.0720
  462TMC3    C5 6931   1.049   0.388   0.023  0.0877 -0.0312 -0.4049
  462TMC3    C6 6932   1.177   0.352  17.708 -0.8810  0.6701 -0.1564
  462TMC3     C 6933   1.141   0.666   0.243  0.3421 -0.0466  0.2479
  462TMC3     O 6934   1.244   0.707   0.295 -0.1438  0.6228 -0.7730
  462TMC3     H 6935   1.363   0.563   0.147 -0.6672  0.9009 -1.7017
  462TMC3    H1 6936   0.934   0.522   0.148  0.3837  0.6866  0.5118
  462TMC3    H2 6937   1.190   0.252  17.668  0.6757  0.9551 -0.3749
  462TMC3    C7 6938   0.935   0.307  17.730  0.1449 -0.2670 -0.0305
  462TMC3    C8 6939   1.413   0.344   0.019  0.0283  0.6520  0.0075
  462TMC3    O1 6940   0.958   0.202  17.678  0.2167 -0.1382  0.3239
  462TMC3    O2 6941   1.476   0.321   0.120 -0.2941 -0.2762 -0.6800
  463MPD2     C 6942   2.471   2.610   0.919  0.4565  0.2003  0.1457
  463MPD2    C1 6943   2.414   2.727   0.972 -0.4141 -0.0034 -0.2097
  463MPD2    C2 6944   2.496   2.827   1.022  0.1963 -0.4211 -0.5172
  463MPD2    C3 6945   2.629   2.814   1.034  0.4161  0.5283  0.7022
  463MPD2    C4 6946   2.688   2.693   0.993 -0.9451 -0.5912 -0.1946
  463MPD2    C5 6947   2.606   2.597   0.933  0.3194  0.0763 -0.2392
  463MPD2     H 6948   2.440   2.916   1.050 -0.8535 -2.2491  3.2851
  463MPD2    H1 6949   2.795   2.675   0.995 -1.0042 -0.9461 -0.1025
  463MPD2    H2 6950   2.414   2.528   0.877  0.1223  0.1681  0.6591
  463MPD2    H3 6951   2.644   2.500   0.904 -0.9242 -0.3337 -0.4685
  463MPD2     N 6952   2.715   2.922   1.064  0.0603 -0.0855  0.7865
  463MPD2    H5 6953   2.815   2.905   1.053  0.1734 -0.2306  1.9872
  463MPD2    N1 6954   2.273   2.741   0.972 -0.1643  0.5355 -0.2118
  463MPD2    H7 6955   2.240   2.810   1.039  1.9532  1.3957 -0.0597
  464TMC3    C1 6956   2.051   2.705   0.959 -0.4123 -0.3579  0.3164
  464TMC3    C2 6957   2.032   2.819   1.027  0.4573 -0.3574 -0.0131
  464TMC3    C3 6958   1.903   2.848   1.062 -0.4635  0.4568  0.2720
  464TMC3    C4 6959   1.953   2.622   0.914  0.0600 -0.4473  0.8822
  464TMC3    C5 6960   1.833   2.647   0.963 -0.2915 -0.8826 -0.1483
  464TMC3    C6 6961   1.804   2.760   1.035 -0.4378  0.5965 -0.0741
  464TMC3     C 6962   2.182   2.672   0.904  0.0819  0.4130  0.5026
  464TMC3     O 6963   2.188   2.608   0.797  0.3633 -0.0324 -0.0092
  464TMC3     H 6964   2.106   2.897   1.013  0.8437 -0.8104 -0.4561
  464TMC3    H1 6965   1.987   2.538   0.856  1.5051  0.2352  0.7507
  464TMC3    H2 6966   1.706   2.784   1.074 -0.0472 -0.2655  1.4639
  464TMC3    C7 6967   1.738   2.536   0.955  0.3135 -0.4017  1.2627
  464TMC3    C8 6968   1.862   2.978   1.115 -0.8545  0.0522 -0.1230
  464TMC3    O1 6969   1.786   2.424   0.955  0.1379 -0.2826 -0.1354
  464TMC3    O2 6970   1.739   2.995   1.125 -0.3846 -0.0670 -0.3699
  465MPD2     C 6971   3.002   2.638  16.710  0.2764  0.6988 -0.0967
  465MPD2    C1 6972   2.882   2.579  16.684 -0.3489  0.2548  0.2555
  465MPD2    C2 6973   2.810   2.618  16.570 -0.2011 -0.1899 -0.1476
  465MPD2    C3 6974   2.865   2.713  16.482 -0.4921 -0.4184 -0.3914
  465MPD2    C4 6975   2.994   2.762  16.499  0.0199 -0.3114  0.8486
  465MPD2    C5 6976   3.051   2.737  16.624 -0.3461 -0.2435  0.5530
  465MPD2     H 6977   2.712   2.576  16.553 -0.2710 -0.6867  1.4459
  465MPD2    H1 6978   3.039   2.838  16.436 -0.1495 -1.8747 -1.1774
  465MPD2    H2 6979   3.064   2.613  16.795 -0.5957 -0.6175  0.1570
  465MPD2    H3 6980   3.147   2.786  16.638 -0.2369 -0.1805 -0.3627
  465MPD2     N 6981   2.779   2.740  16.371 -0.4263  0.4932 -0.2097
  465MPD2    H5 6982   2.685   2.703  16.372 -1.2501  2.5698 -1.0636
  465MPD2    N1 6983   2.827   2.485  16.769  0.8594 -0.8745  0.4272
  465MPD2    H7 6984   2.726   2.478  16.769  0.7173  1.3023 -1.8091
  466TMC3    C1 6985   2.535   2.745  16.024  0.1684  0.4759 -0.6504
  466TMC3    C2 6986   2.546   2.855  15.939  0.6031 -0.0979 -0.1583
  466TMC3    C3 6987   2.648   2.942  15.964 -0.4201  0.4188 -0.8922
  466TMC3    C4 6988   2.631   2.712  16.120  0.5362  0.1825 -0.7014
  466TMC3    C5 6989   2.730   2.803  16.140  0.1095 -0.7788  0.0885
  466TMC3    C6 6990   2.736   2.922  16.069 -0.5727 -0.0307  0.7766
  466TMC3     C 6991   2.392   2.713  16.062 -0.6051 -0.5663 -0.0146
  466TMC3     O 6992   2.381   2.614  16.128 -0.2760 -0.4563  0.0340
  466TMC3     H 6993   2.475   2.870  15.859 -0.2440  2.3442  1.0409
  466TMC3    H1 6994   2.615   2.616  16.168 -0.8105  1.3917  1.3095
  466TMC3    H2 6995   2.811   2.994  16.100 -0.0670  0.3513 -1.2754
  466TMC3    C7 6996   2.827   2.795  16.250 -0.4645 -0.1770  0.2940
  466TMC3    C8 6997   2.630   3.069  15.902 -0.5848 -0.5557  0.1611
  466TMC3    O1 6998   2.927   2.862  16.228  0.3239 -0.2667  0.2812
  466TMC3    O2 6999   2.596   3.057  15.784  1.1116  0.2178  0.4036
  467TMC3    C1 7000   3.286   0.787  13.346 -0.0397 -0.5216 -0.5038
  467TMC3    C2 7001   3.366   0.791  13.238  0.0233  0.4544 -0.1049
  467TMC3    C3 7002   3.335   0.892  13.147  0.0126 -0.2981 -0.0631
  467TMC3    C4 7003   3.161   0.851  13.357 -0.3113 -0.0987 -0.6665
  467TMC3    C5 7004   3.126   0.928  13.254 -0.7987  0.8625 -0.4449
  467TMC3    C6 7005   3.212   0.950  13.147  0.2902  0.0254  0.4901
  467TMC3     C 7006   3.351   0.737  13.472 -1.0850  0.0958 -0.2431
  467TMC3     O 7007   3.454   0.681  13.453 -0.4664 -0.0774  0.0265
  467TMC3     H 7008   3.464   0.744  13.230 -1.1605 -1.7262 -1.7089
  467TMC3    H1 7009   3.094   0.815  13.435  0.1641 -1.1858 -0.7498
  467TMC3    H2 7010   3.188   1.023  13.070  0.1518  1.4941  1.9098
  467TMC3    C7 7011   3.009   1.016  13.262  0.1917 -0.2417  0.4545
  467TMC3    C8 7012   3.440   0.958  13.068 -0.1903  0.5981  0.7630
  467TMC3    O1 7013   2.991   1.086  13.163 -0.1149  0.8329 -0.2885
  467TMC3    O2 7014   3.422   1.068  13.017 -0.1354  0.5177  0.3044
  468MPD2     C 7015   2.050   3.949  10.435 -0.4685 -0.2690  0.2683
  468MPD2    C1 7016   2.176   3.919  10.399  0.6420 -0.0148 -0.6065
  468MPD2    C2 7017   2.238   3.807  10.461 -0.5696 -0.4396 -0.2043
  468MPD2    C3 7018   2.178   3.735  10.564  0.0594  0.4673  0.6123
  468MPD2    C4 7019   2.052   3.773  10.605  0.1948 -0.2655 -0.0424
  468MPD2    C5 7020   1.994   3.879  10.542 -0.2517  0.0655  0.4827
  468MPD2     H 7021   2.344   3.795  10.444 -0.3953 -2.3030  2.2115
  468MPD2    H1 7022   2.001   3.711  10.678 -1.4574  0.6971 -0.3647
  468MPD2    H2 7023   1.994   4.033  10.396  0.5029 -0.1761 -0.9199
  468MPD2    H3 7024   1.893   3.913  10.564 -0.6331 -0.1546 -0.9374
  468MPD2     N 7025   2.235   3.624  10.626  0.7943 -0.8379 -0.4588
  468MPD2    H5 7026   2.160   3.583  10.679 -1.1869 -0.4538 -2.9260
  468MPD2    N1 7027   2.255   3.995  10.308 -0.3996 -0.4114  0.4143
  468MPD2    H7 7028   2.352   3.967  10.297 -0.4890 -1.2502  1.7283
  469TMC3    C1 7029   2.324   4.181  10.193 -0.2012 -0.1752  0.0922
  469TMC3    C2 7030   2.443   4.109  10.205  0.5383 -0.2375 -0.4286
  469TMC3    C3 7031   2.539   4.162  10.280 -0.2356  0.2371  0.3551
  469TMC3    C4 7032   2.316   4.311  10.237 -0.7845  0.0541 -0.0946
  469TMC3    C5 7033   2.425   4.357  10.310 -0.1060 -0.2951 -0.2143
  469TMC3    C6 7034   2.537   4.285  10.333  0.5402  0.1875 -0.2598
  469TMC3     C 7035   2.206   4.101  10.239  0.1583  0.3437 -0.4723
  469TMC3     O 7036   2.104   4.166  10.232  0.0180  1.0492  0.0576
  469TMC3     H 7037   2.458   4.010  10.163  1.0436 -0.4517  0.2538
  469TMC3    H1 7038   2.226   4.372  10.236  0.5655  2.0632  1.0592
  469TMC3    H2 7039   2.624   4.331  10.377  1.5028 -2.7098  0.8190
  469TMC3    C7 7040   2.398   4.467  10.400  0.3958 -0.5464 -0.4303
  469TMC3    C8 7041   2.661   4.098  10.288 -0.7874  0.0678 -0.0499
  469TMC3    O1 7042   2.328   4.555  10.357 -0.1645 -0.3598  0.7094
  469TMC3    O2 7043   2.701   4.059  10.175 -0.2269  0.2899  0.2755
  470TMC3    C1 7044   0.010   4.723   0.594 -0.8419  0.0230 -0.1782
  470TMC3    C2 7045   4.730   0.124   0.578  0.5215  0.1299  0.7482
  470TMC3    C3 7046   0.086   0.208   0.643 -0.0240  0.1699  0.7792
  470TMC3    C4 7047   0.112   4.672   0.673  0.3358  0.8871  0.3061
  470TMC3    C5 7048   0.202   0.028   0.734  0.2727  0.0919  0.4971
  470TMC3    C6 7049   0.195   0.170   0.707  0.1636  0.5541 -0.3094
  470TMC3     C 7050   4.659   4.628   0.511 -0.0448 -0.1056  0.2926
  470TMC3     O 7051   4.663   4.510   0.544 -0.6292 -0.3393 -0.1742
  470TMC3     H 7052   4.649   0.159   0.515  0.6787 -0.4559  0.2199
  470TMC3    H1 7053   0.137   4.566   0.665  0.0682  0.9364 -1.2324
  470TMC3    H2 7054   0.261   0.236   0.762  2.2635 -1.5285 -0.3570
  470TMC3    C7 7055   0.307   4.704   0.811 -0.0467  0.9803  0.8709
  470TMC3    C8 7056   0.070   0.348   0.634 -0.7675 -0.2448 -0.1419
  470TMC3    O1 7057   0.422   0.016   0.812  0.0430  0.5506  0.2585
  470TMC3    O2 7058   0.159   0.419   0.678  0.1507 -0.0121  0.1795
  471MPD2     C 7059   0.366   1.611  16.114  0.1545 -0.0716  0.3488
  471MPD2    C1 7060   0.479   1.525  16.110  0.0140 -0.1051  0.0058
  471MPD2    C2 7061   0.558   1.499  16.221  0.1465  0.0521 -0.0235
  471MPD2    C3 7062   0.527   1.552  16.345 -0.5557  0.1143  0.4372
  471MPD2    C4 7063   0.418   1.640  16.352 -0.6510 -0.6085  0.8102
  471MPD2    C5 7064   0.348   1.675  16.235  0.3500 -0.5691  0.2791
  471MPD2     H 7065   0.636   1.425  16.215  1.9104  1.8026  1.1213
  471MPD2    H1 7066   0.405   1.696  16.444 -2.1611  0.2849  0.0566
  471MPD2    H2 7067   0.317   1.643  16.024  2.3205  1.7937 -0.1691
  471MPD2    H3 7068   0.272   1.751  16.247  1.1301  0.3351 -0.5194
  471MPD2     N 7069   0.609   1.533  16.463 -0.1359 -1.1680  0.3168
  471MPD2    H5 7070   0.568   1.558  16.552  0.4013 -1.5949  0.6815
  471MPD2    N1 7071   0.519   1.458  15.994 -0.3527 -0.0225  0.2091
  471MPD2    H7 7072   0.614   1.423  15.989 -0.9093 -1.2378 -2.1343
  472TMC3    C1 7073   0.503   1.362  15.780  0.0318 -0.1514 -0.6520
  472TMC3    C2 7074   0.431   1.365  15.661 -0.4109 -0.2470  0.5493
  472TMC3    C3 7075   0.429   1.248  15.584 -0.4361 -0.4327 -0.0961
  472TMC3    C4 7076   0.571   1.248  15.818  0.2902 -0.3690  0.0548
  472TMC3    C5 7077   0.560   1.132  15.743 -0.2200 -0.0813  0.3532
  472TMC3    C6 7078   0.491   1.131  15.624 -0.7907  0.0711  0.5378
  472TMC3     C 7079   0.443   1.443  15.883  0.0600  0.0556 -0.1795
  472TMC3     O 7080   0.337   1.496  15.857 -0.3417 -0.1779  0.4866
  472TMC3     H 7081   0.352   1.438  15.645 -0.0167  0.3033  1.1472
  472TMC3    H1 7082   0.617   1.238  15.916  0.1204 -0.3016  0.1421
  472TMC3    H2 7083   0.482   1.043  15.561  0.7645  2.2361 -2.6970
  472TMC3    C7 7084   0.545   1.005  15.816  0.2974 -0.9171  0.5284
  472TMC3    C8 7085   0.311   1.225  15.505 -0.6839  0.0556 -0.0109
  472TMC3    O1 7086   0.614   0.976  15.916  0.0626 -0.4910  0.3765
  472TMC3    O2 7087   0.288   1.288  15.401 -0.2418 -0.5140  0.0773
  473MPD2     C 7088   0.399   3.173  13.480 -0.2640  0.1505  0.0158
  473MPD2    C1 7089   0.342   3.291  13.429 -0.6005 -0.2707 -0.5952
  473MPD2    C2 7090   0.363   3.409  13.495 -0.6898  0.0429 -0.4220
  473MPD2    C3 7091   0.446   3.423  13.603 -0.0361 -0.0889  0.1422
  473MPD2    C4 7092   0.511   3.308  13.647 -0.5880  0.1961  0.0869
  473MPD2    C5 7093   0.487   3.189  13.581 -0.4815  0.0073  0.1491
  473MPD2     H 7094   0.311   3.498  13.462 -0.8961  0.3141  0.6392
  473MPD2    H1 7095   0.586   3.315  13.724 -1.6770 -0.0412  1.1569
  473MPD2    H2 7096   0.386   3.075  13.435  1.0683  0.2520 -0.6229
  473MPD2    H3 7097   0.529   3.098  13.623  0.1875  0.0322 -0.4513
  473MPD2     N 7098   0.487   3.541  13.665  0.1475  0.2024  0.4865
  473MPD2    H5 7099   0.541   3.530  13.750  1.3258  1.9454 -0.0230
  473MPD2    N1 7100   0.264   3.303  13.312 -0.6356 -0.1767 -0.7462
  473MPD2    H7 7101   0.227   3.396  13.295 -0.4378 -0.1410 -0.9749
  474TMC3    C1 7102   0.482   3.766  13.731 -0.0783 -0.7969  0.5007
  474TMC3    C2 7103   0.399   3.873  13.761  0.2462  0.3643 -0.6076
  474TMC3    C3 7104   0.449   3.966  13.847  0.4080  0.4198  0.0687
  474TMC3    C4 7105   0.605   3.752  13.788  0.7751 -0.0509 -0.2039
  474TMC3    C5 7106   0.650   3.849  13.873 -1.2566  0.3256  0.1735
  474TMC3    C6 7107   0.576   3.961  13.900 -0.0688 -0.4948  0.5241
  474TMC3     C 7108   0.420   3.659  13.654 -0.9751 -0.1118 -0.1980
  474TMC3     O 7109   0.305   3.672  13.615 -0.4950  0.0909  0.6042
  474TMC3     H 7110   0.298   3.877  13.721 -0.2080  0.7233  0.5893
  474TMC3    H1 7111   0.676   3.675  13.757  1.8809  1.4167 -1.3182
  474TMC3    H2 7112   0.603   4.052  13.952 -0.0347 -0.9508  1.3176
  474TMC3    C7 7113   0.778   3.835  13.935 -0.2036 -0.4863 -0.3976
  474TMC3    C8 7114   0.358   4.060  13.907 -0.0411  0.6289  0.0884
  474TMC3    O1 7115   0.856   3.752  13.882 -0.7080  0.1767 -0.1593
  474TMC3    O2 7116   0.244   4.016  13.924  0.3170 -0.5626 -0.6387
  475MPD2     C 7117   3.411   1.227  10.243  0.3908  0.1632 -0.5693
  475MPD2    C1 7118   3.477   1.325  10.318  0.4057 -0.8460 -0.3705
  475MPD2    C2 7119   3.417   1.385  10.425 -0.2498 -0.6201  0.3110
  475MPD2    C3 7120   3.289   1.361  10.468  0.6369  0.7022  0.5375
  475MPD2    C4 7121   3.226   1.262  10.394  0.0010  0.1761  0.6786
  475MPD2    C5 7122   3.280   1.197  10.281  0.3663 -0.6443 -0.1225
  475MPD2     H 7123   3.469   1.469  10.470 -0.3679 -0.6721  0.5444
  475MPD2    H1 7124   3.120   1.252  10.417  0.2604 -0.5729  1.5562
  475MPD2    H2 7125   3.462   1.167  10.169 -1.2637 -1.6734 -0.1995
  475MPD2    H3 7126   3.227   1.121  10.224 -1.1586 -2.1657  3.3077
  475MPD2     N 7127   3.239   1.430  10.584 -0.4132  0.8238 -0.1247
  475MPD2    H5 7128   3.296   1.504  10.622 -0.3528  0.5408  0.3321
  475MPD2    N1 7129   3.606   1.374  10.291  0.3232  0.6010 -0.2996
  475MPD2    H7 7130   3.629   1.456  10.346 -1.5204  0.5119  0.6226
  476TMC3    C1 7131   3.786   1.429  10.139 -0.6122 -0.0686 -0.3508
  476TMC3    C2 7132   3.797   1.438  10.008 -0.5395 -0.0674 -0.0812
  476TMC3    C3 7133   3.856   1.555   9.955  0.8687 -0.2838  0.4518
  476TMC3    C4 7134   3.824   1.525  10.219 -0.2438  0.2478 -0.4261
  476TMC3    C5 7135   3.903   1.624  10.171  0.3005 -0.7035  0.3875
  476TMC3    C6 7136   3.919   1.647  10.034 -0.7586 -0.9025 -0.2020
  476TMC3     C 7137   3.683   1.336  10.185  0.4394 -0.6515 -0.3621
  476TMC3     O 7138   3.658   1.242  10.109 -0.2586 -0.1673  0.3937
  476TMC3     H 7139   3.771   1.354   9.944  1.2560 -0.3103 -0.4937
  476TMC3    H1 7140   3.824   1.511  10.327  0.9007 -0.8412 -0.5729
  476TMC3    H2 7141   3.980   1.725   9.988  0.0680 -1.5471 -0.2001
  476TMC3    C7 7142   3.978   1.719  10.257  0.4457  0.3047 -0.4683
  476TMC3    C8 7143   3.795   1.613   9.833  0.4845 -0.0579  0.8540
  476TMC3    O1 7144   4.081   1.770  10.209  0.1166  0.0116  0.1347
  476TMC3    O2 7145   3.801   1.738   9.823 -0.2378 -0.3722 -0.5287
  477MPD2     C 7146   1.283   3.666  11.569  0.1099 -0.2835  0.0936
  477MPD2    C1 7147   1.203   3.568  11.525 -0.0888  0.2166 -0.5323
  477MPD2    C2 7148   1.177   3.463  11.607  0.8446  0.6367  0.0623
  477MPD2    C3 7149   1.225   3.462  11.739 -0.7917 -0.1578 -0.3815
  477MPD2    C4 7150   1.296   3.567  11.785  0.4439  1.0068  0.4400
  477MPD2    C5 7151   1.315   3.676  11.701  1.0696  0.2598  0.3126
  477MPD2     H 7152   1.109   3.381  11.588  1.8419 -0.2701  0.4048
  477MPD2    H1 7153   1.347   3.570  11.880 -0.6549  0.6193  1.0518
  477MPD2    H2 7154   1.310   3.751  11.507 -1.4397  0.4183  0.3613
  477MPD2    H3 7155   1.376   3.756  11.741 -1.0413  1.0045  1.9793
  477MPD2     N 7156   1.181   3.359  11.826 -0.1482  0.0406  0.1532
  477MPD2    H5 7157   1.147   3.272  11.786  1.2884 -0.6399  0.4261
  477MPD2    N1 7158   1.131   3.580  11.406  0.3041 -0.4498  0.3670
  477MPD2    H7 7159   1.128   3.670  11.358  0.9333 -1.0915 -0.8739
  478TMC3    C1 7160   0.946   3.541  11.268  0.6532 -0.3172 -0.0343
  478TMC3    C2 7161   0.934   3.679  11.267  0.9504 -0.4509 -0.3886
  478TMC3    C3 7162   0.833   3.734  11.186 -0.1831  0.5288 -0.0907
  478TMC3    C4 7163   0.858   3.458  11.207  0.4008 -0.1336 -0.3316
  478TMC3    C5 7164   0.755   3.516  11.136 -0.4949  0.1452  0.2358
  478TMC3    C6 7165   0.747   3.651  11.125  0.6139  0.4781 -0.4632
  478TMC3     C 7166   1.052   3.482  11.350  0.3157  0.3062 -0.5096
  478TMC3     O 7167   1.046   3.360  11.365  0.7960 -0.2998 -0.2169
  478TMC3     H 7168   1.007   3.751  11.303  1.6275 -2.4775  2.3250
  478TMC3    H1 7169   0.865   3.351  11.220  0.6330 -0.1230 -0.3817
  478TMC3    H2 7170   0.663   3.686  11.066  1.3272  0.8918 -1.2325
  478TMC3    C7 7171   0.642   3.437  11.114  0.2791 -0.6180  0.6302
  478TMC3    C8 7172   0.843   3.875  11.145 -0.1821  0.8370 -0.0504
  478TMC3    O1 7173   0.626   3.350  11.198  0.3029 -0.0068  0.1412
  478TMC3    O2 7174   0.954   3.919  11.147  0.6965 -0.5027  0.2797
  479MPD2     C 7175   4.727   0.617  14.743 -0.3113 -0.2553  0.2693
  479MPD2    C1 7176   4.691   0.558  14.863 -0.1874 -0.0326  0.1968
  479MPD2    C2 7177   0.059   0.527  14.945  0.0216 -0.1466 -0.3010
  479MPD2    C3 7178   0.189   0.565  14.926  0.1111 -0.2312 -0.0083
  479MPD2    C4 7179   0.219   0.629  14.808  0.0895  0.2111 -0.6353
  479MPD2    C5 7180   0.122   0.651  14.712  0.6304 -0.1019  0.5200
  479MPD2     H 7181   0.045   0.483  15.043 -0.6899  2.3266  0.7046
  479MPD2    H1 7182   0.320   0.656  14.780 -0.0476  2.5733  1.1902
  479MPD2    H2 7183   4.654   0.637  14.665 -0.9119  2.0527  1.4298
  479MPD2    H3 7184   0.139   0.683  14.610 -2.6593 -2.6800 -0.8197
  479MPD2     N 7185   0.301   0.555  15.019 -0.3969 -0.0700  0.6759
  479MPD2    H5 7186   0.387   0.581  14.971 -0.0192  0.5217  1.6616
  479MPD2    N1 7187   4.556   0.517  14.877  0.0193  0.3403 -0.4803
  479MPD2    H7 7188   4.504   0.537  14.792  0.9050 -0.2742 -1.1689
  480TMC3    C1 7189   0.013   0.540  15.394 -0.0897  0.1635 -0.0721
  480TMC3    C2 7190   4.679   0.654  15.365 -0.2039  0.6387 -0.5541
  480TMC3    C3 7191   4.719   0.740  15.265  0.2334  0.0404 -0.5936
  480TMC3    C4 7192   0.126   0.511  15.329 -0.9787  0.1921 -0.1845
  480TMC3    C5 7193   0.162   0.592  15.221 -0.2012  0.6922  0.0429
  480TMC3    C6 7194   0.106   0.713  15.201 -0.1537  0.4966 -0.1441
  480TMC3     C 7195   4.728   0.467  15.516 -0.4851  0.3923 -0.2465
  480TMC3     O 7196   0.093   0.401  15.548  0.1168 -0.1256  0.1627
  480TMC3     H 7197   4.585   0.681  15.412 -0.2163  1.1064 -0.8497
  480TMC3    H1 7198   0.171   0.415  15.352  1.5501  1.7148  1.2602
  480TMC3    H2 7199   0.155   0.779  15.131  0.4885  0.5324  0.3417
  480TMC3    C7 7200   0.285   0.552  15.155  0.9699  0.2434 -0.1645
  480TMC3    C8 7201   4.611   0.805  15.190  0.0114 -0.5411 -0.2678
  480TMC3    O1 7202   0.375   0.517  15.234  0.6231 -0.4156 -1.0625
  480TMC3    O2 7203   4.494   0.798  15.231  0.2067 -0.1934  0.3638
  481MPD2     C 7204   1.642   0.556  13.700 -0.4827 -0.1088  0.0669
  481MPD2    C1 7205   1.553   0.455  13.733  0.0092 -0.5731 -0.6041
  481MPD2    C2 7206   1.522   0.417  13.859 -0.8555 -0.1481  0.6088
  481MPD2    C3 7207   1.583   0.474  13.968 -0.1068  0.0749 -1.0067
  481MPD2    C4 7208   1.668   0.577  13.936  0.1660  0.7279  0.0619
  481MPD2    C5 7209   1.690   0.612  13.809  0.4820 -0.2310 -0.1728
  481MPD2     H 7210   1.449   0.340  13.880 -0.8433 -0.2268  0.3537
  481MPD2    H1 7211   1.720   0.631  14.015  0.4147  1.8049 -0.8287
  481MPD2    H2 7212   1.666   0.585  13.598 -0.8646 -0.4229 -0.1150
  481MPD2    H3 7213   1.764   0.692  13.804  1.1608 -0.9127 -0.9838
  481MPD2     N 7214   1.552   0.447  14.105 -0.1798 -0.5997 -0.8573
  481MPD2    H5 7215   1.617   0.490  14.169 -2.4128  0.4481  0.7097
  481MPD2    N1 7216   1.496   0.384  13.624 -0.0009 -0.0409  0.2928
  481MPD2    H7 7217   1.512   0.422  13.532  1.0656  2.1306  1.3677
  482TMC3    C1 7218   1.372   0.237  13.498  0.1505  0.2320  0.4314
  482TMC3    C2 7219   1.359   0.108  13.460  0.1597  0.3660  0.1690
  482TMC3    C3 7220   1.276   0.085  13.350 -0.2814 -0.5066  0.0470
  482TMC3    C4 7221   1.307   0.338  13.437 -0.7978 -0.3889 -0.6386
  482TMC3    C5 7222   1.218   0.313  13.337 -0.0970 -0.5095  0.3475
  482TMC3    C6 7223   1.209   0.188  13.285  0.2271  0.4559  0.7802
  482TMC3     C 7224   1.436   0.264  13.627 -0.6463  0.8305  0.3108
  482TMC3     O 7225   1.425   0.184  13.715 -0.5114 -0.0950  0.4303
  482TMC3     H 7226   1.397   0.017  13.505 -0.2428  0.5931  0.9764
  482TMC3    H1 7227   1.333   0.440  13.461  1.3805 -1.3759  1.2493
  482TMC3    H2 7228   1.151   0.166  13.196  1.7143  1.5934 -0.4465
  482TMC3    C7 7229   1.152   0.427  13.273 -0.0841  0.6667 -0.5009
  482TMC3    C8 7230   1.267   4.683  13.296  0.9237 -0.2906  0.3611
  482TMC3    O1 7231   1.159   0.538  13.324 -0.1341  0.7344  0.3055
  482TMC3    O2 7232   1.368   4.613  13.277  0.4952  0.0476  0.4498
  483TMC3    C1 7233   4.587   3.744   0.592  0.2076  0.5169 -0.9890
  483TMC3    C2 7234   4.674   3.829   0.529  0.4934  0.4724 -0.0846
  483TMC3    C3 7235   0.066   3.835   0.580  0.1188 -0.4937 -0.2603
  483TMC3    C4 7236   4.622   3.668   0.700 -0.4772 -0.3901 -0.1338
  483TMC3    C5 7237   0.019   3.655   0.727  0.0652 -0.7752 -0.4557
  483TMC3    C6 7238   0.108   3.741   0.667 -0.6193 -0.2526 -0.2314
  483TMC3     C 7239   4.455   3.728   0.534 -0.1356 -0.0783 -0.5198
  483TMC3     O 7240   4.392   3.831   0.506 -0.0812 -0.5569  0.2150
  483TMC3     H 7241   4.633   3.880   0.443 -0.4804 -1.1154 -0.5646
  483TMC3    H1 7242   4.548   3.611   0.756 -1.6031  0.1017 -1.1301
  483TMC3    H2 7243   0.211   3.740   0.699 -0.4537  3.8431 -0.6586
  483TMC3    C7 7244   0.059   3.578   0.847 -0.5828 -0.7896 -0.1161
  483TMC3    C8 7245   0.161   3.915   0.499 -0.1125 -0.1293  0.4994
  483TMC3    O1 7246   0.177   3.601   0.878 -0.6914  0.1056  0.6681
  483TMC3    O2 7247   0.102   3.991   0.415 -0.5955 -0.2239  0.1196
  484MPD2     C 7248   2.714   2.013  12.630 -0.2677 -0.3107  0.0111
  484MPD2    C1 7249   2.650   2.038  12.513 -0.3031  0.6605 -0.3028
  484MPD2    C2 7250   2.718   2.070  12.397  0.0829 -0.0746 -0.4649
  484MPD2    C3 7251   2.858   2.069  12.403 -0.7182  0.2220  0.3748
  484MPD2    C4 7252   2.926   2.038  12.516  0.6851  0.3224 -0.9221
  484MPD2    C5 7253   2.850   2.026  12.630  0.0064  0.5744 -0.4488
  484MPD2     H 7254   2.667   2.083  12.302 -2.0579 -0.6753  0.6053
  484MPD2    H1 7255   3.034   2.041  12.528  0.2589  1.2006  2.6862
  484MPD2    H2 7256   2.658   1.984  12.718  0.4185 -0.6909  0.3179
  484MPD2    H3 7257   2.907   2.011  12.721 -2.9771  0.2935  1.3781
  484MPD2     N 7258   2.936   2.087  12.286  0.2539  0.0920 -0.0060
  484MPD2    H5 7259   3.036   2.092  12.304  0.1650  1.4415  0.1378
  484MPD2    N1 7260   2.507   2.030  12.517 -0.2817  0.2781 -0.5017
  484MPD2    H7 7261   2.460   2.014  12.606  2.7046  0.8134  1.1526
  485TMC3    C1 7262   2.996   2.088  12.053 -0.0919 -0.0586 -0.3603
  485TMC3    C2 7263   3.127   2.084  12.092 -0.0854  0.7651  0.3726
  485TMC3    C3 7264   3.222   2.063  12.002 -0.3411  0.2883 -0.0171
  485TMC3    C4 7265   2.957   2.084  11.919 -0.6139 -0.1711 -0.1586
  485TMC3    C5 7266   3.062   2.088  11.832 -1.2697  0.1785 -0.2453
  485TMC3    C6 7267   3.194   2.088  11.869  0.5549 -0.5505 -0.3441
  485TMC3     C 7268   2.887   2.085  12.156 -0.0362 -0.2224 -0.2399
  485TMC3     O 7269   2.770   2.077  12.113 -0.6052 -0.3480 -0.5464
  485TMC3     H 7270   3.163   2.067  12.193 -2.0261 -0.5842  0.8506
  485TMC3    H1 7271   2.858   2.092  11.876 -1.3201 -1.6308  1.2271
  485TMC3    H2 7272   3.276   2.080  11.798  0.6274  1.0375 -0.4398
  485TMC3    C7 7273   3.026   2.008  11.710  0.1763 -0.4614  0.3512
  485TMC3    C8 7274   3.270   1.921  11.999 -0.5204  0.6186 -0.2778
  485TMC3    O1 7275   2.936   1.928  11.723 -0.1265 -0.6180  0.5814
  485TMC3    O2 7276   3.306   1.872  11.895  0.6586  0.3463 -0.2091
  486MPD2     C 7277   3.992   0.381  12.998 -0.3091 -0.2723 -0.1566
  486MPD2    C1 7278   3.931   0.405  12.877 -0.6375 -0.3604 -0.1417
  486MPD2    C2 7279   3.965   0.521  12.806  0.6092  0.3756  0.5610
  486MPD2    C3 7280   4.056   0.613  12.851 -0.4433  0.5078  0.2916
  486MPD2    C4 7281   4.117   0.585  12.973  0.0705  0.1352 -0.1770
  486MPD2    C5 7282   4.078   0.479  13.046  0.1865 -0.3243  0.4397
  486MPD2     H 7283   3.926   0.541  12.707 -0.6183  1.7484  1.3179
  486MPD2    H1 7284   4.179   0.662  13.019  1.8587 -2.3500  1.5434
  486MPD2    H2 7285   3.957   0.307  13.070 -0.1637 -0.3622 -0.1797
  486MPD2    H3 7286   4.103   0.467  13.150  0.6265  0.7321  0.4546
  486MPD2     N 7287   4.077   0.733  12.778 -0.0879  0.5928  0.3940
  486MPD2    H5 7288   4.033   0.745  12.687 -1.0350  1.8173  1.0129
  486MPD2    N1 7289   3.840   0.303  12.829  0.3971 -0.2218 -0.0131
  486MPD2    H7 7290   3.817   0.229  12.895 -0.6567 -2.4294 -2.8307
  487TMC3    C1 7291   3.698   0.198  12.680  0.3606 -0.7930  0.7975
  487TMC3    C2 7292   3.583   0.257  12.628  0.4160  0.3482 -0.3630
  487TMC3    C3 7293   3.459   0.214  12.677  0.2951 -0.5729 -0.4078
  487TMC3    C4 7294   3.688   0.094  12.769 -0.5036 -0.5408  1.0002
  487TMC3    C5 7295   3.558   0.064  12.818  0.3334 -0.0017 -0.1004
  487TMC3    C6 7296   3.447   0.128  12.783 -0.2535 -0.2502  0.1677
  487TMC3     C 7297   3.804   0.293  12.695 -0.1023 -0.7110 -0.2989
  487TMC3     O 7298   3.812   0.368  12.601  0.2550  0.0912 -0.0184
  487TMC3     H 7299   3.592   0.328  12.547  0.9684 -1.0673 -1.5508
  487TMC3    H1 7300   3.776   0.050  12.814  1.2473  0.2797 -1.6243
  487TMC3    H2 7301   3.351   0.087  12.811  1.0136 -3.5499 -0.1843
  487TMC3    C7 7302   3.568   0.043  12.964  0.5087 -0.0140  0.2958
  487TMC3    C8 7303   3.355   0.320  12.659  0.1786 -0.4721 -0.0591
  487TMC3    O1 7304   3.676   0.069  13.018 -0.5625 -0.0286  0.0443
  487TMC3    O2 7305   3.378   0.418  12.591 -0.3289 -0.0488  0.4016
  488MPD2     C 7306   4.565   2.138  16.101  0.3203 -0.2186 -0.2450
  488MPD2    C1 7307   4.620   2.251  16.146 -0.2614  0.4445  0.4152
  488MPD2    C2 7308   4.637   2.263  16.283 -0.4482 -0.4185 -0.5387
  488MPD2    C3 7309   4.598   2.156  16.362 -0.2912  1.0620 -0.0957
  488MPD2    C4 7310   4.545   2.038  16.316 -0.5134  0.3908  0.6858
  488MPD2    C5 7311   4.528   2.027  16.185  0.4492 -0.1072 -0.1790
  488MPD2     H 7312   4.654   2.361  16.326 -0.7693 -0.9650  0.8500
  488MPD2    H1 7313   4.520   1.951  16.375 -0.2584  0.5783  1.0645
  488MPD2    H2 7314   4.539   2.138  15.996 -0.7516 -0.2034  0.0229
  488MPD2    H3 7315   4.493   1.938  16.133 -0.3832  1.0764 -1.6332
  488MPD2     N 7316   4.614   2.179  16.501  0.0198  0.5967  0.0175
  488MPD2    H5 7317   4.658   2.269  16.520  2.2360 -0.6187  0.6511
  488MPD2    N1 7318   4.646   2.370  16.073 -0.0955  0.7294 -0.0527
  488MPD2    H7 7319   4.692   2.446  16.122 -0.1381  0.8809 -0.2499
  489TMC3    C1 7320   4.579   2.158  16.730  0.5272  0.5915 -0.1546
  489TMC3    C2 7321   4.654   2.274  16.740  0.0540  0.4932  1.0405
  489TMC3    C3 7322   4.681   2.321  16.865 -0.4573  0.1113  0.7042
  489TMC3    C4 7323   4.521   2.101  16.840 -0.5876 -0.3521  0.4567
  489TMC3    C5 7324   4.560   2.159  16.967  1.0323 -0.2380  0.5689
  489TMC3    C6 7325   4.629   2.276  16.984  0.4154  0.1098  0.1664
  489TMC3     C 7326   4.553   2.107  16.598  0.6569 -0.0451  0.7010
  489TMC3     O 7327   4.480   2.009  16.598 -0.1877 -0.1888  0.2736
  489TMC3     H 7328   4.694   2.333  16.659 -0.2763  0.5034  0.8870
  489TMC3    H1 7329   4.457   2.015  16.833 -0.1842 -0.5854 -0.3313
  489TMC3    H2 7330   4.657   2.326  17.076  1.6093  1.1914 -0.7737
  489TMC3    C7 7331   4.500   2.118  17.091 -0.0830 -0.5214 -0.6309
  489TMC3    C8 7332   0.004   2.447  16.865  0.6952  0.0306  0.1079
  489TMC3    O1 7333   4.573   2.141  17.187  0.1692  0.1645  0.0737
  489TMC3    O2 7334   0.088   2.467  16.779  0.1216  0.2958  0.2844
  490MPD2     C 7335   0.819   1.788  16.819  0.4231  0.0281  0.8531
  490MPD2    C1 7336   0.727   1.850  16.904 -0.1595  0.3911  0.1571
  490MPD2    C2 7337   0.741   1.978  16.957  0.3041 -0.1414  0.0071
  490MPD2    C3 7338   0.860   2.050  16.931 -0.1948  0.0623  0.3726
  490MPD2    C4 7339   0.955   1.987  16.844 -0.0590 -0.1609  0.7883
  490MPD2    C5 7340   0.934   1.859  16.796  0.0900 -0.7586 -0.9291
  490MPD2     H 7341   0.687   2.011  17.045 -1.9431 -3.1590 -0.2805
  490MPD2    H1 7342   1.044   2.032  16.802 -0.5408  0.0369 -0.0344
  490MPD2    H2 7343   0.802   1.693  16.769  1.9303  0.1484  0.0949
  490MPD2    H3 7344   1.013   1.821  16.732  1.6013  0.5584  0.1728
  490MPD2     N 7345   0.893   2.182  16.982 -0.2899  0.0550 -0.0761
  490MPD2    H5 7346   0.978   2.230  16.955  0.0613  0.6887  2.1248
  490MPD2    N1 7347   0.606   1.783  16.936  0.1444  0.0560  0.2306
  490MPD2    H7 7348   0.560   1.803  17.025  0.8327  2.2693  0.0852
  491TMC3    C1 7349   0.418   1.645  16.906 -0.6498  0.0428 -0.2814
  491TMC3    C2 7350   0.416   1.587  17.025 -0.3888 -0.5224 -0.1287
  491TMC3    C3 7351   0.302   1.514  17.054  0.4920  0.2401  0.1987
  491TMC3    C4 7352   0.315   1.644  16.814 -0.2797 -0.1435 -0.1430
  491TMC3    C5 7353   0.201   1.581  16.852  0.0815  0.1050  0.0182
  491TMC3    C6 7354   0.199   1.504  16.967 -0.0737  0.6338 -0.2334
  491TMC3     C 7355   0.542   1.691  16.850 -0.0713 -0.2640  0.1156
  491TMC3     O 7356   0.561   1.663  16.736  0.2484  0.0123  0.3543
  491TMC3     H 7357   0.502   1.606  17.088  0.1559  1.2667 -1.3950
  491TMC3    H1 7358   0.330   1.703  16.724 -1.9762 -2.6576 -2.0502
  491TMC3    H2 7359   0.107   1.464  17.007  0.5215 -0.5059  0.0058
  491TMC3    C7 7360   0.098   1.566  16.749  0.2744  0.2803 -0.3326
  491TMC3    C8 7361   0.290   1.453  17.180 -0.4064  0.6506 -0.4337
  491TMC3    O1 7362   0.023   1.466  16.758 -0.3850  0.7376  0.0704
  491TMC3    O2 7363   0.385   1.485  17.251  0.4134  0.3159 -0.3275
  492MPD2     C 7364   0.928   1.492  10.723  0.2701  0.1574  0.5126
  492MPD2    C1 7365   0.800   1.545  10.690 -0.2481 -0.5178 -0.0552
  492MPD2    C2 7366   0.692   1.536  10.785  0.1760 -0.5435 -0.2559
  492MPD2    C3 7367   0.720   1.474  10.909 -0.1790 -0.1026  0.5066
  492MPD2    C4 7368   0.851   1.449  10.944  0.2040  0.0367  0.1354
  492MPD2    C5 7369   0.949   1.463  10.854 -0.1533  0.4711  0.0891
  492MPD2     H 7370   0.588   1.559  10.766  0.1041 -1.8323 -1.3657
  492MPD2    H1 7371   0.880   1.409  11.040  1.2226  3.0739  1.0791
  492MPD2    H2 7372   1.014   1.485  10.658  0.0471  1.3704  0.0993
  492MPD2    H3 7373   1.053   1.434  10.867  0.1203  1.1585 -0.5579
  492MPD2     N 7374   0.625   1.462  11.011  0.0135 -0.6548  0.9219
  492MPD2    H5 7375   0.673   1.430  11.094  2.5223 -1.7672 -0.9420
  492MPD2    N1 7376   0.779   1.597  10.563 -0.3284  0.0586  0.4379
  492MPD2    H7 7377   0.855   1.590  10.495 -0.3755  0.4879  0.3376
  493TMC3    C1 7378   0.676   1.676  10.372 -0.0029 -0.7104 -0.0219
  493TMC3    C2 7379   0.765   1.777  10.334  0.2798 -0.7560 -0.5588
  493TMC3    C3 7380   0.756   1.826  10.208 -0.8866  0.1856  0.8112
  493TMC3    C4 7381   0.561   1.652  10.297 -0.0665  0.5854  0.3763
  493TMC3    C5 7382   0.562   1.698  10.162 -0.0769 -0.0607 -0.8218
  493TMC3    C6 7383   0.648   1.797  10.122  0.4419  0.4976 -0.2652
  493TMC3     C 7384   0.661   1.637  10.510  0.0723 -0.2172  0.0574
  493TMC3     O 7385   0.543   1.649  10.550  0.2308  0.1501 -0.2940
  493TMC3     H 7386   0.847   1.809  10.399 -0.3367 -0.8076  0.2393
  493TMC3    H1 7387   0.489   1.578  10.328  2.0137 -1.3817  0.4892
  493TMC3    H2 7388   0.634   1.845  10.026  0.6977 -0.3684 -0.7342
  493TMC3    C7 7389   0.425   1.712  10.123  0.4562 -0.3157 -0.0968
  493TMC3    C8 7390   0.856   1.926  10.176  0.6157  0.5722  0.4115
  493TMC3    O1 7391   0.391   1.667  10.013  0.4566 -0.3995 -0.1220
  493TMC3    O2 7392   0.961   1.915  10.243 -0.5029 -0.2475 -0.1386
  494TMC3    C1 7393   1.307   3.654   0.280 -0.2810  0.5054  0.0126
  494TMC3    C2 7394   1.282   3.519   0.266 -0.3710 -0.2282 -0.0592
  494TMC3    C3 7395   1.266   3.463   0.143  0.1845 -0.0721 -0.3726
  494TMC3    C4 7396   1.320   3.734   0.169  0.1612  0.1055  0.2983
  494TMC3    C5 7397   1.321   3.669   0.044 -0.0262 -0.3037  0.8501
  494TMC3    C6 7398   1.285   3.537   0.031 -0.3533 -0.5846 -0.4303
  494TMC3     C 7399   1.323   3.691   0.416  0.0031 -0.0293 -0.1503
  494TMC3     O 7400   1.379   3.613   0.488  0.1665 -0.6258 -0.4355
  494TMC3     H 7401   1.272   3.454   0.353  0.6610 -3.1947 -2.1415
  494TMC3    H1 7402   1.348   3.837   0.183 -1.3574  0.9080 -2.5883
  494TMC3    H2 7403   1.292   3.496  17.667 -2.5446 -1.4973 -0.2186
  494TMC3    C7 7404   1.392   3.731  17.670  1.1491  0.2946  0.4101
  494TMC3    C8 7405   1.255   3.322   0.136 -0.1808 -0.1882  0.2091
  494TMC3    O1 7406   1.472   3.661  17.610  0.1779 -0.1233  0.1837
  494TMC3    O2 7407   1.277   3.255   0.235  0.1582  0.1214 -0.2495
  495TMC3    C1 7408   0.167   0.888  14.257 -0.7755 -0.1748  0.1358
  495TMC3    C2 7409   0.060   0.896  14.169  0.0163 -0.2317 -0.7990
  495TMC3    C3 7410   4.669   0.952  14.209  0.3292  0.6802  0.1345
  495TMC3    C4 7411   0.153   0.922  14.387 -0.1483 -0.1649 -0.3356
  495TMC3    C5 7412   0.038   0.985  14.423  0.3411 -0.3411  0.3600
  495TMC3    C6 7413   4.663   0.992  14.341 -0.3078 -0.0833  0.0655
  495TMC3     C 7414   0.249   0.774  14.241 -0.7390  0.7284 -0.1364
  495TMC3     O 7415   0.359   0.777  14.292 -0.4794 -0.1814  0.6875
  495TMC3     H 7416   0.080   0.855  14.070  1.0145  0.5032 -0.9065
  495TMC3    H1 7417   0.239   0.908  14.451 -0.6329 -0.6505  0.2030
  495TMC3    H2 7418   4.572   1.044  14.369  0.0876  0.7242 -0.1744
  495TMC3    C7 7419   0.017   0.992  14.567 -0.0015 -0.7382 -0.8539
  495TMC3    C8 7420   4.551   0.885  14.151  0.0190  1.0797 -0.3813
  495TMC3    O1 7421   0.116   1.002  14.636  0.2035 -0.0054  0.5594
  495TMC3    O2 7422   4.450   0.922  14.208 -0.0215 -0.0147  0.1864
  496MPD2     C 7423   1.776   1.460  15.406  0.2322 -0.1781  0.1233
  496MPD2    C1 7424   1.793   1.409  15.279  0.2682  0.2385 -0.1241
  496MPD2    C2 7425   1.679   1.374  15.206 -0.2729 -0.3651  0.1857
  496MPD2    C3 7426   1.547   1.398  15.256 -0.0361 -0.0476 -0.0939
  496MPD2    C4 7427   1.533   1.468  15.379  0.4142 -0.0876  0.0083
  496MPD2    C5 7428   1.649   1.486  15.456 -0.8654 -0.6531  0.4011
  496MPD2     H 7429   1.690   1.322  15.112 -0.4853 -0.8117  0.4117
  496MPD2    H1 7430   1.436   1.503  15.412  0.7389 -1.7768  2.6990
  496MPD2    H2 7431   1.861   1.477  15.471  0.5153 -0.1006 -0.2675
  496MPD2    H3 7432   1.643   1.531  15.555  2.8713 -0.8337  0.6805
  496MPD2     N 7433   1.432   1.348  15.193  0.3910 -0.4605 -0.5517
  496MPD2    H5 7434   1.340   1.369  15.231  0.5288  1.5910 -1.3538
  496MPD2    N1 7435   1.921   1.390  15.232  0.5365 -0.2816 -0.5462
  496MPD2    H7 7436   1.999   1.402  15.297  0.0735  0.9020 -0.1946
  497TMC3    C1 7437   1.283   1.211  15.057  1.0573  0.0429 -0.9379
  497TMC3    C2 7438   1.267   1.178  14.930  0.4516  0.3692  0.6092
  497TMC3    C3 7439   1.210   1.055  14.905 -0.0165 -0.6017 -0.1903
  497TMC3    C4 7440   1.259   1.125  15.159 -0.6764  0.0569 -0.1296
  497TMC3    C5 7441   1.203   1.002  15.135 -0.0237  0.7303 -0.0864
  497TMC3    C6 7442   1.187   0.962  15.001  0.3082  0.1727 -0.2932
  497TMC3     C 7443   1.424   1.273  15.080  0.0621  0.0273  0.5154
  497TMC3     O 7444   1.512   1.246  14.999  0.3160 -0.0560  0.1173
  497TMC3     H 7445   1.300   1.234  14.843 -0.7047 -1.8570 -1.2689
  497TMC3    H1 7446   1.274   1.159  15.261  1.0712  0.9171 -0.6786
  497TMC3    H2 7447   1.152   0.860  14.985 -1.8145  0.9413 -0.6584
  497TMC3    C7 7448   1.212   0.897  15.238  0.3413  0.2958  0.0135
  497TMC3    C8 7449   1.238   1.000  14.767 -0.4357 -0.6706 -0.0336
  497TMC3    O1 7450   1.127   0.805  15.234  0.0954 -0.5350  0.2865
  497TMC3    O2 7451   1.331   1.050  14.708  0.0156 -0.5266  0.6295
  498MPD2     C 7452   3.048   1.087   8.948  0.1845  0.3975  0.0618
  498MPD2    C1 7453   3.038   1.187   9.045  0.6183  0.3361 -0.3858
  498MPD2    C2 7454   2.915   1.197   9.102  0.8024 -0.2386 -0.5118
  498MPD2    C3 7455   2.811   1.107   9.084 -0.7529  0.4660  0.0689
  498MPD2    C4 7456   2.828   1.006   8.993  0.4094 -0.1561 -0.1900
  498MPD2    C5 7457   2.944   1.004   8.920 -0.6188 -0.3621 -0.5789
  498MPD2     H 7458   2.898   1.284   9.163  4.9975  0.3384 -0.1753
  498MPD2    H1 7459   2.758   0.926   8.975 -0.0849  0.2842 -0.2258
  498MPD2    H2 7460   3.135   1.078   8.883  0.3234  0.9208  0.1788
  498MPD2    H3 7461   2.952   0.934   8.838 -0.0740  0.3777 -1.1623
  498MPD2     N 7462   2.697   1.124   9.166 -0.2170  0.5083 -0.0851
  498MPD2    H5 7463   2.683   1.207   9.223  1.2358  0.8554 -0.2230
  498MPD2    N1 7464   3.146   1.273   9.082 -0.6283 -0.1642  0.1547
  498MPD2    H7 7465   3.131   1.358   9.135  0.2378  1.5046 -2.2835
  499TMC3    C1 7466   3.362   1.346   9.107 -0.0641 -0.1967 -0.4314
  499TMC3    C2 7467   3.476   1.303   9.172 -0.0411 -0.3325 -0.2604
  499TMC3    C3 7468   3.552   1.395   9.233  0.0805  0.2699 -0.1453
  499TMC3    C4 7469   3.317   1.471   9.130 -0.3649  0.1045 -0.0171
  499TMC3    C5 7470   3.393   1.560   9.201 -0.1560  0.3989  0.5566
  499TMC3    C6 7471   3.520   1.526   9.249 -0.3999  0.1716  0.2433
  499TMC3     C 7472   3.272   1.254   9.033  0.9976  0.0746  0.6028
  499TMC3     O 7473   3.332   1.162   8.977  0.0036 -0.2257  0.1950
  499TMC3     H 7474   3.500   1.198   9.159  0.3499 -0.1135 -1.2992
  499TMC3    H1 7475   3.223   1.507   9.089 -0.3776 -0.6370 -0.6308
  499TMC3    H2 7476   3.578   1.598   9.304  0.1145  0.2779 -0.4444
  499TMC3    C7 7477   3.359   1.699   9.209  0.1937 -0.3690 -0.0161
  499TMC3    C8 7478   3.642   1.334   9.326  0.1184 -0.0071  1.0279
  499TMC3    O1 7479   3.453   1.780   9.202 -0.2019 -0.0883  0.6633
  499TMC3    O2 7480   3.607   1.227   9.376  0.4141 -0.6819 -0.4521
  500MPD2     C 7481   4.351   2.340  10.615 -0.3758  0.0829 -0.2540
  500MPD2    C1 7482   4.376   2.440  10.523  0.2655  0.1699 -0.0722
  500MPD2    C2 7483   4.314   2.428  10.403 -0.1259  0.0833 -0.1206
  500MPD2    C3 7484   4.221   2.326  10.372  0.0961  0.0278  0.5470
  500MPD2    C4 7485   4.202   2.231  10.471 -0.6385  0.4438  0.1996
  500MPD2    C5 7486   4.266   2.234  10.587  0.4231  0.5901 -0.5738
  500MPD2     H 7487   4.334   2.500  10.325 -0.8572 -0.9538 -1.2656
  500MPD2    H1 7488   4.129   2.151  10.464  0.5526 -0.5932 -0.2369
  500MPD2    H2 7489   4.406   2.342  10.708  1.4099 -0.0479 -1.2976
  500MPD2    H3 7490   4.250   2.163  10.668  0.5539  1.3393  0.1115
  500MPD2     N 7491   4.139   2.321  10.263 -0.2961  0.5032 -0.5183
  500MPD2    H5 7492   4.064   2.253  10.276  0.5153 -0.4803 -1.0189
  500MPD2    N1 7493   4.464   2.550  10.539  0.0061 -0.3747  0.0708
  500MPD2    H7 7494   4.478   2.615  10.463  0.3494 -2.1758 -1.4106
  501TMC3    C1 7495   4.652   2.677  10.619 -0.3629 -0.3147 -0.9018
  501TMC3    C2 7496   4.618   2.787  10.553 -0.0695  0.2622 -0.1330
  501TMC3    C3 7497   4.713   2.881  10.542  0.5303  0.1789 -0.2380
  501TMC3    C4 7498   0.041   2.666  10.679 -0.2027 -0.3568  0.1470
  501TMC3    C5 7499   0.130   2.763  10.669  0.0756 -0.1084 -0.8835
  501TMC3    C6 7500   0.104   2.873  10.592  0.5680 -0.8592  0.3554
  501TMC3     C 7501   4.558   2.561  10.639 -0.8258 -0.0577 -0.5275
  501TMC3     O 7502   4.583   2.482  10.728  0.2624  0.3958 -0.2600
  501TMC3     H 7503   4.514   2.800  10.524 -0.6773  0.1430  1.9727
  501TMC3    H1 7504   0.076   2.574  10.725  1.4502 -0.1411 -0.6736
  501TMC3    H2 7505   0.170   2.956  10.569  0.7204 -0.8550  0.8067
  501TMC3    C7 7506   0.270   2.721  10.665  0.7887  0.3036  0.3703
  501TMC3    C8 7507   4.665   3.013  10.500  0.0967 -0.0643 -0.0946
  501TMC3    O1 7508   0.290   2.601  10.661  0.2718 -0.2227  0.2056
  501TMC3    O2 7509   4.727   3.106  10.548  0.0034 -0.2897  0.5586
  502TMC3    C1 7510   4.123   1.675  14.338  0.2110  0.4303 -0.1719
  502TMC3    C2 7511   4.127   1.803  14.298  0.8109 -0.1613  0.0561
  502TMC3    C3 7512   4.029   1.887  14.331 -0.2418 -0.8769  0.5682
  502TMC3    C4 7513   4.003   1.618  14.383 -0.4523  0.1410  0.2068
  502TMC3    C5 7514   3.898   1.702  14.407 -0.3880 -0.5468 -0.0721
  502TMC3    C6 7515   3.906   1.838  14.380  0.8520  0.7820 -0.2933
  502TMC3     C 7516   4.240   1.637  14.418 -0.0697 -0.4844 -0.2524
  502TMC3     O 7517   4.353   1.674  14.380  0.3234 -0.1487 -0.0593
  502TMC3     H 7518   4.219   1.830  14.248  1.4623 -1.7622  0.3642
  502TMC3    H1 7519   3.999   1.511  14.404 -0.5027  0.1346  0.1661
  502TMC3    H2 7520   3.828   1.901  14.421  0.1192 -0.4845  0.2626
  502TMC3    C7 7521   3.831   1.658  14.530 -0.4007  0.4789  0.3109
  502TMC3    C8 7522   4.066   2.029  14.338 -0.2984  0.6597 -0.5569
  502TMC3    O1 7523   3.895   1.567  14.585 -0.2794 -0.0433 -0.4088
  502TMC3    O2 7524   4.183   2.053  14.324  0.1733 -0.1793 -0.3285
  503MPD2     C 7525   1.655   2.779  16.338 -0.0578  0.2237 -0.1532
  503MPD2    C1 7526   1.672   2.804  16.474  0.5176  0.0049  0.4767
  503MPD2    C2 7527   1.736   2.698  16.550 -0.6430 -1.0432 -0.1301
  503MPD2    C3 7528   1.759   2.574  16.499  0.1057 -0.0218 -0.8971
  503MPD2    C4 7529   1.726   2.552  16.362 -0.7100  0.4505 -0.2513
  503MPD2    C5 7530   1.674   2.654  16.289  0.1074 -0.0284 -0.1563
  503MPD2     H 7531   1.756   2.704  16.657  0.1088  0.0535 -0.3274
  503MPD2    H1 7532   1.756   2.468  16.301 -0.8194 -1.2354  2.0298
  503MPD2    H2 7533   1.624   2.854  16.266  2.5564  0.0954 -1.4007
  503MPD2    H3 7534   1.653   2.641  16.183  0.6799  0.4768 -0.3306
  503MPD2     N 7535   1.821   2.476  16.578 -0.3443 -0.1445  1.1964
  503MPD2    H5 7536   1.837   2.493  16.676  1.8445 -1.3182  1.0303
  503MPD2    N1 7537   1.665   2.930  16.536 -0.0512 -0.2142 -0.1081
  503MPD2    H7 7538   1.682   2.928  16.636  0.5659 -0.5680 -0.2215
  504TMC3    C1 7539   1.927   2.296  16.648  0.3272  0.5283  0.6285
  504TMC3    C2 7540   1.857   2.203  16.720 -0.4480 -0.3488  0.1838
  504TMC3    C3 7541   1.918   2.165  16.839  0.2677  0.4753 -0.6471
  504TMC3    C4 7542   2.054   2.342  16.673 -0.0868 -0.2693  0.4024
  504TMC3    C5 7543   2.115   2.288  16.780 -0.3074 -0.6340 -0.7421
  504TMC3    C6 7544   2.049   2.201  16.864 -0.7241  0.3140  0.5107
  504TMC3     C 7545   1.863   2.360  16.535  0.8095  0.1319  0.4104
  504TMC3     O 7546   1.863   2.311  16.423  0.6858 -0.2842  0.0579
  504TMC3     H 7547   1.752   2.180  16.704 -0.6154  0.0619  0.7010
  504TMC3    H1 7548   2.110   2.401  16.601 -0.8267  0.1424  0.1657
  504TMC3    H2 7549   2.098   2.164  16.954  0.2118 -0.5624 -0.3523
  504TMC3    C7 7550   2.259   2.272  16.753  0.2855  0.6693  0.3102
  504TMC3    C8 7551   1.846   2.088  16.932  0.5287  0.1364  0.5091
  504TMC3    O1 7552   2.307   2.357  16.680  0.6586 -0.5325 -0.2724
  504TMC3    O2 7553   1.737   2.045  16.900  0.3927  0.5877 -0.4241
  505MPD2     C 7554   1.656   1.185  10.234 -0.3549  0.0058  0.5087
  505MPD2    C1 7555   1.758   1.103  10.277  0.0384 -0.1297  0.3143
  505MPD2    C2 7556   1.869   1.170  10.327  0.3847 -0.3719  0.5684
  505MPD2    C3 7557   1.886   1.305  10.309  0.1387 -0.0425 -0.4998
  505MPD2    C4 7558   1.786   1.387  10.261 -0.5417 -0.9976 -0.1832
  505MPD2    C5 7559   1.669   1.326  10.218  0.9096 -0.5944  0.0220
  505MPD2     H 7560   1.958   1.125  10.369 -0.7517 -2.3269  0.9197
  505MPD2    H1 7561   1.804   1.492  10.242  0.6004 -0.9588  1.0704
  505MPD2    H2 7562   1.565   1.139  10.198  1.2039 -1.6415 -1.3074
  505MPD2    H3 7563   1.589   1.386  10.177 -0.9002 -1.5412  2.1728
  505MPD2     N 7564   2.010   1.366  10.342  0.1309 -0.5978 -0.0594
  505MPD2    H5 7565   2.021   1.464  10.318 -1.0071 -0.2851  0.7127
  505MPD2    N1 7566   1.745   0.964  10.287  0.0075  0.0163  0.9264
  505MPD2    H7 7567   1.665   0.930  10.235 -0.1525 -0.2428  1.3405
  506TMC3    C1 7568   1.803   0.743  10.306 -0.0737  0.5111 -0.1132
  506TMC3    C2 7569   1.782   0.727  10.169  0.4303  0.4718 -0.1024
  506TMC3    C3 7570   1.832   0.614  10.109  1.0399  0.3287  0.1884
  506TMC3    C4 7571   1.867   0.650  10.381 -0.5466 -0.0431  0.5899
  506TMC3    C5 7572   1.938   0.549  10.312 -0.4169  0.6247 -0.3782
  506TMC3    C6 7573   1.914   0.530  10.179 -0.4767  0.0946 -0.0476
  506TMC3     C 7574   1.820   0.875  10.357 -0.7306 -0.0024  0.7699
  506TMC3     O 7575   1.887   0.887  10.457  0.5496 -0.0338 -0.3480
  506TMC3     H 7576   1.740   0.801  10.101 -1.6014 -1.1928 -0.6630
  506TMC3    H1 7577   1.868   0.664  10.489  0.2649 -1.8970  0.8295
  506TMC3    H2 7578   1.970   0.447  10.138  0.4030  0.9457 -0.5840
  506TMC3    C7 7579   2.077   0.569  10.351 -0.5132 -0.7025 -0.3857
  506TMC3    C8 7580   1.835   0.590   9.970  0.6218 -0.9309 -0.1317
  506TMC3    O1 7581   2.159   0.494  10.301 -0.1504  0.0954  0.4513
  506TMC3    O2 7582   1.796   0.477   9.929 -0.5647 -0.2338  0.4707
  507TMC3    C1 7583   1.817   1.927  14.629  0.4447 -0.0640  0.2520
  507TMC3    C2 7584   1.733   2.008  14.556  0.2968  0.0812 -0.0968
  507TMC3    C3 7585   1.711   1.972  14.425  0.0898 -0.2986 -0.0212
  507TMC3    C4 7586   1.883   1.822  14.574  0.6155  0.2143 -0.6404
  507TMC3    C5 7587   1.854   1.779  14.451 -0.4871  0.6406 -0.9194
  507TMC3    C6 7588   1.761   1.852  14.380 -0.3237  0.2869 -0.4265
  507TMC3     C 7589   1.862   1.965  14.761 -0.4409  0.3712  0.5810
  507TMC3     O 7590   1.979   1.940  14.778  1.1245 -0.0730  0.9752
  507TMC3     H 7591   1.703   2.106  14.590  2.1642  0.1461  1.3561
  507TMC3    H1 7592   1.936   1.758  14.643 -0.5858  1.4989  1.4836
  507TMC3    H2 7593   1.732   1.821  14.280 -0.9852  1.8901 -0.7372
  507TMC3    C7 7594   1.971   1.748  14.370  0.7139  0.3840 -0.5464
  507TMC3    C8 7595   1.699   2.075  14.326  0.2774  0.0343 -0.4503
  507TMC3    O1 7596   1.955   1.802  14.258  0.6416  0.5186 -0.5844
  507TMC3    O2 7597   1.626   2.170  14.353  0.4031  0.8825 -0.3506
  508MPD2     C 7598   3.483   4.216  15.922 -0.1291 -0.0597  0.2808
  508MPD2    C1 7599   3.506   4.352  15.954 -0.5750  0.4640  0.0199
  508MPD2    C2 7600   3.497   4.451  15.867  0.5594  0.3632  0.0177
  508MPD2    C3 7601   3.458   4.423  15.737 -0.4022  0.4131 -0.5072
  508MPD2    C4 7602   3.417   4.293  15.708  0.4971  0.7939  0.2924
  508MPD2    C5 7603   3.435   4.193  15.797 -0.4795 -0.3144 -0.5210
  508MPD2     H 7604   3.491   4.552  15.905 -1.2463  0.5698 -0.8086
  508MPD2    H1 7605   3.366   4.259  15.619  3.3292  0.8635 -1.3750
  508MPD2    H2 7606   3.477   4.142  16.001 -2.3037 -1.4126 -1.1372
  508MPD2    H3 7607   3.403   4.095  15.764  1.9418 -0.9576 -0.9943
  508MPD2     N 7608   3.457   4.529  15.654 -0.0435  0.2022  0.0523
  508MPD2    H5 7609   3.496   4.613  15.695  1.1848 -1.1304  1.5972
  508MPD2    N1 7610   3.544   4.387  16.088  0.1399  0.2183  0.0459
  508MPD2    H7 7611   3.552   4.487  16.100 -0.3540  0.3011 -0.3554
  509TMC3    C1 7612   3.406   0.014  15.247 -0.2948 -0.4890  0.0364
  509TMC3    C2 7613   3.496   0.114  15.272  0.6027  0.7855  0.1268
  509TMC3    C3 7614   3.574   0.098  15.384  0.6338  0.4136  0.3918
  509TMC3    C4 7615   3.371   4.647  15.324  0.7928 -0.1015  0.1618
  509TMC3    C5 7616   3.438   4.642  15.439  0.0710 -0.7309 -0.2821
  509TMC3    C6 7617   3.544   4.729  15.466  0.2205  0.5494  0.0752
  509TMC3     C 7618   3.314   0.046  15.135  0.1626  0.1766 -0.4504
  509TMC3     O 7619   3.245   4.688  15.095 -0.2596 -0.6267  0.1836
  509TMC3     H 7620   3.525   0.187  15.196  0.4943  0.4571 -0.2317
  509TMC3    H1 7621   3.302   4.572  15.285 -1.3749 -0.1313  4.0097
  509TMC3    H2 7622   3.620   4.715  15.542 -0.5307  2.4339  1.1828
  509TMC3    C7 7623   3.411   4.529  15.527 -0.1617  0.1780  0.3039
  509TMC3    C8 7624   3.707   0.156  15.387 -0.3548  0.4514 -0.5883
  509TMC3    O1 7625   3.333   4.450  15.476  0.1375  0.1021  0.3687
  509TMC3    O2 7626   3.784   0.121  15.476 -0.1585  0.1146  0.2627
  510MPD2     C 7627   1.287   1.489  13.727 -0.4559  0.1640  0.5315
  510MPD2    C1 7628   1.350   1.434  13.839  0.5235  0.4348  0.3069
  510MPD2    C2 7629   1.487   1.424  13.849  0.1317 -0.6353  0.5726
  510MPD2    C3 7630   1.565   1.468  13.745 -0.2507 -0.3184 -0.4918
  510MPD2    C4 7631   1.503   1.535  13.637 -0.2075 -0.2260 -1.1467
  510MPD2    C5 7632   1.370   1.543  13.631 -0.0810 -0.2436 -0.2403
  510MPD2     H 7633   1.528   1.372  13.935 -1.5215 -2.8841  0.0046
  510MPD2    H1 7634   1.560   1.570  13.552  1.6061  0.3521  0.3203
  510MPD2    H2 7635   1.179   1.497  13.724 -0.4148  0.3695 -0.1592
  510MPD2    H3 7636   1.331   1.602  13.548  1.3407  1.4651  0.3235
  510MPD2     N 7637   1.704   1.436  13.744 -0.7583  0.6904  0.3349
  510MPD2    H5 7638   1.737   1.387  13.827 -1.3659 -1.1611 -0.5481
  510MPD2    N1 7639   1.275   1.365  13.935  0.2360 -0.2712  0.6477
  510MPD2    H7 7640   1.176   1.357  13.912  0.5998  0.6883 -1.2446
  511TMC3    C1 7641   1.206   1.250  14.137 -0.0036 -0.0846  0.3187
  511TMC3    C2 7642   1.204   1.265  14.273  0.2132  0.0522 -0.0172
  511TMC3    C3 7643   1.122   1.186  14.351 -0.2143  0.4472 -0.4434
  511TMC3    C4 7644   1.149   1.143  14.069  0.4095 -0.1876 -0.1045
  511TMC3    C5 7645   1.085   1.057  14.151 -0.4589  0.0172  0.7647
  511TMC3    C6 7646   1.063   1.080  14.287  0.0969 -0.0958 -0.3502
  511TMC3     C 7647   1.308   1.329  14.064  0.3302  0.4480  0.2716
  511TMC3     O 7648   1.413   1.361  14.124  0.0877 -0.2256 -0.0232
  511TMC3     H 7649   1.239   1.361  14.309  3.1622 -0.9655 -0.2110
  511TMC3    H1 7650   1.178   1.127  13.966 -0.1931  1.8266 -0.5873
  511TMC3    H2 7651   1.012   1.014  14.357  0.6934  2.6506  2.6760
  511TMC3    C7 7652   1.011   0.951  14.087  0.0116 -0.5907  0.1409
  511TMC3    C8 7653   1.084   1.228  14.481 -0.1546 -0.3821 -0.3227
  511TMC3    O1 7654   1.012   0.964  13.969 -0.3763  0.3699 -0.7860
  511TMC3    O2 7655   1.159   1.308  14.525 -0.0901 -0.5531 -0.2795
  512TMC3    C1 7656   4.100   0.207  12.360 -0.4180 -0.2069  0.2451
  512TMC3    C2 7657   4.123   0.227  12.496 -0.1627  0.1889  0.4017
  512TMC3    C3 7658   4.214   0.321  12.530 -0.5280  0.2897  0.0711
  512TMC3    C4 7659   4.146   0.301  12.273  0.8286 -1.3850 -0.1047
  512TMC3    C5 7660   4.234   0.395  12.317 -0.0703 -0.0501 -0.0115
  512TMC3    C6 7661   4.267   0.403  12.445  0.5099  0.3625  0.3181
  512TMC3     C 7662   3.980   0.144  12.320 -0.2050  0.0374  0.4210
  512TMC3     O 7663   3.955   0.148  12.200  0.1507  0.8807  0.2050
  512TMC3     H 7664   4.077   0.172  12.577 -1.3029 -1.7903 -1.6092
  512TMC3    H1 7665   4.137   0.291  12.166  1.5036  0.7867 -0.3747
  512TMC3    H2 7666   4.345   0.475  12.466 -0.4615  2.0500 -1.7594
  512TMC3    C7 7667   4.334   0.440  12.227 -0.7056  0.2852 -0.0204
  512TMC3    C8 7668   4.269   0.317  12.663  0.6124 -0.3167 -0.0968
  512TMC3    O1 7669   4.299   0.457  12.111 -0.4444 -0.2393 -0.5638
  512TMC3    O2 7670   4.287   0.200  12.700  0.1422 -0.4183  0.2907
  513MPD2     C 7671   1.699   0.062  13.001  0.0591  0.3943  0.3708
  513MPD2    C1 7672   1.701   0.166  12.905  0.4283  0.8067  0.0829
  513MPD2    C2 7673   1.670   0.298  12.945 -0.8235 -0.0079 -0.0414
  513MPD2    C3 7674   1.642   0.324  13.081  0.3226  0.9692  0.4506
  513MPD2    C4 7675   1.633   0.217  13.172  0.7311  0.2071 -0.1107
  513MPD2    C5 7676   1.665   0.089  13.131  0.0972 -0.0726  0.5803
  513MPD2     H 7677   1.687   0.380  12.876  0.3955 -0.2140  0.0068
  513MPD2    H1 7678   1.631   0.236  13.279  0.4432 -0.6847  0.0440
  513MPD2    H2 7679   1.719   4.691  12.990 -0.0982  0.4694 -0.6176
  513MPD2    H3 7680   1.669   0.009  13.204  0.7378  0.3167  0.9816
  513MPD2     N 7681   1.648   0.458  13.122 -0.3350  0.3855 -0.6308
  513MPD2    H5 7682   1.672   0.522  13.047 -0.4886 -1.8015 -2.5345
  513MPD2    N1 7683   1.765   0.150  12.780 -0.2053  0.5205  0.4739
  513MPD2    H7 7684   1.781   0.237  12.730  4.1588 -0.1796  0.6446
  514TMC3    C1 7685   1.874   0.083  12.589 -0.2947 -0.1415 -0.7629
  514TMC3    C2 7686   2.006   0.058  12.579 -0.3614  0.1572  0.0948
  514TMC3    C3 7687   2.088   0.155  12.510 -0.5002 -0.5707  0.6690
  514TMC3    C4 7688   1.822   0.203  12.545  0.4341 -0.2564  0.1415
  514TMC3    C5 7689   1.903   0.299  12.496  0.3505 -0.1142 -0.0403
  514TMC3    C6 7690   2.034   0.274  12.471  0.4271 -0.3516  0.3040
  514TMC3     C 7691   1.812   0.041  12.712 -0.1017 -0.3836 -0.7156
  514TMC3     O 7692   1.804   4.657  12.738  0.5786  0.2111  0.0879
  514TMC3     H 7693   2.043   4.698  12.619  0.1232  0.4538  0.3310
  514TMC3    H1 7694   1.717   0.230  12.545  0.6934  0.7184 -3.5055
  514TMC3    H2 7695   2.099   0.355  12.443 -0.6125 -0.3629 -2.1146
  514TMC3    C7 7696   1.873   0.426  12.559 -0.2239 -0.4695 -0.2642
  514TMC3    C8 7697   2.224   0.127  12.481  0.3521  0.4221  0.1084
  514TMC3    O1 7698   1.803   0.413  12.654 -0.3553  0.5467  0.5789
  514TMC3    O2 7699   2.284   0.059  12.562  0.3038 -0.3201 -0.1008
  515MPD2     C 7700   0.855   2.148  13.882  0.3002 -0.0142  0.1281
  515MPD2    C1 7701   0.738   2.133  13.947  0.7648 -0.7867  0.0621
  515MPD2    C2 7702   0.720   2.191  14.070 -0.2661 -0.7935 -1.2722
  515MPD2    C3 7703   0.828   2.259  14.123  0.1251 -0.3285 -0.7372
  515MPD2    C4 7704   0.950   2.261  14.058 -0.2071 -0.1840  0.0048
  515MPD2    C5 7705   0.962   2.202  13.940  0.3018  0.0423  0.1015
  515MPD2     H 7706   0.625   2.199  14.121  0.8727  0.6425  0.5916
  515MPD2    H1 7707   1.037   2.318  14.089  0.0341 -0.7221  0.3180
  515MPD2    H2 7708   0.873   2.108  13.783 -1.2542 -0.0023 -0.1610
  515MPD2    H3 7709   1.051   2.217  13.879  0.1267  0.0117 -0.1639
  515MPD2     N 7710   0.824   2.321  14.250 -0.4378  0.0075 -0.0371
  515MPD2    H5 7711   0.917   2.347  14.282 -0.0536 -0.7126 -0.5800
  515MPD2    N1 7712   0.634   2.062  13.895  0.1591 -0.0401  0.3149
  515MPD2    H7 7713   0.553   2.049  13.954 -1.6945 -0.7475 -2.3887
  516TMC3    C1 7714   0.500   1.942  13.742 -0.0454  0.3553  0.4812
  516TMC3    C2 7715   0.433   1.973  13.629  0.0722  0.3650  0.4394
  516TMC3    C3 7716   0.305   1.929  13.610  0.1253  0.5352  0.2139
  516TMC3    C4 7717   0.440   1.882  13.847  0.3203 -0.4547  0.3016
  516TMC3    C5 7718   0.318   1.828  13.821  0.1057 -0.8542  0.2245
  516TMC3    C6 7719   0.247   1.848  13.702  0.4186 -0.5772  0.7876
  516TMC3     C 7720   0.627   2.018  13.766 -0.6227  0.7313  0.2480
  516TMC3     O 7721   0.685   2.052  13.666  0.1650  0.5273 -0.1883
  516TMC3     H 7722   0.488   2.024  13.550 -2.8945 -0.1722 -2.0016
  516TMC3    H1 7723   0.491   1.858  13.939 -1.5393 -0.2406  1.3850
  516TMC3    H2 7724   0.142   1.822  13.693 -0.1907  3.1857 -3.2375
  516TMC3    C7 7725   0.260   1.740  13.914  0.2268  0.3538 -0.0482
  516TMC3    C8 7726   0.212   2.021  13.551  0.6035 -0.5423 -0.8101
  516TMC3    O1 7727   0.309   1.732  14.027 -0.0202 -0.2029 -0.2594
  516TMC3    O2 7728   0.099   1.978  13.536  0.1534  0.7030  0.4030
  517MPD2     C 7729   4.717   3.915  17.296  0.7107  0.1907  0.2835
  517MPD2    C1 7730   0.123   3.906  17.311 -0.5370  0.0277  0.5728
  517MPD2    C2 7731   0.195   4.009  17.365 -0.5346  0.0737 -0.3202
  517MPD2    C3 7732   0.132   4.129  17.398 -1.0793  0.1377  0.2661
  517MPD2    C4 7733   4.732   4.140  17.373  0.5060 -0.1255  0.2629
  517MPD2    C5 7734   4.663   4.038  17.319  0.5511  0.2675  0.2122
  517MPD2     H 7735   0.302   3.989  17.362 -0.3065  1.3306 -0.7660
  517MPD2    H1 7736   4.686   4.233  17.402 -0.9577 -0.4365 -1.0847
  517MPD2    H2 7737   4.657   3.845  17.239  2.0360  0.7790 -1.8206
  517MPD2    H3 7738   4.556   4.039  17.300  0.3472  0.3784  1.3642
  517MPD2     N 7739   0.204   4.227  17.464  0.2660 -0.2303  0.0805
  517MPD2    H5 7740   0.147   4.302  17.503 -1.6616 -0.9257 -1.4018
  517MPD2    N1 7741   0.201   3.803  17.247 -0.4766  0.0609  0.4168
  517MPD2    H7 7742   0.298   3.820  17.224 -0.4038  0.6583  1.1776
  518TMC3    C1 7743   0.228   3.604  17.116 -0.3110 -0.5524 -0.4068
  518TMC3    C2 7744   0.193   3.474  17.110 -0.1865  1.1029 -0.7591
  518TMC3    C3 7745   0.277   3.397  17.041  0.6840  0.0023 -0.1976
  518TMC3    C4 7746   0.337   3.662  17.062  0.0853  0.4613 -0.7656
  518TMC3    C5 7747   0.420   3.579  16.990  0.1920 -1.1561  0.5778
  518TMC3    C6 7748   0.383   3.446  16.968  0.2820  0.1859  0.2988
  518TMC3     C 7749   0.139   3.687  17.200 -0.1405  0.4244 -0.7042
  518TMC3     O 7750   0.028   3.638  17.231  0.6509 -0.1075  0.5075
  518TMC3     H 7751   0.105   3.439  17.162 -0.3929 -1.3975 -2.7766
  518TMC3    H1 7752   0.359   3.768  17.070 -0.6840  0.6748 -1.5436
  518TMC3    H2 7753   0.449   3.372  16.923  0.8898 -0.2421  1.9008
  518TMC3    C7 7754   0.558   3.619  16.982  0.1528 -0.2008 -0.4702
  518TMC3    C8 7755   0.278   3.259  17.062 -0.1749  0.4940 -0.3345
  518TMC3    O1 7756   0.581   3.731  17.023 -0.2182 -0.4640  1.4872
  518TMC3    O2 7757   0.319   3.185  16.972 -0.0811 -0.0665 -0.3353
  519MPD2     C 7758   1.734   2.464  13.605  0.2907  0.6691 -0.2531
  519MPD2    C1 7759   1.619   2.400  13.559 -0.0945  0.2665 -0.2236
  519MPD2    C2 7760   1.606   2.256  13.571 -0.6000 -0.1589 -0.1012
  519MPD2    C3 7761   1.714   2.184  13.623 -0.1371 -0.5180 -0.2193
  519MPD2    C4 7762   1.823   2.257  13.667 -0.5128 -0.0234  0.9536
  519MPD2    C5 7763   1.836   2.391  13.656  0.7511  0.1260  0.6710
  519MPD2     H 7764   1.519   2.205  13.533 -0.9758 -0.7146  1.4914
  519MPD2    H1 7765   1.911   2.201  13.697 -1.3136 -1.6011  0.3660
  519MPD2    H2 7766   1.744   2.572  13.599  0.3225  0.5974 -1.6872
  519MPD2    H3 7767   1.929   2.433  13.692  0.3827 -1.3457  3.3474
  519MPD2     N 7768   1.729   2.044  13.619  0.0940 -0.9253 -0.2208
  519MPD2    H5 7769   1.824   2.016  13.640  0.9059  0.1913 -2.4029
  519MPD2    N1 7770   1.520   2.473  13.488 -0.7712  0.5047  0.5874
  519MPD2    H7 7771   1.526   2.573  13.468  2.7114 -0.0629 -1.2045
  520TMC3    C1 7772   1.707   1.825  13.567 -0.6990 -0.3425 -0.0239
  520TMC3    C2 7773   1.678   1.784  13.442  0.8664 -0.8036  0.7810
  520TMC3    C3 7774   1.777   1.730  13.364 -0.1072  0.1035  0.1649
  520TMC3    C4 7775   1.833   1.822  13.611 -0.0533 -0.8670 -0.1630
  520TMC3    C5 7776   1.927   1.761  13.529 -0.4418  0.1639 -0.0691
  520TMC3    C6 7777   1.906   1.721  13.405 -0.0028  0.2401 -0.3052
  520TMC3     C 7778   1.634   1.944  13.601 -0.5948  0.3025 -0.2351
  520TMC3     O 7779   1.518   1.946  13.567 -0.3182 -0.1345 -0.0116
  520TMC3     H 7780   1.581   1.811  13.402 -0.3830 -1.4488  3.3785
  520TMC3    H1 7781   1.857   1.851  13.713  3.3137 -0.5931 -1.0413
  520TMC3    H2 7782   1.979   1.665  13.347  1.3101  1.3749  0.2378
  520TMC3    C7 7783   2.058   1.777  13.580 -0.0911 -0.2514 -0.5146
  520TMC3    C8 7784   1.754   1.704  13.220  0.0716  0.0967  0.8564
  520TMC3    O1 7785   2.072   1.826  13.693  0.5042  0.6383  0.1745
  520TMC3    O2 7786   1.862   1.694  13.162  0.2963 -0.2955 -0.5449
  521MPD2     C 7787   2.517   0.015  17.137 -0.3024  0.3361  0.4867
  521MPD2    C1 7788   2.465   0.134  17.101  0.1718 -0.5909  0.8741
  521MPD2    C2 7789   2.539   0.209  17.015 -0.7490 -0.1190  0.2708
  521MPD2    C3 7790   2.667   0.177  16.972  0.4776 -0.7861  0.6872
  521MPD2    C4 7791   2.718   0.055  17.011 -0.2573 -0.1217 -0.3748
  521MPD2    C5 7792   2.646   4.714  17.102  0.3735  0.9151  0.4834
  521MPD2     H 7793   2.502   0.309  16.995  1.7495  0.7637  0.1453
  521MPD2    H1 7794   2.818   0.028  16.977 -0.4970 -2.4704  0.7748
  521MPD2    H2 7795   2.462   4.689  17.208 -1.8441 -1.5558 -2.3050
  521MPD2    H3 7796   2.694   4.625  17.139  1.2305 -0.3330 -3.6237
  521MPD2     N 7797   2.733   0.274  16.894  0.1176  0.4858 -0.2123
  521MPD2    H5 7798   2.686   0.364  16.890  1.3698  1.1534  0.0047
  521MPD2    N1 7799   2.339   0.169  17.150  0.3745  0.2601 -0.0356
  521MPD2    H7 7800   2.298   0.103  17.215  1.7901 -0.7121 -0.1183
  522TMC3    C1 7801   2.903   0.366  16.741  0.4518 -0.1051 -0.5915
  522TMC3    C2 7802   3.037   0.351  16.712 -0.3328  0.1147 -0.0787
  522TMC3    C3 7803   3.089   0.451  16.640  0.9354 -0.5600 -0.3589
  522TMC3    C4 7804   2.826   0.478  16.698  0.1937  0.2442  0.0880
  522TMC3    C5 7805   2.894   0.575  16.635  0.1143 -0.4510 -0.4318
  522TMC3    C6 7806   3.026   0.567  16.611  0.2354  0.7372 -0.1134
  522TMC3     C 7807   2.857   0.261  16.835  0.0024 -0.6293 -0.5586
  522TMC3     O 7808   2.930   0.165  16.845 -0.4713 -0.7411 -0.2401
  522TMC3     H 7809   3.094   0.279  16.770 -1.8307 -2.3443 -1.6703
  522TMC3    H1 7810   2.718   0.480  16.704  0.2354 -1.4124  1.5725
  522TMC3    H2 7811   3.080   0.644  16.557  3.4113 -1.7160 -0.4624
  522TMC3    C7 7812   2.826   0.677  16.559  0.4740  0.3545 -0.1420
  522TMC3    C8 7813   3.231   0.452  16.638 -0.4340  0.1975  0.3558
  522TMC3    O1 7814   2.875   0.790  16.554  0.0139  0.9807  0.0076
  522TMC3    O2 7815   3.284   0.561  16.664 -0.3275  0.3799  0.0338
  523MPD2     C 7816   4.706   0.317   9.834  0.0255  0.6951  0.3478
  523MPD2    C1 7817   4.617   0.219   9.790  0.3879 -0.5307  0.1632
  523MPD2    C2 7818   4.585   0.230   9.657  0.4449 -0.3242 -0.3945
  523MPD2    C3 7819   4.604   0.342   9.580  0.6914 -0.7646 -0.9705
  523MPD2    C4 7820   4.697   0.437   9.623 -0.4128 -0.0831 -0.5297
  523MPD2    C5 7821   0.015   0.422   9.748 -0.3512  1.0513 -0.6606
  523MPD2     H 7822   4.534   0.148   9.607  0.0136 -0.9414  1.0558
  523MPD2    H1 7823   4.729   0.518   9.559  2.5227 -0.0893  0.8994
  523MPD2    H2 7824   0.018   0.312   9.932  1.7726 -2.8293 -0.6723
  523MPD2    H3 7825   0.083   0.495   9.790 -0.3969  0.4402  0.4780
  523MPD2     N 7826   4.562   0.349   9.443  0.1836 -0.1288 -0.5349
  523MPD2    H5 7827   4.605   0.424   9.389  1.4387  0.3502  1.1368
  523MPD2    N1 7828   4.611   0.093   9.865 -0.1832  0.5066  0.1854
  523MPD2    H7 7829   4.658   0.088   9.955  0.0244 -1.6130 -0.0351
  524TMC3    C1 7830   4.404   0.328   9.264  0.4211  0.0687 -0.3133
  524TMC3    C2 7831   4.322   0.245   9.196 -0.3631 -0.0289  0.0157
  524TMC3    C3 7832   4.221   0.306   9.122  1.0893  0.2338 -0.1271
  524TMC3    C4 7833   4.403   0.461   9.246  0.2040  0.4435 -0.5085
  524TMC3    C5 7834   4.314   0.519   9.157 -0.1651 -0.1180 -0.3853
  524TMC3    C6 7835   4.219   0.441   9.094  0.7451 -0.3508 -0.8192
  524TMC3     C 7836   4.455   0.279   9.392 -0.3158  0.6491  0.0100
  524TMC3     O 7837   4.384   0.196   9.451 -0.0828  0.4185 -0.1948
  524TMC3     H 7838   4.308   0.145   9.236  1.5889 -1.3990 -2.7384
  524TMC3    H1 7839   4.468   0.530   9.298  0.5179 -0.5191  0.3659
  524TMC3    H2 7840   4.149   0.486   9.025 -0.1925  1.5473  1.3515
  524TMC3    C7 7841   4.303   0.663   9.162 -0.2805  0.8731 -0.2281
  524TMC3    C8 7842   4.105   0.238   9.077  0.9903  0.3690 -0.3555
  524TMC3    O1 7843   4.350   0.711   9.264  0.3995 -0.2706 -0.6368
  524TMC3    O2 7844   4.016   0.316   9.054  0.3901 -0.6244  0.4892
  525MPD2     C 7845   3.017   1.741  14.145 -0.6822  0.5027  0.1218
  525MPD2    C1 7846   3.147   1.720  14.188  0.0241  0.0702  0.3534
  525MPD2    C2 7847   3.244   1.801  14.137  0.5993 -0.0122  0.1060
  525MPD2    C3 7848   3.214   1.903  14.050  0.5880 -0.0921 -0.0417
  525MPD2    C4 7849   3.086   1.921  14.003  0.3492  0.2701  0.0921
  525MPD2    C5 7850   2.992   1.832  14.044  0.8966 -0.3129 -0.5363
  525MPD2     H 7851   3.340   1.785  14.184  0.2550  0.6800  1.0588
  525MPD2    H1 7852   3.053   2.006  13.945 -2.1992 -1.0858 -0.4317
  525MPD2    H2 7853   2.938   1.674  14.175  0.4221 -0.3764  1.0388
  525MPD2    H3 7854   2.893   1.852  14.003  1.4720  2.4534 -0.6002
  525MPD2     N 7855   3.308   1.991  13.999  0.1489  0.2108  0.1753
  525MPD2    H5 7856   3.274   2.057  13.930 -0.0108 -0.9322 -0.8549
  525MPD2    N1 7857   3.179   1.623  14.287 -0.0749  0.4218 -0.3874
  525MPD2    H7 7858   3.277   1.611  14.310  0.3253 -0.1456 -2.3972
  526TMC3    C1 7859   3.170   1.485  14.467 -0.6311  0.9712  0.4985
  526TMC3    C2 7860   3.113   1.474  14.590  0.9603  0.2425  0.0832
  526TMC3    C3 7861   3.184   1.418  14.685 -0.8978 -0.3373 -0.2298
  526TMC3    C4 7862   3.288   1.440  14.431 -0.1418 -0.2986 -0.2798
  526TMC3    C5 7863   3.358   1.385  14.531 -0.2900 -0.3011 -0.3821
  526TMC3    C6 7864   3.305   1.381  14.659 -0.4094  0.3087  0.3635
  526TMC3     C 7865   3.089   1.553  14.365 -0.3776  0.3588 -0.7539
  526TMC3     O 7866   2.967   1.557  14.377 -0.1392 -0.6259  0.2779
  526TMC3     H 7867   3.017   1.522  14.604  0.6629 -0.3722  0.1270
  526TMC3    H1 7868   3.316   1.434  14.326  0.6400 -1.8598  0.0158
  526TMC3    H2 7869   3.367   1.346  14.741  0.5968  2.9890  0.7540
  526TMC3    C7 7870   3.473   1.307  14.511  0.7663 -0.0732 -0.1091
  526TMC3    C8 7871   3.145   1.416  14.824  0.0207 -0.0023 -0.4253
  526TMC3    O1 7872   3.503   1.216  14.586 -0.2351 -0.4435  0.3122
  526TMC3    O2 7873   3.235   1.415  14.905 -0.1433 -0.3973 -0.1160
  527MPD2     C 7874   0.838   4.135   1.130  0.2949 -0.8913  0.0198
  527MPD2    C1 7875   0.853   4.151   0.988 -0.7503  0.1417 -0.0865
  527MPD2    C2 7876   0.978   4.150   0.934 -0.4025  0.7200 -0.8626
  527MPD2    C3 7877   1.094   4.142   1.007 -0.6614  0.5817  0.4589
  527MPD2    C4 7878   1.080   4.131   1.145 -0.0775  0.2852 -0.1745
  527MPD2    C5 7879   0.953   4.136   1.198  0.3692 -0.0636 -0.5386
  527MPD2     H 7880   0.986   4.144   0.826  3.1287  0.7176 -0.5866
  527MPD2    H1 7881   1.163   4.136   1.215 -1.0259  2.6526  0.7817
  527MPD2    H2 7882   0.743   4.130   1.181 -0.4519 -2.4783 -1.4860
  527MPD2    H3 7883   0.945   4.140   1.306  0.3905 -1.3507 -0.4940
  527MPD2     N 7884   1.218   4.140   0.945 -0.6437  0.1061  0.2911
  527MPD2    H5 7885   1.219   4.130   0.844 -0.5287  1.1255  0.1961
  527MPD2    N1 7886   0.737   4.141   0.904  0.3108 -0.4303 -0.0070
  527MPD2    H7 7887   0.747   4.173   0.808  2.0166  0.4002  0.4543
  528TMC3    C1 7888   0.499   4.116   0.869 -0.0549 -0.0901 -0.5450
  528TMC3    C2 7889   0.510   4.199   0.764 -0.1189  0.6440  0.0327
  528TMC3    C3 7890   0.394   4.221   0.692 -0.1811  0.0561 -0.2458
  528TMC3    C4 7891   0.385   4.051   0.904  0.6118 -0.2246  0.2003
  528TMC3    C5 7892   0.273   4.080   0.837 -0.7200 -0.0616  0.1207
  528TMC3    C6 7893   0.274   4.172   0.732  0.6194 -0.4767 -0.6614
  528TMC3     C 7894   0.620   4.092   0.949  0.1608  1.6426  0.1284
  528TMC3     O 7895   0.605   4.012   1.042 -0.7614 -0.1844 -0.5385
  528TMC3     H 7896   0.610   4.232   0.736  0.7980 -3.3884 -1.4884
  528TMC3    H1 7897   0.385   3.975   0.981  0.8855  0.5132  0.9316
  528TMC3    H2 7898   0.178   4.196   0.687  2.0911 -1.2837 -4.1904
  528TMC3    C7 7899   0.142   4.053   0.894  0.0413  0.1163  0.4391
  528TMC3    C8 7900   0.401   4.329   0.596  0.4281  0.0805 -0.3027
  528TMC3    O1 7901   0.040   4.092   0.832 -0.1787  0.5769 -0.1776
  528TMC3    O2 7902   0.506   4.385   0.586  0.2553  0.3186  0.3140
  529MPD2     C 7903   3.424   2.443   0.834 -0.8223 -0.0402 -0.5779
  529MPD2    C1 7904   3.487   2.388   0.725  0.0491 -0.2229  0.1570
  529MPD2    C2 7905   3.470   2.463   0.606 -0.8165 -0.2109  0.1611
  529MPD2    C3 7906   3.388   2.570   0.596  0.5008 -0.0588  0.2231
  529MPD2    C4 7907   3.320   2.606   0.709 -0.6234  0.5075 -1.0845
  529MPD2    C5 7908   3.331   2.543   0.829  0.3616 -0.0653 -0.5146
  529MPD2     H 7909   3.536   2.434   0.524 -1.8659 -0.4877 -0.5828
  529MPD2    H1 7910   3.248   2.687   0.711  0.4646  1.3646  2.5979
  529MPD2    H2 7911   3.439   2.396   0.930 -1.2458 -0.2448 -0.6104
  529MPD2    H3 7912   3.274   2.577   0.914  1.3982 -0.7457  0.4509
  529MPD2     N 7913   3.371   2.633   0.472 -0.1426 -0.3285  0.3373
  529MPD2    H5 7914   3.405   2.586   0.389  0.1700  0.4126  0.0472
  529MPD2    N1 7915   3.578   2.282   0.736 -0.7455  0.0137  0.7001
  529MPD2    H7 7916   3.646   2.275   0.661 -1.4738  1.4115 -0.0894
  530TMC3    C1 7917   3.666   2.077   0.802  0.2602 -1.0304 -0.0238
  530TMC3    C2 7918   3.794   2.119   0.799  0.1346  0.1404  0.0664
  530TMC3    C3 7919   3.885   2.023   0.835 -0.0900  0.5759  0.2535
  530TMC3    C4 7920   3.623   1.947   0.818 -0.8086 -0.1810 -0.4258
  530TMC3    C5 7921   3.721   1.854   0.840 -0.3758 -0.2186  0.1664
  530TMC3    C6 7922   3.853   1.891   0.845  0.4894 -0.3781 -0.1785
  530TMC3     C 7923   3.566   2.178   0.824 -1.0734 -0.5450  0.2119
  530TMC3     O 7924   3.468   2.150   0.891 -0.0893  0.3718  0.2934
  530TMC3     H 7925   3.819   2.224   0.791  1.6228 -0.1819  0.6402
  530TMC3    H1 7926   3.520   1.928   0.792 -1.8090  2.0967  1.9099
  530TMC3    H2 7927   3.939   1.827   0.863 -0.2259 -1.6051 -1.1572
  530TMC3    C7 7928   3.692   1.754   0.939  0.8466 -0.3291  0.3262
  530TMC3    C8 7929   3.974   2.079   0.937  0.0510  0.2289  0.0976
  530TMC3    O1 7930   3.788   1.705   0.994 -0.2077  0.2252  0.1462
  530TMC3    O2 7931   3.982   2.197   0.946 -0.3174  0.1590 -0.2552
  531MPD2     C 7932   1.970   0.915  12.678  0.3072  0.0131  0.5961
  531MPD2    C1 7933   1.902   0.815  12.746 -0.5399  0.0432  0.0742
  531MPD2    C2 7934   1.892   0.692  12.685 -0.4272  0.5783 -0.4502
  531MPD2    C3 7935   1.934   0.664  12.559 -0.5598  0.5506  0.1249
  531MPD2    C4 7936   1.999   0.766  12.493  0.6628  0.6638 -0.2401
  531MPD2    C5 7937   2.022   0.887  12.559 -0.7122  0.2797  0.2739
  531MPD2     H 7938   1.848   0.615  12.749  1.5865 -0.6067 -0.4877
  531MPD2    H1 7939   2.041   0.744  12.396  0.2593 -1.8569  0.1417
  531MPD2    H2 7940   1.988   1.013  12.723 -1.0016  0.0855  0.9626
  531MPD2    H3 7941   2.085   0.964  12.515 -2.2873  0.6257 -1.3536
  531MPD2     N 7942   1.943   0.531  12.507  0.3047 -0.2760 -0.0330
  531MPD2    H5 7943   1.991   0.514  12.420 -1.4027  3.1854 -1.6695
  531MPD2    N1 7944   1.855   0.846  12.876 -0.3322 -0.1683 -0.0435
  531MPD2    H7 7945   1.889   0.936  12.908  0.4885  0.2708 -2.1933
  532TMC3    C1 7946   1.748   0.800  13.087  0.3514  0.1347  0.2768
  532TMC3    C2 7947   1.646   0.722  13.137 -0.6013 -0.4523 -0.6385
  532TMC3    C3 7948   1.675   0.643  13.245 -0.8301  0.2760  0.1654
  532TMC3    C4 7949   1.865   0.821  13.149 -0.1806  0.0293 -0.0307
  532TMC3    C5 7950   1.887   0.742  13.253  0.7036 -0.1317  0.8184
  532TMC3    C6 7951   1.798   0.652  13.309 -0.4242 -0.5904  0.2785
  532TMC3     C 7952   1.769   0.766  12.951  0.0225  0.9903  0.2464
  532TMC3     O 7953   1.709   0.663  12.915 -0.0507  0.1489  0.1575
  532TMC3     H 7954   1.554   0.707  13.081  0.5941  2.0824 -3.2695
  532TMC3    H1 7955   1.946   0.879  13.106 -1.8466  1.3684 -1.3172
  532TMC3    H2 7956   1.824   0.582  13.387 -0.8933  0.3012  1.2247
  532TMC3    C7 7957   1.997   0.786  13.322  0.4311  0.2208 -0.2023
  532TMC3    C8 7958   1.633   0.504  13.246 -0.0299 -0.5681 -0.1367
  532TMC3    O1 7959   2.006   0.906  13.341  0.7945  0.0477 -0.1389
  532TMC3    O2 7960   1.615   0.450  13.353  0.2419  0.4510  0.4372
  533TMC3    C1 7961   3.498   2.120  14.006 -0.6659  0.3262  0.1322
  533TMC3    C2 7962   3.633   2.127  13.996  1.0707  0.1742  0.6327
  533TMC3    C3 7963   3.680   2.248  14.029  0.1628 -0.1826 -0.3550
  533TMC3    C4 7964   3.416   2.220  14.053 -0.4907 -0.2497  0.2103
  533TMC3    C5 7965   3.476   2.332  14.102 -0.1851  0.4709 -0.3291
  533TMC3    C6 7966   3.611   2.347  14.091 -0.3966 -0.9708 -0.0814
  533TMC3     C 7967   3.443   1.990  14.004  0.6718 -0.0422 -0.3296
  533TMC3     O 7968   3.521   1.903  14.041 -0.0419 -0.4220 -0.0369
  533TMC3     H 7969   3.692   2.042  13.962  2.0267  0.2355  2.1351
  533TMC3    H1 7970   3.310   2.209  14.070 -0.8332 -0.5588 -2.1464
  533TMC3    H2 7971   3.664   2.439  14.114 -0.3241 -0.9018 -0.5192
  533TMC3    C7 7972   3.422   2.371  14.235 -0.1202  0.0879  0.5075
  533TMC3    C8 7973   3.818   2.274  14.015  0.3397  0.0787 -0.6082
  533TMC3    O1 7974   3.312   2.328  14.268 -0.3234  0.3103  0.1146
  533TMC3    O2 7975   3.852   2.391  14.015 -0.4724 -0.4699  0.7475
  534MPD2     C 7976   1.494   2.368   0.958 -0.0857  0.1036  0.4591
  534MPD2    C1 7977   1.494   2.503   0.941  0.8276  0.2290 -0.6099
  534MPD2    C2 7978   1.380   2.573   0.910 -0.5363 -0.1281  0.3791
  534MPD2    C3 7979   1.263   2.510   0.908  0.2111  0.3065  0.1590
  534MPD2    C4 7980   1.265   2.371   0.922  1.0049  0.1558 -0.1068
  534MPD2    C5 7981   1.379   2.302   0.954 -0.8748  0.4557 -0.8960
  534MPD2     H 7982   1.391   2.680   0.892  0.1432 -0.5614 -1.8214
  534MPD2    H1 7983   1.172   2.315   0.930  1.9179 -1.4325 -0.5599
  534MPD2    H2 7984   1.584   2.315   0.987 -0.5353 -1.2193 -0.5835
  534MPD2    H3 7985   1.381   2.194   0.963  0.9342  0.5155 -0.4524
  534MPD2     N 7986   1.134   2.575   0.902  0.3821  0.4734  0.6685
  534MPD2    H5 7987   1.056   2.511   0.907  0.4744  0.3160  0.1405
  534MPD2    N1 7988   1.607   2.583   0.953  0.8945 -0.1796 -0.0994
  534MPD2    H7 7989   1.598   2.683   0.934 -2.1716 -0.5971 -0.8195
  535TMC3    C1 7990   0.968   2.740   0.850  1.1192  0.1027  0.3195
  535TMC3    C2 7991   0.870   2.700   0.939  0.1448  0.1143  0.4441
  535TMC3    C3 7992   0.740   2.725   0.909  0.0927  0.5577  0.0166
  535TMC3    C4 7993   0.937   2.837   0.753  0.4870 -0.0920 -0.1042
  535TMC3    C5 7994   0.799   2.863   0.737  0.0242  0.2451  0.5630
  535TMC3    C6 7995   0.697   2.804   0.802  1.0161  0.3833  0.3402
  535TMC3     C 7996   1.113   2.711   0.873  0.2868  0.3849 -0.2972
  535TMC3     O 7997   1.192   2.797   0.836  0.2608 -0.5681  0.2677
  535TMC3     H 7998   0.903   2.650   1.029  0.1132 -1.5977 -0.5017
  535TMC3    H1 7999   1.011   2.881   0.688 -0.4717  1.3791 -0.1958
  535TMC3    H2 8000   0.594   2.826   0.779  1.5862  1.1021 -1.4862
  535TMC3    C7 8001   0.778   2.981   0.652 -0.0661 -0.1725  0.3545
  535TMC3    C8 8002   0.637   2.637   0.962 -0.9267  0.4547  0.1856
  535TMC3    O1 8003   0.676   2.970   0.580 -0.6938  0.1056 -0.2098
  535TMC3    O2 8004   0.525   2.641   0.912 -0.0131 -0.2642 -0.8094
  536MPD2     C 8005   4.698   1.435  15.716 -0.9168 -0.1765  0.6958
  536MPD2    C1 8006   4.589   1.360  15.745  0.1609 -1.3981 -0.3970
  536MPD2    C2 8007   4.475   1.375  15.668 -0.1810 -0.0241 -0.5939
  536MPD2    C3 8008   4.460   1.474  15.575  0.2908  0.1067  0.4081
  536MPD2    C4 8009   4.569   1.562  15.555  0.0818 -0.2588 -1.0928
  536MPD2    C5 8010   4.689   1.534  15.621  0.2186 -0.6089  0.6004
  536MPD2     H 8011   4.394   1.304  15.683 -1.7148  2.0355  0.7155
  536MPD2    H1 8012   4.560   1.640  15.480 -1.8326  1.1777  0.6689
  536MPD2    H2 8013   0.055   1.428  15.775  1.2774  0.9774 -2.5694
  536MPD2    H3 8014   0.041   1.599  15.605  0.6757 -1.7983 -1.7237
  536MPD2     N 8015   4.349   1.489  15.485 -0.6177 -0.5826  0.3958
  536MPD2    H5 8016   4.354   1.560  15.412 -1.9177 -1.5381 -0.6385
  536MPD2    N1 8017   4.601   1.267  15.854  0.0550 -0.4683  0.2413
  536MPD2    H7 8018   4.675   1.285  15.921  0.1860  2.7979 -0.7449
  537TMC3    C1 8019   4.496   1.160  16.033 -0.0535  0.4273  0.1855
  537TMC3    C2 8020   4.566   1.240  16.123 -0.1727  0.1606  0.5189
  537TMC3    C3 8021   4.556   1.215  16.256  0.0087  0.6152 -0.8602
  537TMC3    C4 8022   4.431   1.048  16.080 -0.4487  0.4849  0.3047
  537TMC3    C5 8023   4.437   1.025  16.218  0.3243  0.4903 -0.1756
  537TMC3    C6 8024   4.493   1.107  16.305 -0.3920  0.2969 -0.2605
  537TMC3     C 8025   4.502   1.175  15.890  0.9623  0.3352  0.1468
  537TMC3     O 8026   4.413   1.132  15.814 -0.7772 -0.0546 -0.1584
  537TMC3     H 8027   4.640   1.313  16.091  0.4780 -0.8404 -0.2565
  537TMC3    H1 8028   4.376   0.979  16.018 -2.2936  2.2882 -0.0621
  537TMC3    H2 8029   4.486   1.082  16.410 -0.1709  0.1958 -0.2712
  537TMC3    C7 8030   4.342   0.928  16.270  0.0586 -0.2383  0.2899
  537TMC3    C8 8031   4.594   1.311  16.354 -0.4593  0.3958 -0.6862
  537TMC3    O1 8032   4.247   0.906  16.199 -0.8421  0.0206 -0.0296
  537TMC3    O2 8033   4.601   1.273  16.468 -0.0698 -0.3168  0.5723
  538TMC3    C1 8034   0.614   0.326  10.857  0.3460 -0.2250  0.2232
  538TMC3    C2 8035   0.713   0.246  10.805 -0.2170  0.6505  0.4050
  538TMC3    C3 8036   0.703   0.215  10.664  0.1540  0.8513 -0.6633
  538TMC3    C4 8037   0.521   0.384  10.781 -0.5265  0.0370 -0.1611
  538TMC3    C5 8038   0.518   0.363  10.652  0.2643  0.1336 -0.3766
  538TMC3    C6 8039   0.603   0.279  10.591 -1.0114 -0.2046  0.7156
  538TMC3     C 8040   0.564   0.306  10.992  0.3116  0.0344  0.6110
  538TMC3     O 8041   0.474   0.377  11.033 -0.3969 -0.1431  0.0264
  538TMC3     H 8042   0.793   0.200  10.861 -0.9088 -1.3120 -0.2110
  538TMC3    H1 8043   0.441   0.445  10.820 -1.6597 -1.1022 -0.7054
  538TMC3    H2 8044   0.586   0.241  10.491 -1.5360 -1.3203  1.2251
  538TMC3    C7 8045   0.382   0.353  10.604  0.1856  0.1919 -0.0224
  538TMC3    C8 8046   0.711   0.075  10.635 -0.4499 -0.8499 -0.1825
  538TMC3    O1 8047   0.309   0.296  10.683 -0.6680 -0.1945 -0.2076
  538TMC3    O2 8048   0.605   0.018  10.629 -0.6124  1.0404 -0.0403
  539MPD2     C 8049   0.830   4.140  11.011 -0.6099 -0.0602 -0.3657
  539MPD2    C1 8050   0.727   4.079  11.084 -0.5507  0.4471  0.1013
  539MPD2    C2 8051   0.604   4.148  11.104 -0.1617 -1.1844 -0.0925
  539MPD2    C3 8052   0.586   4.267  11.043 -0.2115  0.3048 -1.0094
  539MPD2    C4 8053   0.690   4.326  10.966 -0.0330 -0.3721  0.7915
  539MPD2    C5 8054   0.812   4.259  10.946  0.1484 -0.7085  0.3606
  539MPD2     H 8055   0.529   4.094  11.161 -2.4317  0.5853 -1.4030
  539MPD2    H1 8056   0.670   4.419  10.913 -1.6556 -0.7163  0.7773
  539MPD2    H2 8057   0.914   4.071  10.999  1.5340  2.4698 -0.0004
  539MPD2    H3 8058   0.898   4.301  10.895 -1.7883  0.3573 -2.0507
  539MPD2     N 8059   0.468   4.343  11.049  0.2559 -0.4713 -0.6503
  539MPD2    H5 8060   0.457   4.420  10.984  1.5291 -0.3821 -0.7626
  539MPD2    N1 8061   0.725   3.946  11.127 -0.5278 -0.2946  0.8355
  539MPD2    H7 8062   0.637   3.898  11.142 -2.0625  2.9437  2.3055
  540TMC3    C1 8063   0.275   4.443  11.121 -0.4656 -0.1578 -0.0133
  540TMC3    C2 8064   0.211   4.456  11.001  0.3527  0.7844 -0.3039
  540TMC3    C3 8065   0.122   4.558  10.983 -0.2399  0.3757 -0.4083
  540TMC3    C4 8066   0.233   4.518  11.226  0.1746 -0.0731 -0.3982
  540TMC3    C5 8067   0.152   4.626  11.206  1.0267 -0.0680  0.0398
  540TMC3    C6 8068   0.092   4.649  11.081 -0.1359 -0.7328 -0.2756
  540TMC3     C 8069   0.363   4.328  11.134 -0.0561  0.5474 -0.3497
  540TMC3     O 8070   0.344   4.248  11.224 -0.4093 -0.7888  0.2486
  540TMC3     H 8071   0.242   4.389  10.922  1.1069  0.0131  0.6431
  540TMC3    H1 8072   0.270   4.499  11.326  2.0060  0.1544 -1.0329
  540TMC3    H2 8073   0.033   0.002  11.056  0.3770 -1.1288 -2.9291
  540TMC3    C7 8074   0.097   4.692  11.325  0.1713 -0.0172  0.3045
  540TMC3    C8 8075   0.031   4.552  10.872  0.4771 -0.2700 -0.7777
  540TMC3    O1 8076   0.067   4.630  11.424  0.1340 -0.0033  0.4638
  540TMC3    O2 8077   4.725   4.656  10.824 -0.0477 -1.0802 -0.3590
  541MPD2     C 8078   3.429   0.406  13.151 -0.1443  0.3908  0.3544
  541MPD2    C1 8079   3.312   0.477  13.123  0.4771  0.0217 -0.2324
  541MPD2    C2 8080   3.304   0.558  13.011  0.5270 -0.0415  0.1248
  541MPD2    C3 8081   3.422   0.586  12.937 -0.3826  0.1470  0.0645
  541MPD2    C4 8082   3.542   0.535  12.975 -0.7728  0.5368  0.8306
  541MPD2    C5 8083   3.541   0.447  13.079 -0.3271 -0.2017  0.4159
  541MPD2     H 8084   3.208   0.602  12.986  1.6516  2.5789  0.4469
  541MPD2    H1 8085   3.629   0.570  12.922  0.8846  0.3844  3.4484
  541MPD2    H2 8086   3.448   0.343  13.237 -1.4489 -1.1797 -0.5212
  541MPD2    H3 8087   3.637   0.410  13.112  0.0526  0.8207  0.4841
  541MPD2     N 8088   3.421   0.665  12.817 -0.1272 -1.0516  0.1745
  541MPD2    H5 8089   3.498   0.645  12.754 -0.0034  1.5954 -0.5222
  541MPD2    N1 8090   3.193   0.447  13.204  0.8200 -0.5164  0.3531
  541MPD2    H7 8091   3.210   0.378  13.276  0.9587 -0.9761 -0.1184
  542TMC3    C1 8092   3.320   0.798  12.648 -0.3203 -0.2071 -0.3818
  542TMC3    C2 8093   3.415   0.756  12.553  0.6157  0.2157 -0.3130
  542TMC3    C3 8094   3.411   0.820  12.430 -0.1980 -0.1232 -0.5278
  542TMC3    C4 8095   3.220   0.889  12.610  0.9294 -0.5294  0.3030
  542TMC3    C5 8096   3.228   0.952  12.489  0.3214  0.1076  0.2619
  542TMC3    C6 8097   3.316   0.911  12.393  0.0938 -0.1144 -0.4102
  542TMC3     C 8098   3.321   0.752  12.784 -0.2288 -0.0961  0.0612
  542TMC3     O 8099   3.238   0.795  12.862 -0.2883  0.2605 -0.0253
  542TMC3     H 8100   3.482   0.673  12.569  0.8321  0.2713 -0.9378
  542TMC3    H1 8101   3.155   0.928  12.687  2.9248  0.7834  1.2874
  542TMC3    H2 8102   3.315   0.948  12.291  0.4968  1.1306  0.0263
  542TMC3    C7 8103   3.104   0.999  12.437  0.2690  0.5606 -0.7834
  542TMC3    C8 8104   3.493   0.776  12.318  0.3965  0.0536 -0.9201
  542TMC3    O1 8105   2.999   0.967  12.493  0.0871  0.6688  0.0632
  542TMC3    O2 8106   3.486   0.834  12.211  0.0478  0.2920 -0.2527
  543TMC3    C1 8107   3.249   2.146  17.017  0.1018  0.0048 -0.3281
  543TMC3    C2 8108   3.249   2.026  17.075  0.2513  0.3644  0.4936
  543TMC3    C3 8109   3.184   2.013  17.196 -0.0432 -0.0396  0.7335
  543TMC3    C4 8110   3.202   2.261  17.073  0.2102  0.3194 -0.3445
  543TMC3    C5 8111   3.140   2.241  17.195 -0.2562  0.0162  0.3191
  543TMC3    C6 8112   3.122   2.121  17.259  0.5094  0.5141 -0.2488
  543TMC3     C 8113   3.296   2.145  16.879  0.0689 -0.0596 -0.2904
  543TMC3     O 8114   3.364   2.049  16.848  0.0566 -0.2552  0.5272
  543TMC3     H 8115   3.289   1.940  17.023  2.3656  0.8186  1.3797
  543TMC3    H1 8116   3.234   2.358  17.036 -0.1399  1.3538  2.0378
  543TMC3    H2 8117   3.076   2.111  17.356  0.2371 -3.1023 -0.7607
  543TMC3    C7 8118   3.047   2.337  17.249 -0.4697 -0.0683 -0.1488
  543TMC3    C8 8119   3.187   1.880  17.254 -0.3861  0.2273 -0.7351
  543TMC3    O1 8120   2.964   2.304  17.335 -0.1474  0.4242 -0.4226
  543TMC3    O2 8121   3.266   1.804  17.200  0.2206 -0.3446  0.0715
  544MPD2     C 8122   3.087   1.516  17.616 -0.0927  0.0255 -0.6865
  544MPD2    C1 8123   3.162   1.508  17.496  0.6126 -0.3926  0.0860
  544MPD2    C2 8124   3.176   1.619  17.412  0.1024 -0.0741 -0.5301
  544MPD2    C3 8125   3.113   1.739  17.444  0.4741  0.1258  0.2568
  544MPD2    C4 8126   3.024   1.738  17.545  0.0599  0.2010  0.4484
  544MPD2    C5 8127   3.013   1.631  17.632 -0.1196 -0.5128 -0.4756
  544MPD2     H 8128   3.225   1.609  17.315  1.5204  0.7936  0.1016
  544MPD2    H1 8129   2.971   1.827  17.580 -1.8513 -0.6614 -0.2624
  544MPD2    H2 8130   3.071   1.429  17.680  0.9909  0.9068  0.7804
  544MPD2    H3 8131   2.940   1.635  17.712  0.1611  1.3257 -0.3111
  544MPD2     N 8132   3.110   1.859  17.368 -0.6298  0.1759  0.7743
  544MPD2    H5 8133   3.052   1.936  17.402 -0.8731 -0.0346  0.8320
  544MPD2    N1 8134   3.232   1.392  17.477  0.1331  0.6215  0.2195
  544MPD2    H7 8135   3.231   1.317  17.546  2.0918  1.5422  1.2666
  545TMC3    C1 8136   3.356   1.216  17.380 -0.1000  0.3558  0.8566
  545TMC3    C2 8137   3.431   1.201  17.497 -0.1983 -0.3529 -0.0649
  545TMC3    C3 8138   3.527   1.101  17.507  0.5855 -0.1660 -0.4863
  545TMC3    C4 8139   3.374   1.133  17.272 -0.1369  0.1148 -0.5467
  545TMC3    C5 8140   3.466   1.030  17.287  0.9045  0.4689 -0.5663
  545TMC3    C6 8141   3.543   1.015  17.404  0.2662  0.3117  0.4941
  545TMC3     C 8142   3.275   1.340  17.356 -0.7626 -0.2943  0.5012
  545TMC3     O 8143   3.276   1.393  17.247  0.3131  0.5715 -0.4726
  545TMC3     H 8144   3.421   1.270  17.580  1.9684  1.8668 -1.6660
  545TMC3    H1 8145   3.321   1.149  17.178 -0.5805 -0.0700 -0.3285
  545TMC3    H2 8146   3.621   0.941  17.418 -2.1289 -2.2905 -0.1063
  545TMC3    C7 8147   3.510   0.966  17.164  0.7828 -0.9575 -1.2600
  545TMC3    C8 8148   3.600   1.098  17.630  0.6930  0.0535  0.4262
  545TMC3    O1 8149   3.491   1.035  17.061 -0.6093 -0.1910 -0.1021
  545TMC3    O2 8150   3.545   1.129  17.734  0.2721 -0.2502 -0.0801
  546MPD2     C 8151   0.074   1.687  17.269  0.0077  0.3265  0.2060
  546MPD2    C1 8152   0.026   1.758  17.160  0.3393 -0.0611  0.4135
  546MPD2    C2 8153   0.091   1.876  17.121 -0.7241  0.5115  0.0332
  546MPD2    C3 8154   0.195   1.935  17.201 -0.9962  0.7199  0.0995
  546MPD2    C4 8155   0.232   1.869  17.319 -0.2095 -0.5375 -0.0987
  546MPD2    C5 8156   0.172   1.750  17.346 -0.3753  0.0464 -0.2947
  546MPD2     H 8157   0.033   1.942  17.058 -1.8376  0.0780  0.5903
  546MPD2    H1 8158   0.306   1.905  17.390 -0.5488 -0.0159 -0.0119
  546MPD2    H2 8159   0.042   1.591  17.307 -1.8673  0.8393 -0.0842
  546MPD2    H3 8160   0.195   1.696  17.437  0.5223  1.1893  0.1503
  546MPD2     N 8161   0.253   2.060  17.171 -0.7958  0.5091 -0.0859
  546MPD2    H5 8162   0.305   2.111  17.242 -1.2400 -0.1239  0.7089
  546MPD2    N1 8163   4.647   1.709  17.100  0.5251  0.1972 -0.2373
  546MPD2    H7 8164   4.599   1.631  17.142  3.6199 -1.1896  0.7344
  547TMC3    C1 8165   4.462   1.695  16.958  0.6811  0.0866  0.1308
  547TMC3    C2 8166   4.398   1.735  16.849  0.0091 -0.7062 -0.0921
  547TMC3    C3 8167   4.262   1.706  16.836  0.5056  1.0273 -0.4260
  547TMC3    C4 8168   4.401   1.610  17.050  0.9502  0.1982 -0.1556
  547TMC3    C5 8169   4.271   1.579  17.028  0.4301  0.4864  0.5338
  547TMC3    C6 8170   4.196   1.630  16.925  0.1565  0.4159 -0.0446
  547TMC3     C 8171   4.593   1.750  16.978 -0.0109  0.4714 -0.0295
  547TMC3     O 8172   4.638   1.821  16.891  0.1013 -0.7511 -0.4373
  547TMC3     H 8173   4.446   1.793  16.771 -0.0190 -1.5596 -0.7367
  547TMC3    H1 8174   4.457   1.559  17.128 -0.7134  0.7463  1.4054
  547TMC3    H2 8175   4.087   1.629  16.920  0.1686 -2.6208  0.6980
  547TMC3    C7 8176   4.198   1.508  17.134 -0.2676 -0.0086 -0.7352
  547TMC3    C8 8177   4.187   1.734  16.714  0.2013 -0.2688  0.2882
  547TMC3    O1 8178   4.243   1.487  17.246 -0.6106 -0.6256 -0.2925
  547TMC3    O2 8179   4.067   1.712  16.707  0.2946  0.4202  0.4205
  548MPD2     C 8180   4.685   2.295  12.416 -0.2599  0.3552 -0.6868
  548MPD2    C1 8181   4.608   2.186  12.371 -0.6393 -0.0337 -0.2213
  548MPD2    C2 8182   4.648   2.125  12.251 -0.0230  0.0978  0.1995
  548MPD2    C3 8183   0.034   2.165  12.196  0.0193  0.7791  0.5623
  548MPD2    C4 8184   0.115   2.258  12.249  0.0468 -0.0876 -0.8197
  548MPD2    C5 8185   0.073   2.326  12.356  0.2739 -0.3613  0.1351
  548MPD2     H 8186   4.589   2.049  12.201 -2.0937  1.6124  0.3284
  548MPD2    H1 8187   0.212   2.287  12.211  1.0191 -2.4772 -0.1675
  548MPD2    H2 8188   4.644   2.359  12.494  1.7556 -0.5473  1.1089
  548MPD2    H3 8189   0.143   2.404  12.383 -1.4333  2.1006 -2.4448
  548MPD2     N 8190   0.060   2.094  12.078  0.5641 -0.3886 -0.5754
  548MPD2    H5 8191   4.734   2.015  12.059 -1.2980  0.4128  1.9264
  548MPD2    N1 8192   4.483   2.171  12.425 -0.1654  0.0209 -0.6805
  548MPD2    H7 8193   4.446   2.245  12.484  0.9744  0.2835 -0.2928
  549TMC3    C1 8194   4.262   2.080  12.449  0.0245  0.5964  0.2651
  549TMC3    C2 8195   4.219   2.209  12.472  0.5653 -0.4641 -0.4342
  549TMC3    C3 8196   4.085   2.223  12.508  0.3397 -0.0420  0.2341
  549TMC3    C4 8197   4.179   1.974  12.466 -0.2885  0.2873  0.2698
  549TMC3    C5 8198   4.049   1.990  12.505 -0.4487  0.5931  0.2219
  549TMC3    C6 8199   4.001   2.117  12.534  0.5308 -0.2944  0.7776
  549TMC3     C 8200   4.405   2.065  12.406  0.5006 -0.0384 -0.1432
  549TMC3     O 8201   4.441   1.955  12.373  0.3521  1.0531  0.2908
  549TMC3     H 8202   4.280   2.296  12.450 -3.7909  2.5757 -0.3959
  549TMC3    H1 8203   4.212   1.877  12.430 -2.9204 -0.5391  0.0663
  549TMC3    H2 8204   3.898   2.138  12.561  0.0875  1.4693 -2.2524
  549TMC3    C7 8205   3.959   1.880  12.518  0.6035  0.4283 -0.8869
  549TMC3    C8 8206   4.014   2.348  12.479  0.2639  0.3781 -0.5195
  549TMC3    O1 8207   3.843   1.920  12.519  0.4134 -0.0038  0.6798
  549TMC3    O2 8208   3.895   2.339  12.443  0.0862  0.2715 -0.0702
  550TMC3    C1 8209   3.280   0.346  12.222 -0.5244  0.2287 -0.6478
  550TMC3    C2 8210   3.204   0.427  12.301 -0.1933 -0.1793  0.6092
  550TMC3    C3 8211   3.197   0.560  12.261 -0.4739  0.5395  0.0920
  550TMC3    C4 8212   3.347   0.387  12.113  0.0784  0.4319  0.0799
  550TMC3    C5 8213   3.344   0.515  12.074 -0.1142 -0.4914 -0.0761
  550TMC3    C6 8214   3.266   0.597  12.149  0.0806 -0.1588 -0.3008
  550TMC3     C 8215   3.217   0.222  12.202 -0.5557 -0.2697  0.7695
  550TMC3     O 8216   3.190   0.160  12.304  0.0146 -0.5659 -0.3504
  550TMC3     H 8217   3.139   0.375  12.371 -0.2161 -1.4075 -0.3421
  550TMC3    H1 8218   3.404   0.309  12.064 -0.1219  0.3660 -0.0494
  550TMC3    H2 8219   3.266   0.705  12.135 -1.2550 -0.0060  0.8062
  550TMC3    C7 8220   3.291   0.522  11.941  0.1513  0.5471  0.8551
  550TMC3    C8 8221   3.074   0.629  12.279  0.3087 -0.0165 -0.4780
  550TMC3    O1 8222   3.249   0.417  11.894  0.1677  0.2208  0.6395
  550TMC3    O2 8223   3.085   0.747  12.239  0.0192  0.2932  0.1707
  551TMC3    C1 8224   0.731   3.287  13.102 -0.5762 -0.2528  0.2931
  551TMC3    C2 8225   0.854   3.329  13.051 -0.1736  0.1818 -0.4135
  551TMC3    C3 8226   0.959   3.277  13.108  0.3701 -0.2769 -0.2027
  551TMC3    C4 8227   0.716   3.208  13.208  0.4861 -0.2416  0.9835
  551TMC3    C5 8228   0.828   3.148  13.257 -0.0569  0.2570 -0.0725
  551TMC3    C6 8229   0.948   3.180  13.208 -0.2441 -0.1571 -0.2843
  551TMC3     C 8230   0.619   3.369  13.054  0.3025  0.3666 -0.2495
  551TMC3     O 8231   0.643   3.487  13.039  0.1561  0.5961  0.4117
  551TMC3     H 8232   0.865   3.385  12.959 -1.4288 -1.3404 -1.5001
  551TMC3    H1 8233   0.618   3.184  13.247  0.5582 -2.7640 -0.4020
  551TMC3    H2 8234   1.040   3.150  13.257  0.1901  2.5992  0.5968
  551TMC3    C7 8235   0.813   3.067  13.378  0.0401  0.3650  0.4950
  551TMC3    C8 8236   1.098   3.308  13.060  0.5566  1.0050  0.7024
  551TMC3    O1 8237   0.708   3.005  13.400 -0.7340  0.2668  0.2587
  551TMC3    O2 8238   1.186   3.231  13.083 -0.1541 -0.0526 -0.2835
  552MPD2     C 8239   2.231   0.634  14.035 -0.0554 -0.1195  0.1500
  552MPD2    C1 8240   2.240   0.506  13.989  0.3901 -0.3764 -0.3053
  552MPD2    C2 8241   2.352   0.430  14.027  0.2945  0.0622  0.4553
  552MPD2    C3 8242   2.443   0.489  14.108  0.0924 -0.6306 -0.1793
  552MPD2    C4 8243   2.443   0.623  14.131 -0.0449 -0.9781 -0.1557
  552MPD2    C5 8244   2.336   0.694  14.093 -0.2868 -0.0363 -0.7058
  552MPD2     H 8245   2.363   0.326  13.997  1.7552  0.5440 -0.7053
  552MPD2    H1 8246   2.526   0.670  14.183 -0.9754  1.6695 -1.0524
  552MPD2    H2 8247   2.151   0.699  14.003 -1.5266 -2.0144  0.0287
  552MPD2    H3 8248   2.322   0.790  14.140 -1.3325 -0.3713 -0.3230
  552MPD2     N 8249   2.552   0.420  14.160  1.0980 -0.1071 -0.6996
  552MPD2    H5 8250   2.623   0.463  14.219 -0.1563  0.2078  0.5601
  552MPD2    N1 8251   2.147   0.449  13.901  0.2262 -0.3029 -0.6931
  552MPD2    H7 8252   2.157   0.350  13.882 -2.3525 -0.8763  0.8667
  553TMC3    C1 8253   1.963   0.411  13.768  0.3760  0.5928  0.6709
  553TMC3    C2 8254   1.948   0.423  13.629 -0.7675 -0.6321 -0.3387
  553TMC3    C3 8255   1.880   0.318  13.573  0.5079 -0.3956 -0.0904
  553TMC3    C4 8256   1.926   0.307  13.842  0.4454 -0.8925  0.3194
  553TMC3    C5 8257   1.861   0.205  13.776 -0.6588  0.1643  0.1986
  553TMC3    C6 8258   1.831   0.211  13.644 -0.6057  0.1505 -0.4541
  553TMC3     C 8259   2.044   0.507  13.832 -0.1396  0.0938 -0.0495
  553TMC3     O 8260   2.017   0.625  13.821 -0.7377  0.4730  0.2584
  553TMC3     H 8261   2.003   0.502  13.579  0.3050 -1.3344 -0.2528
  553TMC3    H1 8262   1.935   0.299  13.950  3.1746  0.4114  0.1902
  553TMC3    H2 8263   1.776   0.126  13.605  2.0429 -1.3199 -1.0124
  553TMC3    C7 8264   1.884   0.074  13.841  0.2114  0.7378 -0.1867
  553TMC3    C8 8265   1.922   0.300  13.439 -0.0046 -0.5542 -0.3034
  553TMC3    O1 8266   1.790   4.733  13.833  0.1347 -0.7636 -0.5288
  553TMC3    O2 8267   1.995   0.381  13.385 -0.3239  0.4082 -0.0262
  554TMC3    C1 8268   4.024   3.962  11.256  0.2233  0.7553 -0.2693
  554TMC3    C2 8269   3.920   3.905  11.183 -0.1461  0.2510  0.5174
  554TMC3    C3 8270   3.878   3.965  11.071 -0.0454  0.2204 -0.4335
  554TMC3    C4 8271   4.083   4.078  11.217  0.1899  0.4721  0.2764
  554TMC3    C5 8272   4.029   4.132  11.102 -0.0101 -0.2356 -0.0834
  554TMC3    C6 8273   3.929   4.078  11.027  0.5458  0.0612 -0.6843
  554TMC3     C 8274   4.045   3.904  11.394 -0.1285  0.5651  0.3011
  554TMC3     O 8275   3.966   3.816  11.429 -0.1766 -0.1037 -0.0310
  554TMC3     H 8276   3.875   3.812  11.216 -1.0681  0.5972  0.2301
  554TMC3    H1 8277   4.134   4.143  11.288 -1.3441  0.8474  1.0331
  554TMC3    H2 8278   3.887   4.119  10.936  0.1035 -1.6783 -1.2615
  554TMC3    C7 8279   4.085   4.253  11.046 -0.0887  0.5639  0.3796
  554TMC3    C8 8280   3.786   3.884  10.994  0.2471 -0.4561 -0.0834
  554TMC3    O1 8281   4.037   4.302  10.945 -0.2186 -0.1231  0.3215
  554TMC3    O2 8282   3.722   3.799  11.058 -1.0182 -0.5183  0.3199
  555TMC3    C1 8283   3.643   3.938  14.905 -0.6681  0.4984  0.4826
  555TMC3    C2 8284   3.652   4.003  15.027  0.8819 -0.1192 -0.7209
  555TMC3    C3 8285   3.706   3.935  15.142  0.0331  0.5423  0.5198
  555TMC3    C4 8286   3.713   3.817  14.887 -0.0280 -0.0512 -0.7189
  555TMC3    C5 8287   3.776   3.768  15.000  0.9191 -0.4068  0.2884
  555TMC3    C6 8288   3.771   3.816  15.124  0.6636  0.9422  0.6490
  555TMC3     C 8289   3.551   3.970  14.797  0.5285 -0.1714 -0.2286
  555TMC3     O 8290   3.523   3.881  14.717 -1.3513 -0.2004 -0.4333
  555TMC3     H 8291   3.593   4.093  15.041 -0.3161 -1.1981  1.1328
  555TMC3    H1 8292   3.721   3.774  14.787  1.2951  0.2810 -0.7489
  555TMC3    H2 8293   3.816   3.753  15.200 -0.5375  0.9138  1.3396
  555TMC3    C7 8294   3.797   3.625  14.993 -0.5078  0.0109  0.1639
  555TMC3    C8 8295   3.701   4.006  15.264 -0.4099 -0.9645  0.0051
  555TMC3    O1 8296   3.759   3.563  15.093  0.1664 -0.1494  0.1538
  555TMC3    O2 8297   3.630   4.108  15.265  0.1022  0.5805 -0.1821
  556MPD2     C 8298   1.623   0.398  10.443 -0.1875 -0.1865 -0.6881
  556MPD2    C1 8299   1.612   0.360  10.573 -0.0299  0.1273 -0.0285
  556MPD2    C2 8300   1.631   0.234  10.608  0.1217  0.6118  0.8438
  556MPD2    C3 8301   1.654   0.138  10.515 -0.5995  0.2414 -0.2445
  556MPD2    C4 8302   1.683   0.174  10.387 -0.2222  0.5784  0.6317
  556MPD2    C5 8303   1.673   0.304  10.355  0.0368 -0.6013 -0.0796
  556MPD2     H 8304   1.606   0.217  10.712  1.9934  1.9346  1.5103
  556MPD2    H1 8305   1.688   0.102  10.306 -0.8497  1.4606 -0.1991
  556MPD2    H2 8306   1.623   0.500  10.407 -1.5464 -0.4382 -1.4114
  556MPD2    H3 8307   1.695   0.330  10.252 -0.4312  1.0962  0.2337
  556MPD2     N 8308   1.634   0.005  10.554  0.1617  0.1164  0.0111
  556MPD2    H5 8309   1.609   4.728  10.651  0.3966  0.6461  0.1300
  556MPD2    N1 8310   1.571   0.452  10.672 -0.1800  0.0355 -0.2458
  556MPD2    H7 8311   1.574   0.409  10.764 -2.0167  1.2762  0.3980
  557TMC3    C1 8312   1.584   4.510  10.548 -0.0245  0.6934  0.2253
  557TMC3    C2 8313   1.585   4.392  10.482  0.0446 -0.0768 -0.1865
  557TMC3    C3 8314   1.496   4.298  10.512 -0.2555  0.3473 -0.2931
  557TMC3    C4 8315   1.502   4.521  10.659  0.4096 -0.5512 -0.4491
  557TMC3    C5 8316   1.414   4.427  10.686  0.2354 -0.6948  0.3909
  557TMC3    C6 8317   1.410   4.310  10.618 -0.2696  0.1785  0.2688
  557TMC3     C 8318   1.628   4.629  10.477 -0.5375 -0.2696 -0.0385
  557TMC3     O 8319   1.655   4.615  10.360  0.0544 -0.2247 -0.0401
  557TMC3     H 8320   1.648   4.381  10.394  0.4327 -1.0551  0.2195
  557TMC3    H1 8321   1.498   4.617  10.709 -1.4295  0.5494 -2.7404
  557TMC3    H2 8322   1.340   4.240  10.661  1.0228  0.1438  2.3065
  557TMC3    C7 8323   1.287   4.492  10.716  0.1378 -0.0412  0.5689
  557TMC3    C8 8324   1.471   4.184  10.424 -0.1308 -0.0614  0.4481
  557TMC3    O1 8325   1.285   4.610  10.741 -0.3743  0.2675  0.4742
  557TMC3    O2 8326   1.391   4.109  10.475 -0.4472 -0.6606  0.4492
  558TMC3    C1 8327   4.030   2.389  10.061 -0.4300  0.4170  0.9613
  558TMC3    C2 8328   3.916   2.338  10.112  0.4360 -0.6309 -0.5345
  558TMC3    C3 8329   3.811   2.347  10.025  0.3917  0.2438 -0.3898
  558TMC3    C4 8330   4.044   2.443   9.940 -0.0081 -0.2918 -0.3311
  558TMC3    C5 8331   3.936   2.449   9.860  0.8352 -0.2951 -0.4516
  558TMC3    C6 8332   3.816   2.393   9.899 -0.4326 -0.0581 -0.5606
  558TMC3     C 8333   4.148   2.401  10.150 -0.0756  0.4123 -0.1712
  558TMC3     O 8334   4.247   2.464  10.109  0.4231 -0.2667  0.5159
  558TMC3     H 8335   3.913   2.304  10.215 -0.6591  2.5029  0.4775
  558TMC3    H1 8336   4.138   2.485   9.906 -1.2479  1.7507 -1.2536
  558TMC3    H2 8337   3.729   2.415   9.839 -0.2593  0.8865 -0.4617
  558TMC3    C7 8338   3.958   2.487   9.727 -0.2350 -0.1031  0.2935
  558TMC3    C8 8339   3.679   2.332  10.075 -0.6099 -0.3775 -0.0737
  558TMC3    O1 8340   4.059   2.563   9.722  0.4178  0.2665  0.8114
  558TMC3    O2 8341   3.589   2.330   9.992  0.4856 -0.1460  0.0903
  559MPD2     C 8342   3.926   3.455  10.300  0.5235 -0.0769 -0.8933
  559MPD2    C1 8343   3.835   3.398  10.381 -0.0309 -0.0012  0.0793
  559MPD2    C2 8344   3.876   3.356  10.505  0.2348  0.2310  0.2069
  559MPD2    C3 8345   4.003   3.393  10.556 -0.1983 -0.6511  0.2931
  559MPD2    C4 8346   4.092   3.453  10.473  0.6725  0.1656 -0.7058
  559MPD2    C5 8347   4.053   3.486  10.345  0.0355  0.5523 -0.1619
  559MPD2     H 8348   3.808   3.300  10.567 -1.6722 -2.4804 -4.3583
  559MPD2    H1 8349   4.184   3.495  10.513  1.0122 -1.9747  0.7737
  559MPD2    H2 8350   3.899   3.502  10.206 -2.6700 -0.4292 -0.1569
  559MPD2    H3 8351   4.121   3.541  10.280 -0.7624  1.6242 -0.0789
  559MPD2     N 8352   4.033   3.363  10.693 -0.1040  0.5974  0.5792
  559MPD2    H5 8353   3.966   3.305  10.742  2.1739 -2.3418  0.2496
  559MPD2    N1 8354   3.706   3.371  10.329 -0.3852 -0.2511  0.4111
  559MPD2    H7 8355   3.677   3.420  10.245 -0.5575 -0.3332  0.4227
  560TMC3    C1 8356   4.174   3.336  10.885 -0.3694 -0.2181 -0.4133
  560TMC3    C2 8357   4.119   3.213  10.907 -0.0879  0.2670 -0.2532
  560TMC3    C3 8358   4.176   3.130  11.002 -0.4152  0.0973 -0.8408
  560TMC3    C4 8359   4.275   3.393  10.957 -0.0439 -0.1064  0.0299
  560TMC3    C5 8360   4.334   3.307  11.050 -0.6305  0.3076  0.1880
  560TMC3    C6 8361   4.286   3.177  11.075 -0.1853 -0.2542  0.2106
  560TMC3     C 8362   4.146   3.403  10.758  0.1934 -0.3995  0.5491
  560TMC3     O 8363   4.208   3.506  10.729  0.4877  0.2406  0.0361
  560TMC3     H 8364   4.049   3.167  10.838 -1.7412  0.7282  1.1074
  560TMC3    H1 8365   4.311   3.493  10.937  1.5995 -0.8995 -1.0437
  560TMC3    H2 8366   4.324   3.117  11.157  0.9849 -0.4988 -0.5111
  560TMC3    C7 8367   4.460   3.343  11.115  0.1776 -0.8057  0.9090
  560TMC3    C8 8368   4.130   3.001  11.015  0.1800 -0.6061  0.1301
  560TMC3    O1 8369   4.481   3.283  11.218  0.1369 -0.4979 -0.6093
  560TMC3    O2 8370   4.011   2.986  11.000  0.1978 -0.1747 -0.0560
  561TMC3    C1 8371   2.004   2.572  11.446  0.1752 -0.4049  0.3519
  561TMC3    C2 8372   1.906   2.531  11.523 -0.4439  0.5956 -0.5978
  561TMC3    C3 8373   1.848   2.622  11.609 -0.5807 -0.6610 -0.2251
  561TMC3    C4 8374   2.037   2.706  11.416  0.0253 -0.7429  1.2627
  561TMC3    C5 8375   1.969   2.796  11.497 -0.5747  0.2704 -0.0585
  561TMC3    C6 8376   1.879   2.757  11.592 -0.0820 -0.2907 -0.8200
  561TMC3     C 8377   2.094   2.472  11.393  0.6638  0.5287  0.0283
  561TMC3     O 8378   2.054   2.357  11.401 -0.2790 -0.0250  0.0628
  561TMC3     H 8379   1.905   2.430  11.560  1.3524  0.5360 -0.6956
  561TMC3    H1 8380   2.108   2.739  11.341  0.7081 -3.3882  0.7546
  561TMC3    H2 8381   1.842   2.831  11.662  1.8841 -0.1225  0.0441
  561TMC3    C7 8382   1.949   2.930  11.445  0.9344  0.2359  0.6433
  561TMC3    C8 8383   1.732   2.573  11.681  0.9074  0.0313  0.5578
  561TMC3    O1 8384   1.868   2.997  11.500  0.6734  0.5476  0.3416
  561TMC3    O2 8385   1.712   2.454  11.695  0.4236  0.3868 -0.5010
  562TMC3    C1 8386   3.287   4.036  16.178  0.7554 -0.0228 -0.0635
  562TMC3    C2 8387   3.251   4.163  16.143 -0.1211 -0.0711 -0.1592
  562TMC3    C3 8388   3.184   4.187  16.023  0.2081  0.0780  0.7152
  562TMC3    C4 8389   3.278   3.925  16.098 -0.4373  0.2035  0.6067
  562TMC3    C5 8390   3.216   3.955  15.977 -0.3693 -0.2487  0.2287
  562TMC3    C6 8391   3.158   4.074  15.943 -0.2875 -0.6147 -0.1818
  562TMC3     C 8392   3.353   4.017  16.307  1.0045 -0.3389  0.4561
  562TMC3     O 8393   3.407   3.905  16.319 -0.3596 -0.3629 -0.1229
  562TMC3     H 8394   3.254   4.247  16.210 -0.9474 -1.3557  1.4914
  562TMC3    H1 8395   3.343   3.840  16.119  1.0810  0.6698 -2.2945
  562TMC3    H2 8396   3.124   4.093  15.842 -1.6152  0.7710  0.5228
  562TMC3    C7 8397   3.189   3.842  15.900 -0.8795 -0.1320  0.3996
  562TMC3    C8 8398   3.153   4.327  15.990  0.6336  0.2530  0.1438
  562TMC3    O1 8399   3.182   3.859  15.779  0.0232 -0.0575 -0.5494
  562TMC3    O2 8400   3.204   4.408  16.063 -0.3354  0.3055 -0.1625
  563MPD2     C 8401   0.698   0.473  15.136  0.6799  0.1803  0.7609
  563MPD2    C1 8402   0.732   0.518  15.262 -0.0499  0.5430 -0.7716
  563MPD2    C2 8403   0.857   0.511  15.311  0.1461  0.9816  0.4873
  563MPD2    C3 8404   0.956   0.441  15.234 -0.3361  0.0115  0.5521
  563MPD2    C4 8405   0.929   0.400  15.112  0.0341 -0.2682 -0.1384
  563MPD2    C5 8406   0.803   0.418  15.064 -0.4501  0.6010  0.6329
  563MPD2     H 8407   0.895   0.541  15.407 -1.6297  1.6402  0.9922
  563MPD2    H1 8408   0.992   0.346  15.042  0.7344 -0.5742  0.7379
  563MPD2    H2 8409   0.596   0.463  15.101  0.0487 -0.5531  2.7785
  563MPD2    H3 8410   0.769   0.391  14.964  0.5312  0.6879  0.2751
  563MPD2     N 8411   1.085   0.424  15.295 -0.6702  0.5603  0.0682
  563MPD2    H5 8412   1.082   0.438  15.396  2.0049 -1.9960  0.5020
  563MPD2    N1 8413   0.631   0.584  15.337 -0.2111 -0.0171 -0.5178
  563MPD2    H7 8414   0.535   0.560  15.315 -0.9021  1.2723  1.1574
  564TMC3    C1 8415   0.593   0.609  15.560 -0.1429 -0.1750  0.2357
  564TMC3    C2 8416   0.480   0.534  15.539 -0.4256  0.4078 -0.3769
  564TMC3    C3 8417   0.441   0.445  15.635  0.6412  0.0704  0.2074
  564TMC3    C4 8418   0.678   0.592  15.663 -0.1046 -0.1861  0.9149
  564TMC3    C5 8419   0.648   0.496  15.758  0.4644 -0.1807  0.0422
  564TMC3    C6 8420   0.530   0.424  15.745  0.2317 -0.3752  0.2836
  564TMC3     C 8421   0.656   0.663  15.444 -0.1875 -0.3033 -1.0856
  564TMC3     O 8422   0.746   0.746  15.455  0.1204 -0.6099 -0.3314
  564TMC3     H 8423   0.404   0.579  15.476 -1.3893  0.7408  1.0420
  564TMC3    H1 8424   0.780   0.630  15.665 -0.3808  0.5087  1.6611
  564TMC3    H2 8425   0.511   0.335  15.803 -0.6731 -0.8085 -0.6644
  564TMC3    C7 8426   0.756   0.411  15.767 -0.2987  1.3165 -0.1657
  564TMC3    C8 8427   0.396   0.323  15.583 -0.1403  0.2323 -0.0956
  564TMC3    O1 8428   0.859   0.441  15.833  0.1329  0.8131  0.0787
  564TMC3    O2 8429   0.397   0.237  15.671 -0.3040 -0.1177 -0.3505
  565TMC3    C1 8430   1.734   1.526   9.759  0.2302 -0.3333  0.9105
  565TMC3    C2 8431   1.689   1.408   9.821  0.5163  0.2940  0.4867
  565TMC3    C3 8432   1.657   1.307   9.739 -0.3005 -0.0310  0.2799
  565TMC3    C4 8433   1.745   1.532   9.623 -0.4311  0.1070  0.2921
  565TMC3    C5 8434   1.701   1.423   9.546 -0.0426  0.0150  0.4684
  565TMC3    C6 8435   1.659   1.313   9.606  0.7494 -0.4928 -0.4391
  565TMC3     C 8436   1.784   1.631   9.853  0.2810  0.1484 -0.1298
  565TMC3     O 8437   1.875   1.701   9.819  0.0422  0.3855 -0.4720
  565TMC3     H 8438   1.713   1.377   9.921  1.8193  1.5930  0.5757
  565TMC3    H1 8439   1.774   1.627   9.581 -0.8066  0.1898  0.2184
  565TMC3    H2 8440   1.646   1.225   9.542 -2.3041  0.5908 -1.3317
  565TMC3    C7 8441   1.713   1.441   9.397 -0.5155  0.2660 -0.7054
  565TMC3    C8 8442   1.607   1.184   9.816  0.0249  0.2574  0.8401
  565TMC3    O1 8443   1.771   1.542   9.369 -0.7112 -0.3981  0.0725
  565TMC3    O2 8444   1.564   1.196   9.930 -0.4082 -0.5339  0.2796
  566MPD2     C 8445   3.327   3.348  13.914 -0.3921  0.0027 -0.0172
  566MPD2    C1 8446   3.327   3.433  13.806  0.5994  0.5745 -0.2046
  566MPD2    C2 8447   3.201   3.467  13.750  0.0155 -0.1561  0.3407
  566MPD2    C3 8448   3.088   3.398  13.792  0.3424  0.2973 -0.3077
  566MPD2    C4 8449   3.099   3.323  13.904 -0.1661 -0.4347 -0.1561
  566MPD2    C5 8450   3.216   3.289  13.961  0.5303  0.0531  0.6962
  566MPD2     H 8451   3.209   3.549  13.680  1.2092 -1.2786 -0.8452
  566MPD2    H1 8452   3.006   3.279  13.938  0.9162 -2.0297  0.7390
  566MPD2    H2 8453   3.420   3.329  13.965 -1.8881 -1.2627  2.2355
  566MPD2    H3 8454   3.219   3.225  14.048  1.6076 -0.1639  0.5079
  566MPD2     N 8455   2.964   3.421  13.729 -0.0941  0.3909  0.9363
  566MPD2    H5 8456   2.883   3.374  13.770  0.5200 -0.6464  0.9669
  566MPD2    N1 8457   3.452   3.496  13.766 -0.0797  0.1370 -0.1049
  566MPD2    H7 8458   3.533   3.477  13.824 -1.5320  2.6422  2.7693
  567TMC3    C1 8459   3.584   3.659  13.658  0.1787  0.7556 -0.1334
  567TMC3    C2 8460   3.639   3.681  13.539  0.4029  0.1631  0.1766
  567TMC3    C3 8461   3.771   3.722  13.525 -0.1461 -0.1216  0.5405
  567TMC3    C4 8462   3.647   3.699  13.774  1.4553  0.5143 -0.3818
  567TMC3    C5 8463   3.779   3.735  13.764  0.0361  0.3070 -0.1361
  567TMC3    C6 8464   3.842   3.755  13.641 -0.5310  0.1612 -0.2702
  567TMC3     C 8465   3.459   3.580  13.659  0.2864  0.1430 -0.3535
  567TMC3     O 8466   3.392   3.574  13.558 -0.6160  0.2575  0.4653
  567TMC3     H 8467   3.589   3.645  13.450  1.0358 -1.4990  0.4843
  567TMC3    H1 8468   3.595   3.677  13.866 -1.3429  0.6385 -1.9343
  567TMC3    H2 8469   3.947   3.782  13.634 -0.5717  1.0481  2.5042
  567TMC3    C7 8470   3.867   3.721  13.880 -0.3883 -0.5868 -0.3465
  567TMC3    C8 8471   3.809   3.770  13.399  0.6685 -0.0221 -0.1076
  567TMC3    O1 8472   3.990   3.732  13.868 -0.1152  0.1034 -0.1012
  567TMC3    O2 8473   3.711   3.807  13.337 -0.3588 -0.7833 -0.5103
  568MPD2     C 8474   0.451   3.638  15.826  0.2564 -0.7256  0.9757
  568MPD2    C1 8475   0.522   3.718  15.919 -0.6116  0.0966 -0.2020
  568MPD2    C2 8476   0.562   3.842  15.880  0.0226  0.3418 -0.7309
  568MPD2    C3 8477   0.514   3.891  15.758 -0.7568  0.3825  0.6358
  568MPD2    C4 8478   0.440   3.820  15.674  0.1814  0.5981  0.0030
  568MPD2    C5 8479   0.422   3.688  15.701  0.0080 -0.2429  0.1317
  568MPD2     H 8480   0.617   3.907  15.948 -0.7661  1.2586 -0.9719
  568MPD2    H1 8481   0.423   3.844  15.570 -0.0041  1.0739  0.1418
  568MPD2    H2 8482   0.428   3.541  15.869 -0.3204 -0.5026  1.1671
  568MPD2    H3 8483   0.390   3.628  15.617 -3.4877  1.7143  0.0698
  568MPD2     N 8484   0.551   4.026  15.720  0.2090  0.2548  0.0201
  568MPD2    H5 8485   0.613   4.070  15.787 -2.9918  2.8487  1.2475
  568MPD2    N1 8486   0.541   3.672  16.049 -0.4006 -0.1275 -0.5572
  568MPD2    H7 8487   0.494   3.584  16.069  2.0455 -0.7046  2.6281
  569TMC3    C1 8488   0.561   4.235  15.613  0.0140 -0.4191  0.3953
  569TMC3    C2 8489   0.566   4.296  15.736 -0.0308 -0.0830  0.2152
  569TMC3    C3 8490   0.645   4.404  15.754 -0.8195 -0.3055 -0.3071
  569TMC3    C4 8491   0.611   4.290  15.498 -0.4673  0.1762 -0.4153
  569TMC3    C5 8492   0.684   4.401  15.516  0.7281 -0.9977 -0.8271
  569TMC3    C6 8493   0.713   4.452  15.643  0.0705  0.4330  0.0876
  569TMC3     C 8494   0.509   4.100  15.613 -0.1586  0.2359 -0.1624
  569TMC3     O 8495   0.436   4.063  15.519 -0.1576 -0.3889 -0.9521
  569TMC3     H 8496   0.498   4.267  15.816 -1.6311  1.0503 -0.7324
  569TMC3    H1 8497   0.591   4.246  15.401  0.9225 -3.5072  0.9746
  569TMC3    H2 8498   0.767   4.546  15.652  1.3425 -0.1626 -1.3327
  569TMC3    C7 8499   0.657   4.489  15.405  0.2937  0.2986  0.8098
  569TMC3    C8 8500   0.586   4.508  15.839 -0.2752  0.1698  0.1808
  569TMC3    O1 8501   0.657   4.449  15.292 -0.2584  0.5319  0.4158
  569TMC3    O2 8502   0.469   4.499  15.860  0.3166 -0.6875 -0.0696
  570TMC3    C1 8503   4.646   2.525  15.897 -0.6374  0.3813 -0.3963
  570TMC3    C2 8504   4.715   2.546  15.781  0.1033 -0.2985 -0.4514
  570TMC3    C3 8505   0.021   2.677  15.754  0.3669 -0.1056 -0.7038
  570TMC3    C4 8506   4.624   2.618  15.990 -0.5563 -0.0389  0.5006
  570TMC3    C5 8507   4.660   2.747  15.955 -0.3242  0.2867  0.6844
  570TMC3    C6 8508   4.724   2.775  15.840  0.3526 -0.1640 -0.0233
  570TMC3     C 8509   4.626   2.382  15.931 -0.5413 -0.0214  0.0472
  570TMC3     O 8510   4.623   2.300  15.840  0.4133  0.6584  0.3053
  570TMC3     H 8511   0.011   2.461  15.721  0.3482  0.1952 -1.0402
  570TMC3    H1 8512   4.578   2.599  16.086  0.2253 -0.2763  0.8303
  570TMC3    H2 8513   0.013   2.881  15.836  0.0223 -0.0557  1.0657
  570TMC3    C7 8514   4.668   2.851  16.062 -0.0088  0.3888  0.4081
  570TMC3    C8 8515   0.134   2.701  15.674  0.0969  0.7394  0.3770
  570TMC3    O1 8516   0.025   2.927  16.059 -0.4654 -0.4103  0.0360
  570TMC3    O2 8517   0.153   2.821  15.656  0.2015 -0.5457 -0.1094
  571MPD2     C 8518   3.426   4.641  16.951 -0.0635  0.8315  0.2056
  571MPD2    C1 8519   3.395   4.562  17.057 -0.2406 -0.4252  0.7382
  571MPD2    C2 8520   3.421   4.616  17.189  0.4651  0.7826 -0.4840
  571MPD2    C3 8521   3.448   0.018  17.208  0.4919  0.6612 -0.4285
  571MPD2    C4 8522   3.471   0.098  17.097 -0.4464 -0.4619  0.1451
  571MPD2    C5 8523   3.461   0.040  16.970 -0.1127 -0.6932  0.2149
  571MPD2     H 8524   3.420   4.545  17.271 -0.0123  0.3835 -0.8375
  571MPD2    H1 8525   3.495   0.204  17.102 -0.0277 -0.4635 -1.5979
  571MPD2    H2 8526   3.419   4.604  16.849  2.6663  0.0086  0.3168
  571MPD2    H3 8527   3.494   0.107  16.892 -0.1944  0.1905  0.9334
  571MPD2     N 8528   3.449   0.085  17.333 -0.1131  0.2867 -0.1797
  571MPD2    H5 8529   3.458   0.186  17.337 -0.9871  0.3131  1.1658
  571MPD2    N1 8530   3.357   4.429  17.019 -0.2459 -0.2671 -0.5101
  571MPD2    H7 8531   3.345   4.405  16.922  1.3570  0.6638 -0.9316
  572TMC3    C1 8532   3.389   0.122  17.561 -0.5377  0.4156 -0.5590
  572TMC3    C2 8533   3.401   0.081  17.691  0.7654 -0.4484 -0.0118
  572TMC3    C3 8534   3.372   0.171   0.052 -0.0385  0.2852  0.8626
  572TMC3    C4 8535   3.337   0.246  17.536 -0.2265 -0.7866 -0.4651
  572TMC3    C5 8536   3.311   0.336  17.636  0.1025  1.0965 -0.4767
  572TMC3    C6 8537   3.318   0.294   0.031  0.5274 -0.1050 -0.0604
  572TMC3     C 8538   3.411   0.022  17.452 -0.1078 -0.9958  0.3782
  572TMC3     O 8539   3.400   4.637  17.483 -0.3428  0.2549 -0.1170
  572TMC3     H 8540   3.456   4.724  17.710  1.1413  0.2213  2.0800
  572TMC3    H1 8541   3.306   0.274  17.436  0.8979  3.1205  0.2970
  572TMC3    H2 8542   3.289   0.358   0.114  0.0596 -1.2318  0.6294
  572TMC3    C7 8543   3.278   0.473  17.600  0.4641 -0.3605 -0.4252
  572TMC3    C8 8544   3.415   0.138   0.180  0.4094  0.6134 -0.0745
  572TMC3    O1 8545   3.248   0.500  17.482 -0.5780  0.2941 -0.5775
  572TMC3    O2 8546   3.460   0.239   0.230 -0.0157  0.3831 -0.0143
  573MPD2     C 8547   3.707   4.499   0.147  0.4214  0.4513  0.0855
  573MPD2    C1 8548   3.744   4.632   0.137 -0.4421 -0.2847 -0.0374
  573MPD2    C2 8549   3.750   4.691   0.009  0.3499 -0.1720 -0.2009
  573MPD2    C3 8550   3.718   4.615  17.630 -0.4551  0.9055 -0.1411
  573MPD2    C4 8551   3.678   4.485  17.648 -0.0954  0.5698 -1.3104
  573MPD2    C5 8552   3.659   4.431   0.040  0.0474  0.3287 -0.1472
  573MPD2     H 8553   3.790   0.055  17.719 -0.3924  0.6617  1.8321
  573MPD2    H1 8554   3.665   4.425  17.558 -0.9347 -0.1762 -0.6981
  573MPD2    H2 8555   3.721   4.454   0.245  0.7049  1.8432  0.6880
  573MPD2    H3 8556   3.636   4.325   0.043  1.3617  0.0626  0.4684
  573MPD2     N 8557   3.724   4.653  17.496  0.1462 -0.6866 -0.0535
  573MPD2    H5 8558   3.673   4.585  17.441  0.2327 -0.7166 -0.0967
  573MPD2    N1 8559   3.788   4.699   0.254 -0.1157  0.3408 -0.0184
  573MPD2    H7 8560   3.799   4.641   0.336  3.1228  0.3863 -0.4296
  574TMC3    C1 8561   3.773   0.049  17.310  0.2059  0.1219 -0.3993
  574TMC3    C2 8562   3.789   0.179  17.256 -0.1095  0.6237  0.0420
  574TMC3    C3 8563   3.828   0.186  17.125 -0.0254 -0.0208  0.1255
  574TMC3    C4 8564   3.793   4.669  17.236  0.4221 -0.2766  0.1824
  574TMC3    C5 8565   3.825   4.685  17.102 -0.1139  0.4099  0.1416
  574TMC3    C6 8566   3.851   0.075  17.045  1.1199 -1.0571 -0.7145
  574TMC3     C 8567   3.769   0.043  17.454 -0.9201 -0.2232  0.2449
  574TMC3     O 8568   3.841   0.128  17.504  0.2262  0.8215 -0.3898
  574TMC3     H 8569   3.764   0.269  17.311  2.6027  0.8062  0.9666
  574TMC3    H1 8570   3.809   4.572  17.282  0.8084 -0.0222  0.5894
  574TMC3    H2 8571   3.862   0.093  16.939 -2.9097 -0.0940 -0.9849
  574TMC3    C7 8572   3.827   4.566  17.029 -0.5592 -0.0680  0.2910
  574TMC3    C8 8573   3.827   0.310  17.045  0.4685 -0.6715  0.4952
  574TMC3    O1 8574   3.781   4.464  17.087 -0.2535  0.0316 -0.3494
  574TMC3    O2 8575   3.893   0.321  16.942 -0.2475 -0.6326  0.1268
  575TMC3    C1 8576   1.275   0.760  10.477  0.5240  0.7341  0.2693
  575TMC3    C2 8577   1.244   0.632  10.477 -0.5155 -0.0768  0.1627
  575TMC3    C3 8578   1.293   0.543  10.387  0.9824  0.0348 -0.3749
  575TMC3    C4 8579   1.361   0.812  10.379  0.0339 -0.7877  0.1717
  575TMC3    C5 8580   1.402   0.722  10.282 -0.1205 -0.1330  0.6765
  575TMC3    C6 8581   1.377   0.589  10.289  0.2795 -0.5160 -0.1100
  575TMC3     C 8582   1.257   0.832  10.594  0.3021  0.1752 -0.0549
  575TMC3     O 8583   1.193   0.781  10.685 -0.3568 -0.1625 -0.0978
  575TMC3     H 8584   1.208   0.587  10.569  0.9000  2.7195  2.0602
  575TMC3    H1 8585   1.370   0.917  10.353 -1.3497 -0.8213 -0.3957
  575TMC3    H2 8586   1.420   0.523  10.214 -3.4761 -0.9760 -1.8336
  575TMC3    C7 8587   1.457   0.786  10.160  0.0526 -0.1657 -0.6513
  575TMC3    C8 8588   1.290   0.400  10.410  0.1095  0.5490  0.2217
  575TMC3    O1 8589   1.498   0.899  10.178  0.3955  0.6293 -0.2573
  575TMC3    O2 8590   1.259   0.359  10.522  0.5730 -0.2275 -0.4703
  576MPD2     C 8591   0.850   3.294  12.600 -0.0181 -0.3151 -0.6647
  576MPD2    C1 8592   0.896   3.370  12.497  0.0366 -0.0141  0.4625
  576MPD2    C2 8593   0.869   3.506  12.488  0.4814 -0.5437 -0.5024
  576MPD2    C3 8594   0.807   3.573  12.591  0.4029  0.8982  0.5695
  576MPD2    C4 8595   0.770   3.500  12.704  0.2342  0.3024  1.1085
  576MPD2    C5 8596   0.784   3.359  12.698  0.1201  0.0889  1.0813
  576MPD2     H 8597   0.894   3.574  12.408 -0.9942  0.0384 -0.4693
  576MPD2    H1 8598   0.715   3.542  12.787 -0.8170  0.8908  0.1301
  576MPD2    H2 8599   0.871   3.188  12.600  1.5973  0.0074 -0.3631
  576MPD2    H3 8600   0.770   3.296  12.785 -1.2774 -0.7660  0.2358
  576MPD2     N 8601   0.764   3.706  12.559  0.2605  0.1600 -0.0090
  576MPD2    H5 8602   0.785   3.750  12.470  0.7666  0.9320  0.4864
  576MPD2    N1 8603   0.958   3.319  12.385  0.4353 -0.6108 -0.0001
  576MPD2    H7 8604   1.010   3.380  12.322 -2.3755 -0.0920 -1.8068
  577TMC3    C1 8605   1.035   3.174  12.230  0.2861  0.2447  0.4060
  577TMC3    C2 8606   1.076   3.047  12.203 -0.0031  0.2461 -0.0179
  577TMC3    C3 8607   1.154   3.038  12.088  0.6006  0.3135 -0.2589
  577TMC3    C4 8608   1.054   3.276  12.145 -1.2152  0.2378  0.2430
  577TMC3    C5 8609   1.132   3.259  12.030  0.3260  0.5915 -0.0141
  577TMC3    C6 8610   1.177   3.137  11.995 -0.4265 -0.1317  0.0781
  577TMC3     C 8611   0.969   3.184  12.352  0.5466 -0.2131 -1.1722
  577TMC3     O 8612   0.923   3.087  12.411  0.0512 -0.1181  0.0922
  577TMC3     H 8613   1.061   2.963  12.271  0.1454 -0.5800 -1.0054
  577TMC3    H1 8614   1.018   3.377  12.160 -1.0313  0.5962 -1.6888
  577TMC3    H2 8615   1.227   3.123  11.900 -2.1359 -1.1935 -0.6771
  577TMC3    C7 8616   1.174   3.381  11.961  0.3478 -0.6895 -0.2434
  577TMC3    C8 8617   1.187   2.901  12.061  0.3962 -0.2856 -0.8432
  577TMC3    O1 8618   1.159   3.488  12.021  0.0813  0.9166  0.5276
  577TMC3    O2 8619   1.120   2.817  12.110 -0.2547  0.3538  0.6604
  578MPD2     C 8620   4.372   2.892   0.922 -0.0567 -0.4666  0.6858
  578MPD2    C1 8621   4.330   2.791   0.839  0.7212 -0.2465  0.1136
  578MPD2    C2 8622   4.365   2.662   0.868 -0.1894 -0.3202 -0.3031
  578MPD2    C3 8623   4.442   2.639   0.983  0.3391 -0.2543  1.0728
  578MPD2    C4 8624   4.474   2.745   1.072 -0.0874  0.3504 -0.1317
  578MPD2    C5 8625   4.443   2.871   1.037  0.2394 -0.0276 -0.4825
  578MPD2     H 8626   4.342   2.578   0.804 -1.6308 -1.5422  1.8087
  578MPD2    H1 8627   4.516   2.736   1.171  3.6941 -0.0600 -1.7991
  578MPD2    H2 8628   4.329   2.989   0.901  2.1045  0.4785  0.7132
  578MPD2    H3 8629   4.465   2.953   1.104  2.0828  0.1915 -1.3334
  578MPD2     N 8630   4.478   2.506   1.018 -0.1151  0.3689  0.0139
  578MPD2    H5 8631   4.444   2.438   0.950 -0.6988  1.3084 -0.6497
  578MPD2    N1 8632   4.242   2.823   0.731  0.2152  0.4417  0.4691
  578MPD2    H7 8633   4.200   2.915   0.738 -1.1149 -0.0889 -0.6515
  579TMC3    C1 8634   4.610   2.340   1.126 -0.2379  0.2550 -1.1540
  579TMC3    C2 8635   0.003   2.319   1.178  0.3621 -0.5130  0.1547
  579TMC3    C3 8636   0.062   2.194   1.169 -0.3717 -0.0890  0.2803
  579TMC3    C4 8637   4.542   2.238   1.057  0.5756  0.8923  0.0315
  579TMC3    C5 8638   4.603   2.115   1.053  0.5133  0.1310  0.6549
  579TMC3    C6 8639   4.722   2.091   1.109  0.2186  0.0875 -0.3871
  579TMC3     C 8640   4.565   2.475   1.122  0.0310  0.2763 -0.4120
  579TMC3     O 8641   4.621   2.550   1.200 -0.4651 -0.5370 -0.1218
  579TMC3     H 8642   0.050   2.392   1.243 -0.9092  0.6446 -0.2340
  579TMC3    H1 8643   4.444   2.254   1.016 -0.5553  0.0049  2.3835
  579TMC3    H2 8644   0.040   1.999   1.086  1.0395  0.6122 -0.6320
  579TMC3    C7 8645   4.533   2.006   0.992  0.6981 -0.6112 -0.0921
  579TMC3    C8 8646   0.210   2.190   1.181  0.2264  0.3957 -0.3967
  579TMC3    O1 8647   4.576   1.889   0.998  0.0112 -0.0372 -1.0697
  579TMC3    O2 8648   0.267   2.085   1.213  0.5703  0.9859  0.0583
  580TMC3    C1 8649   3.749   1.939  12.137 -0.8374 -0.0158 -0.4204
  580TMC3    C2 8650   3.861   2.025  12.164  0.5945 -0.3577  0.1518
  580TMC3    C3 8651   3.983   1.966  12.180  0.0971  0.0379  0.4139
  580TMC3    C4 8652   3.763   1.801  12.141 -0.1791 -0.6591 -0.4864
  580TMC3    C5 8653   3.893   1.756  12.160  0.1993 -0.2871 -0.1980
  580TMC3    C6 8654   4.005   1.837  12.173  0.0855 -0.3418  0.6744
  580TMC3     C 8655   3.667   1.989  12.027 -0.6443  0.8226 -0.9909
  580TMC3     O 8656   3.681   1.929  11.922 -0.2517 -0.4285 -0.4141
  580TMC3     H 8657   3.871   2.133  12.152  1.3239 -0.4595 -0.1501
  580TMC3    H1 8658   3.684   1.741  12.098 -0.8386 -0.1927  0.0900
  580TMC3    H2 8659   4.101   1.793  12.199  1.3149  0.1422 -2.9729
  580TMC3    C7 8660   3.912   1.617  12.200 -1.0459  0.5835 -0.4399
  580TMC3    C8 8661   4.097   2.047  12.144  0.1707  0.3670  0.8102
  580TMC3    O1 8662   4.022   1.590  12.245  0.1683 -0.3818 -0.0225
  580TMC3    O2 8663   4.104   2.157  12.196 -0.0774  0.3310  0.5390
  581MPD2     C 8664   1.700   1.514  14.308  0.0216  0.1205  0.0519
  581MPD2    C1 8665   1.587   1.580  14.356 -0.1072 -0.1446 -0.9536
  581MPD2    C2 8666   1.509   1.656  14.266 -0.2183 -0.3664  0.0098
  581MPD2    C3 8667   1.548   1.672  14.134 -0.0289  0.3126  0.5074
  581MPD2    C4 8668   1.671   1.614  14.093  0.3631  0.4124 -1.0284
  581MPD2    C5 8669   1.735   1.535  14.186  0.4891  0.1575 -0.1075
  581MPD2     H 8670   1.423   1.710  14.304  0.9265  1.1022  0.4867
  581MPD2    H1 8671   1.711   1.619  13.992  1.6188 -1.2478 -0.6254
  581MPD2    H2 8672   1.756   1.453  14.378 -2.6867 -1.2997  0.9439
  581MPD2    H3 8673   1.819   1.477  14.148 -0.0361 -0.3761 -0.4621
  581MPD2     N 8674   1.474   1.757  14.048  0.2056 -0.4491 -0.1702
  581MPD2    H5 8675   1.395   1.803  14.091  0.2448  0.8516 -1.4955
  581MPD2    N1 8676   1.551   1.553  14.485 -0.3148  0.5401 -0.4871
  581MPD2    H7 8677   1.604   1.481  14.532  0.3548  2.3040  1.4750
  582TMC3    C1 8678   1.428   1.545  14.687 -0.0581 -0.2048  0.0782
  582TMC3    C2 8679   1.536   1.575  14.766  0.5276  0.1235  0.7497
  582TMC3    C3 8680   1.508   1.604  14.893 -0.0030 -0.6912 -0.8873
  582TMC3    C4 8681   1.300   1.517  14.742  0.1946 -0.0388 -0.5532
  582TMC3    C5 8682   1.275   1.561  14.869  0.7566 -0.0721 -0.7251
  582TMC3    C6 8683   1.380   1.603  14.943  0.3686 -0.0133  0.0731
  582TMC3     C 8684   1.434   1.595  14.548  0.1069  0.2364 -0.4218
  582TMC3     O 8685   1.333   1.632  14.498  0.2489  0.2411 -0.0816
  582TMC3     H 8686   1.627   1.604  14.715  0.3946  1.1821  1.1093
  582TMC3    H1 8687   1.218   1.507  14.672 -0.3495 -0.0849  0.0832
  582TMC3    H2 8688   1.366   1.615  15.049  1.1187  0.9752  0.0651
  582TMC3    C7 8689   1.157   1.639  14.880 -0.9620 -0.1097  0.0368
  582TMC3    C8 8690   1.598   1.691  14.973 -0.9163  0.3067 -0.4255
  582TMC3    O1 8691   1.054   1.604  14.823 -0.1444  0.2041  0.0596
  582TMC3    O2 8692   1.541   1.776  15.043  0.0332 -0.3736 -0.1816
  583MPD2     C 8693   1.936   3.432  16.362  0.4472  0.1316 -0.3040
  583MPD2    C1 8694   1.963   3.565  16.351  0.2709  0.6044 -0.6698
  583MPD2    C2 8695   1.942   3.652  16.460  0.2659 -0.2054 -0.5444
  583MPD2    C3 8696   1.885   3.604  16.572  0.2275  0.1464 -0.9004
  583MPD2    C4 8697   1.862   3.468  16.584  0.6064  0.0616  0.4941
  583MPD2    C5 8698   1.883   3.389  16.477  1.1075 -0.2916 -0.0298
  583MPD2     H 8699   1.963   3.757  16.446  0.2173 -0.3371 -1.6075
  583MPD2    H1 8700   1.826   3.416  16.672 -1.9735  2.6512  0.9564
  583MPD2    H2 8701   1.965   3.361  16.285 -0.7178 -2.3751  1.5647
  583MPD2    H3 8702   1.874   3.282  16.492  4.7461 -0.5484  0.3352
  583MPD2     N 8703   1.871   3.691  16.678 -0.1808 -0.1133  0.3742
  583MPD2    H5 8704   1.909   3.784  16.665  1.4806 -0.8211  0.1778
  583MPD2    N1 8705   2.030   3.626  16.242  0.3352 -0.4451 -0.2148
  583MPD2    H7 8706   2.046   3.726  16.240  0.3299 -0.4559 -0.8316
  584TMC3    C1 8707   1.826   3.769  16.901 -0.0967 -0.1908 -0.3891
  584TMC3    C2 8708   1.896   3.884  16.886  0.0613  0.1790  0.1698
  584TMC3    C3 8709   1.861   3.990  16.960  0.1221  0.9522 -0.0597
  584TMC3    C4 8710   1.732   3.751  17.001  0.1070 -0.1454  0.0689
  584TMC3    C5 8711   1.717   3.859  17.084 -0.0649  0.0568  0.5884
  584TMC3    C6 8712   1.778   3.981  17.065  0.3956  0.0749 -0.4240
  584TMC3     C 8713   1.826   3.661  16.801  0.1766 -0.2417 -0.2597
  584TMC3     O 8714   1.755   3.568  16.837  0.1704 -0.1500  0.0966
  584TMC3     H 8715   1.980   3.881  16.817  0.4722 -1.9393  0.7756
  584TMC3    H1 8716   1.661   3.671  17.020 -2.6590  2.3249  0.1932
  584TMC3    H2 8717   1.750   4.060  17.134 -0.9437 -1.8177  1.2149
  584TMC3    C7 8718   1.624   3.845  17.198  0.6959  0.2093 -0.9319
  584TMC3    C8 8719   1.904   4.124  16.913  0.4186  0.7632 -0.5258
  584TMC3    O1 8720   1.628   3.734  17.253  0.3641  0.0940 -0.0804
  584TMC3    O2 8721   1.959   4.132  16.806 -0.1888  0.2424  0.1298
  585MPD2     C 8722   0.837   2.768   0.042  1.0463  0.3167 -0.2691
  585MPD2    C1 8723   0.847   2.843  17.661  0.4554 -0.1495  0.0391
  585MPD2    C2 8724   0.877   2.777  17.544  0.2921 -0.4249  0.4748
  585MPD2    C3 8725   0.884   2.635  17.538 -0.6460  0.5316 -0.8821
  585MPD2    C4 8726   0.880   2.566  17.659  0.0152 -0.0343  0.2742
  585MPD2    C5 8727   0.859   2.631   0.036  0.2364 -0.5494 -0.2619
  585MPD2     H 8728   0.879   2.833  17.452 -1.8296 -1.1962 -0.0320
  585MPD2    H1 8729   0.886   2.459  17.671  1.5403 -0.1014 -1.1559
  585MPD2    H2 8730   0.817   2.824   0.132 -0.6803  2.5682 -2.0754
  585MPD2    H3 8731   0.845   2.573   0.127  0.0868 -1.7216 -1.0413
  585MPD2     N 8732   0.899   2.567  17.417 -0.4903 -0.0441  0.0670
  585MPD2    H5 8733   0.882   2.467  17.421  4.1774 -0.8047  0.3317
  585MPD2    N1 8734   0.820   2.979  17.661 -0.3560 -0.4510  0.2088
  585MPD2    H7 8735   0.796   3.024   0.013 -2.4836  0.2895 -0.7510
  586TMC3    C1 8736   0.955   2.537  17.186  1.0090 -0.3265  0.6512
  586TMC3    C2 8737   1.053   2.554  17.096 -0.2875 -0.1812  0.5769
  586TMC3    C3 8738   1.037   2.506  16.969  0.3741  1.0296  0.6682
  586TMC3    C4 8739   0.847   2.456  17.162 -0.5878 -0.1917 -0.0988
  586TMC3    C5 8740   0.841   2.404  17.037 -0.2802 -0.4352 -0.3451
  586TMC3    C6 8741   0.936   2.426  16.948  0.0125  0.1161  0.4441
  586TMC3     C 8742   0.959   2.620  17.306  0.7576  0.4037  0.2315
  586TMC3     O 8743   1.029   2.719  17.300  0.0830 -0.2105  0.7018
  586TMC3     H 8744   1.142   2.607  17.127 -2.2664  2.6506  1.3783
  586TMC3    H1 8745   0.766   2.437  17.232  0.6179 -2.0697  0.7842
  586TMC3    H2 8746   0.928   2.371  16.855  0.3050  0.9123 -0.0439
  586TMC3    C7 8747   0.799   2.263  17.038  0.3259  0.5477  0.2259
  586TMC3    C8 8748   1.150   2.434  16.915  0.0506 -0.5208  1.2655
  586TMC3    O1 8749   0.681   2.242  17.063 -0.5378  0.0923 -0.2162
  586TMC3    O2 8750   1.137   2.310  16.930 -0.2995  0.2641  0.1539
  587TMC3    C1 8751   2.835   1.311  15.884 -0.1651 -0.3602  0.8008
  587TMC3    C2 8752   2.922   1.398  15.944  0.0618 -0.4663 -0.4669
  587TMC3    C3 8753   3.048   1.346  15.979  0.8372  0.2196 -0.1119
  587TMC3    C4 8754   2.859   1.176  15.885 -0.6229  0.5371  0.2128
  587TMC3    C5 8755   2.989   1.131  15.909 -1.0168  0.7539 -0.0839
  587TMC3    C6 8756   3.080   1.214  15.958 -0.1230 -0.0463  0.3281
  587TMC3     C 8757   2.716   1.367  15.828 -0.5332 -0.5127  0.1855
  587TMC3     O 8758   2.711   1.487  15.830  0.0983  0.5913 -0.0191
  587TMC3     H 8759   2.911   1.505  15.931  0.7424 -0.3778 -0.3009
  587TMC3    H1 8760   2.784   1.105  15.852  0.2281 -1.9418  3.7351
  587TMC3    H2 8761   3.184   1.187  15.962  0.4071  1.5289 -3.0498
  587TMC3    C7 8762   3.016   0.992  15.875  0.4650  0.5606  0.1132
  587TMC3    C8 8763   3.159   1.434  15.975 -0.2503  0.3856 -0.1626
  587TMC3    O1 8764   2.931   0.932  15.811  0.6867  0.4936  1.0804
  587TMC3    O2 8765   3.266   1.396  15.922 -0.1723  0.1629  0.5368
  588TMC3    C1 8766   0.395   3.916   9.966  0.1914 -0.1241 -0.7751
  588TMC3    C2 8767   0.337   3.795   9.938  0.1297  0.0417 -0.3602
  588TMC3    C3 8768   0.423   3.689   9.944 -0.5482 -0.0981  0.4159
  588TMC3    C4 8769   0.520   3.931  10.018  0.2241 -0.7832  0.3264
  588TMC3    C5 8770   0.604   3.825  10.018  0.3398  0.4465  0.1845
  588TMC3    C6 8771   0.556   3.701   9.975  0.6741  0.0177  0.0883
  588TMC3     C 8772   0.319   4.033   9.961 -0.3691  0.8302 -0.8575
  588TMC3     O 8773   0.276   4.056   9.851 -0.1080  0.1292 -0.4908
  588TMC3     H 8774   0.233   3.786   9.909  0.2521  0.4319 -0.9231
  588TMC3    H1 8775   0.559   4.032  10.023 -1.4597 -0.0397 -1.2493
  588TMC3    H2 8776   0.624   3.618   9.966  1.8035  1.1053 -1.4465
  588TMC3    C7 8777   0.742   3.845  10.047  0.2763 -0.0147  0.9921
  588TMC3    C8 8778   0.365   3.555   9.926 -0.5020  0.5710 -0.7092
  588TMC3    O1 8779   0.827   3.795   9.974  0.0275  0.1825  0.1943
  588TMC3    O2 8780   0.249   3.567   9.885 -0.7046 -0.0638  0.6491
  589TMC3    C1 8781   4.504   1.071   1.037 -0.2077  0.3115  0.4336
  589TMC3    C2 8782   4.604   1.152   1.097  0.1185  0.0404 -0.5141
  589TMC3    C3 8783   4.730   1.105   1.075 -0.7933  0.2326 -0.1923
  589TMC3    C4 8784   4.531   0.959   0.964 -0.0129 -0.3255 -0.6195
  589TMC3    C5 8785   4.660   0.915   0.955  0.1707 -0.2088  0.3635
  589TMC3    C6 8786   0.024   0.986   1.017 -0.3477  0.6460 -0.1645
  589TMC3     C 8787   4.368   1.122   1.026  0.6727 -1.0061  0.0855
  589TMC3     O 8788   4.326   1.118   0.910 -0.1181 -0.3830  0.3792
  589TMC3     H 8789   4.590   1.252   1.138 -0.0751  0.6553 -2.0612
  589TMC3    H1 8790   4.446   0.903   0.927 -0.4888 -0.8173  1.2344
  589TMC3    H2 8791   0.127   0.952   1.011 -0.6508 -0.5652  1.3797
  589TMC3    C7 8792   4.696   0.814   0.855 -0.3855  0.3820  0.5895
  589TMC3    C8 8793   0.101   1.184   1.146 -0.3123  0.0867 -0.6388
  589TMC3    O1 8794   0.069   0.756   0.866 -0.0214 -0.0451 -0.4661
  589TMC3    O2 8795   0.058   1.220   1.255 -0.2319 -1.1468  0.3568
  590MPD2     C 8796   4.222   4.143  16.419 -0.3601 -0.3066 -0.4142
  590MPD2    C1 8797   4.175   4.258  16.348 -0.2718 -0.7744  0.1715
  590MPD2    C2 8798   4.263   4.322  16.263 -0.0604  1.1767  0.2689
  590MPD2    C3 8799   4.396   4.280  16.251  0.3215 -1.2727 -0.8422
  590MPD2    C4 8800   4.443   4.175  16.324  0.1484 -0.1772  0.0750
  590MPD2    C5 8801   4.351   4.109  16.411 -0.5351 -0.0433 -0.1751
  590MPD2     H 8802   4.235   4.404  16.198 -1.9197  0.1329 -0.2581
  590MPD2    H1 8803   4.546   4.140  16.326  0.3210  0.3745  0.6036
  590MPD2    H2 8804   4.151   4.087  16.479 -1.2116 -1.5798 -2.6040
  590MPD2    H3 8805   4.386   4.017  16.458 -1.3462 -0.1462  0.2295
  590MPD2     N 8806   4.475   4.350  16.158  0.0395  0.7133 -0.3021
  590MPD2    H5 8807   4.438   4.423  16.098 -1.1947 -0.4152 -0.9011
  590MPD2    N1 8808   4.043   4.299  16.370  0.7609  0.8434 -0.1914
  590MPD2    H7 8809   3.981   4.233  16.417  2.0493  0.7580  1.3931
  591TMC3    C1 8810   4.674   4.407  16.043  0.5526  0.2539  0.3428
  591TMC3    C2 8811   0.026   4.378  15.941  0.6050 -0.3046  0.1734
  591TMC3    C3 8812   0.080   4.476  15.857  0.5488  0.2662  1.1166
  591TMC3    C4 8813   4.650   4.541  16.071  0.0508  0.0968  0.3383
  591TMC3    C5 8814   4.708   4.636  15.989  0.1413  0.7023 -0.6330
  591TMC3    C6 8815   0.059   4.612  15.880 -0.8490 -0.1924  0.4040
  591TMC3     C 8816   4.600   4.308  16.122  0.0278 -0.0947  0.1508
  591TMC3     O 8817   4.668   4.208  16.147  0.4028  0.0645 -0.1383
  591TMC3     H 8818   0.049   4.272  15.929  0.2518 -0.3486 -0.0937
  591TMC3    H1 8819   4.580   4.573  16.149 -0.3655  2.1583 -0.8754
  591TMC3    H2 8820   0.085   4.690  15.810 -1.2570 -1.5770 -1.2906
  591TMC3    C7 8821   4.622   0.019  15.981 -0.0693  1.3751  0.6910
  591TMC3    C8 8822   0.141   4.434  15.729 -0.2161  0.0815 -0.4418
  591TMC3    O1 8823   4.514   0.016  16.036 -0.1595 -0.3708  0.3920
  591TMC3    O2 8824   0.147   4.314  15.708 -0.3141  0.0603  0.5111
  592MPD2     C 8825   4.715   1.456  10.854  0.2110  0.4141 -0.2711
  592MPD2    C1 8826   4.728   1.498  10.988 -0.0297 -0.3708  0.1735
  592MPD2    C2 8827   4.642   1.445  11.079 -0.5391 -0.4358  0.5708
  592MPD2    C3 8828   4.544   1.353  11.046  0.1218  0.3778 -0.4816
  592MPD2    C4 8829   4.527   1.317  10.919  0.4881 -0.1304 -0.2453
  592MPD2    C5 8830   4.609   1.371  10.824  0.5607  0.2648  0.0182
  592MPD2     H 8831   4.648   1.487  11.179  0.1838  0.5959  0.0889
  592MPD2    H1 8832   4.440   1.259  10.892  0.9692 -0.9535 -0.0182
  592MPD2    H2 8833   0.051   1.490  10.779 -1.3252  0.2717 -1.7810
  592MPD2    H3 8834   4.595   1.341  10.721 -0.2189 -1.9349  0.7746
  592MPD2     N 8835   4.451   1.315  11.148  0.5780 -0.0127  0.0656
  592MPD2    H5 8836   4.476   1.357  11.237  1.2431 -0.4974  0.1137
  592MPD2    N1 8837   0.094   1.595  11.016  0.0799 -0.2922  0.1163
  592MPD2    H7 8838   0.143   1.645  10.942 -1.0479  0.0238 -0.4208
  593TMC3    C1 8839   0.235   1.726  11.148  0.2592  0.1737 -0.6750
  593TMC3    C2 8840   0.241   1.778  11.276 -0.1971 -0.1367  0.1411
  593TMC3    C3 8841   0.336   1.875  11.298 -0.3768  0.2283  0.7291
  593TMC3    C4 8842   0.313   1.769  11.046 -0.2846 -0.5488 -0.1979
  593TMC3    C5 8843   0.417   1.841  11.088  0.6088  0.3764 -0.0617
  593TMC3    C6 8844   0.424   1.908  11.204  0.0544 -1.0916 -0.2658
  593TMC3     C 8845   0.125   1.639  11.139  0.0910 -0.0559  0.6982
  593TMC3     O 8846   0.069   1.616  11.246 -0.2674  0.2643  0.2376
  593TMC3     H 8847   0.185   1.761  11.367  1.1496 -0.9371  0.8286
  593TMC3    H1 8848   0.305   1.711  10.955 -0.2723  3.0963 -2.5030
  593TMC3    H2 8849   0.506   1.978  11.217  2.3603 -3.5873 -1.3411
  593TMC3    C7 8850   0.513   1.863  10.978 -0.2715 -0.3535  0.1378
  593TMC3    C8 8851   0.282   1.992  11.372 -0.6761  0.0595 -0.4704
  593TMC3    O1 8852   0.471   1.862  10.862 -0.5013 -0.1537 -0.6130
  593TMC3    O2 8853   0.164   2.017  11.364  0.6221 -0.4196 -0.0512
  594MPD2     C 8854   3.161   0.495  13.933 -0.5873  0.8203 -0.2347
  594MPD2    C1 8855   3.168   0.442  14.060 -0.1205  0.3782 -0.2900
  594MPD2    C2 8856   3.297   0.423  14.114 -0.0653  1.0995  0.5588
  594MPD2    C3 8857   3.412   0.447  14.042  0.3494 -0.2384 -0.1549
  594MPD2    C4 8858   3.397   0.487  13.914 -0.0270  0.4929  0.4272
  594MPD2    C5 8859   3.274   0.506  13.857 -0.1123 -0.1645  0.7114
  594MPD2     H 8860   3.300   0.369  14.208  1.4906  0.4762  0.1396
  594MPD2    H1 8861   3.473   0.508  13.840 -0.4689 -0.9386 -0.4249
  594MPD2    H2 8862   3.067   0.512  13.881  0.5518  2.3900 -1.8065
  594MPD2    H3 8863   3.264   0.539  13.754 -0.3273 -0.6685  0.5722
  594MPD2     N 8864   3.532   0.455  14.112 -0.1314  0.6815 -0.0449
  594MPD2    H5 8865   3.518   0.458  14.212 -0.5934  0.6230 -0.1045
  594MPD2    N1 8866   3.044   0.406  14.119  0.2722 -0.0162  0.3021
  594MPD2    H7 8867   2.960   0.409  14.062 -1.2241 -1.3703  2.4447
  595TMC3    C1 8868   3.955   0.612  14.226  0.6571 -0.3813  0.0386
  595TMC3    C2 8869   3.868   0.536  14.150 -0.0079  0.3879  0.0332
  595TMC3    C3 8870   3.733   0.552  14.156  0.2979 -0.9825  0.0869
  595TMC3    C4 8871   3.903   0.716  14.300 -0.5710 -0.1370  0.2229
  595TMC3    C5 8872   3.766   0.727  14.300 -0.2719  0.5935 -0.2939
  595TMC3    C6 8873   3.675   0.646  14.239  0.1327  0.1766 -0.1381
  595TMC3     C 8874   4.082   0.649  14.185  0.3611 -1.0169 -0.1154
  595TMC3     O 8875   4.109   0.769  14.182 -0.1998 -0.0662  0.3764
  595TMC3     H 8876   3.919   0.459  14.094 -0.7730  0.4010 -0.6819
  595TMC3    H1 8877   3.961   0.785  14.359 -4.1595  2.3882  0.7434
  595TMC3    H2 8878   3.569   0.664  14.247  0.0791  0.6521 -1.9703
  595TMC3    C7 8879   3.716   0.860  14.328 -0.4472 -0.7983 -0.5824
  595TMC3    C8 8880   3.650   0.492  14.058  0.2810 -0.5733 -0.1646
  595TMC3    O1 8881   3.604   0.872  14.380  0.5203 -0.1351  0.2313
  595TMC3    O2 8882   3.701   0.494  13.943 -0.0196 -0.1081  0.5494
  596MPD2     C 8883   2.766   3.546  16.454 -0.4669 -0.6968 -0.0703
  596MPD2    C1 8884   2.729   3.658  16.374 -0.1154  0.6378  0.0395
  596MPD2    C2 8885   2.749   3.663  16.233  1.0096  0.3797 -0.0267
  596MPD2    C3 8886   2.793   3.544  16.176  0.7000  0.0992  0.0200
  596MPD2    C4 8887   2.826   3.437  16.255 -0.2816 -0.3319  0.3551
  596MPD2    C5 8888   2.814   3.439  16.393 -0.3855 -0.3131 -0.4982
  596MPD2     H 8889   2.735   3.756  16.180  1.3993  0.6212  0.2922
  596MPD2    H1 8890   2.868   3.347  16.213  0.9268 -0.6602  2.2187
  596MPD2    H2 8891   2.769   3.538  16.562  2.5812 -0.7116 -0.1537
  596MPD2    H3 8892   2.837   3.351  16.453 -1.4155 -0.5425 -0.4461
  596MPD2     N 8893   2.818   3.534  16.038 -0.3819  0.1660 -0.0499
  596MPD2    H5 8894   2.848   3.442  16.009  0.4869  0.2946  0.4563
  596MPD2    N1 8895   2.687   3.786  16.429 -0.7041  0.2188 -0.1111
  596MPD2    H7 8896   2.699   3.865  16.366 -0.3306  1.2845  1.3007
  597TMC3    C1 8897   2.589   3.936  16.574 -0.1285 -0.2295 -0.8141
  597TMC3    C2 8898   2.581   4.035  16.472  0.0478  0.1516  0.3458
  597TMC3    C3 8899   2.519   4.153  16.508  0.0494  0.5155  0.1224
  597TMC3    C4 8900   2.526   3.952  16.699  0.4939  0.2654 -0.2374
  597TMC3    C5 8901   2.462   4.069  16.719  0.0454  0.4100  0.3386
  597TMC3    C6 8902   2.464   4.177  16.634 -0.4450 -0.5209 -1.2645
  597TMC3     C 8903   2.643   3.807  16.559  0.6389 -0.5465  0.3162
  597TMC3     O 8904   2.627   3.724  16.644  0.0169  0.4222  0.4160
  597TMC3     H 8905   2.630   4.021  16.376  1.0612  0.4501  0.8175
  597TMC3    H1 8906   2.529   3.866  16.766  1.1581  0.7195  0.3063
  597TMC3    H2 8907   2.409   4.269  16.648  1.1501  0.1003  0.9257
  597TMC3    C7 8908   2.400   4.078  16.850  0.5444  0.0015  0.2399
  597TMC3    C8 8909   2.522   4.266  16.413  0.6105  0.0043  0.1943
  597TMC3    O1 8910   2.379   3.969  16.904  0.1588 -0.2651 -0.1617
  597TMC3    O2 8911   2.481   4.368  16.471 -0.1815  0.1099  0.8646
  598TMC3    C1 8912   0.780   0.187  14.657 -0.0979  0.2395  0.4636
  598TMC3    C2 8913   0.670   0.109  14.669 -0.9872 -0.3802  0.2323
  598TMC3    C3 8914   0.583   0.102  14.556 -0.7887 -0.2956 -0.2328
  598TMC3    C4 8915   0.819   0.249  14.535  0.1468 -0.9705 -0.4591
  598TMC3    C5 8916   0.733   0.233  14.431 -0.3968 -0.4324  0.4934
  598TMC3    C6 8917   0.614   0.168  14.443  0.4697  0.4074  0.2265
  598TMC3     C 8918   0.884   0.177  14.766 -0.1176 -0.0341 -0.4898
  598TMC3     O 8919   0.985   0.245  14.755 -0.6241 -0.0868 -0.9902
  598TMC3     H 8920   0.633   0.083  14.767  0.8103 -1.4973  0.6056
  598TMC3    H1 8921   0.918   0.293  14.530 -0.4158  0.3709  0.0396
  598TMC3    H2 8922   0.536   0.178  14.368  0.7114 -0.5020 -0.1430
  598TMC3    C7 8923   0.765   0.288  14.299  0.1705 -0.4617  0.1221
  598TMC3    C8 8924   0.451   0.048  14.571 -0.6912 -0.0906  0.1228
  598TMC3    O1 8925   0.706   0.252  14.203 -0.1089 -0.3479 -0.2786
  598TMC3    O2 8926   0.366   0.102  14.504  0.3280  0.1510  0.2442
  599MPD2     C 8927   1.164   2.339  15.623 -0.1577 -0.5763  0.2197
  599MPD2    C1 8928   1.084   2.246  15.564  0.4132 -0.3569  0.3102
  599MPD2    C2 8929   0.947   2.251  15.590 -0.7308 -0.4144 -0.3270
  599MPD2    C3 8930   0.893   2.345  15.674  0.2673  0.1093  0.3222
  599MPD2    C4 8931   0.979   2.442  15.728 -0.2400 -0.0571  0.0105
  599MPD2    C5 8932   1.111   2.431  15.706 -0.0983 -0.1960 -0.2703
  599MPD2     H 8933   0.883   2.183  15.535 -1.0996 -0.4915  0.1957
  599MPD2    H1 8934   0.951   2.530  15.785  0.1684  0.5655 -0.7420
  599MPD2    H2 8935   1.272   2.339  15.615 -0.3388  0.3663 -2.2773
  599MPD2    H3 8936   1.178   2.493  15.764 -0.5621  0.2029 -0.1688
  599MPD2     N 8937   0.756   2.357  15.709 -0.5361  0.0936  0.2771
  599MPD2    H5 8938   0.742   2.433  15.775 -0.1884  0.1524  0.2810
  599MPD2    N1 8939   1.149   2.149  15.483 -0.5693 -0.4284  0.0990
  599MPD2    H7 8940   1.248   2.167  15.466 -0.2600 -1.2329  0.9951
  600TMC3    C1 8941   0.535   2.275  15.758  0.4383 -0.1149  0.2745
  600TMC3    C2 8942   0.479   2.161  15.802 -0.0327  0.1707  0.6518
  600TMC3    C3 8943   0.371   2.168  15.882  0.0588  0.0409 -0.3198
  600TMC3    C4 8944   0.496   2.401  15.782 -0.2675 -0.1356 -0.1957
  600TMC3    C5 8945   0.382   2.401  15.865 -0.1415  0.4122 -0.5453
  600TMC3    C6 8946   0.316   2.287  15.910  0.6470  0.0938 -0.5565
  600TMC3     C 8947   0.659   2.260  15.686 -0.2253  0.2277  0.0443
  600TMC3     O 8948   0.662   2.161  15.612  0.6678 -0.1398  0.4163
  600TMC3     H 8949   0.514   2.065  15.766  1.6483  0.7558  0.7219
  600TMC3    H1 8950   0.560   2.482  15.749  0.0651  0.2190  1.3252
  600TMC3    H2 8951   0.258   2.287  16.002 -0.8391  3.5626 -1.4685
  600TMC3    C7 8952   0.372   2.525  15.944  0.2192  0.0942  0.3383
  600TMC3    C8 8953   0.307   2.041  15.915 -0.0851 -0.2788  0.9154
  600TMC3    O1 8954   0.276   2.543  16.024 -0.3276 -0.2102  0.2486
  600TMC3    O2 8955   0.370   1.941  15.934  0.7759 -0.4160  0.4576
  601MPD2     C 8956   3.220   0.965  17.723  0.1946  0.3639  0.3539
  601MPD2    C1 8957   3.163   0.892  17.616 -0.4032  0.4533 -0.5514
  601MPD2    C2 8958   3.186   0.757  17.608 -0.5159  0.5443 -0.5552
  601MPD2    C3 8959   3.271   0.694  17.701  0.0334 -0.0138 -0.1334
  601MPD2    C4 8960   3.333   0.768   0.063  0.1103 -0.6572  0.1690
  601MPD2    C5 8961   3.306   0.904   0.069 -0.1225 -0.5965 -0.1149
  601MPD2     H 8962   3.137   0.703  17.528 -0.0762 -1.7212  0.7150
  601MPD2    H1 8963   3.391   0.733   0.148  0.8542  0.8930  0.2926
  601MPD2    H2 8964   3.197   1.070   0.004 -0.3970  0.3416 -0.3016
  601MPD2    H3 8965   3.347   0.967   0.147  4.3061 -1.8484 -1.3923
  601MPD2     N 8966   3.303   0.556  17.702 -0.3277 -0.2865 -0.2085
  601MPD2    H5 8967   3.346   0.513   0.047  1.0110  0.5862 -0.4654
  601MPD2    N1 8968   3.063   0.948  17.529  0.1617  0.1363  0.3540
  601MPD2    H7 8969   3.018   0.886  17.463 -1.5128 -0.0083  1.6165
  602TMC3    C1 8970   2.899   1.093  17.457 -0.2955  0.2147  0.3152
  602TMC3    C2 8971   2.859   1.223  17.427 -0.4685  0.4890  0.4087
  602TMC3    C3 8972   2.737   1.239  17.376 -0.2722 -0.2246 -0.1529
  602TMC3    C4 8973   2.812   0.988  17.441  0.4593  0.5776  0.0170
  602TMC3    C5 8974   2.689   1.015  17.389 -0.3666  0.2764  0.1174
  602TMC3    C6 8975   2.650   1.139  17.365  0.4897  0.2214 -0.1987
  602TMC3     C 8976   3.016   1.075  17.530  0.7725  0.1876 -0.9061
  602TMC3     O 8977   3.064   1.177  17.579  0.0683 -0.1248 -0.0580
  602TMC3     H 8978   2.925   1.306  17.453 -1.1063  1.2651 -0.4502
  602TMC3    H1 8979   2.832   0.883  17.461  1.0474  0.7017  0.0785
  602TMC3    H2 8980   2.549   1.161  17.331 -0.1938 -0.7903  1.1671
  602TMC3    C7 8981   2.610   0.901  17.336 -0.6560 -0.0746  0.0799
  602TMC3    C8 8982   2.708   1.368  17.321 -0.8895 -0.4011 -0.2755
  602TMC3    O1 8983   2.606   0.796  17.396 -0.1364  0.1856  0.3004
  602TMC3    O2 8984   2.744   1.468  17.383  0.1667  0.2621 -0.9808
  603TMC3    C1 8985   0.285   1.174  10.698  0.0208 -0.2358 -0.2355
  603TMC3    C2 8986   0.353   1.136  10.814 -0.5627 -0.7972  0.9040
  603TMC3    C3 8987   0.490   1.152  10.808 -0.0793  0.2084  0.0004
  603TMC3    C4 8988   0.342   1.226  10.584 -0.0410  0.6470 -0.1496
  603TMC3    C5 8989   0.477   1.252  10.589  0.3529  0.1582 -0.1835
  603TMC3    C6 8990   0.549   1.202  10.691  0.0787 -0.2087  1.2242
  603TMC3     C 8991   0.150   1.116  10.677  0.8787  0.5619 -0.2880
  603TMC3     O 8992   0.115   1.110  10.558 -0.1953  0.2214 -0.6894
  603TMC3     H 8993   0.302   1.105  10.904 -1.3186  0.1238  0.7969
  603TMC3    H1 8994   0.266   1.269  10.521  0.2733  0.5120 -0.6281
  603TMC3    H2 8995   0.655   1.228  10.696  0.1305 -0.2532  0.3743
  603TMC3    C7 8996   0.546   1.286  10.467 -0.3534 -0.4616 -0.5650
  603TMC3    C8 8997   0.570   1.099  10.914  0.3007  0.0949  0.0528
  603TMC3    O1 8998   0.664   1.249  10.456 -0.3994 -0.4007  0.1911
  603TMC3    O2 8999   0.508   1.110  11.020 -0.0512 -0.1713 -0.3378
  604MPD2     C 9000   1.681   4.122  15.912 -0.7776  0.4450 -0.4203
  604MPD2    C1 9001   1.620   4.219  15.857 -0.0176 -0.1550 -0.2988
  604MPD2    C2 9002   1.669   4.274  15.739 -0.1465  0.4128  1.0052
  604MPD2    C3 9003   1.772   4.219  15.670 -0.3384 -0.4986  0.2979
  604MPD2    C4 9004   1.834   4.109  15.730 -0.0853 -1.1529 -0.1049
  604MPD2    C5 9005   1.787   4.065  15.854  0.2689  0.5170 -0.1065
  604MPD2     H 9006   1.626   4.364  15.698 -0.9706 -0.1814  0.5628
  604MPD2    H1 9007   1.914   4.057  15.678 -0.2921 -1.3621 -0.2159
  604MPD2    H2 9008   1.642   4.085  16.006  0.4227  0.9606  0.2911
  604MPD2    H3 9009   1.841   3.979  15.893  0.8272  0.6639 -0.5598
  604MPD2     N 9010   1.806   4.279  15.547  0.0714 -0.1489  0.0508
  604MPD2    H5 9011   1.768   4.372  15.533 -1.0501 -0.5022  0.8250
  604MPD2    N1 9012   1.505   4.281  15.923  1.0703  0.3772 -0.0658
  604MPD2    H7 9013   1.483   4.254  16.018  0.3319  0.7175 -0.1315
  605TMC3    C1 9014   1.360   4.467  15.971  0.1150  0.4908  0.4116
  605TMC3    C2 9015   1.428   4.507  16.085 -0.2481 -0.7116  0.6547
  605TMC3    C3 9016   1.406   4.628  16.141 -0.4091 -0.2105 -0.1058
  605TMC3    C4 9017   1.257   4.539  15.919 -0.1205  0.2518  0.1608
  605TMC3    C5 9018   1.223   4.651  15.991 -0.5251  0.0865 -0.1103
  605TMC3    C6 9019   1.305   4.703  16.086 -0.3991 -0.6008  0.3144
  605TMC3     C 9020   1.430   4.386  15.872  0.0475 -0.4383  0.3504
  605TMC3     O 9021   1.417   4.421  15.757  0.1404  0.1356 -0.3195
  605TMC3     H 9022   1.501   4.438  16.125 -0.4674 -1.3268  0.0077
  605TMC3    H1 9023   1.190   4.511  15.838  0.1490 -0.0388  0.0389
  605TMC3    H2 9024   1.299   0.069  16.127  0.6913 -0.3666 -0.1081
  605TMC3    C7 9025   1.124   0.009  15.932  0.4526  0.4236 -0.4468
  605TMC3    C8 9026   1.532   4.699  16.138 -0.4101  0.5261  0.1002
  605TMC3    O1 9027   1.082   0.101  16.003 -0.0681  0.4951 -0.2744
  605TMC3    O2 9028   1.593   4.689  16.033  0.7060 -0.4524 -0.3012
  606TMC3    C1 9029   2.789   3.633  17.253  0.8136  0.0658  0.4095
  606TMC3    C2 9030   2.782   3.567  17.377  0.0401  0.1122  0.5744
  606TMC3    C3 9031   2.788   3.429  17.379 -0.4546 -0.2186 -0.2960
  606TMC3    C4 9032   2.804   3.565  17.137  0.2753  0.5613 -0.0351
  606TMC3    C5 9033   2.803   3.429  17.148  0.0700  0.1527 -0.0629
  606TMC3    C6 9034   2.784   3.359  17.264  0.1833 -0.2611 -0.3878
  606TMC3     C 9035   2.815   3.774  17.247  0.0468  0.2532 -0.6862
  606TMC3     O 9036   2.858   3.816  17.352  0.4556  0.2093  0.2442
  606TMC3     H 9037   2.768   3.631  17.464 -1.4097  0.3773  0.1420
  606TMC3    H1 9038   2.837   3.604  17.042 -1.1186  0.8776 -0.3963
  606TMC3    H2 9039   2.802   3.252  17.272  0.8919 -0.1958 -1.0854
  606TMC3    C7 9040   2.788   3.353  17.019 -0.3076  0.0759 -0.0438
  606TMC3    C8 9041   2.849   3.360  17.489 -0.8186 -0.4360 -0.6925
  606TMC3    O1 9042   2.825   3.404  16.916  0.0636 -0.8314 -0.0169
  606TMC3    O2 9043   2.912   3.255  17.466 -0.4677  0.0935  0.3263
  607MPD2     C 9044   4.647   1.024  11.297 -0.1398 -0.8154 -0.1916
  607MPD2    C1 9045   4.670   1.146  11.361  0.9794  0.0689  0.0473
  607MPD2    C2 9046   4.615   1.173  11.484 -1.0169  0.1708  0.2188
  607MPD2    C3 9047   4.559   1.074  11.562 -0.8905 -0.0974 -0.5980
  607MPD2    C4 9048   4.521   0.957  11.499 -0.4509  0.3245 -0.5660
  607MPD2    C5 9049   4.564   0.937  11.366 -0.2616 -0.4205 -0.0014
  607MPD2     H 9050   4.652   1.256  11.543  0.1053  0.4409 -0.8701
  607MPD2    H1 9051   4.479   0.871  11.549 -1.5410  1.0904 -0.1785
  607MPD2    H2 9052   4.692   0.989  11.205 -2.2038 -1.5149 -0.9427
  607MPD2    H3 9053   4.545   0.841  11.319  0.7650 -1.5635  1.8981
  607MPD2     N 9054   4.543   1.101  11.699 -0.1814  0.4523  0.3592
  607MPD2    H5 9055   4.582   1.190  11.726  0.6644 -0.2897  1.5922
  607MPD2    N1 9056   0.028   1.241  11.313  0.3380  0.5288  0.5189
  607MPD2    H7 9057   0.050   1.320  11.373  1.2936  0.1421  0.6803
  608TMC3    C1 9058   0.237   1.312  11.228 -0.2734 -0.1602 -0.4582
  608TMC3    C2 9059   0.280   1.350  11.349  0.8118  0.0654  0.0425
  608TMC3    C3 9060   0.395   1.420  11.357  0.3811 -0.4234 -0.2642
  608TMC3    C4 9061   0.302   1.349  11.110 -0.2425  0.1419 -0.2083
  608TMC3    C5 9062   0.422   1.420  11.124 -0.0381 -0.5034  0.3952
  608TMC3    C6 9063   0.468   1.449  11.246  0.2550 -0.7777 -0.2224
  608TMC3     C 9064   0.122   1.219  11.210  0.1017  0.3243  0.0034
  608TMC3     O 9065   0.111   1.140  11.114  0.6822 -0.0874 -0.2455
  608TMC3     H 9066   0.240   1.308  11.440 -1.0760 -2.0204 -1.7345
  608TMC3    H1 9067   0.253   1.329  11.016  1.2822  0.2334 -1.0243
  608TMC3    H2 9068   0.547   1.522  11.260 -0.7587  0.5273 -1.2511
  608TMC3    C7 9069   0.488   1.459  11.002  0.1449 -0.1101 -0.0236
  608TMC3    C8 9070   0.421   1.488  11.482 -0.1246  0.4976  0.6341
  608TMC3    O1 9071   0.416   1.484  10.908 -0.1859  0.1109  0.0496
  608TMC3    O2 9072   0.532   1.540  11.489 -0.0695 -0.4022 -0.3689
  609TMC3    C1 9073   3.071   4.290   8.385 -0.1166 -0.3777  0.0430
  609TMC3    C2 9074   3.024   4.182   8.312 -0.4739 -0.0193 -0.6670
  609TMC3    C3 9075   3.105   4.089   8.257  0.3997 -0.2593 -0.2440
  609TMC3    C4 9076   3.206   4.293   8.409  0.1028 -0.3066  0.4952
  609TMC3    C5 9077   3.288   4.199   8.352  0.2338 -0.0681  0.3373
  609TMC3    C6 9078   3.243   4.098   8.268 -0.6666 -0.0962 -0.6707
  609TMC3     C 9079   2.972   4.373   8.459  0.0353 -0.9360  1.0359
  609TMC3     O 9080   2.856   4.350   8.444  0.9668 -0.0939 -0.0311
  609TMC3     H 9081   2.917   4.163   8.301 -0.5732  0.3154 -0.2840
  609TMC3    H1 9082   3.239   4.356   8.491 -0.9988 -0.5655  1.1504
  609TMC3    H2 9083   3.307   4.034   8.208 -2.3056  0.6043 -3.1892
  609TMC3    C7 9084   3.419   4.189   8.411 -0.0568  0.4549  0.0771
  609TMC3    C8 9085   3.041   3.989   8.176 -0.3514  0.3489  0.3334
  609TMC3    O1 9086   3.455   4.279   8.489  0.1825  0.3067  0.7060
  609TMC3    O2 9087   2.943   4.024   8.111  0.1327  0.7504  0.4375
  610TMC3    C1 9088   0.920   1.340  11.796  0.1079  0.6894  0.0699
  610TMC3    C2 9089   0.824   1.340  11.700  0.3256  0.0307 -0.2795
  610TMC3    C3 9090   0.705   1.271  11.734 -0.0628  0.3403  0.2847
  610TMC3    C4 9091   0.909   1.275  11.917  0.2132  0.0610 -0.2454
  610TMC3    C5 9092   0.796   1.203  11.941 -0.5280 -0.0602  0.0035
  610TMC3    C6 9093   0.699   1.203  11.850 -0.4384  0.8718  0.6002
  610TMC3     C 9094   1.038   1.416  11.761 -0.5622  0.6708 -0.1659
  610TMC3     O 9095   1.056   1.445  11.644 -0.4066 -0.1895  0.5291
  610TMC3     H 9096   0.828   1.405  11.614  2.2320 -1.4810 -1.3388
  610TMC3    H1 9097   0.992   1.257  11.984 -0.6733  1.9517  1.3560
  610TMC3    H2 9098   0.631   1.118  11.855  0.5312  0.1493  1.4994
  610TMC3    C7 9099   0.796   1.101  12.046  0.7513 -0.1969  0.6058
  610TMC3    C8 9100   0.639   1.212  11.622 -0.0344  0.6187 -0.5057
  610TMC3    O1 9101   0.897   1.041  12.078  0.3192 -0.0641  0.7376
  610TMC3    O2 9102   0.693   1.215  11.514  0.2393  0.4677 -0.0748
  611MPD2     C 9103   4.333   0.961  10.227 -0.0212  0.2346  0.1105
  611MPD2    C1 9104   4.291   0.952  10.096 -0.1786 -0.3177  0.1800
  611MPD2    C2 9105   4.361   1.017   9.998 -0.4938  0.0842 -0.5067
  611MPD2    C3 9106   4.468   1.105  10.036 -0.2093 -0.1233 -0.0900
  611MPD2    C4 9107   4.496   1.120  10.169 -0.7512  0.1705 -0.3286
  611MPD2    C5 9108   4.429   1.053  10.260  0.7775  0.1154  0.5026
  611MPD2     H 9109   4.329   1.014   9.894  1.6909 -2.0561 -1.1257
  611MPD2    H1 9110   4.577   1.185  10.202 -0.7852 -0.4113  0.8980
  611MPD2    H2 9111   4.288   0.913  10.313  0.7550  0.0541  0.4136
  611MPD2    H3 9112   4.463   1.056  10.362  3.2011 -1.8046 -0.2503
  611MPD2     N 9113   4.555   1.170   9.950  0.3032  0.0236 -0.1974
  611MPD2    H5 9114   4.616   1.235   9.999  0.5270  0.5469 -1.1841
  611MPD2    N1 9115   4.178   0.869  10.074  0.2075 -0.4887  0.4576
  611MPD2    H7 9116   4.127   0.822  10.148  1.1938 -1.7646  0.3209
  612TMC3    C1 9117   4.642   1.244   9.749  0.0347 -0.7010 -0.2449
  612TMC3    C2 9118   0.025   1.277   9.813  0.1707  0.0978 -0.2480
  612TMC3    C3 9119   0.106   1.381   9.757 -0.3233  0.2412 -0.1645
  612TMC3    C4 9120   4.598   1.307   9.635  0.0241 -0.5972  0.0420
  612TMC3    C5 9121   4.683   1.399   9.581 -0.2389  0.5424 -0.3222
  612TMC3    C6 9122   0.062   1.439   9.642 -0.1005 -0.3211 -0.0395
  612TMC3     C 9123   4.559   1.154   9.817 -0.1189  0.1431  0.4040
  612TMC3     O 9124   4.484   1.092   9.741 -0.2131 -0.3079  0.2864
  612TMC3     H 9125   0.053   1.210   9.894 -0.1176  1.0235  0.6242
  612TMC3    H1 9126   4.491   1.294   9.618 -0.4467 -0.3415  2.6849
  612TMC3    H2 9127   0.137   1.498   9.590 -0.1324 -0.1470  0.1087
  612TMC3    C7 9128   4.613   1.491   9.504  0.1178  0.1792 -0.3411
  612TMC3    C8 9129   0.248   1.375   9.798  0.1677 -0.2727 -0.2384
  612TMC3    O1 9130   4.501   1.460   9.472 -0.3116 -0.1674 -0.5622
  612TMC3    O2 9131   0.330   1.404   9.712  0.2711  0.3446  0.1434
  613MPD2     C 9132   4.061   3.311  16.541  0.8458 -0.2158 -0.4765
  613MPD2    C1 9133   3.974   3.361  16.448  0.4344 -0.0375 -0.8722
  613MPD2    C2 9134   3.861   3.285  16.419 -0.3030 -0.4054 -0.2151
  613MPD2    C3 9135   3.820   3.173  16.482  0.2149  0.1511 -0.1203
  613MPD2    C4 9136   3.905   3.128  16.578 -0.1038  0.3973 -0.0659
  613MPD2    C5 9137   4.027   3.193  16.603 -0.1965  0.0463  0.7462
  613MPD2     H 9138   3.816   3.310  16.323  0.8576 -0.0019 -0.6627
  613MPD2    H1 9139   3.875   3.038  16.630  1.1021  0.1598  0.2204
  613MPD2    H2 9140   4.150   3.362  16.575  2.0141 -1.2058 -2.0260
  613MPD2    H3 9141   4.089   3.146  16.679  1.2515  1.8857  0.6863
  613MPD2     N 9142   3.703   3.101  16.454 -0.2415 -0.4226 -0.4642
  613MPD2    H5 9143   3.695   3.004  16.481  0.2252 -0.3904 -0.2019
  613MPD2    N1 9144   4.018   3.473  16.368  0.0031 -0.3462 -0.1285
  613MPD2    H7 9145   4.115   3.501  16.380 -1.0846  3.2128  0.3307
  614TMC3    C1 9146   4.032   3.608  16.175  0.4600 -0.4586  0.8000
  614TMC3    C2 9147   4.101   3.523  16.092 -0.1777  0.0166  0.0604
  614TMC3    C3 9148   4.111   3.562  15.964  0.0139  0.5207  0.1741
  614TMC3    C4 9149   3.988   3.732  16.139 -0.2847  0.4503  0.1107
  614TMC3    C5 9150   4.016   3.767  16.009  0.1022 -0.3469  0.9746
  614TMC3    C6 9151   4.080   3.686  15.916  0.0303  0.1506 -0.0857
  614TMC3     C 9152   3.946   3.534  16.263 -0.4113  0.1994  0.1234
  614TMC3     O 9153   3.837   3.501  16.221 -0.2787  0.4270  0.1925
  614TMC3     H 9154   4.119   3.424  16.131 -1.6576 -0.4466 -0.4472
  614TMC3    H1 9155   3.914   3.789  16.194 -1.4015 -0.9219  0.0280
  614TMC3    H2 9156   4.118   3.720  15.821  1.6328 -1.3586  0.0091
  614TMC3    C7 9157   3.935   3.874  15.953  0.3450  1.0789 -0.0134
  614TMC3    C8 9158   4.099   3.454  15.868 -0.0744 -0.0494  0.1377
  614TMC3    O1 9159   3.915   3.968  16.029  0.4202  0.3692  0.0094
  614TMC3    O2 9160   4.112   3.502  15.758 -0.4439 -0.1758 -0.1698
  615MPD2     C 9161   3.254   0.341  15.509  0.4109  0.4639  0.6540
  615MPD2    C1 9162   3.197   0.452  15.455  0.6398  0.0492  0.5682
  615MPD2    C2 9163   3.094   0.431  15.372  0.3322 -0.2692 -0.3249
  615MPD2    C3 9164   3.060   0.304  15.325 -0.3615  0.3472 -0.1041
  615MPD2    C4 9165   3.117   0.201  15.391  0.0594  0.5485  0.1033
  615MPD2    C5 9166   3.217   0.214  15.478  0.4369  0.1225 -0.6470
  615MPD2     H 9167   3.044   0.515  15.324 -0.7915  0.2075  1.7007
  615MPD2    H1 9168   3.091   0.096  15.375  0.4168  0.4399  0.2374
  615MPD2    H2 9169   3.334   0.345  15.582  0.4708  0.2018  0.5991
  615MPD2    H3 9170   3.267   0.130  15.525  0.3549 -1.0921 -2.7184
  615MPD2     N 9171   2.961   0.291  15.227  0.2667 -0.3122 -0.9643
  615MPD2    H5 9172   2.917   0.377  15.196 -2.0957 -0.7900  1.1554
  615MPD2    N1 9173   3.234   0.585  15.484 -0.0912 -0.1779 -0.6343
  615MPD2    H7 9174   3.185   0.660  15.437 -1.8143 -1.4549 -0.8582
  616TMC3    C1 9175   3.348   0.757  15.600  0.2921  0.6734  0.0616
  616TMC3    C2 9176   3.451   0.800  15.679 -0.3320  0.4520  0.2376
  616TMC3    C3 9177   3.451   0.936  15.708  0.3394  0.8633 -0.0884
  616TMC3    C4 9178   3.256   0.848  15.550 -0.2114  0.8965  0.7200
  616TMC3    C5 9179   3.266   0.974  15.592 -0.1331  0.4318 -0.1771
  616TMC3    C6 9180   3.361   1.025  15.663  1.2958  0.5427  1.0408
  616TMC3     C 9181   3.340   0.614  15.566 -0.2214  0.6555  0.5063
  616TMC3     O 9182   3.423   0.541  15.619 -0.3172 -0.6819 -0.2475
  616TMC3     H 9183   3.521   0.728  15.722  0.4440  0.2376 -1.4103
  616TMC3    H1 9184   3.173   0.821  15.485  0.7834  1.1191 -0.6323
  616TMC3    H2 9185   3.363   1.129  15.693 -2.4427  1.2082 -1.0100
  616TMC3    C7 9186   3.159   1.060  15.543  0.2987 -0.2842  0.4205
  616TMC3    C8 9187   3.523   0.982  15.823  0.4085  0.7018  0.2272
  616TMC3    O1 9188   3.062   1.005  15.494 -0.3498  0.2586  0.2026
  616TMC3    O2 9189   3.466   1.062  15.893  0.1163  0.8075 -0.8748
  617MPD2     C 9190   1.748   3.106  12.797 -0.2308  0.2573  0.5733
  617MPD2    C1 9191   1.775   3.138  12.926 -0.1120  0.3238  0.0541
  617MPD2    C2 9192   1.672   3.115  13.019 -0.1585  0.3021  0.0470
  617MPD2    C3 9193   1.545   3.072  12.987  0.9747 -0.7956  0.0352
  617MPD2    C4 9194   1.522   3.051  12.854 -0.0066 -0.3639 -0.6039
  617MPD2    C5 9195   1.623   3.062  12.761 -0.1557  0.2887 -0.0415
  617MPD2     H 9196   1.687   3.149  13.121  0.2861 -0.4903  0.2524
  617MPD2    H1 9197   1.420   3.034  12.823  0.2341  2.3501 -2.8659
  617MPD2    H2 9198   1.821   3.126  12.720  1.2897 -2.0070  1.4086
  617MPD2    H3 9199   1.598   3.040  12.658  0.2974 -0.6004  0.0342
  617MPD2     N 9200   1.432   3.053  13.074 -0.7989 -0.1145  0.2855
  617MPD2    H5 9201   1.345   3.028  13.027 -0.5615  0.9272 -0.7026
  617MPD2    N1 9202   1.893   3.208  12.950  0.2585 -0.0808 -0.7803
  617MPD2    H7 9203   1.961   3.216  12.875  3.1616  3.0115  2.1774
  618TMC3    C1 9204   2.065   3.313  13.061  0.8610  0.8377  0.0179
  618TMC3    C2 9205   2.115   3.360  13.181  0.0297 -0.5195 -0.2769
  618TMC3    C3 9206   2.251   3.373  13.184 -0.3452  0.6492  0.5046
  618TMC3    C4 9207   2.146   3.293  12.952 -0.5912  0.4070 -0.4086
  618TMC3    C5 9208   2.276   3.316  12.957  0.2447 -0.0583 -0.2578
  618TMC3    C6 9209   2.328   3.357  13.073 -0.2073  0.2048  0.0261
  618TMC3     C 9210   1.933   3.254  13.067  0.1950  0.3896  0.1447
  618TMC3     O 9211   1.869   3.266  13.173  0.1876  0.8305 -0.2269
  618TMC3     H 9212   2.058   3.376  13.271  0.4361 -2.0415  0.2604
  618TMC3    H1 9213   2.105   3.280  12.852  0.5628 -1.9802 -0.5765
  618TMC3    H2 9214   2.435   3.368  13.084 -0.1625  1.8941 -1.9820
  618TMC3    C7 9215   2.358   3.217  12.901  0.1135  0.3624  0.1214
  618TMC3    C8 9216   2.314   3.367  13.318  0.0424  0.5897  0.4394
  618TMC3    O1 9217   2.398   3.138  12.990  0.9150  0.5830 -0.0953
  618TMC3    O2 9218   2.257   3.420  13.412  0.4130 -0.7181  0.6460
  619MPD2     C 9219   2.547   4.457  13.859 -0.1670 -0.0891  0.4805
  619MPD2    C1 9220   2.460   4.532  13.775  0.3214  0.2045  0.0673
  619MPD2    C2 9221   2.336   4.481  13.745  0.1765 -0.3723 -1.0168
  619MPD2    C3 9222   2.285   4.373  13.822 -0.1213 -0.2966 -0.5467
  619MPD2    C4 9223   2.368   4.304  13.909  0.3672  0.5171  0.2486
  619MPD2    C5 9224   2.502   4.343  13.921  0.2152  0.2500 -0.7554
  619MPD2     H 9225   2.272   4.547  13.687 -0.0818 -1.2201 -1.7005
  619MPD2    H1 9226   2.344   4.229  13.984  0.1555  1.1664  0.8260
  619MPD2    H2 9227   2.651   4.486  13.846 -0.5634  0.2628 -1.9990
  619MPD2    H3 9228   2.569   4.289  13.988 -0.9164 -1.8216 -1.2979
  619MPD2     N 9229   2.151   4.337  13.808 -0.0005  0.2156  0.4898
  619MPD2    H5 9230   2.120   4.259  13.866 -1.0279 -0.1993 -0.6299
  619MPD2    N1 9231   2.489   4.651  13.711 -0.1413  0.3836  0.1205
  619MPD2    H7 9232   2.432   4.679  13.631  2.5122  2.0590 -1.1809
  620TMC3    C1 9233   2.593   0.113  13.643  0.1670 -0.2784  0.6579
  620TMC3    C2 9234   2.563   0.089  13.509  0.4614  0.1405  0.1643
  620TMC3    C3 9235   2.553   0.195  13.423 -0.3212  1.7829 -0.1953
  620TMC3    C4 9236   2.637   0.235  13.692 -0.2205 -0.1542 -0.3618
  620TMC3    C5 9237   2.631   0.333  13.592  0.0429  0.0737 -0.6159
  620TMC3    C6 9238   2.600   0.317  13.458  0.3061 -0.0687 -0.0368
  620TMC3     C 9239   2.592   0.004  13.732  0.5604  0.3568  0.0745
  620TMC3     O 9240   2.671   0.007  13.824  0.1842 -0.3528 -1.0015
  620TMC3     H 9241   2.526   4.726  13.480  1.4570 -0.2680  0.2540
  620TMC3    H1 9242   2.638   0.256  13.798 -1.2152 -1.1536 -0.1454
  620TMC3    H2 9243   2.605   0.395  13.383 -2.1143  1.2900  1.1982
  620TMC3    C7 9244   2.561   0.449  13.652 -0.7220  0.1589 -0.1645
  620TMC3    C8 9245   2.427   0.216  13.347  0.7228  0.6714  0.3182
  620TMC3    O1 9246   2.606   0.495  13.754 -0.2595  0.2300 -0.7501
  620TMC3    O2 9247   2.374   0.326  13.358 -0.2897 -0.5036 -0.0712
  621MPD2     C 9248   2.982   4.553   9.148 -0.2810  0.3568  0.2254
  621MPD2    C1 9249   3.082   4.504   9.224 -0.0910  0.6063 -0.0029
  621MPD2    C2 9250   3.158   4.604   9.286  0.0051  0.6288  0.3975
  621MPD2    C3 9251   3.146   0.012   9.270  0.1962 -0.0344  0.4710
  621MPD2    C4 9252   3.030   0.048   9.207 -0.6742  0.0890 -0.0644
  621MPD2    C5 9253   2.952   4.685   9.144  0.3982  0.3572 -0.1422
  621MPD2     H 9254   3.238   4.571   9.351  0.8987  1.2882 -0.3561
  621MPD2    H1 9255   2.993   0.150   9.204 -0.9677 -0.0507 -1.3003
  621MPD2    H2 9256   2.911   4.495   9.089  0.4750 -1.0204  0.6685
  621MPD2    H3 9257   2.855   4.711   9.104  0.1121 -0.2428  0.1667
  621MPD2     N 9258   3.233   0.107   9.328 -0.1911  0.5634 -0.3057
  621MPD2    H5 9259   3.310   0.073   9.384 -1.2128 -1.5918 -0.2074
  621MPD2    N1 9260   3.117   4.366   9.229  0.2168 -0.4696 -1.0557
  621MPD2    H7 9261   3.188   4.343   9.298 -1.8440  1.8444  1.8244
  622TMC3    C1 9262   3.100   4.133   9.194  0.2636  0.3119  0.9023
  622TMC3    C2 9263   3.124   4.100   9.326  0.1109  0.6371 -0.4534
  622TMC3    C3 9264   3.180   3.979   9.355 -0.6969  0.2935  0.2153
  622TMC3    C4 9265   3.125   4.044   9.092 -1.3259  1.0251  0.6887
  622TMC3    C5 9266   3.183   3.927   9.124 -0.1171 -0.4699  0.0252
  622TMC3    C6 9267   3.215   3.887   9.251  0.1657 -0.0707  0.4809
  622TMC3     C 9268   3.059   4.269   9.156  0.1714  0.0768  0.1012
  622TMC3     O 9269   2.998   4.275   9.053  0.1139 -0.1120  0.4888
  622TMC3     H 9270   3.112   4.170   9.407  1.0149 -0.8079  0.9285
  622TMC3    H1 9271   3.090   4.065   8.992  0.2519  2.2598  0.3937
  622TMC3    H2 9272   3.261   3.790   9.264  1.3654  0.5919  1.1176
  622TMC3    C7 9273   3.245   3.858   9.009 -0.1343  0.1023 -0.2234
  622TMC3    C8 9274   3.174   3.919   9.482 -0.1955 -0.0328 -0.0234
  622TMC3    O1 9275   3.239   3.909   8.900 -0.8195 -0.2416 -0.0841
  622TMC3    O2 9276   3.236   3.812   9.504 -0.5778  0.3837  0.3819
  623MPD2     C 9277   1.761   0.614  15.354 -0.2764  0.2761 -0.2016
  623MPD2    C1 9278   1.755   0.489  15.403 -0.5782  0.1979 -0.2699
  623MPD2    C2 9279   1.818   0.450  15.523  0.0186  0.6311  0.2012
  623MPD2    C3 9280   1.898   0.539  15.595  0.1407 -0.8499 -0.4792
  623MPD2    C4 9281   1.920   0.665  15.536  0.1176 -0.5640  0.7723
  623MPD2    C5 9282   1.841   0.706  15.422 -0.3035 -0.4058 -0.6079
  623MPD2     H 9283   1.814   0.353  15.570 -2.8778  0.6810  0.0639
  623MPD2    H1 9284   1.987   0.741  15.575  0.1017 -0.1811  0.0647
  623MPD2    H2 9285   1.700   0.645  15.269  0.2888  1.3224 -0.2301
  623MPD2    H3 9286   1.854   0.809  15.389 -0.1695  0.2512  1.4861
  623MPD2     N 9287   1.970   0.486  15.701  0.5630  0.0237 -0.5250
  623MPD2    H5 9288   1.956   0.387  15.721  2.0562 -0.0762  0.0737
  623MPD2    N1 9289   1.664   0.409  15.335 -0.3660  0.5368  0.0466
  623MPD2    H7 9290   1.603   0.458  15.271  0.1846 -0.4869 -1.2740
  624TMC3    C1 9291   2.262   0.434  16.064  0.2204 -0.2229 -0.3908
  624TMC3    C2 9292   2.206   0.309  16.081  0.0385 -0.3807 -0.2687
  624TMC3    C3 9293   2.126   0.261  15.984  0.2092 -0.5182 -0.4264
  624TMC3    C4 9294   2.221   0.516  15.965  0.2534 -0.2947 -0.7789
  624TMC3    C5 9295   2.134   0.457  15.871 -0.5201  0.3420 -0.4426
  624TMC3    C6 9296   2.099   0.324  15.865  0.0077 -0.4094 -0.1073
  624TMC3     C 9297   2.347   0.480  16.171  0.6633  0.7029 -0.3376
  624TMC3     O 9298   2.398   0.401  16.246 -0.2756  0.0051  0.0252
  624TMC3     H 9299   2.243   0.244  16.160 -0.4448 -0.8846 -0.4550
  624TMC3    H1 9300   2.236   0.622  15.953  0.6544 -0.4211 -1.3938
  624TMC3    H2 9301   2.033   0.269  15.798 -1.4458  1.3181 -0.1071
  624TMC3    C7 9302   2.073   0.542  15.776  0.1310 -0.3107  0.5571
  624TMC3    C8 9303   2.025   0.165  16.030  0.4621 -0.5389  0.4935
  624TMC3    O1 9304   2.109   0.658  15.765 -0.9391  0.1230 -0.4985
  624TMC3    O2 9305   1.942   0.118  15.953 -0.2999 -0.5725  0.5241
  625MPD2     C 9306   2.174   1.560   0.124 -0.7058 -0.7303 -0.2902
  625MPD2    C1 9307   2.218   1.682   0.173  0.6933 -0.4582  0.4645
  625MPD2    C2 9308   2.334   1.682   0.247  0.2571 -0.1971 -0.5087
  625MPD2    C3 9309   2.392   1.562   0.281  0.3253 -0.3948  0.1241
  625MPD2    C4 9310   2.336   1.436   0.248  0.9755 -0.2610  0.2601
  625MPD2    C5 9311   2.227   1.439   0.168  0.3134  0.5132  0.4768
  625MPD2     H 9312   2.383   1.769   0.288  0.7379  0.3100 -2.1813
  625MPD2    H1 9313   2.383   1.342   0.271  0.3189 -0.6202  0.1248
  625MPD2    H2 9314   2.087   1.567   0.059 -0.2893 -0.5536 -0.8251
  625MPD2    H3 9315   2.190   1.350   0.119  0.1222  0.8531  0.0069
  625MPD2     N 9316   2.514   1.578   0.356 -0.1839 -0.1293  0.3957
  625MPD2    H5 9317   2.559   1.669   0.353 -0.1030 -0.2246 -1.0839
  625MPD2    N1 9318   2.140   1.794   0.147 -0.0366 -0.0556  0.4545
  625MPD2    H7 9319   2.061   1.785   0.085  2.0197  0.9230 -2.3271
  626TMC3    C1 9320   2.078   2.019   0.147  0.3566 -0.1010 -1.0881
  626TMC3    C2 9321   2.024   2.003   0.019  0.0301 -0.1742  0.8191
  626TMC3    C3 9322   1.905   2.062  17.730 -0.4863  0.4674  0.1771
  626TMC3    C4 9323   2.022   2.101   0.242  0.0626  0.0140 -0.4414
  626TMC3    C5 9324   1.906   2.163   0.205  0.0586  0.1903  0.5730
  626TMC3    C6 9325   1.844   2.143   0.084  0.3317  0.5287  0.4261
  626TMC3     C 9326   2.163   1.913   0.210  0.4471  0.0311  0.4902
  626TMC3     O 9327   2.206   1.927   0.324  0.1124  0.1039  0.8108
  626TMC3     H 9328   2.085   1.961  17.676 -0.9542  1.0486 -0.5869
  626TMC3    H1 9329   2.069   2.124   0.338 -0.9576 -2.3956  0.6408
  626TMC3    H2 9330   1.761   2.208   0.058  0.6197  0.5137 -0.5159
  626TMC3    C7 9331   1.840   2.233   0.309 -0.3962  0.6897 -0.1269
  626TMC3    C8 9332   1.890   2.083  17.592  0.0736  0.1943 -0.4427
  626TMC3    O1 9333   1.906   2.249   0.409  0.4120 -0.4665  0.3474
  626TMC3    O2 9334   1.846   2.189  17.547  0.6741  0.4641  0.6359
  627MPD2     C 9335   0.888   1.813  13.557 -0.1956 -0.3312  0.4808
  627MPD2    C1 9336   0.922   1.804  13.687  0.3428  0.3982  0.3919
  627MPD2    C2 9337   0.838   1.730  13.772 -0.1634  0.3388  0.0272
  627MPD2    C3 9338   0.730   1.657  13.725  0.1763  0.2844 -0.3623
  627MPD2    C4 9339   0.704   1.665  13.589  0.1174  0.3560  0.9035
  627MPD2    C5 9340   0.770   1.757  13.509  0.0552  0.2594  0.5136
  627MPD2     H 9341   0.862   1.727  13.878  2.4335  5.6104 -0.3823
  627MPD2    H1 9342   0.627   1.613  13.533 -0.2020  0.9619  0.7903
  627MPD2    H2 9343   0.930   1.881  13.484 -0.1747  0.4180  1.1824
  627MPD2    H3 9344   0.735   1.771  13.407 -0.2317 -0.5937  0.4989
  627MPD2     N 9345   0.653   1.570  13.816 -0.7084 -0.8972  0.6737
  627MPD2    H5 9346   0.677   1.585  13.913  2.1508 -1.4526  0.0274
  627MPD2    N1 9347   1.042   1.860  13.744  0.0542  0.0081  0.3047
  627MPD2    H7 9348   1.046   1.845  13.845  0.7471 -0.0541  0.2707
  628TMC3    C1 9349   1.247   1.978  13.761  0.7137  0.1769  0.1819
  628TMC3    C2 9350   1.310   1.875  13.819  0.2469  0.1658  0.0360
  628TMC3    C3 9351   1.425   1.900  13.889 -0.3542  0.0952 -0.1132
  628TMC3    C4 9352   1.287   2.105  13.763  0.6303  0.6341  0.3976
  628TMC3    C5 9353   1.398   2.130  13.834  0.3935 -0.3586  0.6235
  628TMC3    C6 9354   1.468   2.029  13.903 -0.6944  0.9613 -0.5165
  628TMC3     C 9355   1.131   1.938  13.678  0.7069  0.1235 -0.1745
  628TMC3     O 9356   1.127   1.997  13.571  0.0168  0.1143 -0.3882
  628TMC3     H 9357   1.277   1.772  13.812  3.6313 -1.0673  1.8032
  628TMC3    H1 9358   1.228   2.184  13.717 -0.1093 -1.4800 -2.3152
  628TMC3    H2 9359   1.568   2.047  13.940 -0.8236 -0.6969  0.6440
  628TMC3    C7 9360   1.422   2.266  13.876  0.4515  0.1154  0.0836
  628TMC3    C8 9361   1.507   1.793  13.925  0.2432  0.9273  0.2188
  628TMC3    O1 9362   1.482   2.274  13.982 -0.2042  0.0787  0.0094
  628TMC3    O2 9363   1.620   1.807  13.881  0.1188  0.2299  0.3846
  629MPD2     C 9364   3.921   0.906  16.134  0.3453  0.6447 -0.3663
  629MPD2    C1 9365   3.960   0.859  16.012 -0.4215 -0.3040  0.2954
  629MPD2    C2 9366   3.872   0.878  15.907  0.0703 -0.5952  0.5045
  629MPD2    C3 9367   3.741   0.923  15.934 -0.0649  0.1804  0.2064
  629MPD2    C4 9368   3.702   0.958  16.063 -0.3946  0.2052 -0.2474
  629MPD2    C5 9369   3.795   0.950  16.153 -0.7860  0.5359 -0.2125
  629MPD2     H 9370   3.900   0.842  15.809 -1.3552  2.7493 -1.1273
  629MPD2    H1 9371   3.603   0.994  16.091 -0.4980  1.3115 -2.0237
  629MPD2    H2 9372   3.998   0.914  16.210  0.1625  3.1214 -0.4645
  629MPD2    H3 9373   3.772   0.987  16.253 -0.9672  0.1597 -0.1117
  629MPD2     N 9374   3.644   0.920  15.826  0.1827  0.2292  0.1281
  629MPD2    H5 9375   3.666   0.881  15.735 -1.4510  0.3993 -0.3565
  629MPD2    N1 9376   4.090   0.804  16.007 -0.4582  0.3470  0.2335
  629MPD2    H7 9377   4.139   0.808  16.095  0.7764  0.1100 -0.4467
  630TMC3    C1 9378   4.281   0.706  15.936  0.0099 -0.0206  0.1741
  630TMC3    C2 9379   4.372   0.750  15.843 -0.1358 -0.0052 -0.1107
  630TMC3    C3 9380   4.507   0.728  15.862  0.6199  0.6466 -1.3052
  630TMC3    C4 9381   4.311   0.627  16.040  0.7760  0.2734 -0.2070
  630TMC3    C5 9382   4.445   0.604  16.065  0.1244 -0.0746 -0.0236
  630TMC3    C6 9383   4.543   0.663  15.980 -0.5260  0.2175 -0.1137
  630TMC3     C 9384   4.143   0.742  15.898 -0.4293 -0.2828 -0.2040
  630TMC3     O 9385   4.110   0.717  15.784 -0.1162 -0.6983 -0.1794
  630TMC3     H 9386   4.335   0.821  15.770  1.5233  0.6222 -0.3373
  630TMC3    H1 9387   4.239   0.609  16.119 -2.6067  2.7164 -2.7629
  630TMC3    H2 9388   4.650   0.653  15.994 -0.5778 -1.3905 -0.9027
  630TMC3    C7 9389   4.490   0.553  16.197  0.0255  0.6970 -0.4870
  630TMC3    C8 9390   4.603   0.828  15.805 -0.2053  0.2659 -0.8768
  630TMC3    O1 9391   4.421   0.471  16.257  0.7859 -0.2419 -0.8107
  630TMC3    O2 9392   4.698   0.854  15.879  0.2133  0.1173 -0.1047
  631MPD2     C 9393   2.226   0.764  15.386 -0.3125  0.1517 -0.2043
  631MPD2    C1 9394   2.271   0.792  15.260 -0.4471  0.2158  0.0338
  631MPD2    C2 9395   2.342   0.695  15.190 -0.0200  0.8012 -0.5597
  631MPD2    C3 9396   2.354   0.566  15.240 -0.2839  1.4168 -0.3575
  631MPD2    C4 9397   2.287   0.533  15.358 -0.0098  0.5812 -0.2494
  631MPD2    C5 9398   2.231   0.633  15.431 -0.1811 -0.4970  0.0480
  631MPD2     H 9399   2.388   0.711  15.093  1.8446 -0.0589  0.1801
  631MPD2    H1 9400   2.276   0.431  15.392  0.9209  0.0781 -1.4517
  631MPD2    H2 9401   2.168   0.834  15.444  0.4468 -0.4231  1.2655
  631MPD2    H3 9402   2.172   0.613  15.520 -0.9820 -0.0671 -0.3937
  631MPD2     N 9403   2.429   0.470  15.162 -0.6359 -0.3458  0.0201
  631MPD2    H5 9404   2.468   0.506  15.075 -0.3796  0.2922  0.4000
  631MPD2    N1 9405   2.273   0.923  15.201  0.0226 -0.4902  0.1174
  631MPD2    H7 9406   2.288   0.933  15.101 -1.8385  0.9971 -0.0116
  632TMC3    C1 9407   2.252   1.158  15.183  0.0200 -0.0082  0.3734
  632TMC3    C2 9408   2.149   1.237  15.213 -0.3152 -0.2263  0.2502
  632TMC3    C3 9409   2.098   1.306  15.102 -0.3779  0.1956  0.3209
  632TMC3    C4 9410   2.325   1.159  15.070  0.5281  0.7355  0.4797
  632TMC3    C5 9411   2.282   1.247  14.977  0.5138  0.0511 -0.6551
  632TMC3    C6 9412   2.164   1.308  14.986 -0.5380 -0.5670  0.2368
  632TMC3     C 9413   2.248   1.039  15.267  0.2369 -0.0451 -0.5199
  632TMC3     O 9414   2.214   1.057  15.384  0.3960  0.2103  0.4894
  632TMC3     H 9415   2.112   1.231  15.315 -1.7150  0.6793 -0.2085
  632TMC3    H1 9416   2.413   1.097  15.058 -0.3956 -0.4698 -0.0661
  632TMC3    H2 9417   2.124   1.357  14.898 -0.4674  0.4099  0.7558
  632TMC3    C7 9418   2.349   1.245  14.849  0.2846 -1.0881  0.1201
  632TMC3    C8 9419   1.959   1.352  15.108 -0.0126  0.3296  0.3990
  632TMC3    O1 9420   2.284   1.241  14.746 -0.1187 -0.0751  0.5120
  632TMC3    O2 9421   1.889   1.338  15.006 -0.0074  0.1456  0.6344
  633MPD2     C 9422   2.149   3.522  16.957  0.4976 -0.2878  0.4700
  633MPD2    C1 9423   2.127   3.474  16.825  0.3956 -0.6268  0.3964
  633MPD2    C2 9424   2.072   3.353  16.812 -0.1218 -0.1815 -0.9931
  633MPD2    C3 9425   2.046   3.273  16.918  0.9270 -0.2883  0.5864
  633MPD2    C4 9426   2.051   3.323  17.051  0.2747 -0.3820  0.1387
  633MPD2    C5 9427   2.103   3.450  17.068  0.1721 -0.0202  0.2654
  633MPD2     H 9428   2.054   3.319  16.711  0.2343  1.1938 -1.5264
  633MPD2    H1 9429   2.038   3.251  17.130 -0.0419  0.2380  0.6494
  633MPD2    H2 9430   2.189   3.619  16.983  2.8293 -1.6868  2.1583
  633MPD2    H3 9431   2.134   3.485  17.166 -0.5303 -1.0414  0.8532
  633MPD2     N 9432   2.035   3.132  16.901 -0.0744 -0.3586  0.2427
  633MPD2    H5 9433   2.021   3.066  16.977  0.7532 -2.7727 -1.7262
  633MPD2    N1 9434   2.165   3.550  16.707 -0.0983 -0.4348  0.0667
  633MPD2    H7 9435   2.159   3.501  16.618  1.4657  1.5128 -1.1124
  634TMC3    C1 9436   2.278   3.713  16.592 -1.2267  0.2973 -0.7584
  634TMC3    C2 9437   2.326   3.615  16.507 -0.5876  0.1287  0.3003
  634TMC3    C3 9438   2.376   3.662  16.386 -0.2507  1.2734  0.3568
  634TMC3    C4 9439   2.255   3.847  16.562 -0.6509 -0.2068 -0.2035
  634TMC3    C5 9440   2.296   3.885  16.435 -0.1518 -0.0760  1.1350
  634TMC3    C6 9441   2.366   3.796  16.350 -0.3422 -0.1411 -0.4220
  634TMC3     C 9442   2.222   3.672  16.716  0.3314 -0.2380  0.3265
  634TMC3     O 9443   2.207   3.753  16.806  0.2247  0.2642 -0.0122
  634TMC3     H 9444   2.341   3.512  16.536  4.4491  0.5929 -0.6598
  634TMC3    H1 9445   2.204   3.919  16.626 -2.7004 -1.7169 -0.1472
  634TMC3    H2 9446   2.415   3.825  16.258  0.9262  0.3213  0.4027
  634TMC3    C7 9447   2.250   4.004  16.377  0.1816  0.6260 -0.4847
  634TMC3    C8 9448   2.421   3.560  16.290  0.1597 -0.2771  0.3758
  634TMC3    O1 9449   2.303   4.016  16.266 -0.3276  0.4181  0.3740
  634TMC3    O2 9450   2.414   3.442  16.329  0.2911 -0.2109 -0.5800
  635TMC3    C1 9451   3.296   4.203  17.045 -0.5508 -0.1500  0.2430
  635TMC3    C2 9452   3.242   4.197  16.916  0.4037  1.3171  0.7915
  635TMC3    C3 9453   3.169   4.083  16.878 -0.2836 -0.6389  0.4965
  635TMC3    C4 9454   3.267   4.108  17.133  0.3198 -0.5534 -0.2857
  635TMC3    C5 9455   3.199   3.998  17.091 -0.1949 -0.2628 -0.4539
  635TMC3    C6 9456   3.142   3.984  16.969 -0.0495  0.2768 -0.2971
  635TMC3     C 9457   3.339   4.325  17.106 -0.3985  0.1434 -0.3235
  635TMC3     O 9458   3.353   4.324  17.228 -0.7642  0.3855  0.7025
  635TMC3     H 9459   3.263   4.269  16.837  1.2659 -0.5595 -0.6776
  635TMC3    H1 9460   3.306   4.114  17.234  1.1972 -1.7855 -0.5504
  635TMC3    H2 9461   3.079   3.900  16.943 -0.2960  0.0865  0.9141
  635TMC3    C7 9462   3.198   3.878  17.176  0.2081 -0.3144  0.0980
  635TMC3    C8 9463   3.098   4.077  16.753  0.6856 -0.8826  0.8229
  635TMC3    O1 9464   3.225   3.880  17.296  0.5054  0.3754  0.1870
  635TMC3    O2 9465   3.052   4.186  16.704  0.2595 -0.3501 -0.5009
  636MPD2     C 9466   3.177   3.570  15.783  0.4102 -0.2199  0.5282
  636MPD2    C1 9467   3.194   3.594  15.922 -0.1430  0.3084  0.6315
  636MPD2    C2 9468   3.246   3.491  15.999 -0.3688 -0.3361  0.2608
  636MPD2    C3 9469   3.267   3.363  15.945 -0.0725  0.2146 -0.0457
  636MPD2    C4 9470   3.240   3.341  15.808 -0.0748  0.5130  0.5596
  636MPD2    C5 9471   3.194   3.445  15.729 -0.3140  0.0719  0.1407
  636MPD2     H 9472   3.292   3.507  16.096 -0.1918 -0.7271  0.2406
  636MPD2    H1 9473   3.244   3.241  15.766  0.9554  1.2448 -1.0813
  636MPD2    H2 9474   3.146   3.642  15.707 -0.2614 -0.2404  0.7796
  636MPD2    H3 9475   3.180   3.431  15.623  1.6822  0.2789 -0.1603
  636MPD2     N 9476   3.325   3.266  16.032 -0.2607 -0.1513  0.4061
  636MPD2    H5 9477   3.347   3.288  16.129 -0.3823  0.0405  0.3910
  636MPD2    N1 9478   3.196   3.725  15.976 -0.1073 -0.0219 -0.1912
  636MPD2    H7 9479   3.212   3.746  16.074 -0.6946 -2.5310  0.4322
  637TMC3    C1 9480   3.430   3.055  16.084  0.7752  0.1741  0.7015
  637TMC3    C2 9481   3.450   3.104  16.208 -0.2085 -0.5547 -0.3151
  637TMC3    C3 9482   3.547   3.049  16.287  0.4618 -0.0422  0.3449
  637TMC3    C4 9483   3.522   2.973  16.028 -0.1662 -0.3447 -0.1071
  637TMC3    C5 9484   3.630   2.931  16.104 -0.7834 -0.0689 -0.9789
  637TMC3    C6 9485   3.632   2.962  16.237  0.2076  0.2980 -0.2456
  637TMC3     C 9486   3.350   3.134  15.989  0.9840 -0.1817  0.3435
  637TMC3     O 9487   3.345   3.087  15.877 -0.3357  0.3718 -0.1502
  637TMC3     H 9488   3.385   3.178  16.254 -1.1606 -1.0934 -0.8042
  637TMC3    H1 9489   3.522   2.948  15.922 -1.1500  0.4637 -0.2974
  637TMC3    H2 9490   3.707   2.914  16.298 -0.3613  1.5131  1.3883
  637TMC3    C7 9491   3.759   2.944  16.051  0.5688  0.4952 -0.3966
  637TMC3    C8 9492   3.608   3.147  16.373  0.2248 -0.2943 -0.2200
  637TMC3    O1 9493   3.850   2.967  16.130 -0.0698 -1.0919 -0.5104
  637TMC3    O2 9494   3.597   3.262  16.328  0.2465  0.0172  1.0837
  638MPD2     C 9495   3.556   2.569  14.505  0.1265 -0.2851 -0.0038
  638MPD2    C1 9496   3.497   2.462  14.445 -0.2975  0.1756 -0.0419
  638MPD2    C2 9497   3.426   2.376  14.523  0.1509 -0.3595 -0.1861
  638MPD2    C3 9498   3.408   2.396  14.659  0.0847  0.0385  0.0263
  638MPD2    C4 9499   3.483   2.497  14.722  0.3312 -0.8316 -0.1781
  638MPD2    C5 9500   3.559   2.582  14.642  0.0745  0.4120 -0.4662
  638MPD2     H 9501   3.375   2.293  14.475 -1.6257  0.4550  0.3107
  638MPD2    H1 9502   3.472   2.505  14.830 -0.1823 -1.0619 -0.2168
  638MPD2    H2 9503   3.621   2.636  14.451 -1.8777  0.1239 -1.9440
  638MPD2    H3 9504   3.625   2.654  14.688  0.7934  0.0425 -0.9157
  638MPD2     N 9505   3.310   2.324  14.736  0.3548 -0.1139  0.1428
  638MPD2    H5 9506   3.306   2.345  14.835 -1.9474  1.8523 -0.3918
  638MPD2    N1 9507   3.515   2.449  14.302 -0.2372 -0.0123  0.4018
  638MPD2    H7 9508   3.592   2.498  14.258 -0.3044  0.4090  0.7536
  639TMC3    C1 9509   3.145   2.158  14.793 -0.7114  0.3234 -0.6164
  639TMC3    C2 9510   3.024   2.106  14.752  0.5611 -0.8557 -0.4482
  639TMC3    C3 9511   2.978   1.995  14.819  0.0814  0.0363  0.3806
  639TMC3    C4 9512   3.227   2.084  14.873  0.3002 -0.2946  0.5633
  639TMC3    C5 9513   3.182   1.972  14.930  0.4931 -0.2580 -0.6610
  639TMC3    C6 9514   3.053   1.928  14.909 -0.4405 -0.9787  0.0288
  639TMC3     C 9515   3.212   2.236  14.689  0.2530  0.6369 -0.7636
  639TMC3     O 9516   3.172   2.203  14.578 -0.0669  0.2962 -0.2881
  639TMC3     H 9517   2.965   2.139  14.667 -1.6478  0.8214  1.7290
  639TMC3    H1 9518   3.325   2.126  14.894 -0.6380  1.3804  1.6382
  639TMC3    H2 9519   3.013   1.842  14.960  1.7705 -2.4212 -0.6814
  639TMC3    C7 9520   3.266   1.861  14.933  0.1831 -0.0271  0.5056
  639TMC3    C8 9521   2.911   1.902  14.731  0.2418  0.2483 -0.9991
  639TMC3    O1 9522   3.270   1.795  15.036 -0.0999  0.3138  0.1791
  639TMC3    O2 9523   2.929   1.912  14.610  0.0392  0.2131 -0.1291
  640MPD2     C 9524   3.744   0.777   9.067  0.6164  0.4665  0.6374
  640MPD2    C1 9525   3.610   0.738   9.038  0.2457 -0.4244  0.0821
  640MPD2    C2 9526   3.505   0.791   9.103  0.1132  0.4466 -0.1238
  640MPD2    C3 9527   3.529   0.887   9.207  0.0203  0.0804 -0.3099
  640MPD2    C4 9528   3.662   0.923   9.235 -0.1177  0.2266  0.1096
  640MPD2    C5 9529   3.767   0.870   9.169  0.5525  0.3396  0.9468
  640MPD2     H 9530   3.403   0.759   9.088  0.5275 -0.5737 -0.7420
  640MPD2    H1 9531   3.680   1.005   9.304  2.0506  0.1175 -0.3341
  640MPD2    H2 9532   3.826   0.738   9.008  0.2155  0.5686  0.0093
  640MPD2    H3 9533   3.866   0.898   9.202  0.7864 -0.2168  0.7313
  640MPD2     N 9534   3.427   0.952   9.274  0.7679  0.1678  0.6630
  640MPD2    H5 9535   3.464   1.008   9.349 -0.2943 -0.6488  1.8027
  640MPD2    N1 9536   3.582   0.648   8.931  0.6759 -0.0386 -0.8718
  640MPD2    H7 9537   3.666   0.617   8.883 -0.0642 -0.9962 -1.5432
  641TMC3    C1 9538   3.482   0.491   8.790  0.3291  0.0946 -0.6275
  641TMC3    C2 9539   3.605   0.446   8.753  0.0410 -0.2926  0.2234
  641TMC3    C3 9540   3.607   0.327   8.683 -0.4272  0.4035  0.2394
  641TMC3    C4 9541   3.367   0.417   8.762  0.1034  0.3318 -0.6694
  641TMC3    C5 9542   3.372   0.312   8.679  0.4072  0.0528  0.3048
  641TMC3    C6 9543   3.494   0.258   8.648  0.3013  0.1702  0.0462
  641TMC3     C 9544   3.462   0.596   8.883 -0.5678 -0.4426 -0.5064
  641TMC3     O 9545   3.346   0.632   8.914 -0.2403  0.2784  0.3370
  641TMC3     H 9546   3.687   0.493   8.807 -0.2049  1.8679 -1.2923
  641TMC3    H1 9547   3.268   0.432   8.805 -0.5383  0.1937 -2.0909
  641TMC3    H2 9548   3.497   0.172   8.583  1.2305  1.0675 -1.0970
  641TMC3    C7 9549   3.255   0.249   8.624  0.2344 -0.0340 -0.3710
  641TMC3    C8 9550   3.727   0.247   8.683  0.1213  0.2374  0.0411
  641TMC3    O1 9551   3.260   0.139   8.569  0.0822 -0.5720 -0.4281
  641TMC3    O2 9552   3.714   0.134   8.635 -0.2871  0.3820  0.3104
  642TMC3    C1 9553   0.191   2.021  11.895 -0.1709 -0.7129  0.0733
  642TMC3    C2 9554   0.325   2.008  11.855  0.2953 -0.4843  0.3707
  642TMC3    C3 9555   0.351   1.920  11.752  0.0289 -1.3998 -0.0096
  642TMC3    C4 9556   0.092   1.939  11.857  0.2405  0.6138  0.8496
  642TMC3    C5 9557   0.126   1.848  11.762 -0.0071  0.1328 -0.5718
  642TMC3    C6 9558   0.254   1.839  11.703  0.2119 -0.1840 -0.0958
  642TMC3     C 9559   0.169   2.114  12.000  0.0474 -0.3068 -0.0997
  642TMC3     O 9560   0.252   2.207  11.996 -0.4753 -0.3256  0.7055
  642TMC3     H 9561   0.400   2.084  11.875  0.9129 -1.1231  0.4702
  642TMC3    H1 9562   4.722   1.958  11.879 -0.5320 -1.7622 -0.7186
  642TMC3    H2 9563   0.279   1.773  11.621 -0.7077 -0.6357 -0.0156
  642TMC3    C7 9564   0.023   1.758  11.715 -0.2849 -0.5054 -0.3765
  642TMC3    C8 9565   0.488   1.896  11.708 -0.6998  0.0797  0.2781
  642TMC3    O1 9566   0.036   1.707  11.601 -0.1982 -0.4714  0.2498
  642TMC3    O2 9567   0.509   1.847  11.597  0.4529  0.2030  0.5560
  643TMC3    C1 9568   3.770   1.383   0.190 -0.1575  0.3256  0.3348
  643TMC3    C2 9569   3.716   1.511   0.191  0.1241 -0.2721 -0.0002
  643TMC3    C3 9570   3.728   1.601   0.085  1.0545  0.4168  0.2526
  643TMC3    C4 9571   3.840   1.348   0.074  0.2123 -0.6722 -0.1182
  643TMC3    C5 9572   3.846   1.440  17.707 -0.2845  0.4945 -0.0816
  643TMC3    C6 9573   3.783   1.561  17.704 -0.1397  0.4937  0.5174
  643TMC3     C 9574   3.847   1.358   0.307  0.0104  0.0370 -0.0456
  643TMC3     O 9575   3.787   1.394   0.410  0.4001 -0.1823 -0.4507
  643TMC3     H 9576   3.668   1.557   0.277  1.7034  3.1315 -0.9339
  643TMC3    H1 9577   3.895   1.255   0.062 -0.0070 -0.8885  0.5544
  643TMC3    H2 9578   3.781   1.613  17.609  1.2377  1.1263  0.8401
  643TMC3    C7 9579   3.896   1.393  17.583 -0.3908  0.2991  0.2776
  643TMC3    C8 9580   3.736   1.743   0.115 -0.6181 -0.4237  0.1839
  643TMC3    O1 9581   4.010   1.350  17.584 -0.3278 -0.3421 -0.3554
  643TMC3    O2 9582   3.684   1.789   0.217  0.0813  0.1540 -0.3464
  644MPD2     C 9583   3.370   1.630   8.796 -0.2801  0.1670 -0.2350
  644MPD2    C1 9584   3.341   1.499   8.748  0.3956 -0.4608 -0.2233
  644MPD2    C2 9585   3.211   1.457   8.768 -0.0066 -0.3639 -1.0608
  644MPD2    C3 9586   3.111   1.536   8.825  0.6487  0.1577 -0.1064
  644MPD2    C4 9587   3.138   1.672   8.846 -0.3559  1.4513  0.7563
  644MPD2    C5 9588   3.267   1.714   8.825 -0.7072 -0.3388 -0.2783
  644MPD2     H 9589   3.186   1.352   8.757 -1.9763  0.1587 -1.5506
  644MPD2    H1 9590   3.068   1.734   8.902 -3.1350 -1.2979  0.3236
  644MPD2    H2 9591   3.470   1.672   8.791 -1.0219  2.3038  2.7991
  644MPD2    H3 9592   3.277   1.817   8.858 -0.3998 -0.9849  1.6549
  644MPD2     N 9593   2.994   1.460   8.841  0.0741  0.0357  0.0434
  644MPD2    H5 9594   2.996   1.362   8.815  0.1897  0.2979 -0.9175
  644MPD2    N1 9595   3.448   1.414   8.717 -0.0082 -0.1029  0.2985
  644MPD2    H7 9596   3.546   1.439   8.728  1.0552 -3.9955 -0.2649
  645TMC3    C1 9597   2.764   1.413   8.849  0.2984  0.3715  0.4018
  645TMC3    C2 9598   2.650   1.426   8.914 -0.2391 -0.3674 -0.1362
  645TMC3    C3 9599   2.546   1.336   8.889  0.1327 -0.9480  0.5791
  645TMC3    C4 9600   2.792   1.307   8.770 -0.8316  0.1854  0.5299
  645TMC3    C5 9601   2.686   1.218   8.750  0.2211  0.9332  0.5550
  645TMC3    C6 9602   2.561   1.236   8.795  0.1640 -0.0844  0.8160
  645TMC3     C 9603   2.867   1.514   8.863 -0.2502  0.1781 -0.4052
  645TMC3     O 9604   2.835   1.630   8.884  0.2759  0.1114 -0.4534
  645TMC3     H 9605   2.641   1.509   8.983 -1.8803 -1.0843  0.5075
  645TMC3    H1 9606   2.883   1.306   8.710 -1.5743  0.6722 -0.5945
  645TMC3    H2 9607   2.477   1.184   8.751 -0.2999  1.7214 -0.4278
  645TMC3    C7 9608   2.711   1.112   8.652 -0.4970 -0.5157  0.1010
  645TMC3    C8 9609   2.449   1.311   8.995  0.4387 -0.0999 -0.0399
  645TMC3    O1 9610   2.815   1.117   8.589  0.4655 -0.2058 -0.5646
  645TMC3    O2 9611   2.441   1.397   9.084  0.3765 -0.2923  0.8269
  646MPD2     C 9612   3.382   1.112  14.204  0.1766 -0.6930  0.2172
  646MPD2    C1 9613   3.285   1.057  14.285  0.3533 -0.8414 -0.0122
  646MPD2    C2 9614   3.157   1.109  14.270 -0.0460  0.4370  0.2248
  646MPD2    C3 9615   3.124   1.203  14.176  0.5881  0.2267 -0.0828
  646MPD2    C4 9616   3.225   1.253  14.093 -0.0581  0.0926 -0.3667
  646MPD2    C5 9617   3.359   1.215  14.108 -0.4702  0.2853  0.4885
  646MPD2     H 9618   3.083   1.084  14.345 -0.9808 -1.2911 -1.2590
  646MPD2    H1 9619   3.210   1.344  14.036 -1.4855  1.0916  1.5840
  646MPD2    H2 9620   3.479   1.065  14.205  1.3197  1.6870  0.0410
  646MPD2    H3 9621   3.431   1.249  14.034 -0.6426  0.7774  0.5425
  646MPD2     N 9622   2.992   1.250  14.168  0.1825 -0.0794 -0.1752
  646MPD2    H5 9623   2.921   1.208  14.226  0.0973  1.9700  1.2073
  646MPD2    N1 9624   3.324   0.971  14.392  0.3755 -0.3443 -0.1489
  646MPD2    H7 9625   3.422   0.946  14.402  0.2301 -0.7285  0.3066
  647TMC3    C1 9626   3.315   0.862  14.590 -0.1208  0.1966 -0.1268
  647TMC3    C2 9627   3.249   0.783  14.675 -0.2667  0.3689 -0.7776
  647TMC3    C3 9628   3.284   0.772  14.804 -0.5600 -0.2297 -0.4569
  647TMC3    C4 9629   3.438   0.920  14.616  0.0357  0.6378 -0.2499
  647TMC3    C5 9630   3.482   0.897  14.746 -0.5771 -0.0051 -0.2100
  647TMC3    C6 9631   3.398   0.838  14.842  0.0262  0.2000 -0.1147
  647TMC3     C 9632   3.244   0.912  14.482 -0.2929 -0.4147 -1.2016
  647TMC3     O 9633   3.120   0.910  14.495 -0.3704  0.0807 -0.0745
  647TMC3     H 9634   3.156   0.738  14.643  0.2071 -0.9315 -0.3316
  647TMC3    H1 9635   3.501   0.986  14.556  0.3535 -0.2380 -0.8696
  647TMC3    H2 9636   3.439   0.824  14.941 -2.1660 -0.6095  0.6906
  647TMC3    C7 9637   3.621   0.865  14.765 -0.7309 -0.1603 -0.7055
  647TMC3    C8 9638   3.250   0.651  14.877 -0.3839 -0.1333  0.5301
  647TMC3    O1 9639   3.643   0.773  14.842  0.1821  0.0049 -0.4707
  647TMC3    O2 9640   3.282   0.654  14.995 -0.2850  0.0042  0.1333
  648TMC3    C1 9641   2.794   3.581  15.808 -0.1529  0.1095  0.1104
  648TMC3    C2 9642   2.849   3.458  15.783  0.5866 -0.2413 -0.0634
  648TMC3    C3 9643   2.841   3.414  15.656 -0.3547 -0.3630  1.2826
  648TMC3    C4 9644   2.710   3.643  15.718  0.4891 -0.5114 -0.0658
  648TMC3    C5 9645   2.698   3.589  15.594  0.7986 -0.0058 -0.6322
  648TMC3    C6 9646   2.776   3.481  15.553 -0.0298  0.0102 -0.2425
  648TMC3     C 9647   2.792   3.630  15.944  0.0178 -0.2284 -0.0698
  648TMC3     O 9648   2.759   3.750  15.947 -0.0528 -0.2661  0.2319
  648TMC3     H 9649   2.915   3.412  15.856 -0.4205 -0.8295  0.4616
  648TMC3    H1 9650   2.651   3.721  15.763  0.2781 -0.5337 -0.3046
  648TMC3    H2 9651   2.782   3.440  15.453  1.5113 -0.8597  0.2071
  648TMC3    C7 9652   2.613   3.650  15.500 -0.4051 -0.4158 -0.1601
  648TMC3    C8 9653   2.871   3.270  15.644  0.6175  0.3462 -0.6536
  648TMC3    O1 9654   2.623   3.619  15.380 -0.4218  0.6796  0.1927
  648TMC3    O2 9655   2.887   3.205  15.746  0.2109  0.0464  0.7377
  649TMC3    C1 9656   2.011   4.521  12.312  0.5752  0.4579  0.0108
  649TMC3    C2 9657   2.149   4.523  12.305 -0.1785 -0.1986 -0.3490
  649TMC3    C3 9658   2.225   4.450  12.394  0.0959  0.1286  0.0840
  649TMC3    C4 9659   1.959   4.463  12.423  0.7232 -0.1839 -0.4583
  649TMC3    C5 9660   2.046   4.385  12.501  0.0815  0.1596  0.1856
  649TMC3    C6 9661   2.179   4.373  12.491  0.1347 -0.1446 -0.5615
  649TMC3     C 9662   1.944   4.631  12.253  0.3911 -0.4122  0.5203
  649TMC3     O 9663   1.860   4.684  12.323 -0.2439 -0.1352 -0.3266
  649TMC3     H 9664   2.197   4.595  12.241  0.1392 -0.5972 -0.5570
  649TMC3    H1 9665   1.855   4.468  12.454  1.1014 -1.5900  1.1054
  649TMC3    H2 9666   2.234   4.289  12.532  2.4332  1.2133 -0.8626
  649TMC3    C7 9667   1.990   4.313  12.613  0.3159  0.1888  0.3147
  649TMC3    C8 9668   2.363   4.471  12.384 -0.4001 -0.1106  0.3560
  649TMC3    O1 9669   1.872   4.282  12.596 -0.4484 -0.1710  0.1925
  649TMC3    O2 9670   2.388   4.564  12.311  0.1811 -0.4203  0.2653
  650TMC3    C1 9671   4.161   0.936  12.707  0.0162 -0.4375  0.3819
  650TMC3    C2 9672   4.205   1.059  12.752 -0.8763 -0.2482 -0.4668
  650TMC3    C3 9673   4.221   1.153  12.651 -0.0190 -0.1632 -0.5834
  650TMC3    C4 9674   4.130   0.905  12.580 -0.0129 -0.1317 -0.1753
  650TMC3    C5 9675   4.130   1.002  12.488  0.8799  0.0506  0.0220
  650TMC3    C6 9676   4.182   1.126  12.521  0.2995 -0.6730 -0.1513
  650TMC3     C 9677   4.167   0.835  12.809 -0.4242 -0.3040  0.0871
  650TMC3     O 9678   4.218   0.868  12.917  0.4088  0.1389  0.4419
  650TMC3     H 9679   4.219   1.085  12.856  1.5468  1.4315 -1.2229
  650TMC3    H1 9680   4.072   0.818  12.550  0.6735  0.0094 -1.9573
  650TMC3    H2 9681   4.200   1.208  12.452  1.0009 -1.1907 -0.5727
  650TMC3    C7 9682   4.010   1.008  12.406  0.8298  0.3065 -1.1087
  650TMC3    C8 9683   4.186   1.295  12.682  0.4023  0.1531  0.3454
  650TMC3    O1 9684   3.952   0.904  12.385 -0.2545 -0.5413  0.8626
  650TMC3    O2 9685   4.270   1.376  12.673  0.3467  0.1738  0.1107
  651MPD2     C 9686   2.703   2.951  10.376 -0.1646 -0.1465 -0.8099
  651MPD2    C1 9687   2.714   3.083  10.418 -0.2280 -0.4363  0.1491
  651MPD2    C2 9688   2.828   3.143  10.394  0.3442  0.0401  0.4740
  651MPD2    C3 9689   2.937   3.080  10.346  0.6292  0.3437 -0.4761
  651MPD2    C4 9690   2.927   2.951  10.303 -0.0006 -0.7297 -0.3657
  651MPD2    C5 9691   2.804   2.894  10.305 -0.7036  1.3479 -0.7483
  651MPD2     H 9692   2.840   3.249  10.414 -1.2529  0.6083 -1.5949
  651MPD2    H1 9693   3.007   2.900  10.252 -0.4159 -1.9723  0.2282
  651MPD2    H2 9694   2.609   2.898  10.381 -0.8284  1.0945 -0.2179
  651MPD2    H3 9695   2.779   2.794  10.270 -0.5148  2.6404 -4.4759
  651MPD2     N 9696   3.054   3.155  10.323  0.0117  0.1072  0.0134
  651MPD2    H5 9697   3.046   3.256  10.331  2.2426  0.1737  1.5406
  651MPD2    N1 9698   2.616   3.159  10.495 -0.4291  0.1617  0.6704
  651MPD2    H7 9699   2.646   3.253  10.521  1.9938 -0.1324 -1.1685
  652TMC3    C1 9700   3.479   3.294  10.306 -0.1347 -0.0677 -0.2409
  652TMC3    C2 9701   3.396   3.187  10.309  0.1338 -0.3279  0.0964
  652TMC3    C3 9702   3.269   3.204  10.266 -0.1157  0.0375  0.9503
  652TMC3    C4 9703   3.444   3.416  10.256  1.0825 -0.5611 -0.0960
  652TMC3    C5 9704   3.314   3.429  10.210 -0.0090 -0.0607  0.2874
  652TMC3    C6 9705   3.226   3.323  10.207  0.0555 -0.3750  0.2515
  652TMC3     C 9706   3.609   3.288  10.380 -0.0528  0.1560 -0.5007
  652TMC3     O 9707   3.615   3.210  10.472  0.0673 -0.1990 -0.1270
  652TMC3     H 9708   3.425   3.097  10.362  1.9432  0.8401  1.0967
  652TMC3    H1 9709   3.502   3.507  10.254 -0.8970  0.7019 -0.1393
  652TMC3    H2 9710   3.131   3.331  10.154  1.1708  1.2125 -1.4848
  652TMC3    C7 9711   3.282   3.541  10.115  0.3214 -0.6031  0.0003
  652TMC3    C8 9712   3.179   3.101  10.290 -0.6457  0.3498 -0.0561
  652TMC3    O1 9713   3.221   3.507  10.011 -0.6371 -0.5640 -0.0711
  652TMC3    O2 9714   3.225   2.984  10.309  0.1367 -0.1833  0.2253
  653MPD2     C 9715   1.831   3.333  17.386  0.3940  0.8095 -0.4993
  653MPD2    C1 9716   1.808   3.445  17.322  0.5034 -0.1036 -0.2898
  653MPD2    C2 9717   1.756   3.431  17.187  0.3983 -0.1503 -1.1016
  653MPD2    C3 9718   1.705   3.318  17.136 -0.8737  0.1919  0.2000
  653MPD2    C4 9719   1.723   3.209  17.211 -0.3591  0.4097  0.5603
  653MPD2    C5 9720   1.790   3.213  17.329  0.2490 -0.2964 -0.0447
  653MPD2     H 9721   1.741   3.518  17.125 -0.2732 -0.1268 -0.9016
  653MPD2    H1 9722   1.688   3.112  17.176  0.1183  0.6942 -0.6966
  653MPD2    H2 9723   1.879   3.328  17.483  0.8724  1.4673 -0.7111
  653MPD2    H3 9724   1.820   3.121  17.377 -0.0056  0.3127  1.2702
  653MPD2     N 9725   1.685   3.321  16.994  0.1600 -0.7893  0.2382
  653MPD2    H5 9726   1.706   3.400  16.933 -2.1202  1.0023  1.7864
  653MPD2    N1 9727   1.845   3.577  17.364 -0.8091 -0.1237  0.5185
  653MPD2    H7 9728   1.820   3.662  17.314 -0.9598  0.3950  1.4850
  654TMC3    C1 9729   1.623   3.243  16.791  0.4790  0.2608  0.0569
  654TMC3    C2 9730   1.547   3.353  16.753 -0.3661 -0.2196  0.1087
  654TMC3    C3 9731   1.517   3.360  16.622  0.3880  0.1942  0.0116
  654TMC3    C4 9732   1.651   3.146  16.701 -0.3214  0.9701  0.2813
  654TMC3    C5 9733   1.611   3.157  16.568 -0.0478 -0.3432  0.5623
  654TMC3    C6 9734   1.535   3.260  16.525 -0.2030 -0.4948  0.2316
  654TMC3     C 9735   1.645   3.203  16.926 -0.1366 -0.3344  0.3265
  654TMC3     O 9736   1.623   3.093  16.974 -0.0804  0.1351 -0.4669
  654TMC3     H 9737   1.536   3.420  16.838  0.7921 -2.3349  1.9232
  654TMC3    H1 9738   1.722   3.069  16.728 -2.0754  0.1181  2.5704
  654TMC3    H2 9739   1.493   3.255  16.425 -1.1388  0.1525  0.5934
  654TMC3    C7 9740   1.645   3.049  16.475  0.3091 -0.6642 -0.1832
  654TMC3    C8 9741   1.411   3.453  16.591 -0.2869 -0.8333  0.6505
  654TMC3    O1 9742   1.636   3.082  16.355  0.4316 -0.3308 -0.0490
  654TMC3    O2 9743   1.368   3.454  16.478 -0.6418  0.3411  0.2975
  655MPD2     C 9744   3.284   3.557  15.392 -0.0832  0.7452 -0.2482
  655MPD2    C1 9745   3.243   3.634  15.283  0.6392  0.8290 -0.3828
  655MPD2    C2 9746   3.307   3.609  15.159  0.2052 -0.4864 -0.7611
  655MPD2    C3 9747   3.407   3.513  15.146  0.2593  0.1667  0.1196
  655MPD2    C4 9748   3.442   3.432  15.255 -0.1420  0.2218  0.5521
  655MPD2    C5 9749   3.381   3.464  15.373 -0.8683 -0.4710  0.3790
  655MPD2     H 9750   3.278   3.676  15.078  2.2881  2.7077  1.1313
  655MPD2    H1 9751   3.516   3.353  15.257 -1.5555 -1.0700  1.0554
  655MPD2    H2 9752   3.244   3.582  15.490 -3.1890 -1.4337 -0.9349
  655MPD2    H3 9753   3.416   3.395  15.449 -0.9488 -1.3251 -0.3559
  655MPD2     N 9754   3.457   3.479  15.023 -0.3022 -0.3632  0.4834
  655MPD2    H5 9755   3.521   3.401  15.024  0.0581 -0.0332  2.3452
  655MPD2    N1 9756   3.141   3.731  15.292  0.3300 -0.0912  0.4187
  655MPD2    H7 9757   3.140   3.804  15.221 -0.8564 -2.6993 -2.2458
  656TMC3    C1 9758   2.963   3.860  15.404 -0.0742  0.2206  0.2532
  656TMC3    C2 9759   2.900   3.890  15.520  0.4925 -0.0154 -0.2676
  656TMC3    C3 9760   2.829   4.009  15.522  0.1264 -0.2706  0.0426
  656TMC3    C4 9761   2.959   3.935  15.292 -0.3168 -0.8539  0.1162
  656TMC3    C5 9762   2.878   4.042  15.297  0.0752  0.0967  0.2307
  656TMC3    C6 9763   2.813   4.089  15.410  0.4654 -0.1779  0.1907
  656TMC3     C 9764   3.058   3.747  15.406 -0.9104 -0.3904  0.0922
  656TMC3     O 9765   3.030   3.666  15.490  0.2975 -0.0879  0.0408
  656TMC3     H 9766   2.917   3.827  15.607  0.0383  0.9066  0.4853
  656TMC3    H1 9767   3.003   3.904  15.198 -1.4580 -1.4722 -0.2235
  656TMC3    H2 9768   2.753   4.179  15.409  0.0690 -0.4805 -2.0028
  656TMC3    C7 9769   2.827   4.095  15.168 -0.3982 -0.4958 -0.6879
  656TMC3    C8 9770   2.751   4.039  15.642 -0.7261 -0.5208 -0.1633
  656TMC3    O1 9771   2.898   4.100  15.068 -0.2356 -0.1851 -0.1014
  656TMC3    O2 9772   2.738   3.951  15.723  0.1476 -0.3443 -0.1738
  657TMC3    C1 9773   1.476   2.916  14.341  0.1217 -0.6256  0.6215
  657TMC3    C2 9774   1.485   2.963  14.468  0.3399  0.3376 -0.1100
  657TMC3    C3 9775   1.385   3.040  14.518 -0.1431  0.4345  0.0385
  657TMC3    C4 9776   1.363   2.927  14.272  0.0541  0.1185 -1.0120
  657TMC3    C5 9777   1.258   2.999  14.331 -0.6116 -0.1440  0.3469
  657TMC3    C6 9778   1.266   3.063  14.449  0.2221  0.4073  0.2027
  657TMC3     C 9779   1.591   2.881  14.266  0.0699  0.3813 -0.8683
  657TMC3     O 9780   1.596   2.917  14.151  0.6859  0.3923 -0.5211
  657TMC3     H 9781   1.578   2.939  14.518  1.0884 -0.1868 -1.7614
  657TMC3    H1 9782   1.364   2.902  14.167  2.1159  1.2789 -1.2789
  657TMC3    H2 9783   1.179   3.094  14.505  0.1902  0.1609  0.2902
  657TMC3    C7 9784   1.151   3.041  14.245  0.5580  0.0461  0.0209
  657TMC3    C8 9785   1.391   3.090  14.653  0.0598 -0.4497  0.3241
  657TMC3    O1 9786   1.133   2.981  14.139  0.4476  0.0613 -0.1341
  657TMC3    O2 9787   1.311   3.170  14.695  0.0397 -0.4133 -0.4644
  658MPD2     C 9788   3.936   3.677  14.401 -0.5763  0.2021  0.1383
  658MPD2    C1 9789   3.813   3.632  14.368  0.3068  0.0868  0.6840
  658MPD2    C2 9790   3.771   3.645  14.238 -0.2726 -0.5589  0.5338
  658MPD2    C3 9791   3.846   3.681  14.134  0.0377  0.8985  0.0650
  658MPD2    C4 9792   3.978   3.726  14.174 -0.2778  0.5610 -0.0097
  658MPD2    C5 9793   4.018   3.719  14.303  0.4941  0.1129 -0.7377
  658MPD2     H 9794   3.666   3.634  14.211 -0.3268  0.3193  0.3959
  658MPD2    H1 9795   4.038   3.771  14.096  0.4870 -0.0046  0.2564
  658MPD2    H2 9796   3.967   3.661  14.503  1.2654  2.5809 -0.0558
  658MPD2    H3 9797   4.122   3.737  14.328  0.3972  1.4390 -1.3007
  658MPD2     N 9798   3.793   3.702  13.998  0.0639 -0.4900 -0.0269
  658MPD2    H5 9799   3.693   3.700  13.983 -0.2165  2.1575  1.4913
  658MPD2    N1 9800   3.733   3.584  14.469 -0.6718 -0.5829 -0.2789
  658MPD2    H7 9801   3.763   3.597  14.565  0.1242  1.4440 -0.7999
  659TMC3    C1 9802   3.579   3.452  14.573 -0.1707 -0.1657  0.4351
  659TMC3    C2 9803   3.557   3.527  14.682  0.1199 -0.2041  0.2468
  659TMC3    C3 9804   3.503   3.469  14.793 -1.1443 -0.3397 -0.8491
  659TMC3    C4 9805   3.550   3.321  14.561 -0.0545 -0.0816  0.4847
  659TMC3    C5 9806   3.483   3.265  14.668 -0.1389 -0.3401  0.9627
  659TMC3    C6 9807   3.461   3.337  14.781 -1.1211  0.1139  0.5063
  659TMC3     C 9808   3.630   3.508  14.452 -0.1361 -0.2832 -0.3403
  659TMC3     O 9809   3.603   3.448  14.347  0.5313  0.4703 -0.1862
  659TMC3     H 9810   3.566   3.635  14.677  1.2184 -0.2007  2.2950
  659TMC3    H1 9811   3.585   3.258  14.479 -1.7684  0.6993 -0.8238
  659TMC3    H2 9812   3.401   3.291  14.859 -1.6728 -0.5448 -0.3158
  659TMC3    C7 9813   3.429   3.130  14.660  0.2331 -0.9995  0.0982
  659TMC3    C8 9814   3.449   3.551  14.903  0.6721 -0.1206 -0.3096
  659TMC3    O1 9815   3.396   3.080  14.770  0.3227  0.3849  0.2846
  659TMC3    O2 9816   3.419   3.669  14.878 -0.5832  0.0703 -0.5031
  660MPD2     C 9817   1.011   1.949  12.311  0.0339  0.2328 -0.6081
  660MPD2    C1 9818   0.921   2.053  12.320  0.5549 -0.2608  0.2413
  660MPD2    C2 9819   0.815   2.046  12.408 -0.2279 -0.4515 -0.4266
  660MPD2    C3 9820   0.806   1.940  12.488 -0.0787 -0.4975 -0.0941
  660MPD2    C4 9821   0.899   1.838  12.489  0.5010 -0.3394 -0.7398
  660MPD2    C5 9822   1.004   1.842  12.397 -0.1210 -0.6491 -0.4133
  660MPD2     H 9823   0.750   2.133  12.419 -1.2340 -1.3179  0.5262
  660MPD2    H1 9824   0.879   1.757  12.558  0.5518  1.3785  1.3042
  660MPD2    H2 9825   1.086   1.952  12.232 -0.3757 -0.1078 -1.0063
  660MPD2    H3 9826   1.072   1.759  12.385  0.2062 -0.2739 -1.1341
  660MPD2     N 9827   0.702   1.917  12.584  0.5301  0.2285 -0.2164
  660MPD2    H5 9828   0.705   1.830  12.635  1.5012 -0.5159 -1.5456
  660MPD2    N1 9829   0.944   2.169  12.246 -0.2890 -0.3006  0.2314
  660MPD2    H7 9830   1.030   2.161  12.192 -0.4420  0.4353 -0.1153
  661TMC3    C1 9831   0.891   2.339  12.092  0.3445 -0.0214  0.0326
  661TMC3    C2 9832   0.998   2.293  12.014  0.2419 -0.2601  0.1161
  661TMC3    C3 9833   0.982   2.313  11.882  0.3252  0.3501 -0.4339
  661TMC3    C4 9834   0.777   2.399  12.038 -0.1747  0.4591 -0.2596
  661TMC3    C5 9835   0.770   2.413  11.906 -0.2962  0.2155  0.1618
  661TMC3    C6 9836   0.864   2.358  11.825 -0.0857  0.3932 -0.1031
  661TMC3     C 9837   0.857   2.268  12.213  0.0582  0.0295  0.1784
  661TMC3     O 9838   0.742   2.278  12.249  0.4445  0.1067  0.3958
  661TMC3     H 9839   1.095   2.270  12.056  1.5207  1.6959 -1.7458
  661TMC3    H1 9840   0.698   2.434  12.104 -1.9893 -1.0371 -1.6285
  661TMC3    H2 9841   0.861   2.386  11.720 -1.2999 -0.7867 -0.3814
  661TMC3    C7 9842   0.634   2.412  11.871  0.2050 -0.2483 -0.2523
  661TMC3    C8 9843   1.101   2.319  11.797  0.4062  0.2710 -0.2935
  661TMC3    O1 9844   0.550   2.452  11.954  0.2260 -0.0795  0.2492
  661TMC3    O2 9845   1.087   2.393  11.703  0.4236  0.3902  0.1379
  662MPD2     C 9846   1.456   2.355  16.535 -0.2893 -0.5765  0.1241
  662MPD2    C1 9847   1.427   2.285  16.652  0.1129  0.3230  0.3504
  662MPD2    C2 9848   1.358   2.346  16.745 -0.1399  0.0867  0.9217
  662MPD2    C3 9849   1.299   2.465  16.726 -0.5619 -0.3686 -0.3704
  662MPD2    C4 9850   1.321   2.542  16.613  0.0061 -0.5211 -0.1161
  662MPD2    C5 9851   1.398   2.482  16.514  0.2388  0.0996  0.1897
  662MPD2     H 9852   1.347   2.295  16.840  0.6472 -0.0584  0.9332
  662MPD2    H1 9853   1.278   2.641  16.608  0.7401 -0.1889  0.2079
  662MPD2    H2 9854   1.512   2.299  16.460  2.2076  3.3942 -1.0110
  662MPD2    H3 9855   1.421   2.528  16.418 -1.7382 -1.5946 -1.1010
  662MPD2     N 9856   1.214   2.512  16.821 -0.1688  0.1490 -0.1576
  662MPD2    H5 9857   1.179   2.607  16.816  0.2060  0.2433 -0.8925
  662MPD2    N1 9858   1.470   2.155  16.675 -0.0873 -0.3423 -0.1789
  662MPD2    H7 9859   1.435   2.108  16.758 -0.8726  0.0508 -0.2915
  663TMC3    C1 9860   1.514   1.927  16.649  0.1419 -0.0263  0.8836
  663TMC3    C2 9861   1.434   1.918  16.763 -0.2066 -0.6213  0.0926
  663TMC3    C3 9862   1.458   1.821  16.852  0.4422 -0.0021 -0.2029
  663TMC3    C4 9863   1.616   1.841  16.631  0.3972 -0.1575  0.3898
  663TMC3    C5 9864   1.644   1.747  16.727 -0.4705  0.9298 -0.6442
  663TMC3    C6 9865   1.567   1.745  16.841 -0.3607  0.1106 -0.2312
  663TMC3     C 9866   1.526   2.063  16.586  0.5486  0.3803 -0.1921
  663TMC3     O 9867   1.542   2.070  16.464 -0.0951 -0.0624 -0.2093
  663TMC3     H 9868   1.338   1.967  16.762 -0.8138 -1.7898  0.7953
  663TMC3    H1 9869   1.688   1.862  16.553  0.3674  1.1004  0.7045
  663TMC3    H2 9870   1.575   1.663  16.912  1.9938  0.1598 -0.4274
  663TMC3    C7 9871   1.701   1.627  16.678  0.3074 -0.1158 -0.3154
  663TMC3    C8 9872   1.346   1.739  16.867 -0.0923  0.2463 -0.1468
  663TMC3    O1 9873   1.780   1.642  16.588  0.0604 -0.1350 -0.1182
  663TMC3    O2 9874   1.350   1.639  16.799  0.1567 -0.2001  0.0515
  664MPD2     C 9875   4.275   4.623  17.026  0.1208 -0.0961 -0.3620
  664MPD2    C1 9876   4.281   0.014  17.084 -0.2791  0.0491 -0.4309
  664MPD2    C2 9877   4.237   0.025  17.213 -0.6396  0.1396  0.4915
  664MPD2    C3 9878   4.178   4.656  17.285  0.0371  0.8258  0.4416
  664MPD2    C4 9879   4.180   4.528  17.227 -0.1034  0.9926 -0.2066
  664MPD2    C5 9880   4.230   4.514  17.099 -0.0470  0.0349  0.3136
  664MPD2     H 9881   4.249   0.116  17.271 -1.2063 -1.5723  3.3225
  664MPD2    H1 9882   4.158   4.441  17.288  0.1215  1.1977  0.1657
  664MPD2    H2 9883   4.322   4.602  16.931  1.6543  2.3183 -0.1226
  664MPD2    H3 9884   4.232   4.416  17.054 -0.0667 -0.4249  1.3176
  664MPD2     N 9885   4.134   4.692  17.412  0.5286  0.0865  0.2676
  664MPD2    H5 9886   4.165   0.051  17.437 -0.0443 -0.0340  1.4585
  664MPD2    N1 9887   4.341   0.119  17.012 -0.1908  0.0357 -0.5700
  664MPD2    H7 9888   4.389   0.102  16.924  0.5842  0.0440 -0.1461
  665TMC3    C1 9889   4.076   4.658  17.640  0.0632  0.4922 -0.2285
  665TMC3    C2 9890   4.068   4.567   0.007 -0.0186  0.5566  0.7841
  665TMC3    C3 9891   4.088   4.621   0.134 -0.5950 -0.2706 -0.4970
  665TMC3    C4 9892   4.083   0.059  17.662 -0.2559  0.0526  0.0273
  665TMC3    C5 9893   4.105   0.098   0.055 -0.5941  0.0336 -0.0573
  665TMC3    C6 9894   4.119   0.015   0.157  0.2559 -0.6556  0.2033
  665TMC3     C 9895   4.082   4.601  17.509 -0.2831 -0.4020 -0.1122
  665TMC3     O 9896   4.050   4.483  17.503 -0.3107 -0.6206  0.3122
  665TMC3     H 9897   4.033   4.467  17.721  1.5227  0.1880 -0.0961
  665TMC3    H1 9898   4.077   0.140  17.590 -1.0116 -1.6734 -1.8283
  665TMC3    H2 9899   4.133   0.048   0.259  3.1460  1.3616 -0.8281
  665TMC3    C7 9900   4.109   0.242   0.077 -0.1414 -0.1765 -0.0248
  665TMC3    C8 9901   4.086   4.538   0.249  0.7516 -0.2632 -0.1713
  665TMC3    O1 9902   4.063   0.315  17.726 -0.5991  0.0306  0.4498
  665TMC3    O2 9903   4.076   4.595   0.356 -0.3541 -0.8459 -0.8894
  666TMC3    C1 9904   3.308   0.317   9.403 -0.8205  0.5383  0.7263
  666TMC3    C2 9905   3.388   0.249   9.492  0.6094 -0.1445  0.6599
  666TMC3    C3 9906   3.463   0.325   9.578  0.0351 -0.5642  1.5363
  666TMC3    C4 9907   3.322   0.453   9.386  0.0879 -0.1604  0.8351
  666TMC3    C5 9908   3.409   0.526   9.460 -0.2483  0.1809  0.0010
  666TMC3    C6 9909   3.471   0.464   9.566  0.5394 -0.0040  0.8185
  666TMC3     C 9910   3.218   0.243   9.323 -0.0426 -0.6177 -0.5915
  666TMC3     O 9911   3.149   0.308   9.247 -0.5630  0.3141  0.6404
  666TMC3     H 9912   3.395   0.142   9.508  0.4834  0.0542  2.0466
  666TMC3    H1 9913   3.270   0.504   9.305  2.6352  0.5119 -0.3834
  666TMC3    H2 9914   3.536   0.526   9.627  2.4602  1.0482 -2.3555
  666TMC3    C7 9915   3.368   0.662   9.497  0.2567  0.6838 -0.7286
  666TMC3    C8 9916   3.464   0.263   9.704  0.1154  0.0975 -0.1475
  666TMC3    O1 9917   3.247   0.674   9.519  0.1967  0.5939  0.0746
  666TMC3    O2 9918   3.449   0.142   9.710 -0.2633  0.2381  0.2393
  667MPD2     C 9919   4.454   0.393  14.565  0.5232  0.6268  0.3752
  667MPD2    C1 9920   4.474   0.265  14.611  0.4654  0.8783  1.1634
  667MPD2    C2 9921   4.377   0.174  14.623 -0.3685  0.1958  0.5175
  667MPD2    C3 9922   4.245   0.209  14.600  0.1028  1.0901  0.4095
  667MPD2    C4 9923   4.221   0.338  14.547 -0.3618 -0.0033 -0.0594
  667MPD2    C5 9924   4.323   0.425  14.526  0.3520  0.2746  0.2117
  667MPD2     H 9925   4.409   0.076  14.655  0.7941  1.3221  2.9118
  667MPD2    H1 9926   4.122   0.374  14.519 -0.8920 -0.8095  0.7847
  667MPD2    H2 9927   4.534   0.465  14.552  0.5313  0.7393  1.0353
  667MPD2    H3 9928   4.309   0.525  14.487 -0.4518 -0.1275 -0.5362
  667MPD2     N 9929   4.136   0.114  14.609  0.5319 -0.6264 -0.1799
  667MPD2    H5 9930   4.045   0.138  14.572  0.6042 -1.4226 -0.8877
  667MPD2    N1 9931   4.603   0.220  14.646 -0.8392  0.0663 -0.1155
  667MPD2    H7 9932   4.610   0.139  14.707 -2.2397  0.0983  0.0955
  668TMC3    C1 9933   0.087   0.246  14.705 -0.3646  0.2982 -0.2182
  668TMC3    C2 9934   0.216   0.294  14.670 -0.2127 -0.2252  0.7915
  668TMC3    C3 9935   0.309   0.293  14.771 -0.2923 -0.2520 -0.3287
  668TMC3    C4 9936   0.045   0.211  14.834 -0.8284  0.3796  0.8397
  668TMC3    C5 9937   0.147   0.197  14.918  0.0142 -0.0650  0.1728
  668TMC3    C6 9938   0.276   0.231  14.889 -0.4919  0.7013 -0.1435
  668TMC3     C 9939   4.719   0.283  14.614  0.8074  0.9495  0.4450
  668TMC3     O 9940   0.020   0.358  14.524  0.3308  0.1149  0.2221
  668TMC3     H 9941   0.248   0.299  14.567  0.4739 -2.6599  0.8776
  668TMC3    H1 9942   4.677   0.225  14.869 -1.4373 -1.5359 -0.1563
  668TMC3    H2 9943   0.354   0.212  14.962  0.2011  1.2839 -0.7197
  668TMC3    C7 9944   0.119   0.182  15.053  0.0863  0.5195 -0.0050
  668TMC3    C8 9945   0.441   0.351  14.764 -0.4592 -0.0489  0.1736
  668TMC3    O1 9946   0.195   0.238  15.135 -0.9567 -0.1608  0.2781
  668TMC3    O2 9947   0.515   0.346  14.862  0.0835 -0.4638 -0.3237
  669TMC3    C1 9948   2.780   0.120  14.391  0.4352  0.1614 -0.0996
  669TMC3    C2 9949   2.665   0.153  14.326  0.4808  0.8274 -0.5516
  669TMC3    C3 9950   2.680   0.248  14.230 -0.4280  0.1651  0.4042
  669TMC3    C4 9951   2.893   0.192  14.374 -0.3175  0.4956 -0.4536
  669TMC3    C5 9952   2.904   0.285  14.268  0.1005 -0.5615 -0.0171
  669TMC3    C6 9953   2.793   0.318  14.198 -0.1153 -0.4508  0.4763
  669TMC3     C 9954   2.771   0.033  14.509  0.0496 -0.8096 -0.8612
  669TMC3     O 9955   2.659   0.003  14.543  1.0093  0.0217 -0.1207
  669TMC3     H 9956   2.574   0.096  14.339  0.3790  0.8110 -1.2852
  669TMC3    H1 9957   2.977   0.177  14.441 -0.8388  1.2175  0.3470
  669TMC3    H2 9958   2.781   0.392  14.120  2.3684 -0.0737  0.4676
  669TMC3    C7 9959   3.030   0.355  14.245 -0.5294 -0.1357  0.5442
  669TMC3    C8 9960   2.560   0.285  14.162 -0.5804  0.5110 -0.0017
  669TMC3    O1 9961   3.116   0.333  14.330  0.1865  0.3416  0.4100
  669TMC3    O2 9962   2.475   0.196  14.149 -0.1353 -0.3772 -0.5908
  670MPD2     C 9963   1.849   2.736  12.742 -0.0138 -0.2054 -0.0076
  670MPD2    C1 9964   1.892   2.646  12.838 -0.3922 -0.9481 -0.2884
  670MPD2    C2 9965   1.793   2.600  12.926 -0.0412 -0.3070  0.5655
  670MPD2    C3 9966   1.657   2.631  12.913  0.1752  0.0924  0.2319
  670MPD2    C4 9967   1.626   2.714  12.810 -0.5277 -0.1305  0.1989
  670MPD2    C5 9968   1.717   2.764  12.727 -0.0643  0.4740  0.3641
  670MPD2     H 9969   1.821   2.541  13.012 -0.7379 -1.3268  0.0940
  670MPD2    H1 9970   1.523   2.741  12.789 -0.8149 -0.2862  1.4076
  670MPD2    H2 9971   1.917   2.791  12.677 -0.6772  1.1655  0.4587
  670MPD2    H3 9972   1.681   2.825  12.645  2.0265 -1.2202 -1.7998
  670MPD2     N 9973   1.557   2.582  13.005  0.6461 -0.3203  0.0544
  670MPD2    H5 9974   1.591   2.509  13.067  0.9950 -0.4214 -0.2530
  670MPD2    N1 9975   2.028   2.617  12.855  0.4419 -0.3528 -0.2962
  670MPD2    H7 9976   2.040   2.524  12.895  1.8512 -1.0771 -2.3904
  671TMC3    C1 9977   1.365   2.530  13.112  0.2277  0.2837  0.0765
  671TMC3    C2 9978   1.431   2.509  13.234 -0.1530 -0.0265 -0.0311
  671TMC3    C3 9979   1.344   2.474  13.338 -0.0169 -0.5788 -0.6431
  671TMC3    C4 9980   1.236   2.513  13.089 -0.6593  0.1499 -0.5808
  671TMC3    C5 9981   1.162   2.461  13.188 -0.2451  0.1470 -0.5194
  671TMC3    C6 9982   1.218   2.437  13.308  0.1077  0.0759  0.4852
  671TMC3     C 9983   1.427   2.620  13.018 -0.1936  0.0412  0.5672
  671TMC3     O 9984   1.368   2.708  12.954  0.2515  0.4646  0.0936
  671TMC3     H 9985   1.522   2.563  13.256  0.8473 -1.3319 -1.0119
  671TMC3    H1 9986   1.202   2.535  12.989  1.8360 -0.3365 -1.5338
  671TMC3    H2 9987   1.157   2.398  13.389  0.8047 -1.8624  0.0743
  671TMC3    C7 9988   1.071   2.357  13.141 -0.3320 -0.9830  0.1914
  671TMC3    C8 9989   1.402   2.415  13.450 -0.3634 -0.1681 -0.1976
  671TMC3    O1 9990   1.075   2.334  13.019  0.6003  0.3077 -0.2997
  671TMC3    O2 9991   1.340   2.328  13.509  0.6788  0.0373  0.0970
  672MPD2     C 9992   1.495   2.807   0.701 -0.6386 -0.6011  0.6763
  672MPD2    C1 9993   1.600   2.792   0.613 -0.1630 -0.0513 -0.1312
  672MPD2    C2 9994   1.709   2.864   0.635  0.0655 -0.4197 -0.6272
  672MPD2    C3 9995   1.714   2.956   0.736 -0.3810  0.0629 -0.4670
  672MPD2    C4 9996   1.603   2.975   0.814 -0.4497  0.4146 -0.6989
  672MPD2    C5 9997   1.491   2.904   0.794 -0.1892  0.2046 -0.0870
  672MPD2     H 9998   1.780   2.855   0.553  1.4203  1.2327  0.3707
  672MPD2    H1 9999   1.615   3.042   0.898 -0.1539 -0.6230  0.0809
  672MPD2    H210000   1.399   2.761   0.683  0.8148 -3.0670 -0.7091
  672MPD2    H310001   1.405   2.912   0.860  0.8908  0.8017  1.2536
  672MPD2     N10002   1.824   3.036   0.767  0.3984 -0.4975 -0.1124
  672MPD2    H510003   1.816   3.112   0.833  3.7521 -0.1496 -0.0727
  672MPD2    N110004   1.596   2.720   0.489  0.5001  0.2108 -0.3104
  672MPD2    H710005   1.682   2.711   0.437  1.1950 -0.7549  1.0200
  673TMC3    C110006   1.504   2.626   0.295 -0.0003 -0.2348 -0.3871
  673TMC3    C210007   1.623   2.576   0.250  0.2565  0.7308 -0.5621
  673TMC3    C310008   1.632   2.549   0.116 -0.6322 -0.3307 -0.2483
  673TMC3    C410009   1.398   2.640   0.211  0.3339  0.5408 -1.3572
  673TMC3    C510010   1.415   2.620   0.078 -0.1691 -0.3624  0.2824
  673TMC3    C610011   1.526   2.574   0.028 -0.1882 -0.0698  0.3229
  673TMC3     C10012   1.484   2.669   0.431  0.2707 -0.0354 -0.3657
  673TMC3     O10013   1.370   2.670   0.471 -0.0056 -0.1296  0.3936
  673TMC3     H10014   1.697   2.547   0.323 -1.6873 -1.9288  0.3706
  673TMC3    H110015   1.303   2.679   0.246  0.8045 -0.3778  0.9943
  673TMC3    H210016   1.543   2.554  17.658 -0.3610 -1.3713  0.5382
  673TMC3    C710017   1.333   2.696  17.725  0.1008  1.1281  0.3648
  673TMC3    C810018   1.763   2.511   0.060 -0.2099  0.3493 -0.4660
  673TMC3    O110019   1.350   2.674  17.608  0.6080 -0.5717 -0.2664
  673TMC3    O210020   1.759   2.455  17.686  0.3766 -0.0186 -0.0804
  674MPD2     C10021   1.418   3.424  17.344  0.1738 -0.5339  0.2001
  674MPD2    C110022   1.342   3.308  17.311 -0.3494  0.2681  0.4748
  674MPD2    C210023   1.201   3.318  17.315 -0.1748  0.9836  0.4386
  674MPD2    C310024   1.134   3.434  17.358  0.3537 -0.7313  0.5507
  674MPD2    C410025   1.208   3.553  17.375  0.0620 -0.1144  0.5077
  674MPD2    C510026   1.348   3.547  17.362  0.5725 -0.0969 -0.5972
  674MPD2     H10027   1.140   3.231  17.297  1.8213 -0.0448 -1.3409
  674MPD2    H110028   1.165   3.646  17.413 -0.1811  0.5219 -1.3319
  674MPD2    H210029   1.526   3.429  17.342  0.2695 -2.1854  0.7773
  674MPD2    H310030   1.409   3.635  17.376 -1.9357  1.7469 -1.1572
  674MPD2     N10031   0.994   3.429  17.379 -0.6524  0.0914 -0.4227
  674MPD2    H510032   0.958   3.338  17.352 -1.8543  0.2695  0.5941
  674MPD2    N110033   1.417   3.185  17.297 -0.0412  0.1647  0.0512
  674MPD2    H710034   1.513   3.189  17.328 -0.6570  3.1188  1.5913
  675TMC3    C110035   1.433   2.956  17.294  0.2607 -0.8159  0.4823
  675TMC3    C210036   1.386   2.835  17.251  0.0247 -0.1569  0.1765
  675TMC3    C310037   1.450   2.725  17.303  0.8174 -0.0067 -0.0520
  675TMC3    C410038   1.514   2.964  17.402  0.6814  0.4133 -0.8943
  675TMC3    C510039   1.548   2.853  17.469 -0.0956  0.8386 -0.1364
  675TMC3    C610040   1.527   2.737  17.413 -0.0383  0.8849  0.0938
  675TMC3     C10041   1.358   3.066  17.252  0.5181 -0.7433 -0.0053
  675TMC3     O10042   1.253   3.046  17.190 -0.0572  0.0318  0.1793
  675TMC3     H10043   1.308   2.833  17.176 -1.5782 -2.1514  1.9162
  675TMC3    H110044   1.570   3.053  17.430  0.1107  0.0528  1.3737
  675TMC3    H210045   1.578   2.648  17.448 -0.1307  0.1685 -1.5972
  675TMC3    C710046   1.626   2.866  17.588  0.8325  0.0682  0.5920
  675TMC3    C810047   1.401   2.600  17.259  0.3001 -0.3866  0.3799
  675TMC3    O110048   1.707   2.775  17.612  0.3750  0.1076 -0.0728
  675TMC3    O210049   1.379   2.578  17.139 -0.0678  0.6336 -0.0414
  676MPD2     C10050   4.045   0.912  10.664 -0.2006  0.1474  0.2643
  676MPD2    C110051   3.973   0.866  10.774  0.2825 -0.3176  1.0626
  676MPD2    C210052   3.977   0.727  10.790 -0.4025  0.3923  0.9822
  676MPD2    C310053   4.056   0.642  10.715 -0.2891  0.7869 -0.1103
  676MPD2    C410054   4.130   0.696  10.616  0.2485 -0.6324  0.0210
  676MPD2    C510055   4.119   0.830  10.591  0.4049 -0.6391 -0.4917
  676MPD2     H10056   3.906   0.690  10.863  1.2969 -1.2437  1.8105
  676MPD2    H110057   4.200   0.641  10.554  0.3336 -1.0241  0.4614
  676MPD2    H210058   4.041   1.017  10.636 -0.1537  0.0824  0.0173
  676MPD2    H310059   4.175   0.872  10.508  0.4968 -0.9353 -0.5801
  676MPD2     N10060   4.065   0.504  10.742 -0.0651  0.1277 -0.5878
  676MPD2    H510061   4.148   0.466  10.697  0.3228 -0.2266  0.4281
  676MPD2    N110062   3.888   0.937  10.860 -0.3213  0.0730  0.2232
  676MPD2    H710063   3.825   0.878  10.914 -0.3983 -0.5288 -0.5272
  677TMC3    C110064   3.779   1.122  10.952  0.3707 -0.0071 -0.5370
  677TMC3    C210065   3.673   1.039  10.981 -0.5383  0.4637 -0.1279
  677TMC3    C310066   3.599   1.081  11.086 -0.5891  0.0754 -0.4651
  677TMC3    C410067   3.807   1.235  11.030  0.6720 -0.1824  0.8152
  677TMC3    C510068   3.719   1.270  11.130 -0.4939  0.0401  0.2380
  677TMC3    C610069   3.616   1.193  11.158 -0.0792  1.0371  0.7982
  677TMC3     C10070   3.891   1.069  10.873  0.5564  0.4129 -0.9244
  677TMC3     O10071   3.969   1.143  10.819 -0.2305  0.3630 -0.1797
  677TMC3     H10072   3.636   0.952  10.927 -2.2508  0.7929  0.5238
  677TMC3    H110073   3.900   1.289  11.014  1.0089 -0.8712  0.4632
  677TMC3    H210074   3.546   1.222  11.236 -0.0259 -0.6845  1.4732
  677TMC3    C710075   3.767   1.347  11.237  0.7635 -0.0610  0.7222
  677TMC3    C810076   3.493   0.992  11.135 -0.1991  0.4393 -0.0098
  677TMC3    O110077   3.681   1.374  11.318  0.2292 -0.1658  0.0259
  677TMC3    O210078   3.429   0.942  11.042  0.0142  0.5141  0.5239
  678MPD2     C10079   0.529   1.456   1.209  0.3434 -0.4014  0.3986
  678MPD2    C110080   0.535   1.386   1.091  0.7043  0.1529 -0.5087
  678MPD2    C210081   0.433   1.297   1.069  0.2673 -0.6639  0.3324
  678MPD2    C310082   0.321   1.284   1.135 -0.0069  0.0433 -0.1607
  678MPD2    C410083   0.313   1.355   1.252 -0.4591  0.6935  0.1191
  678MPD2    C510084   0.416   1.434   1.287  0.9588 -0.2363  0.4603
  678MPD2     H10085   0.435   1.248   0.972  0.4670 -1.3095  0.6645
  678MPD2    H110086   0.227   1.351   1.318  0.4261  1.1956  1.2927
  678MPD2    H210087   0.605   1.525   1.243  0.7306 -2.1513  3.1063
  678MPD2    H310088   0.412   1.491   1.379  1.1204 -0.0373  0.3442
  678MPD2     N10089   0.222   1.197   1.081 -0.0395  0.5374 -0.3413
  678MPD2    H510090   0.232   1.160   0.987 -0.0131  2.1081 -0.9561
  678MPD2    N110091   0.648   1.388   0.999  0.5688 -0.3116  0.0368
  678MPD2    H710092   0.627   1.346   0.909 -1.0836 -0.0207  0.2817
  679TMC3    C110093   1.085   1.495   0.885 -0.6020  0.6590 -0.3943
  679TMC3    C210094   0.996   1.431   0.964 -0.7396 -0.0699  0.6143
  679TMC3    C310095   0.864   1.442   0.926 -0.1769 -0.0539 -0.0953
  679TMC3    C410096   1.054   1.548   0.761 -0.3926  0.2105 -0.2361
  679TMC3    C510097   0.928   1.534   0.720 -0.6901  0.3689  0.2324
  679TMC3    C610098   0.827   1.499   0.808 -0.2884 -0.2701 -0.3055
  679TMC3     C10099   1.221   1.452   0.889 -0.2388 -0.0866 -0.6649
  679TMC3     O10100   1.298   1.518   0.817  0.1491 -0.3013  0.2684
  679TMC3     H10101   1.026   1.392   1.061  0.2787 -0.3260  0.1936
  679TMC3    H110102   1.133   1.578   0.692 -1.1284  0.5456 -0.9417
  679TMC3    H210103   0.726   1.520   0.776 -0.3081  1.5899  0.9907
  679TMC3    C710104   0.899   1.542   0.583  0.3874 -0.1993  0.6423
  679TMC3    C810105   0.768   1.440   1.035 -0.5701 -0.5391 -0.3406
  679TMC3    O110106   0.965   1.606   0.506  0.0235  0.5425 -0.2192
  679TMC3    O210107   0.811   1.473   1.146  0.0233 -0.1884 -0.2529
  680MPD2     C10108   1.060   4.367  12.962 -0.3851 -0.1330 -0.2498
  680MPD2    C110109   1.177   4.349  13.031 -0.4351 -0.9715 -0.1983
  680MPD2    C210110   1.198   4.436  13.137 -0.1912 -0.5478 -0.3335
  680MPD2    C310111   1.110   4.544  13.172  0.1992  0.5096 -0.3021
  680MPD2    C410112   0.996   4.552  13.097 -0.0323 -0.3108  0.1736
  680MPD2    C510113   0.965   4.460  13.000  0.3350 -0.3052 -0.7821
  680MPD2     H10114   1.292   4.419  13.190 -1.2356 -4.2360  0.3852
  680MPD2    H110115   0.929   4.635  13.114  0.7798  0.2131  0.8493
  680MPD2    H210116   1.027   4.306  12.879 -0.7971 -0.0856 -0.1212
  680MPD2    H310117   0.871   4.458  12.947 -0.3346 -0.3008  0.3988
  680MPD2     N10118   1.145   4.657  13.243 -0.2233  0.1812 -0.0541
  680MPD2    H510119   1.086   0.004  13.259 -0.3700  0.3285 -1.4086
  680MPD2    N110120   1.268   4.239  13.017 -0.2631 -0.4099 -0.0181
  680MPD2    H710121   1.337   4.234  13.091 -0.7068 -1.8288  0.2956
  681TMC3    C110122   1.349   4.037  12.950 -1.0621 -0.3225  0.5876
  681TMC3    C210123   1.290   3.917  12.984 -0.0193  0.3802  0.2704
  681TMC3    C310124   1.343   3.848  13.086  0.4304 -0.5025 -0.0452
  681TMC3    C410125   1.467   4.075  12.999 -0.4257  0.5585 -0.2091
  681TMC3    C510126   1.527   3.993  13.083 -0.5262  0.0736 -0.4842
  681TMC3    C610127   1.459   3.892  13.152 -0.1462  0.3559  0.3263
  681TMC3     C10128   1.262   4.144  12.920 -0.0713 -0.3310 -0.1710
  681TMC3     O10129   1.184   4.127  12.831 -0.2136 -0.2777 -0.5408
  681TMC3     H10130   1.189   3.897  12.949 -0.2880 -1.5943  2.0981
  681TMC3    H110131   1.502   4.170  12.962 -3.5181  1.7598 -0.0048
  681TMC3    H210132   1.487   3.851  13.249 -0.4402 -0.9395 -0.1374
  681TMC3    C710133   1.662   4.025  13.116  0.3856 -0.5587  0.5970
  681TMC3    C810134   1.230   3.810  13.169  0.6015  0.0752 -0.1289
  681TMC3    O110135   1.701   3.959  13.214 -0.0016 -0.8989 -0.3864
  681TMC3    O210136   1.135   3.752  13.118 -0.5093  0.1978 -0.3736
  682MPD2     C10137   2.770   1.523  10.421 -1.5667  0.3179  0.0953
  682MPD2    C110138   2.801   1.395  10.443  0.2501  0.0095 -0.1351
  682MPD2    C210139   2.752   1.341  10.561 -0.6655  0.3702  0.3613
  682MPD2    C310140   2.681   1.406  10.655  0.3975 -0.2318  0.3278
  682MPD2    C410141   2.657   1.538  10.629  0.0139  0.5294 -0.6918
  682MPD2    C510142   2.710   1.590  10.519 -0.0596  0.2082 -0.4201
  682MPD2     H10143   2.752   1.233  10.569  0.4297  0.2504 -1.2446
  682MPD2    H110144   2.593   1.596  10.694 -0.2955 -1.1993  0.5622
  682MPD2    H210145   2.801   1.571  10.330  2.2039 -2.2245  0.0274
  682MPD2    H310146   2.702   1.696  10.500 -0.7444 -0.2676 -2.7630
  682MPD2     N10147   2.635   1.339  10.773  0.2880 -0.2883 -0.2035
  682MPD2    H510148   2.670   1.244  10.780 -2.7559 -1.3529  0.3768
  682MPD2    N110149   2.856   1.307  10.350 -0.0847 -0.1572 -0.2725
  682MPD2    H710150   2.862   1.214  10.390 -3.5382 -0.3202 -0.1854
  683TMC3    C110151   2.476   1.178  11.155  0.8163  0.2352  0.3889
  683TMC3    C210152   2.482   1.051  11.099  0.4183  0.6023 -0.3416
  683TMC3    C310153   2.494   1.034  10.963  0.6126  0.6090 -0.0134
  683TMC3    C410154   2.489   1.291  11.081  0.6549  0.5019  0.2269
  683TMC3    C510155   2.518   1.270  10.955  0.1067  0.8386  0.4808
  683TMC3    C610156   2.510   1.147  10.884 -0.1628 -0.2677  0.2381
  683TMC3     C10157   2.491   1.198  11.298 -0.0471  0.8688 -0.6470
  683TMC3     O10158   2.541   1.307  11.327  0.2745  0.4300  0.6250
  683TMC3     H10159   2.476   0.965  11.163  2.7702  0.8178  0.1662
  683TMC3    H110160   2.498   1.392  11.119 -0.2949  1.0737 -1.1058
  683TMC3    H210161   2.534   1.133  10.779  2.6834 -0.3640  0.8877
  683TMC3    C710162   2.547   1.382  10.869  0.2092 -0.3113 -0.3872
  683TMC3    C810163   2.530   0.909  10.902  0.1868 -0.2123  0.1924
  683TMC3    O110164   2.488   1.488  10.887 -0.6885 -0.0603  0.2785
  683TMC3    O210165   2.556   0.911  10.787  0.6838  0.3845  0.2592
  684MPD2     C10166   1.396   0.230  15.906 -0.0377 -0.2536  0.4091
  684MPD2    C110167   1.316   0.314  15.825  0.4349  0.1635  0.4241
  684MPD2    C210168   1.301   0.444  15.863  0.4249  0.0844  0.5525
  684MPD2    C310169   1.371   0.492  15.971  0.1320  1.2734 -0.3674
  684MPD2    C410170   1.456   0.410  16.038 -0.7574 -0.3219 -0.0420
  684MPD2    C510171   1.467   0.279  16.012 -0.2626 -0.2431  0.0350
  684MPD2     H10172   1.232   0.506  15.807 -1.8434 -0.7971  2.3932
  684MPD2    H110173   1.524   0.449  16.113  1.6686 -0.8278 -1.9596
  684MPD2    H210174   1.404   0.123  15.887 -1.4711  0.0966 -2.3384
  684MPD2    H310175   1.534   0.212  16.065 -1.6914 -0.8106  1.1179
  684MPD2     N10176   1.377   0.636  16.003 -0.0534  0.5620  0.6648
  684MPD2    H510177   1.448   0.671  16.066  0.9502 -2.6871  1.3307
  684MPD2    N110178   1.265   0.273  15.701 -0.5022  0.5270 -0.2402
  684MPD2    H710179   1.227   0.345  15.641  0.5423 -0.6654 -2.3457
  685TMC3    C110180   1.331   0.179  15.500 -0.6257 -0.0532 -0.4747
  685TMC3    C210181   1.250   0.268  15.442  0.5958 -0.4821 -0.0575
  685TMC3    C310182   1.294   0.342  15.333  0.5736 -0.0847  0.6145
  685TMC3    C410183   1.457   0.158  15.444 -0.1622 -0.1390  0.7700
  685TMC3    C510184   1.502   0.241  15.344 -0.7998 -0.2489  0.0088
  685TMC3    C610185   1.420   0.333  15.288 -0.1416 -0.6310 -0.1117
  685TMC3     C10186   1.312   0.154  15.635 -0.0276 -0.4412  0.0461
  685TMC3     O10187   1.359   0.051  15.680 -0.2059  0.2632 -0.4731
  685TMC3     H10188   1.143   0.267  15.460  0.8704 -0.2602  1.5647
  685TMC3    H110189   1.523   0.083  15.487 -2.0359 -2.5764 -0.6386
  685TMC3    H210190   1.442   0.395  15.202 -1.9765 -1.1200 -0.9449
  685TMC3    C710191   1.642   0.279  15.364  0.5040 -0.5784  0.9090
  685TMC3    C810192   1.199   0.381  15.231 -0.4142 -1.1244 -0.3717
  685TMC3    O110193   1.708   0.200  15.426  0.1238 -0.0545  0.2944
  685TMC3    O210194   1.227   0.358  15.117 -0.0426 -0.2665 -0.4366
  686MPD2     C10195   2.907   0.796  14.922  0.1901 -0.9249 -0.6541
  686MPD2    C110196   2.860   0.698  15.006  0.1052 -0.2022 -0.7099
  686MPD2    C210197   2.823   0.577  14.947 -0.6112 -0.3228  1.2385
  686MPD2    C310198   2.841   0.551  14.817  0.8097 -0.4401  0.2095
  686MPD2    C410199   2.881   0.655  14.734  0.3413  0.2980 -0.5194
  686MPD2    C510200   2.916   0.781  14.784  0.3088 -0.2058 -0.5834
  686MPD2     H10201   2.776   0.505  15.014 -1.1921 -0.1496  1.0164
  686MPD2    H110202   2.880   0.653  14.626 -1.4927  0.8696 -0.5172
  686MPD2    H210203   2.923   0.891  14.972 -1.1919 -0.8449 -0.3575
  686MPD2    H310204   2.954   0.864  14.725  0.7177 -0.1764 -0.2794
  686MPD2     N10205   2.784   0.444  14.748 -0.0105  0.4822 -0.3902
  686MPD2    H510206   2.798   0.449  14.647 -0.2379  3.1279 -0.2915
  686MPD2    N110207   2.834   0.736  15.138 -0.1725  0.9910  0.0535
  686MPD2    H710208   2.857   0.833  15.159 -0.1462  0.5774  1.9007
  687TMC3    C110209   2.696   0.303  14.918 -0.5928  0.0181  0.4640
  687TMC3    C210210   2.581   0.334  14.983  0.0765 -0.1196 -0.0308
  687TMC3    C310211   2.575   0.296  15.112 -0.2264  0.1976  0.7006
  687TMC3    C410212   2.803   0.237  14.973 -0.1391  0.4765  0.2737
  687TMC3    C510213   2.786   0.199  15.105 -0.1882  0.8915 -0.1812
  687TMC3    C610214   2.678   0.222  15.177 -0.1643  0.3796 -0.3229
  687TMC3     C10215   2.705   0.338  14.780 -0.3688 -0.6148 -0.3379
  687TMC3     O10216   2.649   0.264  14.699 -0.0985  0.6304  0.3977
  687TMC3     H10217   2.492   0.362  14.928 -0.4729 -0.7974  0.5066
  687TMC3    H110218   2.892   0.215  14.917 -0.5953  0.6199 -0.5059
  687TMC3    H210219   2.665   0.180  15.275 -0.5273 -0.7083 -0.8375
  687TMC3    C710220   2.900   0.171  15.187  0.4725 -0.1817 -0.2052
  687TMC3    C810221   2.477   0.348  15.206  0.3607  0.5175  0.5193
  687TMC3    O110222   2.907   0.058  15.231  0.3438  0.0561  0.8911
  687TMC3    O210223   2.470   0.315  15.322  0.1290 -0.1485  0.0874
  688MPD2     C10224   2.171   4.359  17.214 -0.4001  0.3005  0.0779
  688MPD2    C110225   2.170   4.220  17.188  0.3729  0.3278  0.1372
  688MPD2    C210226   2.237   4.168  17.082 -0.6894 -0.5293 -0.6267
  688MPD2    C310227   2.313   4.251  17.002  0.1788  0.4738 -0.4141
  688MPD2    C410228   2.314   4.388  17.033 -0.4992  0.1525  0.0789
  688MPD2    C510229   2.246   4.437  17.135 -0.3980  0.0498  0.2065
  688MPD2     H10230   2.225   4.062  17.063 -0.0657 -0.9578  1.2752
  688MPD2    H110231   2.375   4.460  16.980 -0.7966  0.6213  0.3728
  688MPD2    H210232   2.133   4.400  17.307  0.6247 -1.0118  1.0817
  688MPD2    H310233   2.257   4.542  17.159 -1.4939  0.2648 -0.2549
  688MPD2     N10234   2.389   4.201  16.896 -0.4029  0.5332  0.6152
  688MPD2    H510235   2.430   4.272  16.837 -0.7513  0.5047  0.3375
  688MPD2    N110236   2.095   4.139  17.276 -0.1182  0.4838  0.1369
  688MPD2    H710237   2.050   4.192  17.350 -0.7002 -1.0592  0.8810
  689TMC3    C110238   2.017   3.942  17.388 -0.5382  0.1604  0.4283
  689TMC3    C210239   1.937   4.022  17.462  0.7870  0.7901  0.0493
  689TMC3    C310240   1.844   3.960  17.548 -0.1110  0.8948  0.0192
  689TMC3    C410241   2.014   3.801  17.405  0.3970 -0.1156 -0.3175
  689TMC3    C510242   1.930   3.747  17.497 -0.3985  0.3063  0.4964
  689TMC3    C610243   1.840   3.827  17.557  0.2891  0.3611  0.1696
  689TMC3     C10244   2.110   4.006  17.290 -0.5098 -0.0981  0.1015
  689TMC3     O10245   2.188   3.930  17.235 -0.4029 -0.1230 -0.4925
  689TMC3     H10246   1.929   4.129  17.448  2.2854  0.8699 -0.1205
  689TMC3    H110247   2.073   3.733  17.346 -0.8309 -0.7702 -0.7951
  689TMC3    H210248   1.766   3.771  17.614  0.5148 -0.1238 -0.0104
  689TMC3    C710249   1.913   3.603  17.483 -0.0728  0.2045  1.1609
  689TMC3    C810250   1.733   4.041  17.597 -0.0111 -0.0689 -0.2103
  689TMC3    O110251   1.985   3.522  17.544  0.2348 -0.0003  0.1551
  689TMC3    O210252   1.712   4.153  17.541  0.2971  0.0479 -0.1537
  690MPD2     C10253   4.393   1.269  15.239  0.6791  0.1079 -0.6731
  690MPD2    C110254   4.329   1.246  15.118  0.0028 -0.2843 -0.3452
  690MPD2    C210255   4.395   1.278  15.001 -0.5473 -0.1615  0.6254
  690MPD2    C310256   4.526   1.323  15.005  0.2728 -0.0096 -0.1097
  690MPD2    C410257   4.588   1.352  15.126 -0.1206  0.4947  0.6841
  690MPD2    C510258   4.520   1.331  15.240  0.5555  0.5375 -0.3319
  690MPD2     H10259   4.353   1.266  14.902  0.0495 -0.8985  0.4582
  690MPD2    H110260   4.692   1.376  15.144  0.5411 -2.0559  0.2900
  690MPD2    H210261   4.361   1.236  15.337 -0.5159 -1.1399 -1.4826
  690MPD2    H310262   4.572   1.346  15.334  0.4265 -0.1943 -0.1463
  690MPD2     N10263   4.598   1.333  14.881 -0.7063 -0.2379  0.1331
  690MPD2    H510264   4.551   1.318  14.792 -0.2208 -0.3355 -0.1079
  690MPD2    N110265   4.199   1.185  15.101 -0.3914 -0.3292 -0.2842
  690MPD2    H710266   4.167   1.171  15.006  0.0797 -2.0287 -0.1927
  691TMC3    C110267   4.008   1.078  15.157  0.1755 -0.0706  0.1323
  691TMC3    C210268   3.892   1.084  15.229  0.6480 -0.0741 -0.4222
  691TMC3    C310269   3.811   0.977  15.215 -0.5808 -0.2137  0.2430
  691TMC3    C410270   4.046   0.967  15.086 -0.0092 -0.2299  0.6076
  691TMC3    C510271   3.959   0.861  15.078  0.4500  0.1778  0.1285
  691TMC3    C610272   3.836   0.870  15.133  0.2272  0.6074  0.6536
  691TMC3     C10273   4.117   1.155  15.208 -0.1470  0.0404 -0.2986
  691TMC3     O10274   4.124   1.190  15.324  0.3704  0.0248  1.0559
  691TMC3     H10275   3.865   1.161  15.300  0.5987  0.8496 -1.4391
  691TMC3    H110276   4.147   0.954  15.047 -0.2341  3.7425 -1.3645
  691TMC3    H210277   3.754   0.799  15.120  0.8754 -0.2169  1.0978
  691TMC3    C710278   4.023   0.733  15.086  0.7135 -0.0814  0.1497
  691TMC3    C810279   3.668   0.997  15.236 -0.2264 -0.4260 -0.0097
  691TMC3    O110280   4.142   0.734  15.118  0.2833  0.3053  0.0458
  691TMC3    O210281   3.592   0.897  15.242  0.0421 -0.6487  0.1047
  692TMC3    C110282   1.184   1.941  15.370 -0.3331  0.3520 -0.2582
  692TMC3    C210283   1.308   1.991  15.349 -1.3480 -0.5398 -0.4605
  692TMC3    C310284   1.400   1.907  15.292  0.5097  0.0567 -0.0599
  692TMC3    C410285   1.155   1.812  15.369 -0.0611  0.0330 -0.3309
  692TMC3    C510286   1.243   1.729  15.317 -0.4883  0.2509  0.4314
  692TMC3    C610287   1.359   1.778  15.265 -0.3455 -0.0847 -0.2171
  692TMC3     C10288   1.089   2.034  15.442 -0.5897  0.4260 -0.3561
  692TMC3     O10289   0.976   1.987  15.457  0.3959 -0.3199  0.4536
  692TMC3     H10290   1.323   2.095  15.323  1.1217 -0.6652  0.4569
  692TMC3    H110291   1.055   1.776  15.391 -0.2541  0.8917  0.2045
  692TMC3    H210292   1.437   1.707  15.238  0.0644  0.4696 -0.4685
  692TMC3    C710293   1.200   1.592  15.300 -0.1406 -0.2439  0.3848
  692TMC3    C810294   1.500   1.893  15.399 -0.1628 -0.0726  0.4515
  692TMC3    O110295   1.210   1.532  15.190  0.2899 -0.5142  0.4123
  692TMC3    O210296   1.580   1.807  15.391 -0.4749 -0.1124  0.1772
  693MPD2     C10297   0.032   0.395  10.232 -0.3910 -0.3917 -0.6448
  693MPD2    C110298   0.024   0.337  10.351  0.6993 -0.4322 -0.2159
  693MPD2    C210299   0.140   0.334  10.429 -0.3640 -0.6932  0.1194
  693MPD2    C310300   0.255   0.402  10.394 -0.2614 -0.1686 -0.0111
  693MPD2    C410301   0.251   0.473  10.272  0.0480 -0.5973  0.1228
  693MPD2    C510302   0.147   0.461  10.184 -0.2406 -0.0815  0.6684
  693MPD2     H10303   0.137   0.280  10.523 -2.2413 -0.8229 -0.0043
  693MPD2    H110304   0.334   0.537  10.244  0.9562 -1.5410  0.6471
  693MPD2    H210305   4.679   0.389  10.168 -1.0105 -0.9329  0.2692
  693MPD2    H310306   0.153   0.506  10.085  0.3001 -2.0114 -0.1745
  693MPD2     N10307   0.374   0.403  10.473  0.5064 -0.0434  0.1875
  693MPD2    H510308   0.461   0.433  10.431  0.1344  0.6815 -0.0608
  693MPD2    N110309   4.646   0.258  10.391  0.5239  0.4010 -0.3260
  693MPD2    H710310   4.666   0.201  10.472 -1.9959  0.3317  0.2618
  694TMC3    C110311   4.435   0.142  10.386  0.4242  0.1524 -0.2459
  694TMC3    C210312   4.383   0.050  10.302 -0.4348  0.4297  0.6926
  694TMC3    C310313   4.319   4.678  10.364 -0.4067 -0.6608 -0.4322
  694TMC3    C410314   4.423   0.139  10.522  0.3989  0.7829  0.1209
  694TMC3    C510315   4.360   0.026  10.576 -0.2204 -0.4476 -0.7647
  694TMC3    C610316   4.304   4.658  10.500 -0.2899 -0.2509  0.0007
  694TMC3     C10317   4.529   0.232  10.321  0.0894  0.5609 -0.4870
  694TMC3     O10318   4.509   0.265  10.206  0.0209  0.4966 -0.1485
  694TMC3     H10319   4.379   0.073  10.196  1.9531  1.2677  0.7818
  694TMC3    H110320   4.459   0.223  10.579  0.5771  1.1340 -0.5158
  694TMC3    H210321   4.245   4.579  10.546  0.0545 -1.0010 -0.8495
  694TMC3    C710322   4.375   0.009  10.722 -0.4768 -0.8010  0.5134
  694TMC3    C810323   4.237   4.590  10.281  0.2284 -0.2140 -0.0050
  694TMC3    O110324   4.452   0.087  10.772  0.2042  0.7095 -0.2935
  694TMC3    O210325   4.207   4.485  10.332 -0.0088 -0.0153  0.4985
  695MPD2     C10326   1.674   1.677  12.935 -0.2074  0.1974  0.4453
  695MPD2    C110327   1.589   1.723  13.039 -0.4091 -0.2902  0.4255
  695MPD2    C210328   1.459   1.778  13.006  0.5834  0.3816 -0.1858
  695MPD2    C310329   1.414   1.795  12.875 -0.9923  0.2303  0.3183
  695MPD2    C410330   1.501   1.754  12.776  0.0735  0.5197  0.0738
  695MPD2    C510331   1.631   1.712  12.806  0.2974 -0.5299  0.2295
  695MPD2     H10332   1.402   1.816  13.089  0.5147 -0.4013  0.1241
  695MPD2    H110333   1.467   1.750  12.674  0.3037  0.7674 -0.0155
  695MPD2    H210334   1.771   1.630  12.949  0.0738 -0.0986 -2.4467
  695MPD2    H310335   1.707   1.691  12.731  3.4412  0.6147  3.1099
  695MPD2     N10336   1.287   1.854  12.848 -0.1167  0.1752 -0.3176
  695MPD2    H510337   1.216   1.871  12.919  1.3216 -1.2218  1.4778
  695MPD2    N110338   1.629   1.732  13.174  0.2198 -0.0692  0.4825
  695MPD2    H710339   1.560   1.764  13.242  1.3458  1.7934  0.7425
  696TMC3    C110340   1.125   1.968  12.731 -0.1977  0.7572  0.0646
  696TMC3    C210341   1.041   1.913  12.823  0.4760  0.4810  0.7159
  696TMC3    C310342   0.935   1.995  12.853 -0.1193 -0.0855 -1.0685
  696TMC3    C410343   1.107   2.080  12.657  0.0635 -0.4798 -0.1914
  696TMC3    C510344   0.996   2.159  12.691 -0.8834 -0.2195  0.1933
  696TMC3    C610345   0.910   2.116  12.787  0.2171 -0.1629 -0.5803
  696TMC3     C10346   1.253   1.901  12.720 -0.3444 -0.1979  1.1248
  696TMC3     O10347   1.319   1.919  12.620  0.0949  0.5002  0.6053
  696TMC3     H10348   1.052   1.822  12.880  2.5873  0.7053  0.6654
  696TMC3    H110349   1.187   2.114  12.593 -0.2115  1.1717  0.3278
  696TMC3    H210350   0.826   2.180  12.814 -0.1359  0.4129 -3.0683
  696TMC3    C710351   0.987   2.298  12.649 -0.3850  0.5457 -0.7308
  696TMC3    C810352   0.818   1.926  12.892  0.8249  0.0014 -0.0206
  696TMC3    O110353   0.988   2.322  12.529  0.0223  0.1145  0.2684
  696TMC3    O210354   0.802   1.814  12.846 -0.3382 -0.2226 -0.0362
  697MPD2     C10355   0.668   3.701  15.404  0.5591  0.3826 -0.3769
  697MPD2    C110356   0.699   3.623  15.293 -0.5414  0.5834 -0.4727
  697MPD2    C210357   0.723   3.693  15.176  0.0686 -0.3315  0.2369
  697MPD2    C310358   0.730   3.832  15.164 -0.2698  0.4109 -1.1337
  697MPD2    C410359   0.702   3.904  15.281  0.5957 -0.1156  0.1460
  697MPD2    C510360   0.669   3.836  15.395 -0.5741 -0.3074  0.5594
  697MPD2     H10361   0.720   3.636  15.083  1.1839 -0.5067  0.3050
  697MPD2    H110362   0.718   4.010  15.298 -0.5048 -0.1722  1.5268
  697MPD2    H210363   0.647   3.658  15.501  1.9620  1.3995  0.3743
  697MPD2    H310364   0.649   3.897  15.482  0.9375 -1.3794  1.6506
  697MPD2     N10365   0.773   3.887  15.038  0.0634 -0.2754 -0.9077
  697MPD2    H510366   0.795   3.825  14.961  2.4462  0.0981 -0.5098
  697MPD2    N110367   0.700   3.484  15.289 -0.7729  0.1794  0.2460
  697MPD2    H710368   0.714   3.436  15.200 -1.0060  2.2676 -0.9199
  698TMC3    C110369   0.821   4.072  14.887 -0.0834  0.7172  0.6724
  698TMC3    C210370   0.874   4.196  14.880  0.3912  0.3557 -0.0424
  698TMC3    C310371   0.954   4.237  14.776 -0.2769 -0.4512 -0.2779
  698TMC3    C410372   0.877   3.981  14.797  0.2034  0.0193  0.1503
  698TMC3    C510373   0.956   4.023  14.692  0.1340 -0.6255  0.5874
  698TMC3    C610374   1.001   4.151  14.681  1.0403  0.6134 -0.2317
  698TMC3     C10375   0.780   4.023  15.022  0.5116  0.3612 -0.4245
  698TMC3     O10376   0.760   4.116  15.097  0.3325  0.3819 -0.1266
  698TMC3     H10377   0.839   4.276  14.943 -0.6404  0.6503 -0.9785
  698TMC3    H110378   0.847   3.877  14.801  1.0947 -0.1800  1.9175
  698TMC3    H210379   1.046   4.195  14.593 -0.5571  2.8279  0.0562
  698TMC3    C710380   0.938   3.949  14.563  0.4850  0.3474 -0.0917
  698TMC3    C810381   0.911   4.366  14.721 -0.0532 -0.0584  0.1070
  698TMC3    O110382   0.846   3.871  14.552  0.1772 -0.4118  0.0046
  698TMC3    O210383   0.792   4.386  14.731  0.3287  0.0095  0.4736
  699TMC3    C110384   0.500   1.965  12.697  0.1047 -0.2713  0.2229
  699TMC3    C210385   0.498   1.827  12.725 -0.8276 -0.3896  0.5531
  699TMC3    C310386   0.377   1.780  12.759 -0.1717  0.9594  0.1516
  699TMC3    C410387   0.395   2.044  12.697  0.1197  0.6558  0.5429
  699TMC3    C510388   0.270   1.993  12.716  0.4447 -0.8256 -0.8083
  699TMC3    C610389   0.264   1.861  12.757 -0.2309  0.2176  0.3491
  699TMC3     C10390   0.612   2.015  12.623  0.0109 -0.1857  0.3149
  699TMC3     O10391   0.599   2.134  12.589  0.3656  0.3380  0.4777
  699TMC3     H10392   0.588   1.766  12.729 -0.4365  0.1951  0.6051
  699TMC3    H110393   0.389   2.145  12.658 -1.0394  0.3695 -0.0267
  699TMC3    H210394   0.176   1.808  12.793 -1.5036  1.1357 -1.3804
  699TMC3    C710395   0.156   2.081  12.710  0.7111  1.0815  1.1915
  699TMC3    C810396   0.356   1.635  12.780  0.3665 -0.1456 -0.4324
  699TMC3    O110397   0.172   2.195  12.662  0.7198  0.0656  0.3781
  699TMC3    O210398   0.253   1.612  12.837 -0.0447 -0.5810 -0.1050
  700TMC3    C110399   0.045   4.307  16.886  0.0160 -0.3008  0.6952
  700TMC3    C210400   0.046   4.177  16.906  1.1606 -0.6874 -0.7377
  700TMC3    C310401   0.144   4.130  16.989  0.4973  0.4707  0.0583
  700TMC3    C410402   0.116   4.393  16.961  0.2266 -0.3663  0.7461
  700TMC3    C510403   0.217   4.347  17.049 -0.6369 -0.0006 -0.3042
  700TMC3    C610404   0.234   4.215  17.057 -0.6527 -0.1234  0.1774
  700TMC3     C10405   4.713   4.344  16.761 -0.6041  0.6174  0.3789
  700TMC3     O10406   4.632   4.273  16.703  0.2008  0.2501  0.2451
  700TMC3     H10407   4.708   4.115  16.853  0.0921 -0.5430  0.5631
  700TMC3    H110408   0.091   4.499  16.965 -0.6185 -0.5188 -0.5977
  700TMC3    H210409   0.299   4.173  17.133 -0.6117 -1.8909 -0.8390
  700TMC3    C710410   0.219   4.419  17.170  0.3483 -0.5378  0.0188
  700TMC3    C810411   0.187   3.994  16.973  0.4591  0.0941 -0.4285
  700TMC3    O110412   0.328   4.426  17.226 -0.5426 -0.4912 -0.2452
  700TMC3    O210413   0.307   3.972  16.974  0.1725  0.5045 -0.1425
  701TMC3    C110414   0.384   2.776  15.100 -0.3254 -0.3586  0.4251
  701TMC3    C210415   0.431   2.726  14.975  0.4262  0.7255 -0.1987
  701TMC3    C310416   0.510   2.821  14.909  0.0980  0.1420  0.3448
  701TMC3    C410417   0.419   2.891  15.152  0.1940 -0.2267 -0.0902
  701TMC3    C510418   0.493   2.979  15.080 -0.1788  0.5011  0.8569
  701TMC3    C610419   0.545   2.945  14.957  0.4712 -0.1574 -0.4895
  701TMC3     C10420   0.265   2.718  15.164  0.1972  0.8429 -0.0801
  701TMC3     O10421   0.195   2.804  15.214  0.5189  0.1625  0.1565
  701TMC3     H10422   0.424   2.621  14.949 -0.8386  0.6578  0.3698
  701TMC3    H110423   0.388   2.916  15.253 -1.0686 -2.1780 -0.0112
  701TMC3    H210424   0.589   3.017  14.890  2.4295 -0.4787  0.4736
  701TMC3    C710425   0.492   3.120  15.104  0.0668  0.0371  0.5568
  701TMC3    C810426   0.505   2.818  14.766  0.4951  0.3439  0.1272
  701TMC3    O110427   0.567   3.192  15.038 -0.5815  0.0766 -0.4008
  701TMC3    O210428   0.600   2.874  14.716 -0.1238  0.1946  0.4103
  702MPD2     C10429   3.882   4.676  10.202 -0.1156 -0.0489  0.4852
  702MPD2    C110430   3.922   0.062  10.264 -0.1810  0.0765 -0.1369
  702MPD2    C210431   3.935   0.182  10.194 -0.2500  0.1527  0.5262
  702MPD2    C310432   3.892   0.187  10.060 -0.3416 -0.4342  0.0119
  702MPD2    C410433   3.842   0.077  10.005 -1.0621 -0.3727 -0.1716
  702MPD2    C510434   3.839   4.688  10.069 -0.1513 -0.1791 -0.1035
  702MPD2     H10435   3.969   0.269  10.249  0.8453  0.4658 -0.6525
  702MPD2    H110436   3.796   0.088   9.908 -2.2618  0.7213  0.5181
  702MPD2    H210437   3.879   4.583  10.256  0.7314  0.2118  0.9733
  702MPD2    H310438   3.791   4.600  10.026 -1.3285  1.3654 -1.9565
  702MPD2     N10439   3.897   0.305   9.975  0.2247  0.2002  0.2026
  702MPD2    H510440   3.844   0.303   9.889 -3.0121 -1.3060  2.2477
  702MPD2    N110441   3.933   0.054  10.407 -0.4838  0.2797 -0.0294
  702MPD2    H710442   3.862   4.732  10.454  0.4040  0.7023  1.8007
  703TMC3    C110443   3.952   0.538   9.932  0.1172 -0.7929 -0.5231
  703TMC3    C210444   3.822   0.563   9.893  0.6320 -0.2512  0.1754
  703TMC3    C310445   3.788   0.695   9.887 -0.8101 -1.2080  0.1458
  703TMC3    C410446   4.045   0.634   9.963  0.2832  0.0431  0.7126
  703TMC3    C510447   4.000   0.766   9.962 -0.0652 -0.0115  0.3220
  703TMC3    C610448   3.876   0.799   9.916  0.1452  0.1140  0.8944
  703TMC3     C10449   3.970   0.419  10.017 -0.2461 -0.3096  0.3566
  703TMC3     O10450   4.040   0.431  10.114 -0.3498 -0.3165  0.1989
  703TMC3     H10451   3.749   0.484   9.884 -2.0670  2.2704 -0.2784
  703TMC3    H110452   4.145   0.617  10.001  0.7691 -0.4402 -0.7656
  703TMC3    H210453   3.844   0.901   9.898 -2.5391 -0.5551  1.8853
  703TMC3    C710454   4.115   0.860   9.951 -0.4009 -0.1692 -0.7354
  703TMC3    C810455   3.648   0.729   9.888  0.3588  1.0148  0.0150
  703TMC3    O110456   4.126   0.932   9.853  0.6520 -0.2770  0.0899
  703TMC3    O210457   3.577   0.656   9.821 -0.1110  0.3268  0.2302
  704TMC3    C110458   2.247   3.762  12.328  0.6411 -0.5182 -0.1640
  704TMC3    C210459   2.382   3.737  12.317 -0.3904  0.5966 -0.5692
  704TMC3    C310460   2.447   3.646  12.393 -0.5299  0.1475 -0.3293
  704TMC3    C410461   2.175   3.693  12.424 -0.5641 -0.3797 -0.4582
  704TMC3    C510462   2.238   3.603  12.496 -0.1691  0.9431  0.5810
  704TMC3    C610463   2.372   3.575  12.483 -0.4203  0.9473  0.8069
  704TMC3     C10464   2.173   3.809  12.211 -0.5613  0.0913 -0.6670
  704TMC3     O10465   2.075   3.878  12.238 -0.0703 -0.0599  0.1054
  704TMC3     H10466   2.440   3.785  12.239 -0.5216  0.3659 -0.8069
  704TMC3    H110467   2.068   3.709  12.424 -0.6621 -1.0470 -1.3768
  704TMC3    H210468   2.420   3.493  12.535  0.4162  1.1476  0.3631
  704TMC3    C710469   2.152   3.488  12.545 -0.3426 -0.9962  0.4534
  704TMC3    C810470   2.561   3.579  12.330 -0.1124 -0.2643  0.1481
  704TMC3    O110471   2.218   3.387  12.581 -0.2106 -0.4600  0.0705
  704TMC3    O210472   2.568   3.600  12.212 -0.5190  0.3642  0.0135
  705MPD2     C10473   1.783   1.631  16.187 -0.6140 -0.0571  0.4958
  705MPD2    C110474   1.728   1.761  16.159  0.8076  0.1416 -0.7789
  705MPD2    C210475   1.620   1.808  16.239 -0.3539  0.0909 -0.7420
  705MPD2    C310476   1.549   1.714  16.314  0.2399  0.3817 -0.2641
  705MPD2    C410477   1.601   1.591  16.318 -0.0779 -0.0116  1.1617
  705MPD2    C510478   1.721   1.549  16.273 -0.6532 -0.2036 -1.2580
  705MPD2     H10479   1.571   1.903  16.225  1.0555  0.8863 -0.2664
  705MPD2    H110480   1.544   1.511  16.365 -0.6558 -0.1561  0.2247
  705MPD2    H210481   1.866   1.592  16.130  0.0544  2.0420  0.0212
  705MPD2    H310482   1.734   1.442  16.276 -0.2135 -0.1493 -1.2085
  705MPD2     N10483   1.418   1.748  16.359  0.4952 -0.3691 -0.6680
  705MPD2    H510484   1.383   1.842  16.342 -3.1948 -1.7744 -0.9890
  705MPD2    N110485   1.774   1.845  16.056 -0.3484  0.1366 -0.5908
  705MPD2    H710486   1.737   1.938  16.040 -1.7418 -0.4655 -0.8019
  706TMC3    C110487   1.880   1.870  15.614  0.1011 -0.6319 -0.3354
  706TMC3    C210488   1.835   2.000  15.604  0.5185 -0.0412  0.2837
  706TMC3    C310489   1.816   2.071  15.716  1.1143 -0.6504  0.0868
  706TMC3    C410490   1.916   1.815  15.730  0.2944 -0.2836  0.2247
  706TMC3    C510491   1.891   1.888  15.843 -0.1138 -0.1419 -0.0815
  706TMC3    C610492   1.836   2.015  15.845 -0.0821 -0.2760 -0.3218
  706TMC3     C10493   1.951   1.832  15.498 -0.7741  0.2500  0.7930
  706TMC3     O10494   2.068   1.808  15.506  0.2998 -0.7131  0.3306
  706TMC3     H10495   1.817   2.044  15.507  2.2151  1.2302  0.5547
  706TMC3    H110496   1.950   1.712  15.726 -2.3122 -1.1573  0.5781
  706TMC3    H210497   1.817   2.070  15.936  2.1644  0.6602 -0.4099
  706TMC3    C710498   1.880   1.809  15.969  0.0398  0.4996 -0.3137
  706TMC3    C810499   1.739   2.194  15.704 -0.5011 -0.1909 -1.0465
  706TMC3    O110500   1.947   1.710  15.965 -0.7855 -0.4843 -0.1996
  706TMC3    O210501   1.678   2.217  15.597  0.7328  0.5115 -0.2729
  707TMC3    C110502   3.457   0.764   1.004  0.4124 -0.1402  0.0735
  707TMC3    C210503   3.507   0.741   1.130 -0.6145  0.1394  0.0394
  707TMC3    C310504   3.459   0.640   1.211 -0.3644  0.0363  0.1699
  707TMC3    C410505   3.346   0.686   0.964  0.0916  0.6116  0.0076
  707TMC3    C510506   3.295   0.595   1.046 -0.0228 -0.0616 -0.1651
  707TMC3    C610507   3.349   0.568   1.172 -0.4320  0.1138 -0.3033
  707TMC3     C10508   3.564   0.754   0.906 -0.1634  0.2388  0.5208
  707TMC3     O10509   3.682   0.719   0.932 -0.2894 -0.1469  0.5927
  707TMC3     H10510   3.608   0.780   1.142 -0.5727 -0.7023  2.4230
  707TMC3    H110511   3.310   0.684   0.862  0.7604  0.1405 -0.2257
  707TMC3    H210512   3.321   0.482   1.231  1.5761  0.8291  1.7209
  707TMC3    C710513   3.172   0.522   1.013  0.2050  0.6039  0.0044
  707TMC3    C810514   3.566   0.572   1.281  0.7927 -0.2112  0.3055
  707TMC3    O110515   3.127   0.446   1.098 -0.6703  0.3160 -0.0777
  707TMC3    O210516   3.642   0.651   1.331 -0.0301 -0.0361  0.1339
  708MPD2     C10517   4.314   0.142  13.669  0.0657  0.1844 -0.3717
  708MPD2    C110518   4.260   0.042  13.750  0.2388  0.6716  0.0307
  708MPD2    C210519   4.343   4.714  13.841  0.5196 -0.6987 -0.2454
  708MPD2    C310520   4.477   0.018  13.860  0.0951 -0.0823 -0.6967
  708MPD2    C410521   4.530   0.115  13.782  0.0230  1.3643 -0.5198
  708MPD2    C510522   4.447   0.178  13.690  0.8545 -0.9031 -0.6187
  708MPD2     H10523   4.294   4.649  13.913  0.3095 -2.1176 -1.6703
  708MPD2    H110524   4.634   0.144  13.781  0.6640 -0.9069  2.1156
  708MPD2    H210525   4.252   0.218  13.621 -3.0334 -1.0439  1.6440
  708MPD2    H310526   4.481   0.264  13.634 -0.6721 -0.3483 -0.6907
  708MPD2     N10527   4.553   4.697  13.968 -0.1939 -0.3467  0.3985
  708MPD2    H510528   4.645   4.730  13.994 -0.9579  1.6089  0.5974
  708MPD2    N110529   4.128   0.026  13.759 -0.1009 -0.2441  0.1370
  708MPD2    H710530   4.095   4.710  13.841  0.3154 -1.1090 -0.2227
  709TMC3    C110531   3.901   0.090  13.710  0.0655  0.2874 -0.3372
  709TMC3    C210532   3.799   0.057  13.628  0.8566  0.1741 -0.1392
  709TMC3    C310533   3.675   0.082  13.680  0.8704 -0.9183 -0.1342
  709TMC3    C410534   3.888   0.133  13.841  0.4134  0.5003 -0.3762
  709TMC3    C510535   3.760   0.130  13.888  0.6332  0.9063 -0.9164
  709TMC3    C610536   3.653   0.109  13.813  0.4199 -0.1224 -0.5309
  709TMC3     C10537   4.046   0.082  13.665  0.1698  0.4547  0.4119
  709TMC3     O10538   4.069   0.098  13.546  0.4028 -0.2280  0.0370
  709TMC3     H10539   3.814   0.031  13.524 -0.4562 -2.0666  0.2316
  709TMC3    H110540   3.978   0.148  13.899 -0.6436 -2.1731  1.8981
  709TMC3    H210541   3.553   0.108  13.854  1.3562  1.3932  1.7587
  709TMC3    C710542   3.759   0.099  14.031 -0.4796  0.8084  0.1935
  709TMC3    C810543   3.556   0.039  13.613  0.1004 -0.3935 -0.1199
  709TMC3    O110544   3.831   0.169  14.104  0.2243  0.3741  0.2842
  709TMC3    O210545   3.470   4.721  13.679 -0.1045  0.0815  0.3301
  710TMC3    C110546   0.700   1.991  17.619  0.9074 -0.5008  0.1975
  710TMC3    C210547   0.750   1.988  17.487  0.4809 -0.2510 -0.3548
  710TMC3    C310548   0.766   1.866  17.427 -0.1261  0.0148  0.1128
  710TMC3    C410549   0.675   1.879  17.692 -0.0339  0.6538 -0.6253
  710TMC3    C510550   0.703   1.761  17.625  0.0998 -0.6089 -0.1970
  710TMC3    C610551   0.741   1.749  17.499 -0.6909  0.3264 -0.1664
  710TMC3     C10552   0.670   2.120  17.673  0.5806 -0.2311  0.2328
  710TMC3     O10553   0.725   2.220  17.635 -0.1902  0.8049  0.4353
  710TMC3     H10554   0.765   2.080  17.431 -0.7559 -0.2904 -0.7628
  710TMC3    H110555   0.637   1.877   0.058  2.9030  1.3029  0.4796
  710TMC3    H210556   0.769   1.648  17.470  1.3720  0.7605  0.3181
  710TMC3    C710557   0.692   1.645  17.708  0.0661  0.5304  0.0271
  710TMC3    C810558   0.879   1.856  17.337 -0.0813 -0.4928  0.3481
  710TMC3    O110559   0.671   1.535  17.653 -0.1106  0.2966  0.4455
  710TMC3    O210560   0.985   1.909  17.369  0.1201 -0.2192 -0.6693
  711TMC3    C110561   0.750   2.430  14.432 -0.8241 -0.0316  0.2931
  711TMC3    C210562   0.683   2.423  14.551  0.3342 -0.6087  0.1865
  711TMC3    C310563   0.706   2.530  14.633 -0.1257  0.1568  0.5662
  711TMC3    C410564   0.853   2.527  14.411  0.8261  0.2766  0.0957
  711TMC3    C510565   0.857   2.631  14.498 -0.2615 -0.6381 -0.5518
  711TMC3    C610566   0.778   2.638  14.603 -0.2300 -0.0847 -0.2523
  711TMC3     C10567   0.712   2.342  14.329  0.8271 -0.4162 -0.4956
  711TMC3     O10568   0.612   2.270  14.343 -0.6687  0.0728 -0.1815
  711TMC3     H10569   0.617   2.340  14.572  0.5624 -1.0678 -0.9071
  711TMC3    H110570   0.906   2.537  14.316 -0.3191  0.3235 -0.5351
  711TMC3    H210571   0.780   2.727  14.664 -1.2062 -0.7792  0.7908
  711TMC3    C710572   0.988   2.667  14.546  0.0232  0.1140  0.5319
  711TMC3    C810573   0.694   2.489  14.777  0.1594  1.0243  0.0430
  711TMC3    O110574   1.005   2.653  14.666  0.4162  0.3044  0.2948
  711TMC3    O210575   0.614   2.403  14.811  0.1070  0.0436  0.6037
  712MPD2     C10576   1.969   3.552  13.808  0.9707  0.2909 -0.5488
  712MPD2    C110577   1.877   3.607  13.725 -0.1671  0.1554  0.1393
  712MPD2    C210578   1.834   3.737  13.746 -0.7547 -0.0248  0.4811
  712MPD2    C310579   1.879   3.814  13.854 -0.4927  0.0933  0.1979
  712MPD2    C410580   1.957   3.748  13.946 -0.5801  0.3881  0.0663
  712MPD2    C510581   2.007   3.622  13.921 -0.8606 -0.8926 -0.2848
  712MPD2     H10582   1.769   3.787  13.675 -1.2963  0.8306  1.5686
  712MPD2    H110583   1.994   3.801  14.034  0.1033 -1.2560  0.7702
  712MPD2    H210584   2.013   3.453  13.797 -1.5542 -0.7880 -1.1313
  712MPD2    H310585   2.082   3.585  13.991 -0.4049  0.6935  0.0612
  712MPD2     N10586   1.851   3.952  13.870 -0.0561  0.0367 -0.1699
  712MPD2    H510587   1.903   3.999  13.944  0.9082 -1.3041  0.0037
  712MPD2    N110588   1.819   3.537  13.614 -0.0366 -0.1039  0.3403
  712MPD2    H710589   1.758   3.586  13.550 -0.8711 -1.9451 -0.2745
  713TMC3    C110590   1.773   4.171  13.813  0.0944  0.6840  0.0893
  713TMC3    C210591   1.899   4.226  13.817 -1.1049  0.3793  0.7803
  713TMC3    C310592   1.915   4.345  13.765 -0.0057  0.6954 -0.6682
  713TMC3    C410593   1.661   4.238  13.769 -0.8871  0.0020  0.4103
  713TMC3    C510594   1.688   4.357  13.718 -0.2436  0.8064 -0.0539
  713TMC3    C610595   1.809   4.417  13.735  0.0646  0.2145  1.0901
  713TMC3     C10596   1.758   4.023  13.797 -0.0955 -0.2917 -0.6805
  713TMC3     O10597   1.683   3.989  13.704  0.2336 -0.4518 -0.1080
  713TMC3     H10598   1.983   4.163  13.843 -0.4361  1.7823  2.0336
  713TMC3    H110599   1.567   4.186  13.753 -0.3366 -1.7064  2.8179
  713TMC3    H210600   1.818   4.520  13.701  3.2396 -0.0419  1.1602
  713TMC3    C710601   1.647   4.350  13.573 -0.6782  1.0330  0.2680
  713TMC3    C810602   2.051   4.406  13.742 -0.6836  0.1480 -0.1339
  713TMC3    O110603   1.534   4.315  13.555  0.0138 -0.2695  0.3685
  713TMC3    O210604   2.058   4.511  13.680  0.5510  0.3430 -0.4856
  714MPD2     C10605   4.341   2.043   1.298 -0.2401  0.4975 -0.7668
  714MPD2    C110606   4.327   1.918   1.239 -0.3904 -0.0582  0.3938
  714MPD2    C210607   4.219   1.895   1.147  0.6518 -0.1812 -0.6591
  714MPD2    C310608   4.135   2.001   1.110 -0.0946 -0.3674 -0.1127
  714MPD2    C410609   4.157   2.126   1.166  0.5705  0.6083  0.5374
  714MPD2    C510610   4.259   2.147   1.255 -0.3232  0.3096 -0.1437
  714MPD2     H10611   4.206   1.802   1.093 -1.2861 -0.9457  1.0965
  714MPD2    H110612   4.093   2.212   1.148 -1.8590 -1.1556  0.7129
  714MPD2    H210613   4.426   2.064   1.362 -2.2803 -0.8452  2.3713
  714MPD2    H310614   4.263   2.250   1.290  0.5699 -0.6089  2.5164
  714MPD2     N10615   4.043   1.983   1.012  0.2218  0.2830 -0.1323
  714MPD2    H510616   4.020   1.888   0.984  1.1765 -0.4009  1.4092
  714MPD2    N110617   4.418   1.820   1.271  0.3809  0.5426  0.0517
  714MPD2    H710618   4.497   1.841   1.332  0.6288 -0.8993  0.2164
  715TMC3    C110619   4.554   1.638   1.243  0.4073  0.5268 -0.0081
  715TMC3    C210620   4.594   1.559   1.138  1.0824  0.0889  0.1976
  715TMC3    C310621   4.725   1.556   1.096  0.1231 -0.4209  0.4073
  715TMC3    C410622   4.650   1.705   1.319  0.5504  0.0130 -0.1523
  715TMC3    C510623   0.050   1.697   1.276  0.2817  0.6756  0.0675
  715TMC3    C610624   0.088   1.631   1.158 -0.1162  0.7906 -0.3626
  715TMC3     C10625   4.421   1.697   1.216  0.9497  1.0992  0.2387
  715TMC3     O10626   4.340   1.627   1.157 -0.4374  0.8961  0.3530
  715TMC3     H10627   4.525   1.513   1.068  2.9485  1.0529 -2.2924
  715TMC3    H110628   4.635   1.763   1.410 -0.7851 -2.6696  1.3359
  715TMC3    H210629   0.194   1.614   1.143  0.0189  0.5952  0.7980
  715TMC3    C710630   0.151   1.678   1.382 -0.0069  0.1582  0.1785
  715TMC3    C810631   0.020   1.494   0.968 -0.5531  0.0901 -0.0856
  715TMC3    O110632   0.262   1.730   1.360 -0.3297 -0.2357 -0.5839
  715TMC3    O210633   4.669   1.421   0.917 -0.0662 -0.4704 -0.2581
  716MPD2     C10634   4.085   0.324   8.733 -0.2140 -0.2203  0.2032
  716MPD2    C110635   3.974   0.248   8.726  0.1423 -0.3271  0.3464
  716MPD2    C210636   3.981   0.111   8.733  0.9875  0.6491 -0.0983
  716MPD2    C310637   4.102   0.051   8.760 -0.4753 -0.3562  0.6215
  716MPD2    C410638   4.214   0.129   8.771  0.3891 -0.1683 -0.2329
  716MPD2    C510639   4.207   0.265   8.751 -0.6746  0.1969 -0.1477
  716MPD2     H10640   3.891   0.050   8.726  1.2535  0.3757 -1.1598
  716MPD2    H110641   4.311   0.083   8.790 -0.9934 -2.4777  1.1898
  716MPD2    H210642   4.087   0.433   8.734 -0.7349 -0.2109  0.3843
  716MPD2    H310643   4.295   0.325   8.773  0.4385 -1.4621 -0.1045
  716MPD2     N10644   4.100   4.640   8.769  0.2578 -0.0516  0.0438
  716MPD2    H510645   4.013   4.598   8.740 -1.5405  2.1687  2.1620
  716MPD2    N110646   3.843   0.313   8.722 -0.0053 -0.0295 -0.0706
  716MPD2    H710647   3.842   0.411   8.745 -0.5360  0.2000 -1.0535
  717TMC3    C110648   4.154   4.421   8.827  0.4835 -0.8421  0.3097
  717TMC3    C210649   4.043   4.377   8.763  0.0596 -0.2226 -0.1595
  717TMC3    C310650   3.998   4.247   8.778  0.2471 -0.5953 -0.6364
  717TMC3    C410651   4.222   4.329   8.906  1.3126 -0.5897  0.0161
  717TMC3    C510652   4.176   4.201   8.912  0.9341  0.2394 -0.5473
  717TMC3    C610653   4.062   4.157   8.861 -0.1308  0.0320 -0.1689
  717TMC3     C10654   4.196   4.562   8.829  0.2926 -0.1248 -0.9656
  717TMC3     O10655   4.307   4.591   8.871 -0.2403 -0.1610  0.0657
  717TMC3     H10656   3.998   4.434   8.683  2.2783  2.5461  0.5452
  717TMC3    H110657   4.309   4.364   8.961  0.1469  0.6781  1.0538
  717TMC3    H210658   4.032   4.055   8.885  3.1640 -0.7165  0.8433
  717TMC3    C710659   4.243   4.124   9.013 -0.2713 -0.2350 -0.6678
  717TMC3    C810660   3.886   4.206   8.697  0.4684 -0.4143  0.2567
  717TMC3    O110661   4.283   4.172   9.116 -0.1797  0.2596  0.2711
  717TMC3    O210662   3.833   4.291   8.623  0.0203 -0.3397 -0.5359
  718MPD2     C10663   3.948   3.667  12.478 -0.1563  0.1540 -0.6056
  718MPD2    C110664   3.857   3.678  12.380 -0.0416  0.2608 -0.2370
  718MPD2    C210665   3.725   3.681  12.407 -0.2946 -0.4972  1.0799
  718MPD2    C310666   3.683   3.651  12.536  0.5234 -0.5940 -0.2254
  718MPD2    C410667   3.773   3.635  12.633 -0.0144  0.0992 -0.5616
  718MPD2    C510668   3.909   3.646  12.609 -0.2262 -0.7472  0.2805
  718MPD2     H10669   3.645   3.700  12.336  0.6910 -1.1381 -0.1846
  718MPD2    H110670   3.740   3.616  12.735 -1.5349  1.0149 -0.8807
  718MPD2    H210671   4.052   3.660  12.447 -0.1152  0.7956 -0.6060
  718MPD2    H310672   3.979   3.627  12.690 -0.8232 -1.1884  0.6886
  718MPD2     N10673   3.542   3.648  12.552  0.0674  0.2776  0.4319
  718MPD2    H510674   3.477   3.680  12.481 -0.1376  0.4254  0.6884
  718MPD2    N110675   3.904   3.716  12.246 -0.0817  0.8001 -0.2637
  718MPD2    H710676   4.003   3.736  12.235 -0.4355  2.0275 -1.2244
  719TMC3    C110677   3.880   3.759  12.018  0.2486 -0.2151 -0.1997
  719TMC3    C210678   3.798   3.731  11.911 -0.4993 -0.0957  0.2645
  719TMC3    C310679   3.758   3.845  11.844  0.2719 -0.1445  0.2227
  719TMC3    C410680   3.943   3.879  12.032 -0.1542  0.3931 -0.2172
  719TMC3    C510681   3.908   3.984  11.957  0.4789  0.0157 -0.6398
  719TMC3    C610682   3.821   3.968  11.854 -0.4366 -0.0877 -0.1528
  719TMC3     C10683   3.826   3.709  12.136 -0.7244 -0.0650 -0.3379
  719TMC3     O10684   3.720   3.655  12.124  0.1532  0.4214  0.1236
  719TMC3     H10685   3.758   3.633  11.888  1.1790 -0.9260  0.9132
  719TMC3    H110686   3.986   3.895  12.130 -1.6079 -0.3071  0.5297
  719TMC3    H210687   3.775   4.054  11.808 -2.1806 -1.6672 -1.3701
  719TMC3    C710688   3.986   4.109  11.963 -0.2254 -0.1712  1.0113
  719TMC3    C810689   3.613   3.852  11.831  0.1190  0.0288  0.6567
  719TMC3    O110690   3.992   4.174  11.862  0.4803 -0.1084 -0.1524
  719TMC3    O210691   3.573   3.941  11.757  0.4709 -0.2657  0.5339
  720MPD2     C10692   1.793   1.043  13.781  0.3807 -0.7566 -0.0267
  720MPD2    C110693   1.895   1.057  13.688 -0.0451  0.1719  0.0866
  720MPD2    C210694   2.021   1.063  13.735  0.0114 -0.8729 -0.0998
  720MPD2    C310695   2.055   1.050  13.868  0.3545 -0.3326  0.2882
  720MPD2    C410696   1.955   1.021  13.954  1.0631 -0.2717 -0.0103
  720MPD2    C510697   1.825   1.007  13.913 -0.6416 -0.2325 -0.3685
  720MPD2     H10698   2.105   1.075  13.667 -1.1172 -1.4595 -1.6162
  720MPD2    H110699   1.971   1.000  14.059  0.6771 -0.5101  0.0007
  720MPD2    H210700   1.686   1.035  13.764  0.5330  0.5965 -1.6274
  720MPD2    H310701   1.748   0.966  13.978  1.1110 -2.7055  0.1287
  720MPD2     N10702   2.192   1.073  13.903  0.2384 -0.1478  0.2873
  720MPD2    H510703   2.255   1.082  13.823  0.2916 -0.2560  0.3178
  720MPD2    N110704   1.875   1.100  13.555 -0.2307 -0.2097  0.2856
  720MPD2    H710705   1.956   1.119  13.497 -0.8437  0.7231 -0.2620
  721TMC3    C110706   2.386   1.087  14.035  0.1769  0.3160  0.1853
  721TMC3    C210707   2.456   1.089  14.159 -0.2610  0.3530 -0.1553
  721TMC3    C310708   2.589   1.059  14.167 -0.4731 -0.3265  0.0966
  721TMC3    C410709   2.462   1.074  13.924 -0.4466  0.7045  0.1474
  721TMC3    C510710   2.602   1.065  13.939  0.7112 -0.7132  0.2188
  721TMC3    C610711   2.665   1.049  14.056 -0.0937  0.6925  0.6581
  721TMC3     C10712   2.245   1.058  14.032 -0.2573 -0.8921  1.2569
  721TMC3     O10713   2.190   1.042  14.140  0.2253  1.0681 -0.4545
  721TMC3     H10714   2.397   1.098  14.249  1.4510  1.1756  0.9031
  721TMC3    H110715   2.421   1.056  13.826  1.1119  2.5886 -0.8607
  721TMC3    H210716   2.772   1.032  14.068 -0.0029  1.1287  0.4634
  721TMC3    C710717   2.687   1.073  13.822 -0.1996  0.2050  0.0707
  721TMC3    C810718   2.671   1.084  14.288 -0.6053 -0.4625  0.0787
  721TMC3    O110719   2.805   1.046  13.827 -0.3401 -0.6109 -0.3932
  721TMC3    O210720   2.794   1.074  14.275  0.0319  0.3884 -0.2425
  722MPD2     C10721   1.080   4.464  12.314  0.4964  1.0822  0.3158
  722MPD2    C110722   1.017   4.517  12.421  0.9757 -0.2186 -0.0698
  722MPD2    C210723   0.882   4.542  12.413 -1.1083  0.2730 -0.6797
  722MPD2    C310724   0.810   4.516  12.303 -1.0951  0.2848 -0.2002
  722MPD2    C410725   0.881   4.467  12.196  0.0155 -0.2013 -0.3436
  722MPD2    C510726   1.013   4.445  12.194  0.1238 -0.5060  0.4162
  722MPD2     H10727   0.835   4.594  12.496  2.0046 -1.1735  1.9936
  722MPD2    H110728   0.818   4.458  12.108 -0.2041 -0.1727 -0.1900
  722MPD2    H210729   1.186   4.440  12.313  0.2495 -0.0950  2.0559
  722MPD2    H310730   1.068   4.406  12.109 -1.7145  0.5502 -1.2515
  722MPD2     N10731   0.673   4.549  12.304 -0.5092  0.0704  0.6085
  722MPD2    H510732   0.636   4.557  12.399 -2.2124 -0.5110 -0.0040
  722MPD2    N110733   1.072   4.543  12.546  0.2051 -0.0643  0.0644
  722MPD2    H710734   1.008   4.591  12.609 -2.2515  0.7211 -3.0554
  723TMC3    C110735   0.453   4.584  12.220 -0.0727 -0.4057 -0.1798
  723TMC3    C210736   0.405   4.514  12.328 -0.4048 -0.3882 -0.2727
  723TMC3    C310737   0.284   4.552  12.372 -0.2980 -0.3679 -0.1779
  723TMC3    C410738   0.395   4.691  12.162 -0.0350 -0.2192 -0.0339
  723TMC3    C510739   0.288   0.002  12.226 -0.4910 -0.8590 -0.8403
  723TMC3    C610740   0.231   4.671  12.324  0.4969 -1.0967  0.0840
  723TMC3     C10741   0.598   4.573  12.188  0.6643  0.5671  0.4711
  723TMC3     O10742   0.631   4.594  12.075  0.1591  0.4561 -0.1032
  723TMC3     H10743   0.456   4.436  12.383 -1.5531  1.3945  3.3333
  723TMC3    H110744   0.438   4.730  12.070 -2.2233  0.4893 -0.7511
  723TMC3    H210745   0.138   4.701  12.371 -0.0149  1.1079 -2.3470
  723TMC3    C710746   0.250   0.141  12.192 -0.4839 -0.3060  0.2176
  723TMC3    C810747   0.198   4.476  12.457  0.5421  0.5897 -0.0733
  723TMC3    O110748   0.319   0.203  12.115  0.0500 -0.2376  0.5328
  723TMC3    O210749   0.109   4.532  12.517 -0.0103  0.0489 -0.4101
  724TMC3    C110750   1.904   3.303  10.716  0.5052  0.1938 -0.2939
  724TMC3    C210751   1.814   3.204  10.750 -0.5371  0.2669  0.8667
  724TMC3    C310752   1.786   3.119  10.653 -0.2993 -0.4287  0.6710
  724TMC3    C410753   1.971   3.309  10.598  0.4590  0.4041  0.1407
  724TMC3    C510754   1.949   3.215  10.506 -0.6488 -0.1601  0.3458
  724TMC3    C610755   1.858   3.116  10.531 -0.7289  0.3647  0.2218
  724TMC3     C10756   1.932   3.412  10.811 -0.4404  0.5452 -0.1377
  724TMC3     O10757   2.038   3.472  10.789 -0.8998 -0.2631 -0.1018
  724TMC3     H10758   1.749   3.206  10.836 -0.3825 -1.6915  1.0322
  724TMC3    H110759   2.043   3.388  10.584  0.7155 -0.1222 -1.5463
  724TMC3    H210760   1.839   3.056  10.443  2.4510 -1.5619  0.8226
  724TMC3    C710761   2.049   3.205  10.395  0.0259  0.1605  0.0991
  724TMC3    C810762   1.660   3.053  10.657 -0.1264  1.2174  0.4196
  724TMC3    O110763   2.076   3.092  10.361 -0.0765 -0.2267 -0.2845
  724TMC3    O210764   1.564   3.100  10.717  0.0434 -0.0990  0.1694
  725TMC3    C110765   2.744   1.298  12.489 -0.0322 -0.2210 -0.0512
  725TMC3    C210766   2.644   1.369  12.434  0.1544  0.3738  0.3903
  725TMC3    C310767   2.518   1.311  12.425 -0.2797  0.2720  0.0377
  725TMC3    C410768   2.723   1.179  12.557  0.0371  0.7330 -0.3399
  725TMC3    C510769   2.597   1.127  12.553  0.3065 -0.1450 -0.0877
  725TMC3    C610770   2.496   1.190  12.486 -0.0623  0.6053  0.3454
  725TMC3     C10771   2.860   1.380  12.517  0.2060 -0.3873  0.4495
  725TMC3     O10772   2.855   1.498  12.487  0.3576  0.3822 -0.1363
  725TMC3     H10773   2.664   1.458  12.376 -0.6743  0.3065  0.0057
  725TMC3    H110774   2.800   1.119  12.605 -0.6281  0.9312  0.9728
  725TMC3    H210775   2.402   1.137  12.480 -0.5809  1.6115 -0.3526
  725TMC3    C710776   2.588   0.978  12.553  0.6950  0.4275 -0.3350
  725TMC3    C810777   2.454   1.318  12.295  0.3198  0.8457  0.0025
  725TMC3    O110778   2.474   0.932  12.573 -0.6595 -0.2922 -0.1592
  725TMC3    O210779   2.351   1.252  12.281 -0.0147  0.2672 -0.1747
  726MPD2     C10780   0.360   2.847  10.293  0.2727  0.3765 -0.0988
  726MPD2    C110781   0.233   2.860  10.239 -0.7927 -0.2478  0.3404
  726MPD2    C210782   0.157   2.744  10.218  0.2919 -0.6048 -0.4169
  726MPD2    C310783   0.214   2.616  10.247 -0.2547  0.8241  0.1765
  726MPD2    C410784   0.345   2.607  10.282 -0.6228 -0.1060 -0.2596
  726MPD2    C510785   0.418   2.721  10.312 -0.5655 -0.7572 -0.1714
  726MPD2     H10786   0.052   2.753  10.192  0.0321  0.3158  0.9910
  726MPD2    H110787   0.394   2.517  10.318  1.7135  1.3414  0.2000
  726MPD2    H210788   0.416   2.930  10.336  1.3768  1.8414 -4.3760
  726MPD2    H310789   0.511   2.716  10.368  0.1359  0.7027 -1.2094
  726MPD2     N10790   0.142   2.495  10.257  0.5059  0.4282  0.2002
  726MPD2    H510791   0.192   2.410  10.282  1.6789  0.8861 -0.6248
  726MPD2    N110792   0.164   2.978  10.230 -0.3551  0.4150  0.5526
  726MPD2    H710793   0.081   2.974  10.172  0.6450 -0.3651 -0.8200
  727TMC3    C110794   0.145   3.220  10.254  0.3109  0.0465  0.5935
  727TMC3    C210795   0.202   3.334  10.307  0.3517  0.6581 -0.2715
  727TMC3    C310796   0.188   3.450  10.238  0.1497 -0.2455 -0.0290
  727TMC3    C410797   0.069   3.224  10.136  0.0194  0.0160  0.7502
  727TMC3    C510798   0.054   3.345  10.069 -0.0275 -0.4925  0.1826
  727TMC3    C610799   0.118   3.458  10.119 -0.0025  0.1538 -0.7325
  727TMC3     C10800   0.205   3.092  10.299  0.4467  0.2835 -0.3154
  727TMC3     O10801   0.286   3.111  10.391  0.2225 -0.3899  0.0167
  727TMC3     H10802   0.267   3.342  10.393 -0.8215  3.0194  0.3857
  727TMC3    H110803   0.008   3.141  10.103  0.3914 -0.1701  0.5399
  727TMC3    H210804   0.106   3.556  10.073 -1.8271  0.3272  0.0971
  727TMC3    C710805   4.697   3.353   9.955  0.3121  0.7593  0.1682
  727TMC3    C810806   0.285   3.546  10.279 -0.3929 -0.9358  0.5120
  727TMC3    O110807   4.632   3.254   9.916  0.4888 -0.5569 -0.7158
  727TMC3    O210808   0.386   3.510  10.342  0.8453 -0.4867  0.0048
  728TMC3    C110809   0.063   1.357  14.734  0.3652  0.7793 -0.1585
  728TMC3    C210810   0.199   1.377  14.737  0.6213 -0.1208  0.2923
  728TMC3    C310811   0.250   1.446  14.634  0.4059 -0.0492 -0.0823
  728TMC3    C410812   4.714   1.380  14.624 -0.6988  1.0960 -0.4513
  728TMC3    C510813   0.037   1.450  14.520  0.1693 -0.1071  0.0051
  728TMC3    C610814   0.171   1.485  14.525 -1.0005 -0.1138 -0.0851
  728TMC3     C10815   4.733   1.372  14.865  0.5489 -0.4778  0.1353
  728TMC3     O10816   0.080   1.378  14.953 -0.3466 -0.6946 -0.2932
  728TMC3     H10817   0.263   1.349  14.820 -0.2696 -1.4131  0.5445
  728TMC3    H110818   4.609   1.353  14.614 -0.1848 -1.0593 -0.0453
  728TMC3    H210819   0.215   1.525  14.434 -1.9240  0.2644 -0.3700
  728TMC3    C710820   4.715   1.424  14.385 -0.2496  0.0373  0.1171
  728TMC3    C810821   0.393   1.478  14.636  0.0800  0.0283  0.1724
  728TMC3    O110822   4.650   1.318  14.377 -0.5378 -0.1300 -0.3712
  728TMC3    O210823   0.465   1.411  14.707 -0.3906 -0.3908 -0.1659
  729MPD2     C10824   2.091   2.901  16.030  0.6392  0.2290  0.2746
  729MPD2    C110825   2.182   2.824  16.095 -0.1772  0.0281 -0.1994
  729MPD2    C210826   2.159   2.783  16.224 -0.1358  0.1604 -0.4808
  729MPD2    C310827   2.035   2.804  16.281 -0.7098 -0.5956 -0.3601
  729MPD2    C410828   1.939   2.878  16.210 -0.1824 -0.2389  0.9264
  729MPD2    C510829   1.974   2.925  16.082  0.0089  0.0103  0.8128
  729MPD2     H10830   2.240   2.727  16.269  1.4585  0.6595 -2.7278
  729MPD2    H110831   1.846   2.920  16.248 -0.9634 -1.5912  0.5086
  729MPD2    H210832   2.110   2.940  15.931 -1.9936  1.7478  0.3580
  729MPD2    H310833   1.904   2.990  16.032 -0.8751 -1.2401  0.4150
  729MPD2     N10834   2.005   2.770  16.412 -0.6653 -0.2513 -0.2695
  729MPD2    H510835   1.922   2.816  16.448  0.3299  0.5464  1.0082
  729MPD2    N110836   2.296   2.799  16.021 -0.0274  0.2243 -0.1296
  729MPD2    H710837   2.301   2.851  15.933 -1.0258  0.5457  0.0019
  730TMC3    C110838   2.077   2.753  16.640  0.5918  0.5273 -0.1126
  730TMC3    C210839   2.171   2.699  16.718  0.0445 -0.0727  0.2360
  730TMC3    C310840   2.218   2.776  16.822  0.4246  0.5008 -0.9016
  730TMC3    C410841   2.006   2.863  16.672 -0.2128  0.3949 -0.4392
  730TMC3    C510842   2.050   2.928  16.785  0.6828  0.0366  0.2987
  730TMC3    C610843   2.153   2.886  16.866  0.1194 -0.0307 -0.1496
  730TMC3     C10844   2.083   2.707  16.503  0.3166 -0.1961  0.4567
  730TMC3     O10845   2.175   2.630  16.482 -0.4262  0.0663  0.0763
  730TMC3     H10846   2.228   2.611  16.690  1.8621 -0.0900  4.0057
  730TMC3    H110847   1.934   2.910  16.606  0.1447 -0.1607 -1.2325
  730TMC3    H210848   2.178   2.936  16.959 -1.1442 -0.4092  0.4020
  730TMC3    C710849   2.016   3.065  16.782  0.0320  0.5576 -0.2574
  730TMC3    C810850   2.364   2.787  16.814  0.8791 -0.0369 -0.3370
  730TMC3    O110851   1.990   3.103  16.668  0.2187 -0.3631 -0.9308
  730TMC3    O210852   2.423   2.705  16.746 -0.4431 -0.6247  0.0038
  731MPD2     C10853   2.666   0.226  12.226 -0.5439  0.3156  0.0164
  731MPD2    C110854   2.563   0.257  12.141  0.0105 -0.3458  0.6090
  731MPD2    C210855   2.431   0.252  12.196  0.3170 -0.0770 -0.6214
  731MPD2    C310856   2.404   0.200  12.321 -0.3501  0.1301 -0.4736
  731MPD2    C410857   2.513   0.153  12.391 -0.0556  0.5118  0.2371
  731MPD2    C510858   2.641   0.175  12.347  0.7681  1.1942 -0.4374
  731MPD2     H10859   2.350   0.287  12.133  2.5918  2.0451 -2.3473
  731MPD2    H110860   2.496   0.100  12.483  1.7510 -0.5964 -0.0825
  731MPD2    H210861   2.769   0.248  12.203 -0.8507  1.4245 -0.2948
  731MPD2    H310862   2.719   0.145  12.416 -1.8825 -1.1784  1.4875
  731MPD2     N10863   2.267   0.185  12.361  0.5131 -0.0993 -0.3102
  731MPD2    H510864   2.192   0.219  12.301  1.2729  0.9269 -0.6863
  731MPD2    N110865   2.584   0.315  12.011 -0.0304  0.3001 -0.4431
  731MPD2    H710866   2.681   0.337  11.989  0.3523  0.2525  1.1473
  732TMC3    C110867   2.547   0.371  11.778  0.5987  0.3201  0.0381
  732TMC3    C210868   2.465   0.342  11.675  0.0956 -0.8104 -0.2119
  732TMC3    C310869   2.454   0.430  11.568  0.0519 -0.1741  0.4253
  732TMC3    C410870   2.630   0.481  11.765 -0.6302 -0.2981  0.3466
  732TMC3    C510871   2.628   0.553  11.649 -0.1045 -0.1412 -0.4653
  732TMC3    C610872   2.537   0.532  11.553 -0.6270 -0.0911  0.1802
  732TMC3     C10873   2.489   0.328  11.907 -0.1197  0.5071 -0.2405
  732TMC3     O10874   2.369   0.299  11.918  0.3712 -0.3291 -0.2641
  732TMC3     H10875   2.389   0.266  11.685 -0.8842 -0.0473 -1.7563
  732TMC3    H110876   2.691   0.505  11.852  0.1100  0.4848 -0.3886
  732TMC3    H210877   2.519   0.611  11.480  2.2424 -0.4946 -0.9506
  732TMC3    C710878   2.750   0.621  11.613  0.0848  0.6917 -0.1977
  732TMC3    C810879   2.338   0.414  11.482  1.0406  0.0510 -0.3411
  732TMC3    O110880   2.738   0.695  11.513  0.0497 -0.4130 -0.0666
  732TMC3    O210881   2.255   0.325  11.497  0.2870  0.2290  0.0665
  733TMC3    C110882   3.099   3.573  12.681  0.0912 -0.9083 -0.4716
  733TMC3    C210883   3.234   3.577  12.720 -0.1736  0.3809  0.6194
  733TMC3    C310884   3.332   3.588  12.620 -0.5087 -0.3813 -0.5795
  733TMC3    C410885   3.071   3.588  12.548 -0.1246 -0.0757  0.0934
  733TMC3    C510886   3.167   3.586  12.456 -0.4792  0.1646  0.0705
  733TMC3    C610887   3.301   3.579  12.484 -0.0902  0.3921 -0.1427
  733TMC3     C10888   2.992   3.599  12.773  0.8332 -0.6470 -0.9728
  733TMC3     O10889   2.897   3.662  12.725  0.1883 -0.1157 -0.2707
  733TMC3     H10890   3.258   3.585  12.826 -2.1544  3.8858  0.8094
  733TMC3    H110891   2.966   3.593  12.521  0.3287 -0.6074 -1.7082
  733TMC3    H210892   3.379   3.545  12.416 -0.6951 -2.3667  0.5186
  733TMC3    C710893   3.125   3.667  12.341 -0.0463 -1.1494  0.5934
  733TMC3    C810894   3.474   3.615  12.665  0.0926 -0.4217 -0.2350
  733TMC3    O110895   3.019   3.730  12.344 -0.2909 -0.4633  0.1901
  733TMC3    O210896   3.509   3.600  12.782  0.1005  0.0522  0.2136
  734MPD2     C10897   0.284   1.534  11.973 -0.0048 -0.4275  0.0744
  734MPD2    C110898   0.187   1.470  11.903 -0.3865  0.1469 -0.6068
  734MPD2    C210899   0.196   1.462  11.768 -0.1741 -0.3075  0.2223
  734MPD2    C310900   0.312   1.505  11.707  0.0188  0.4799 -0.2871
  734MPD2    C410901   0.413   1.570  11.772  0.1623  0.3928  0.3065
  734MPD2    C510902   0.397   1.585  11.906 -0.3156  0.0946 -0.1922
  734MPD2     H10903   0.115   1.415  11.713 -0.8233  2.8906 -1.5671
  734MPD2    H110904   0.500   1.613  11.724  0.4244 -0.2365  0.2033
  734MPD2    H210905   0.270   1.535  12.081 -2.8345 -1.3243 -0.2963
  734MPD2    H310906   0.477   1.626  11.967 -1.0640  0.4184  0.5674
  734MPD2     N10907   0.319   1.468  11.575 -0.2145 -0.2346  0.5196
  734MPD2    H510908   0.230   1.426  11.548 -0.4567  0.8038 -0.3274
  734MPD2    N110909   0.082   1.407  11.970  0.4472 -0.3386  0.0866
  734MPD2    H710910   0.085   1.398  12.071 -2.8680 -2.8096 -0.0316
  735TMC3    C110911   4.656   1.230  12.011 -0.2110  0.5258  0.3898
  735TMC3    C210912   4.554   1.176  11.943 -0.3315 -0.1704  0.2282
  735TMC3    C310913   4.544   1.042  11.922  0.2128 -0.0074 -1.0880
  735TMC3    C410914   0.007   1.153  12.073  0.0188  0.2522 -0.5605
  735TMC3    C510915   0.016   1.019  12.040 -0.3687 -0.8210 -0.1828
  735TMC3    C610916   4.640   0.959  11.975  0.3457 -0.8180 -0.0611
  735TMC3     C10917   4.713   1.325  11.917 -0.1027 -0.3017  0.1168
  735TMC3     O10918   4.683   1.302  11.801  0.6684 -0.6178 -0.1356
  735TMC3     H10919   4.491   1.248  11.891 -0.0666 -0.3826 -0.3846
  735TMC3    H110920   0.096   1.197  12.118 -0.1321 -0.7544  0.7223
  735TMC3    H210921   4.653   0.860  11.934  1.3496  0.0125 -1.7287
  735TMC3    C710922   0.142   0.954  12.042 -0.1458  0.3761 -0.4066
  735TMC3    C810923   4.498   1.007  11.794  0.3860  0.2301  0.7667
  735TMC3    O110924   0.236   1.034  12.027  0.0939 -0.3946 -0.1086
  735TMC3    O210925   4.464   0.893  11.779 -0.0999 -0.1069 -0.2988
  736MPD2     C10926   0.227   0.600  12.044  0.3888 -0.0531  0.1504
  736MPD2    C110927   0.238   0.732  12.006 -0.4802 -0.7532 -0.0884
  736MPD2    C210928   0.356   0.779  11.941 -0.1768  0.1595  0.1795
  736MPD2    C310929   0.458   0.687  11.920  0.1978  0.5587  0.1590
  736MPD2    C410930   0.445   0.557  11.959 -0.1872  0.2095  0.1476
  736MPD2    C510931   0.331   0.517  12.018  0.7206 -0.3841  0.6877
  736MPD2     H10932   0.372   0.878  11.901  0.1024  0.7093  1.6677
  736MPD2    H110933   0.525   0.486  11.939  0.5843  0.5335  2.1278
  736MPD2    H210934   0.137   0.584  12.102 -0.6596 -0.4246 -1.5813
  736MPD2    H310935   0.324   0.416  12.057 -1.7271 -0.4434  0.0938
  736MPD2     N10936   0.585   0.719  11.857  0.3323  0.3138  0.6162
  736MPD2    H510937   0.660   0.651  11.869  0.6125  0.5372  0.1348
  736MPD2    N110938   0.139   0.819  12.048  0.6495 -0.3754 -0.2060
  736MPD2    H710939   0.053   0.776  12.082 -1.8471  4.5166 -0.4041
  737TMC3    C110940   0.739   0.819  11.711 -0.9328  1.6635 -0.0434
  737TMC3    C210941   0.751   0.894  11.601  0.2940 -0.0461  0.0294
  737TMC3    C310942   0.879   0.950  11.581  0.3604 -0.0183  0.6731
  737TMC3    C410943   0.839   0.775  11.795 -0.3410 -0.2330 -0.3462
  737TMC3    C510944   0.964   0.811  11.758  0.3114 -0.4380  0.2007
  737TMC3    C610945   0.984   0.915  11.662 -0.3378  0.6231 -0.6005
  737TMC3     C10946   0.604   0.819  11.765  0.1079 -0.2082  0.2660
  737TMC3     O10947   0.531   0.913  11.739 -0.6138 -0.3829 -0.3616
  737TMC3     H10948   0.667   0.912  11.534  0.7872 -0.6839 -0.7542
  737TMC3    H110949   0.823   0.730  11.892 -0.2290 -0.4223 -0.4156
  737TMC3    H210950   1.085   0.954  11.656  0.0886 -0.5755 -1.2736
  737TMC3    C710951   1.053   0.698  11.734 -0.7178  0.3080 -0.0169
  737TMC3    C810952   0.928   0.952  11.450 -0.0004 -0.3745 -0.0103
  737TMC3    O110953   1.061   0.608  11.815 -0.0174 -0.4369 -0.3104
  737TMC3    O210954   1.047   0.930  11.436  0.5794  0.3249 -0.3725
  738MPD2     C10955   0.873   4.562  14.511  0.0406  0.1895 -1.0661
  738MPD2    C110956   0.986   4.557  14.591 -0.3002  0.1899  0.2020
  738MPD2    C210957   1.093   4.646  14.582  0.3713 -0.5715 -0.3349
  738MPD2    C310958   1.082   0.006  14.473  0.7026  0.0051  0.3949
  738MPD2    C410959   0.987   4.721  14.377  0.3332  0.2909  0.5291
  738MPD2    C510960   0.872   4.644  14.400  0.2422  0.5553 -0.0300
  738MPD2     H10961   1.167   4.647  14.661  0.6394 -1.0062 -0.5853
  738MPD2    H110962   0.984   0.060  14.297 -0.6891 -1.0055 -0.5939
  738MPD2    H210963   0.787   4.497  14.525  0.6373 -0.9004 -2.4524
  738MPD2    H310964   0.791   4.648  14.328 -1.3680 -1.0425  1.7146
  738MPD2     N10965   1.178   0.103  14.441  1.0943  0.4385  0.5978
  738MPD2    H510966   1.168   0.150  14.352  1.3099 -0.4294  0.1111
  738MPD2    N110967   1.008   4.445  14.675 -0.0479 -0.3223  0.1881
  738MPD2    H710968   1.099   4.420  14.712  0.9230  1.4166 -1.0296
  739TMC3    C110969   1.366   0.235  14.474  0.4748  0.1161  0.3546
  739TMC3    C210970   1.382   0.252  14.342 -0.2438 -0.2378 -0.3411
  739TMC3    C310971   1.443   0.367  14.293  0.3345 -0.4065 -0.1179
  739TMC3    C410972   1.407   0.333  14.564  0.1483 -0.1159  0.2425
  739TMC3    C510973   1.462   0.446  14.511  0.2446 -0.8534 -1.3141
  739TMC3    C610974   1.480   0.468  14.377 -0.1808  0.1186  0.4476
  739TMC3     C10975   1.272   0.141  14.532  0.6462  0.2231 -0.5748
  739TMC3     O10976   1.287   0.101  14.647  0.4314 -0.0076 -0.5213
  739TMC3     H10977   1.344   0.178  14.273  0.0151 -1.0488  0.3873
  739TMC3    H110978   1.399   0.318  14.671 -1.3358 -0.3149  0.0991
  739TMC3    H210979   1.526   0.563  14.352 -1.5533  0.8829  0.8123
  739TMC3    C710980   1.509   0.556  14.600 -0.1952  0.0211  0.0640
  739TMC3    C810981   1.448   0.370  14.151 -0.3514  0.4301  0.2471
  739TMC3    O110982   1.605   0.619  14.561 -0.3997  0.2256 -0.4208
  739TMC3    O210983   1.358   0.319  14.087 -0.2113  0.6754  0.3355
  740TMC3    C110984   1.927   1.436  13.699 -0.4112  0.9952 -0.0119
  740TMC3    C210985   1.968   1.479  13.826 -0.1943 -0.4678 -0.1002
  740TMC3    C310986   2.095   1.474  13.866  0.0088  0.3358  0.0100
  740TMC3    C410987   2.024   1.395  13.604  0.3330  0.2483  0.1784
  740TMC3    C510988   2.153   1.386  13.645  0.3469 -0.1129  0.1583
  740TMC3    C610989   2.185   1.430  13.772  0.1339  0.5422  0.6447
  740TMC3     C10990   1.794   1.455  13.651  0.2873  0.5647 -0.5932
  740TMC3     O10991   1.784   1.480  13.536  0.3069 -0.5338  0.2862
  740TMC3     H10992   1.894   1.512  13.898  1.9182  2.7915  0.5841
  740TMC3    H110993   1.984   1.354  13.511 -0.2239 -1.3899  1.1354
  740TMC3    H210994   2.282   1.400  13.810  0.8240  0.3507 -1.3128
  740TMC3    C710995   2.242   1.278  13.585  0.5957 -0.4838 -0.6668
  740TMC3    C810996   2.138   1.445  14.003  0.2434 -0.1549 -0.8115
  740TMC3    O110997   2.319   1.231  13.673 -0.1203 -0.5402 -0.4589
  740TMC3    O210998   2.256   1.474  14.031 -0.0322 -0.5825 -0.0405
  741TMC3    C110999   1.338   0.753  13.650 -0.5014  0.7976 -0.0857
  741TMC3    C211000   1.237   0.670  13.643  0.2779  0.0922 -0.3498
  741TMC3    C311001   1.202   0.611  13.756 -0.2392 -0.3682 -0.3190
  741TMC3    C411002   1.405   0.788  13.761  0.1257 -0.6297 -1.2617
  741TMC3    C511003   1.350   0.734  13.881  0.7688 -0.8113 -0.3975
  741TMC3    C611004   1.253   0.637  13.880 -0.2463 -0.7970  0.7479
  741TMC3     C11005   1.370   0.825  13.527 -0.2778  0.3389  0.1210
  741TMC3     O11006   1.449   0.918  13.535 -0.0022 -0.2049  0.0052
  741TMC3     H11007   1.185   0.644  13.552 -0.9489 -2.4690  1.0761
  741TMC3    H111008   1.499   0.841  13.761  0.3917 -1.1139  2.8948
  741TMC3    H211009   1.212   0.592  13.970  1.4294 -1.7013  1.0508
  741TMC3    C711010   1.394   0.764  14.011  0.1796  0.2120 -0.4496
  741TMC3    C811011   1.108   0.502  13.742  0.0179 -0.1474 -0.1849
  741TMC3    O111012   1.369   0.689  14.103  0.3281 -0.5357  0.1520
  741TMC3    O211013   1.036   0.492  13.649  0.4246 -0.2913  0.1179
  742TMC3    C111014   1.966   3.210  15.101 -0.9103 -0.3307  0.1995
  742TMC3    C211015   1.916   3.248  14.980 -0.2505  0.0098 -0.0627
  742TMC3    C311016   1.940   3.167  14.872 -0.6172 -0.3866  0.2571
  742TMC3    C411017   2.037   3.098  15.117 -0.6046 -0.5208  0.0663
  742TMC3    C511018   2.083   3.032  15.005 -0.1107 -0.2978 -0.0445
  742TMC3    C611019   2.029   3.061  14.878  0.0575 -0.1159  0.5359
  742TMC3     C11020   1.898   3.252  15.221  0.3780 -0.1438  0.0925
  742TMC3     O11021   1.889   3.166  15.309 -0.4201  0.0588  0.6736
  742TMC3     H11022   1.817   3.293  14.977 -0.6367 -0.7290  1.8567
  742TMC3    H111023   2.052   3.070  15.220  0.1915  1.1541  0.4141
  742TMC3    H211024   2.062   3.009  14.788  0.3037 -1.4823  1.4119
  742TMC3    C711025   2.193   2.939  15.008 -0.8105  0.1902  0.2273
  742TMC3    C811026   1.858   3.185  14.751 -0.1503 -1.0876  0.2249
  742TMC3    O111027   2.246   2.919  14.897  0.0835 -0.2107 -0.0009
  742TMC3    O211028   1.843   3.094  14.674  0.3352  0.0264 -0.1468
  743MPD2     C11029   4.065   3.970   1.166  0.3514 -0.4857  0.3767
  743MPD2    C111030   4.120   4.091   1.187 -0.2438  0.5272 -0.3576
  743MPD2    C211031   4.238   4.120   1.250 -0.5943  0.6351 -0.7824
  743MPD2    C311032   4.307   4.020   1.301 -0.1567 -0.2661  0.8892
  743MPD2    C411033   4.261   3.891   1.278  0.4798 -0.4942 -0.3838
  743MPD2    C511034   4.146   3.874   1.212 -0.6278  0.7444 -0.3676
  743MPD2     H11035   4.260   4.226   1.264 -1.9846  0.6831  1.0308
  743MPD2    H111036   4.315   3.801   1.306  2.1448  0.7768  0.5399
  743MPD2    H211037   3.987   3.947   1.095  1.7049 -0.3971 -1.1291
  743MPD2    H311038   4.120   3.772   1.185  1.4977 -0.3913  1.9116
  743MPD2     N11039   4.431   4.058   1.360 -0.4176  0.7306  0.1486
  743MPD2    H511040   4.466   4.153   1.361 -1.0019  1.0039 -2.9521
  743MPD2    N111041   4.044   4.191   1.123  0.0035  0.3218  0.1270
  743MPD2    H711042   3.979   4.156   1.054  1.2427 -0.0013 -0.8851
  744TMC3    C111043   3.967   4.399   1.049 -0.4924  0.2286 -0.3942
  744TMC3    C211044   3.914   4.509   1.093 -0.1707 -0.3119  0.2556
  744TMC3    C311045   3.839   4.585   1.014  0.5700  0.6721 -0.1993
  744TMC3    C411046   3.945   4.350   0.920 -0.4389 -0.5332  0.2731
  744TMC3    C511047   3.860   4.424   0.847 -0.2673  0.4159 -0.3262
  744TMC3    C611048   3.800   4.540   0.890 -0.1961  0.6564  0.2823
  744TMC3     C11049   4.050   4.328   1.141  0.3972  1.1442  0.1546
  744TMC3     O11050   4.105   4.390   1.230  0.3451  0.6207 -0.5419
  744TMC3     H11051   3.927   4.524   1.200 -3.0929 -0.3270  0.5921
  744TMC3    H111052   3.999   4.270   0.870 -1.5340 -0.3682 -1.1827
  744TMC3    H211053   3.730   4.592   0.824 -1.7402 -0.4781  1.0209
  744TMC3    C711054   3.845   4.394   0.702 -0.1817 -0.8218 -0.1379
  744TMC3    C811055   3.780   4.711   1.052  0.3106 -0.2141 -0.9229
  744TMC3    O111056   3.799   4.486   0.636  0.2724  0.3199 -0.4305
  744TMC3    O211057   3.698   0.021   0.973 -0.8140 -0.2204  0.1001
  745TMC3    C111058   1.748   3.356  13.493  0.5837 -0.7225 -0.9284
  745TMC3    C211059   1.645   3.284  13.544 -0.1066  0.0676  0.9616
  745TMC3    C311060   1.521   3.320  13.503 -0.4997  0.2105 -0.2938
  745TMC3    C411061   1.732   3.441  13.385 -0.5203  0.3250 -0.2975
  745TMC3    C511062   1.608   3.438  13.325  0.5215 -0.1206  0.4807
  745TMC3    C611063   1.496   3.390  13.391 -0.1505 -0.2806 -0.0489
  745TMC3     C11064   1.846   3.408  13.584 -0.0394  0.1463  0.0507
  745TMC3     O11065   1.918   3.328  13.641 -0.4892 -0.5283 -0.2474
  745TMC3     H11066   1.657   3.220  13.630  0.9361  0.1905  0.9048
  745TMC3    H111067   1.818   3.494  13.345 -1.8368  3.5785  1.1946
  745TMC3    H211068   1.399   3.380  13.344 -0.1352 -0.7701  0.0201
  745TMC3    C711069   1.583   3.508  13.204  0.5321 -0.5149  0.5408
  745TMC3    C811070   1.434   3.366  13.604  0.1917 -0.8078 -1.1040
  745TMC3    O111071   1.471   3.548  13.180 -0.5284  0.3624 -0.1837
  745TMC3    O211072   1.323   3.402  13.566 -0.1648 -0.6572  0.8135
  746TMC3    C111073   4.009   0.285  10.809 -0.5533  0.5750 -0.3131
  746TMC3    C211074   4.038   0.259  10.685 -0.2089 -0.3755 -0.1007
  746TMC3    C311075   3.982   0.157  10.621  0.6913 -0.3051  0.7082
  746TMC3    C411076   3.921   0.210  10.885 -0.2461  0.6917 -0.1449
  746TMC3    C511077   3.844   0.128  10.811 -0.3496 -0.1313  0.4311
  746TMC3    C611078   3.872   0.100  10.679  0.2273 -0.1816  0.2363
  746TMC3     C11079   3.989   0.426  10.825 -0.2071 -0.2636 -0.0649
  746TMC3     O11080   3.887   0.458  10.894  0.1976  0.0924  0.4483
  746TMC3     H11081   4.113   0.316  10.632 -0.4814 -0.3385 -0.4437
  746TMC3    H111082   3.894   0.252  10.981  0.4249 -1.8980  1.1557
  746TMC3    H211083   3.827   0.011  10.636  0.8609 -0.6952  0.6401
  746TMC3    C711084   3.701   0.157  10.842 -0.5907 -0.3489 -0.4926
  746TMC3    C811085   4.013   0.140  10.477  0.5370  0.2028  0.5550
  746TMC3    O111086   3.615   0.154  10.755  0.2773  0.2929 -0.2224
  746TMC3    O211087   4.109   0.202  10.431  0.2720 -0.0187 -0.4328
  747TMC3    C111088   1.505   0.650  10.778  0.2812  0.1168  0.5641
  747TMC3    C211089   1.432   0.583  10.864  0.5931  0.2107  0.2901
  747TMC3    C311090   1.428   0.638  10.994 -0.2063 -0.3249  0.2483
  747TMC3    C411091   1.571   0.765  10.808  0.4773  0.0074 -0.0015
  747TMC3    C511092   1.560   0.819  10.933 -0.6818 -0.0412 -0.1319
  747TMC3    C611093   1.489   0.754  11.029  0.3880 -0.3053 -0.2249
  747TMC3     C11094   1.560   0.589  10.662 -0.2118 -0.0112 -0.4017
  747TMC3     O11095   1.585   0.662  10.562  0.0382  0.0893 -0.2282
  747TMC3     H11096   1.392   0.487  10.834  0.0987 -0.0877  1.9252
  747TMC3    H111097   1.629   0.802  10.725  2.2811 -0.0154  1.2369
  747TMC3    H211098   1.512   0.793  11.128 -0.8022  0.0937 -0.1139
  747TMC3    C711099   1.662   0.910  10.981  0.4815  0.3503 -0.2608
  747TMC3    C811100   1.364   0.548  11.098 -0.3727  0.2837  0.4729
  747TMC3    O111101   1.629   1.003  11.052  0.7208  0.4612  0.7293
  747TMC3    O211102   1.350   0.434  11.076 -0.1619 -0.3269  0.1905
  748MPD2     C11103   2.721   1.105   0.836 -0.1650 -0.2691  0.2199
  748MPD2    C111104   2.829   1.034   0.882 -0.3030  0.1042 -0.6082
  748MPD2    C211105   2.952   1.080   0.842 -0.8838  0.1895 -0.2213
  748MPD2    C311106   2.975   1.202   0.783 -0.6662  0.0295 -0.2257
  748MPD2    C411107   2.865   1.279   0.756 -0.1636  0.3498 -0.1431
  748MPD2    C511108   2.736   1.232   0.785  0.0402 -0.4506  0.5118
  748MPD2     H11109   3.041   1.026   0.868  0.1979  0.4342 -3.4340
  748MPD2    H111110   2.867   1.373   0.702  0.9290 -0.3906 -1.3821
  748MPD2    H211111   2.617   1.076   0.848 -0.2353 -0.4135 -0.7236
  748MPD2    H311112   2.649   1.288   0.752  1.2623 -0.0857 -2.1556
  748MPD2     N11113   3.108   1.250   0.764  0.9827  0.1082 -0.2507
  748MPD2    H511114   3.187   1.190   0.784  0.7436 -0.7005 -1.6869
  748MPD2    N111115   2.805   0.918   0.958 -0.2468  0.1769  0.0717
  748MPD2    H711116   2.708   0.889   0.972 -0.0430  1.4555  4.1230
  749TMC3    C111117   3.284   1.388   0.694 -0.1871  0.3029  0.2148
  749TMC3    C211118   3.370   1.309   0.767  0.1462  0.7720 -0.4221
  749TMC3    C311119   3.502   1.351   0.766 -0.8784  0.5882 -0.7538
  749TMC3    C411120   3.326   1.495   0.622  0.2094  0.5753 -0.7316
  749TMC3    C511121   3.457   1.534   0.637 -0.2033 -0.7764 -0.2431
  749TMC3    C611122   3.548   1.464   0.703  0.2787 -0.8716  0.4745
  749TMC3     C11123   3.145   1.375   0.723  0.6767  0.0326 -0.2043
  749TMC3     O11124   3.076   1.477   0.719 -0.3662  0.4084  0.8139
  749TMC3     H11125   3.344   1.212   0.809 -1.2062  0.5995 -1.6312
  749TMC3    H111126   3.249   1.549   0.569  0.4008  2.0259  0.4734
  749TMC3    H211127   3.654   1.485   0.697 -0.1662  0.6716 -1.8144
  749TMC3    C711128   3.510   1.653   0.574 -0.1945 -0.3668 -0.2493
  749TMC3    C811129   3.604   1.263   0.814 -1.1237  0.6492  0.7030
  749TMC3    O111130   3.633   1.678   0.572  0.1202 -0.2660 -0.1375
  749TMC3    O211131   3.719   1.283   0.785  0.1255 -0.1909 -0.0298
  750MPD2     C11132   4.300   2.266  11.173  0.4413  0.0329 -0.0624
  750MPD2    C111133   4.168   2.229  11.191  0.4066 -0.4344 -0.3316
  750MPD2    C211134   4.127   2.108  11.147  0.5323  0.8947  0.4243
  750MPD2    C311135   4.210   2.023  11.073  0.8756 -0.6013  0.5583
  750MPD2    C411136   4.331   2.066  11.042 -0.4066 -0.2337  0.6533
  750MPD2    C511137   4.381   2.183  11.096  0.1489  0.2128  0.3006
  750MPD2     H11138   4.021   2.083  11.151  0.8267 -0.4951 -0.4609
  750MPD2    H111139   4.394   2.013  10.971 -0.7912  3.3204 -2.3390
  750MPD2    H211140   4.339   2.355  11.222  0.2495 -0.9684  1.8976
  750MPD2    H311141   4.479   2.221  11.072  0.1921  0.6115  1.0940
  750MPD2     N11142   4.174   1.894  11.025  0.0362  0.0671 -1.1091
  750MPD2    H511143   4.244   1.855  10.963  2.0047  1.7507  0.0524
  750MPD2    N111144   4.093   2.321  11.271  0.5732  0.1447 -0.4704
  750MPD2    H711145   4.121   2.416  11.291 -3.3142  1.0054  0.8520
  751TMC3    C111146   4.014   1.727  10.955 -0.0774 -0.3903  0.7486
  751TMC3    C211147   3.885   1.679  10.962  0.4988 -0.1252 -0.2145
  751TMC3    C311148   3.845   1.589  10.870  0.4937  0.5200  1.1041
  751TMC3    C411149   4.096   1.690  10.851  0.3405  0.3432 -0.4617
  751TMC3    C511150   4.050   1.596  10.768 -0.1314  0.6031  0.6223
  751TMC3    C611151   3.925   1.541  10.777 -0.2715 -0.2545 -0.0093
  751TMC3     C11152   4.052   1.828  11.048 -0.1685  0.2610 -0.4390
  751TMC3     O11153   3.968   1.851  11.133  0.3901 -0.0543 -0.9374
  751TMC3     H11154   3.817   1.720  11.037  1.4234  0.4134  0.3269
  751TMC3    H111155   4.194   1.729  10.829  0.8525 -1.0909 -0.7403
  751TMC3    H211156   3.883   1.466  10.711 -0.8482 -0.2859  0.3854
  751TMC3    C711157   4.138   1.535  10.674 -0.5924  0.0948 -0.8012
  751TMC3    C811158   3.708   1.551  10.855  0.3958  0.2349  0.2484
  751TMC3    O111159   4.236   1.595  10.638 -0.0317 -0.3801  0.1398
  751TMC3    O211160   3.667   1.504  10.748  0.4695 -0.2289  0.4069
  752TMC3    C111161   2.809   2.340  16.945 -0.2972  0.1107  0.0751
  752TMC3    C211162   2.842   2.216  16.971  0.8700 -0.4532 -1.0002
  752TMC3    C311163   2.753   2.144  17.040 -0.4072 -0.8402  0.1415
  752TMC3    C411164   2.692   2.397  16.972  0.3775 -0.2234 -0.1037
  752TMC3    C511165   2.599   2.321  17.032 -0.6945  0.7269  0.0854
  752TMC3    C611166   2.627   2.195  17.068  0.4235 -0.2107  0.2902
  752TMC3     C11167   2.896   2.412  16.856  0.3076  0.0552 -0.7587
  752TMC3     O11168   3.019   2.395  16.859 -0.4904  0.4059 -0.0610
  752TMC3     H11169   2.943   2.178  16.955 -0.0315 -2.7285 -1.3711
  752TMC3    H111170   2.672   2.503  16.961 -1.3094 -0.6222 -0.8456
  752TMC3    H211171   2.551   2.141  17.124  1.4206 -1.6741  0.2039
  752TMC3    C711172   2.456   2.367  17.068 -0.2599  0.1726 -0.3436
  752TMC3    C811173   2.780   2.011  17.071  0.3886  0.5344 -0.3952
  752TMC3    O111174   2.361   2.294  17.094  0.4255  0.4568  0.4456
  752TMC3    O211175   2.714   1.962  17.164  0.0412  0.1794 -0.2202
  753TMC3    C111176   0.066   3.466  13.016  0.2349  0.0026 -0.2684
  753TMC3    C211177   0.137   3.416  13.119 -0.1031 -0.2655  0.2333
  753TMC3    C311178   0.138   3.275  13.133 -0.5487 -0.0736  0.1590
  753TMC3    C411179   4.715   3.390  12.941  0.2403 -0.4296  0.0675
  753TMC3    C511180   4.725   3.257  12.947  0.8863 -0.1893  0.6992
  753TMC3    C611181   0.083   3.197  13.031 -0.3002  0.3208  0.4116
  753TMC3     C11182   0.104   3.594  12.963  0.2716 -0.7586  0.2334
  753TMC3     O11183   0.076   3.627  12.849  0.2885  0.0304  0.3753
  753TMC3     H11184   0.206   3.479  13.174  1.8927 -3.4032  1.3121
  753TMC3    H111185   4.653   3.431  12.862  1.7661  3.7966  1.0560
  753TMC3    H211186   0.101   3.091  13.023 -0.1844  0.4061 -0.4450
  753TMC3    C711187   4.639   3.179  12.872  0.2676 -0.2118  0.2962
  753TMC3    C811188   0.235   3.209  13.218 -0.4119 -0.7355  0.2980
  753TMC3    O111189   4.613   3.216  12.758  0.1309  0.3131 -0.4354
  753TMC3    O211190   0.265   3.087  13.211  0.2321  0.4965  0.3455
  754MPD2     C11191   4.107   2.118  12.935 -0.5268 -0.5456  0.0533
  754MPD2    C111192   4.064   1.987  12.922  0.6309  0.2817  0.2262
  754MPD2    C211193   3.942   1.960  12.871  1.0975 -0.4486 -0.3215
  754MPD2    C311194   3.863   2.071  12.850  0.0635  0.6686  0.0928
  754MPD2    C411195   3.904   2.201  12.861  0.4160 -1.3853  0.5979
  754MPD2    C511196   4.027   2.224  12.905  1.0654 -0.1865 -0.1936
  754MPD2     H11197   3.911   1.859  12.845 -0.1287 -0.2250  0.2520
  754MPD2    H111198   3.844   2.284  12.826  2.9164  0.7708  1.3759
  754MPD2    H211199   4.204   2.148  12.974 -1.1231 -1.5871  2.3676
  754MPD2    H311200   4.068   2.323  12.923 -1.0044  0.5922  0.1530
  754MPD2     N11201   3.729   2.057  12.811  0.1644 -0.5651 -0.0218
  754MPD2    H511202   3.679   2.135  12.770  1.8419  0.3932 -0.2532
  754MPD2    N111203   4.164   1.894  12.950  0.5468  0.4343 -0.2728
  754MPD2    H711204   4.254   1.941  12.954  0.4068  0.5641  1.6031
  755MPD2     C11205   3.382   2.725  12.912 -0.2290 -0.4689  0.2879
  755MPD2    C111206   3.285   2.640  12.973 -1.0162 -0.4648  0.0215
  755MPD2    C211207   3.264   2.512  12.915 -0.2058  0.4109  0.6340
  755MPD2    C311208   3.347   2.460  12.820  0.1068  0.0504  0.0575
  755MPD2    C411209   3.451   2.544  12.779  0.5235 -0.2754  0.8514
  755MPD2    C511210   3.465   2.671  12.816  0.1764 -0.0519  0.9062
  755MPD2     H11211   3.187   2.452  12.960  0.0882 -1.6942 -1.6381
  755MPD2    H111212   3.529   2.523  12.706  0.1860  0.0148  0.4049
  755MPD2    H211213   3.393   2.830  12.934  1.5248 -0.1570 -2.0558
  755MPD2    H311214   3.542   2.737  12.778 -2.1316  1.3359 -1.3875
  755MPD2     N11215   3.358   2.323  12.782 -0.0889  0.1185 -0.4997
  755MPD2    H511216   3.440   2.298  12.727 -0.6147 -4.2711  0.7313
  755MPD2    N111217   3.203   2.676  13.075 -0.0296 -0.1882 -0.2449
  755MPD2    H711218   3.147   2.602  13.115 -0.0922 -1.0687 -1.9671
  756MPD2     C11219   3.951   2.595   9.451  0.4336 -0.0381  0.0180
  756MPD2    C111220   3.864   2.505   9.498  0.3510 -0.3643  1.0430
  756MPD2    C211221   3.774   2.452   9.410 -0.3340 -0.9641 -0.2729
  756MPD2    C311222   3.769   2.486   9.279  0.3669  0.9979 -0.4408
  756MPD2    C411223   3.859   2.579   9.235 -0.1679 -0.0507 -0.7195
  756MPD2    C511224   3.947   2.641   9.322  0.8839  0.0164 -0.2958
  756MPD2     H11225   3.695   2.393   9.456 -1.7191  4.4001  4.1857
  756MPD2    H111226   3.868   2.617   9.134 -0.0446  4.5022  0.9990
  756MPD2    H211227   4.027   2.634   9.518 -0.5586  1.4140  0.3285
  756MPD2    H311228   4.019   2.717   9.292 -2.3127  3.4179  0.5950
  756MPD2     N11229   3.667   2.441   9.191 -0.1456 -0.3782 -0.4203
  756MPD2    H511230   3.607   2.376   9.241 -0.6208 -0.5283 -1.1877
  756MPD2    N111231   3.862   2.451   9.633  0.1130  0.1198 -0.1677
  756MPD2    H711232   3.797   2.377   9.655 -1.1832  2.0309  2.4458
  757MPD2     C11233   3.033   1.861   9.236 -0.0431 -0.5932 -0.4420
  757MPD2    C111234   3.165   1.850   9.201  0.6233 -0.2582 -0.3418
  757MPD2    C211235   3.234   1.965   9.171 -0.1530  0.3791  1.0158
  757MPD2    C311236   3.167   2.088   9.162 -0.3694  0.4691  0.2322
  757MPD2    C411237   3.028   2.097   9.180  0.5029 -0.3553 -0.0676
  757MPD2    C511238   2.962   1.982   9.223  0.1125 -0.0719 -0.4263
  757MPD2     H11239   3.342   1.973   9.163 -0.3583  1.1247 -1.0941
  757MPD2    H111240   2.972   2.189   9.185 -0.7102 -1.1097  0.3458
  757MPD2    H211241   2.971   1.781   9.275 -0.4373 -0.1540 -0.1818
  757MPD2    H311242   2.861   1.979   9.261 -0.1550 -2.4331 -1.3316
  757MPD2     N11243   3.242   2.198   9.122 -0.3723 -0.3553  0.4506
  757MPD2    H511244   3.340   2.179   9.108 -0.8319 -1.0835 -1.7644
  757MPD2    N111245   3.225   1.721   9.216 -0.0085  0.5791  0.4333
  757MPD2    H711246   3.168   1.641   9.240  3.1030 -1.4112  1.1518
  758MPD2     C11247   3.724   2.015  15.399  0.3494 -0.2162  0.2030
  758MPD2    C111248   3.730   1.893  15.468  0.6449  0.1478  0.0977
  758MPD2    C211249   3.670   1.883  15.595  0.0691  0.5237 -0.5631
  758MPD2    C311250   3.621   1.995  15.661  0.5662  0.4820 -0.0701
  758MPD2    C411251   3.598   2.107  15.581  0.4015  0.0807  0.4414
  758MPD2    C511252   3.641   2.112  15.449  0.4061  0.3661 -0.2521
  758MPD2     H11253   3.681   1.792  15.652  2.5112 -0.6462 -2.8941
  758MPD2    H111254   3.561   2.206  15.609 -0.1854 -0.0110 -0.0108
  758MPD2    H211255   3.763   2.029  15.299  1.8351 -0.0634  0.8098
  758MPD2    H311256   3.611   2.200  15.393  1.9605  0.9388 -0.2060
  758MPD2     N11257   3.606   2.008  15.804  0.3393  1.3056  0.3482
  758MPD2    H511258   3.583   2.100  15.838  0.6029  0.4300  2.9008
  758MPD2    N111259   3.799   1.782  15.407 -0.1498 -0.6281 -0.1003
  758MPD2    H711260   3.844   1.796  15.317 -0.5693 -0.1913 -0.2394
  759MPD2     C11261   1.981   4.307   9.584 -0.2387  0.0200  0.2201
  759MPD2    C111262   2.112   4.285   9.562 -0.2293  0.1191 -0.2432
  759MPD2    C211263   2.172   4.332   9.444 -0.6406  0.2448 -0.1789
  759MPD2    C311264   2.098   4.403   9.348 -0.1047  0.8878 -0.3910
  759MPD2    C411265   1.968   4.428   9.388  0.1828 -0.1887  0.1851
  759MPD2    C511266   1.913   4.382   9.499 -0.4010  0.4290 -0.3105
  759MPD2     H11267   2.276   4.312   9.421 -0.2429 -0.7989  2.6033
  759MPD2    H111268   1.901   4.487   9.327 -0.2803  0.3915  1.2609
  759MPD2    H211269   1.931   4.274   9.674 -2.4492 -0.0278 -1.0507
  759MPD2    H311270   1.808   4.406   9.510 -0.8635 -1.1705 -1.2261
  759MPD2     N11271   2.154   4.441   9.218 -0.6909 -0.1507  0.3051
  759MPD2    H511272   2.255   4.432   9.205 -0.4847  0.4422  1.4546
  759MPD2    N111273   2.185   4.191   9.642  0.8576 -0.1862  0.0144
  759MPD2    H711274   2.281   4.172   9.616  0.2150 -3.0760 -0.2379
  760MPD2     C11275   2.186   2.274  11.730  0.1263 -0.3860  0.1072
  760MPD2    C111276   2.310   2.317  11.691 -0.0930  0.9327 -0.2774
  760MPD2    C211277   2.408   2.225  11.649 -0.0700 -0.0137 -0.4508
  760MPD2    C311278   2.381   2.093  11.632  0.6627 -0.2763  0.8424
  760MPD2    C411279   2.251   2.051  11.668  0.1520  0.3880  0.0549
  760MPD2    C511280   2.158   2.140  11.719 -0.4291 -0.2660  0.1238
  760MPD2     H11281   2.504   2.267  11.622 -0.1048  0.2301 -0.2019
  760MPD2    H111282   2.211   1.951  11.662  3.1752 -0.7311 -1.6043
  760MPD2    H211283   2.104   2.337  11.761  1.4894  1.8501 -0.7587
  760MPD2    H311284   2.057   2.106  11.741 -0.8294  1.4271  0.9330
  760MPD2     N11285   2.480   1.999  11.582 -0.4229  0.2200  0.2061
  760MPD2    H511286   2.453   1.902  11.578  0.7482 -0.1000  0.1566
  760MPD2    N111287   2.354   2.447  11.716 -0.1010 -0.0139 -0.1534
  760MPD2    H711288   2.452   2.475  11.714  0.5161 -2.1722  0.3115
  761MPD2     C11289   3.262   1.410  11.051  0.2474  0.9977  0.0697
  761MPD2    C111290   3.349   1.348  10.960  0.6898 -0.5960 -0.1877
  761MPD2    C211291   3.474   1.402  10.943  0.2644 -0.7221 -0.2424
  761MPD2    C311292   3.514   1.519  11.005 -0.0534 -0.1960  0.1671
  761MPD2    C411293   3.429   1.581  11.093 -0.0658  0.2689 -0.1930
  761MPD2    C511294   3.309   1.521  11.117  0.4416  0.4087 -0.8899
  761MPD2     H11295   3.543   1.348  10.879 -0.2181 -1.0189 -0.5098
  761MPD2    H111296   3.456   1.672  11.145 -1.6467  0.6205  0.0138
  761MPD2    H211297   3.167   1.370  11.085  0.8605 -0.7109 -0.2309
  761MPD2    H311298   3.250   1.568  11.194  2.1286  0.7862  0.1670
  761MPD2     N11299   3.637   1.570  10.974  0.3061 -0.4806  0.7701
  761MPD2    H511300   3.660   1.634  11.049 -0.3948 -0.4817  0.9812
  761MPD2    N111301   3.311   1.227  10.893  0.4122  0.3069 -0.5069
  761MPD2    H711302   3.221   1.189  10.921  0.4266  1.8093  1.6049
  762MPD2     C11303   3.229   0.791  10.154  0.0613 -0.4017 -0.0517
  762MPD2    C111304   3.334   0.833  10.233  0.2392 -0.2280  0.0049
  762MPD2    C211305   3.462   0.832  10.183 -0.5814  0.1442 -0.0410
  762MPD2    C311306   3.483   0.809  10.047  0.0647  0.5041 -0.1438
  762MPD2    C411307   3.370   0.788   9.962 -0.0505 -0.1587  0.2338
  762MPD2    C511308   3.246   0.777  10.017  0.0226  0.1461 -0.5519
  762MPD2     H11309   3.542   0.858  10.251 -1.0432 -2.6793  1.5803
  762MPD2    H111310   3.388   0.778   9.856  0.8704 -2.2753  0.5700
  762MPD2    H211311   3.127   0.778  10.187  0.4043 -1.2714  0.6937
  762MPD2    H311312   3.159   0.743   9.962 -0.7609 -0.8362  1.3114
  762MPD2     N11313   3.617   0.799  10.000  0.1111  1.0138 -0.1136
  762MPD2    H511314   3.685   0.840  10.063 -0.8019  1.1888  0.7623
  762MPD2    N111315   3.326   0.862  10.373  0.2121 -1.0125 -1.2428
  762MPD2    H711316   3.411   0.877  10.426  0.2265 -0.1159 -1.5240
  763MPD2     C11317   0.679   1.759  15.734  0.6848 -1.1792 -0.6621
  763MPD2    C111318   0.784   1.817  15.667  0.5755 -0.0889  0.3908
  763MPD2    C211319   0.861   1.904  15.733 -0.8441  0.6921  0.1125
  763MPD2    C311320   0.835   1.948  15.861 -0.0489 -0.6444  0.1958
  763MPD2    C411321   0.719   1.908  15.921  0.4379  0.7839 -0.3778
  763MPD2    C511322   0.645   1.805  15.864 -0.2157 -0.3835 -0.4398
  763MPD2     H11323   0.949   1.941  15.682 -0.0855  0.9396  1.5979
  763MPD2    H111324   0.689   1.941  16.020 -0.3785 -0.8505 -0.0720
  763MPD2    H211325   0.623   1.674  15.697 -0.7535 -0.3105 -0.5131
  763MPD2    H311326   0.560   1.771  15.921 -1.4436 -1.1645 -2.7432
  763MPD2     N11327   0.921   2.041  15.930  0.3155  0.3042  0.1629
  763MPD2    H511328   0.994   2.083  15.873 -0.6095  2.3331  0.5120
  763MPD2    N111329   0.813   1.787  15.529  0.4562 -0.3360  0.0682
  763MPD2    H711330   0.885   1.845  15.487  1.4984 -0.9783  0.9811
  764MPD2     C11331   3.897   3.167  17.584 -0.0729  0.2633 -0.1261
  764MPD2    C111332   3.802   3.125  17.495 -0.2862 -0.3469 -0.4702
  764MPD2    C211333   3.692   3.056  17.540 -0.5634  0.1291 -0.7430
  764MPD2    C311334   3.688   3.039  17.682 -0.0584  0.5509 -0.5266
  764MPD2    C411335   3.770   3.098   0.033  0.2774  0.2810  0.0419
  764MPD2    C511336   3.879   3.159  17.719 -0.5189 -0.2313 -0.3649
  764MPD2     H11337   3.612   3.015  17.478 -1.9402  0.2391  0.9446
  764MPD2    H111338   3.755   3.090   0.140 -0.5729 -2.7119 -0.3065
  764MPD2    H211339   3.991   3.215  17.558 -0.1214 -1.0892 -2.8165
  764MPD2    H311340   3.955   3.201   0.048 -2.8984  2.1388  0.8691
  764MPD2     N11341   3.582   2.954  17.728  0.2113 -0.0426 -0.5879
  764MPD2    H511342   3.527   2.911  17.654  0.0650 -2.1815  0.7458
  764MPD2    N111343   3.810   3.149  17.355 -0.4734 -0.0657 -0.3685
  764MPD2    H711344   3.723   3.134  17.305 -1.7074 -0.2825  1.8308
  765MPD2     C11345   3.254   1.298  15.256 -0.4344  0.0611 -0.3257
  765MPD2    C111346   3.366   1.381  15.254 -0.2441 -0.0754 -0.3213
  765MPD2    C211347   3.486   1.316  15.241 -0.6388  0.3772  0.1230
  765MPD2    C311348   3.499   1.181  15.235  0.1172 -0.4654 -0.0381
  765MPD2    C411349   3.384   1.098  15.234 -0.2695  0.5769 -0.4553
  765MPD2    C511350   3.262   1.160  15.241  0.1073 -0.4403 -0.1858
  765MPD2     H11351   3.579   1.368  15.262 -2.0381  2.8607  0.2333
  765MPD2    H111352   3.396   0.990  15.226 -1.6196  0.3723  0.3540
  765MPD2    H211353   3.156   1.343  15.268 -0.5282 -0.3938  0.6238
  765MPD2    H311354   3.170   1.104  15.230 -1.7530  2.2218  1.7148
  765MPD2     N11355   3.632   1.133  15.218  0.0349  0.4654  0.3009
  765MPD2    H511356   3.705   1.202  15.206  2.0800 -1.5401  1.0783
  765MPD2    N111357   3.348   1.517  15.273 -0.1845 -0.2285 -0.5954
  765MPD2    H711358   3.255   1.552  15.293 -0.3574 -1.2638  0.4276
  766MPD2     C11359   2.849   1.627  15.181 -0.7693 -0.3812 -0.3747
  766MPD2    C111360   2.987   1.623  15.157 -0.2567 -0.8271  0.1355
  766MPD2    C211361   3.037   1.561  15.045 -1.3180  0.0602  0.1685
  766MPD2    C311362   2.956   1.499  14.949 -0.3319 -0.0676  0.7831
  766MPD2    C411363   2.821   1.500  14.982  0.0739 -0.5745 -0.8838
  766MPD2    C511364   2.771   1.564  15.089 -0.2295 -0.1456 -0.7595
  766MPD2     H11365   3.145   1.570  15.036 -0.9147 -2.7226  2.0802
  766MPD2    H111366   2.745   1.467  14.912  0.5861 -0.5420 -1.4538
  766MPD2    H211367   2.797   1.683  15.258 -0.2573  0.1863 -0.4424
  766MPD2    H311368   2.664   1.575  15.101 -0.4076  0.1309 -2.7037
  766MPD2     N11369   3.011   1.430  14.834 -0.4914  0.1455 -0.2122
  766MPD2    H511370   2.957   1.378  14.765 -0.9180 -0.5782  0.6677
  766MPD2    N111371   3.078   1.705  15.227  0.9579 -0.0959  0.8499
  766MPD2    H711372   3.173   1.704  15.192  0.5966 -1.7589 -0.1121
  767MPD2     C11373   2.637   1.686  14.822 -0.6709  0.3469  0.5491
  767MPD2    C111374   2.738   1.733  14.745 -0.1852 -0.4738  0.6438
  767MPD2    C211375   2.752   1.681  14.614  0.0390  0.3606  0.8285
  767MPD2    C311376   2.667   1.590  14.553 -0.2157 -0.4460 -0.0838
  767MPD2    C411377   2.569   1.542  14.636 -0.9212  0.6046 -0.1189
  767MPD2    C511378   2.549   1.592  14.766  1.0975 -0.0194 -0.4864
  767MPD2     H11379   2.829   1.719  14.547  0.0790 -2.0017 -0.4632
  767MPD2    H111380   2.498   1.475  14.589  1.1377 -0.9057 -1.0850
  767MPD2    H211381   2.613   1.724  14.920  1.5495 -2.5786  2.2118
  767MPD2    H311382   2.468   1.561  14.830  1.5195  1.2244  0.6525
  767MPD2     N11383   2.686   1.554  14.414 -0.1842  0.0179  0.1411
  767MPD2    H511384   2.777   1.574  14.373 -0.1199  1.1518  0.8289
  767MPD2    N111385   2.817   1.832  14.800  0.1289 -0.0578 -0.0143
  767MPD2    H711386   2.789   1.861  14.893 -1.1141  0.2201 -0.4748
  768MPD2     C11387   3.254   4.575  10.609  0.0160 -0.0788 -0.1478
  768MPD2    C111388   3.244   4.659  10.717  0.1373  0.3839 -0.3812
  768MPD2    C211389   3.340   4.660  10.811  0.0217  0.5551  0.0738
  768MPD2    C311390   3.439   4.560  10.807 -0.2424 -0.3736  0.1500
  768MPD2    C411391   3.451   4.485  10.688  0.2874 -0.3260 -0.0712
  768MPD2    C511392   3.357   4.492  10.590 -0.1853  0.2373  1.4169
  768MPD2     H11393   3.314   4.728  10.891 -2.9185 -0.7601  0.2401
  768MPD2    H111394   3.532   4.414  10.677  0.6367 -0.0302  0.5928
  768MPD2    H211395   3.188   4.588  10.524  1.3349 -2.6240 -1.5480
  768MPD2    H311396   3.378   4.434  10.501  0.2244  0.7301  1.1915
  768MPD2     N11397   3.546   4.549  10.903  0.1662 -0.5510  0.7874
  768MPD2    H511398   3.633   4.505  10.875  0.2419 -0.1791  0.4390
  768MPD2    N111399   3.138   0.010  10.748  0.0528  0.4623 -0.2119
  768MPD2    H711400   3.152   0.061  10.834 -0.6818 -1.2735  0.9311
  769MPD2     C11401   0.298   2.710  14.318 -0.1740 -0.0195  0.7606
  769MPD2    C111402   0.199   2.693  14.409 -0.0818  0.0089 -0.6407
  769MPD2    C211403   0.230   2.703  14.545  0.2208 -0.2655  0.5167
  769MPD2    C311404   0.363   2.728  14.582  0.4410 -0.3665  0.1520
  769MPD2    C411405   0.463   2.743  14.487  0.3666  0.0271  0.4728
  769MPD2    C511406   0.429   2.740  14.357  0.6094  0.2634  0.1687
  769MPD2     H11407   0.155   2.694  14.623 -1.6392  1.3185 -1.0845
  769MPD2    H111408   0.567   2.757  14.516  0.2774 -2.0163  1.8051
  769MPD2    H211409   0.273   2.716  14.213  3.8847  1.2978 -0.1018
  769MPD2    H311410   0.508   2.753  14.283 -0.5483  1.4121 -0.8580
  769MPD2     N11411   0.391   2.755  14.715 -0.5544 -0.3460 -0.3024
  769MPD2    H511412   0.323   2.735  14.787  0.0834  2.8557  1.2119
  769MPD2    N111413   0.072   2.669  14.362  0.0563  0.2307  0.1899
  769MPD2    H711414   0.056   2.657  14.262 -3.1904  1.3951  0.5883
  770MPD2     C11415   3.871   2.287  14.519 -0.1667  0.3745  0.2121
  770MPD2    C111416   3.974   2.236  14.434  0.1195 -0.2360 -0.6577
  770MPD2    C211417   4.075   2.317  14.393 -0.0858  0.0801 -0.3098
  770MPD2    C311418   4.083   2.444  14.434  0.0963 -0.1188  0.4443
  770MPD2    C411419   3.990   2.495  14.523  0.6093  0.4447  0.4948
  770MPD2    C511420   3.880   2.419  14.558 -0.3539 -0.3120  0.1011
  770MPD2     H11421   4.158   2.283  14.331  0.7748  1.8456 -0.1354
  770MPD2    H111422   3.985   2.598  14.556  1.6280  1.2206 -1.7578
  770MPD2    H211423   3.780   2.238  14.551 -0.3043  1.2985  1.2833
  770MPD2    H311424   3.797   2.469  14.606  1.1414  1.6443  0.6669
  770MPD2     N11425   4.194   2.521  14.383 -0.0778 -0.7263 -0.3767
  770MPD2    H511426   4.250   2.470  14.315  0.4869  0.9425 -1.1415
  770MPD2    N111427   3.970   2.101  14.404 -0.4510  0.0475 -0.2955
  770MPD2    H711428   3.880   2.059  14.426 -1.6560  1.5471 -2.3616
  771MPD2     C11429   4.556   0.430  13.065  0.1288 -0.0653 -0.1038
  771MPD2    C111430   4.584   0.528  12.975  0.6279 -0.6516  0.9976
  771MPD2    C211431   4.511   0.525  12.856  0.8038 -0.1213  0.5413
  771MPD2    C311432   4.416   0.426  12.838 -0.1798  0.0849  0.7373
  771MPD2    C411433   4.390   0.330  12.933  0.2971 -0.8859  0.1155
  771MPD2    C511434   4.462   0.335  13.048  0.5416 -0.2196  0.0300
  771MPD2     H11435   4.541   0.597  12.781  0.0063  0.9820  1.2776
  771MPD2    H111436   4.304   0.264  12.927 -2.1000  2.4085 -2.1598
  771MPD2    H211437   4.614   0.422  13.157  1.1143  1.2637 -0.6115
  771MPD2    H311438   4.456   0.259  13.124 -1.2958 -0.1004  0.0144
  771MPD2     N11439   4.346   0.421  12.709 -0.0534 -0.6444  0.5957
  771MPD2    H511440   4.352   0.505  12.653 -0.8565 -0.1406  1.2669
  771MPD2    N111441   4.671   0.635  12.999  0.7149 -0.0752  0.0133
  771MPD2    H711442   4.694   0.703  12.928 -2.3381 -0.5141 -1.3749
  772MPD2     C11443   4.577   1.273  13.546 -0.6666  0.2396 -0.3001
  772MPD2    C111444   4.567   1.143  13.507 -0.2910 -0.7881  0.1642
  772MPD2    C211445   4.472   1.066  13.573 -0.2958 -0.0461  0.1994
  772MPD2    C311446   4.411   1.100  13.690 -0.0739 -0.0966  0.0530
  772MPD2    C411447   4.426   1.226  13.730 -0.3164  0.0728  0.3301
  772MPD2    C511448   4.508   1.311  13.659 -1.0576 -0.0966  0.3342
  772MPD2     H11449   4.448   0.970  13.528 -0.6353 -0.2250  0.7585
  772MPD2    H111450   4.372   1.264  13.816  1.9206  1.5599  1.0797
  772MPD2    H211451   4.630   1.345  13.485 -1.2945  0.7588 -0.2392
  772MPD2    H311452   4.521   1.413  13.692 -1.5205  0.1047 -0.0880
  772MPD2     N11453   4.315   1.021  13.755 -0.2060  0.4261 -0.1155
  772MPD2    H511454   4.265   1.069  13.829 -0.7161 -0.8350  0.3644
  772MPD2    N111455   4.630   1.076  13.397 -0.2619 -0.4057  0.1614
  772MPD2    H711456   4.617   0.976  13.388  3.7182 -0.6712 -2.7404
  773MPD2     C11457   0.122   2.287  17.491 -0.6709 -0.4839  0.9984
  773MPD2    C111458   0.006   2.224  17.538  1.0235  0.2320  0.5047
  773MPD2    C211459   0.017   2.113  17.615  0.5180  0.0445 -0.3527
  773MPD2    C311460   0.138   2.067  17.669 -0.3513 -0.2547 -0.0458
  773MPD2    C411461   0.251   2.121  17.611  0.3324 -0.5830  0.1967
  773MPD2    C511462   0.241   2.224  17.522 -0.4764  0.4134 -0.1815
  773MPD2     H11463   4.660   2.070  17.657  0.4543  0.4863 -0.0446
  773MPD2    H111464   0.348   2.085  17.644 -0.4963 -1.8110  1.3028
  773MPD2    H211465   0.114   2.370  17.422  0.3715 -1.1857  0.0333
  773MPD2    H311466   0.336   2.263  17.487  0.4828 -2.7239 -1.0504
  773MPD2     N11467   0.134   1.956   0.030  0.2286  0.2990 -0.4631
  773MPD2    H511468   0.043   1.913   0.042 -0.2738  0.6411 -3.1766
  773MPD2    N111469   4.615   2.276  17.496 -0.0653 -0.1603 -0.2713
  773MPD2    H711470   4.614   2.362  17.441 -2.1963 -0.7109 -1.0648
  774MPD2     C11471   3.783   0.839  13.056 -1.0277  0.6074  0.6648
  774MPD2    C111472   3.681   0.927  13.058 -0.1795 -0.2786  0.0409
  774MPD2    C211473   3.716   1.061  13.063 -0.0149 -0.3298 -0.2450
  774MPD2    C311474   3.842   1.109  13.055  0.0620 -0.3591 -0.0783
  774MPD2    C411475   3.947   1.018  13.041 -0.3207  0.4658  0.3468
  774MPD2    C511476   3.910   0.884  13.045  0.5684 -0.4970 -0.4654
  774MPD2     H11477   3.633   1.129  13.080 -0.7380 -1.5659  1.1080
  774MPD2    H111478   4.050   1.051  13.048 -0.4298  0.7560  0.6175
  774MPD2    H211479   3.768   0.733  13.074  1.8994  0.1259  0.2472
  774MPD2    H311480   3.997   0.821  13.060 -0.9155 -2.0439  1.6306
  774MPD2     N11481   3.855   1.249  13.062  0.3648  0.0087 -0.4929
  774MPD2    H511482   3.768   1.299  13.081  0.1978 -0.3986 -0.1886
  774MPD2    N111483   3.551   0.883  13.064  0.7907  0.7393 -0.2992
  774MPD2    H711484   3.540   0.784  13.080  1.1936  0.9836  1.5098
  775MPD2     C11485   0.359   2.494  15.472 -0.1840 -0.3916  0.1793
  775MPD2    C111486   0.316   2.606  15.545  0.6056  0.0063 -0.0390
  775MPD2    C211487   0.396   2.721  15.533  0.4785 -0.1656 -1.3884
  775MPD2    C311488   0.519   2.711  15.461  0.0369  0.7684 -0.0368
  775MPD2    C411489   0.561   2.598  15.391 -0.5714 -0.5708 -0.3213
  775MPD2    C511490   0.474   2.492  15.402  0.5201 -0.5355  0.0813
  775MPD2     H11491   0.371   2.810  15.588 -1.1077 -0.8564 -0.9858
  775MPD2    H111492   0.653   2.601  15.333  1.0448  0.0586  2.2637
  775MPD2    H211493   0.299   2.404  15.471 -2.4188  1.1218  0.0893
  775MPD2    H311494   0.495   2.396  15.355  0.6049 -0.8457  0.7453
  775MPD2     N11495   0.604   2.821  15.458 -0.1204 -0.2620 -0.3381
  775MPD2    H511496   0.696   2.797  15.424  0.0079  0.6587 -0.6543
  775MPD2    N111497   0.198   2.591  15.620 -0.3931 -0.2398  0.2209
  775MPD2    H711498   0.160   2.498  15.634 -1.2428  0.0605 -0.0724
  776MPD2     C11499   4.202   2.904  11.365  0.1062 -0.0332  0.7272
  776MPD2    C111500   4.063   2.906  11.358  0.2592 -0.5341 -0.2150
  776MPD2    C211501   3.994   3.029  11.353 -0.2485  0.6247  0.4614
  776MPD2    C311502   4.068   3.147  11.372 -0.7579 -0.7768  0.5587
  776MPD2    C411503   4.204   3.143  11.372  0.0306  0.0712  0.5305
  776MPD2    C511504   4.271   3.024  11.373 -1.0685 -0.4569 -0.8393
  776MPD2     H11505   3.886   3.030  11.359 -0.3476 -0.0638 -0.9276
  776MPD2    H111506   4.248   3.242  11.363 -1.0617  0.4008 -1.2064
  776MPD2    H211507   4.260   2.813  11.371  0.4674  0.2333  1.3145
  776MPD2    H311508   4.379   3.024  11.364 -0.8220  0.7076  2.2626
  776MPD2     N11509   4.010   3.278  11.362 -0.3207 -0.8705  0.2563
  776MPD2    H511510   4.075   3.356  11.360 -0.8789 -0.4284 -1.1107
  776MPD2    N111511   3.993   2.781  11.363  0.4925  0.2217  0.4146
  776MPD2    H711512   4.052   2.699  11.374 -0.3577 -0.5345 -0.7444
  777MPD2     C11513   4.197   0.663   0.322  0.6051 -0.3056  0.3376
  777MPD2    C111514   4.202   0.563   0.409 -0.7860 -0.5522  0.4049
  777MPD2    C211515   4.209   0.434   0.365 -0.7112  0.2509 -0.2495
  777MPD2    C311516   4.178   0.409   0.232 -0.4474 -0.4655 -0.0356
  777MPD2    C411517   4.180   0.513   0.147  0.7775 -0.5565  0.2411
  777MPD2    C511518   4.187   0.642   0.194  0.1728  0.0103  0.1023
  777MPD2     H11519   4.205   0.350   0.433 -0.0778 -1.1320 -1.9304
  777MPD2    H111520   4.171   0.502   0.040  0.1349  0.5962  0.1755
  777MPD2    H211521   4.191   0.764   0.360  1.0055  0.1828 -0.9134
  777MPD2    H311522   4.189   0.731   0.131 -0.4772  1.0525  1.5596
  777MPD2     N11523   4.175   0.273   0.194  0.5434  0.0452  0.4501
  777MPD2    H511524   4.203   0.204   0.263 -1.1533 -1.2618 -0.1707
  777MPD2    N111525   4.195   0.590   0.549  0.0796 -0.2534  0.0992
  777MPD2    H711526   4.194   0.691   0.559  0.0837 -0.2354 -0.0846
  778MPD2     C11527   0.669   0.540  14.698 -0.3294 -0.5348 -0.4962
  778MPD2    C111528   0.556   0.528  14.620 -0.2049 -0.1056  0.0966
  778MPD2    C211529   0.538   0.607  14.508 -0.3708  0.1270 -0.3007
  778MPD2    C311530   0.639   0.700  14.476  0.0606 -0.2390 -0.3987
  778MPD2    C411531   0.753   0.704  14.556 -0.0847 -0.8361  0.4483
  778MPD2    C511532   0.772   0.622  14.664  0.2777 -0.2730 -0.7285
  778MPD2     H11533   0.453   0.590  14.443 -1.1829 -0.2570  0.8573
  778MPD2    H111534   0.830   0.779  14.545  1.5670 -2.6122 -0.2883
  778MPD2    H211535   0.682   0.474  14.783 -0.6464  3.4002  2.6364
  778MPD2    H311536   0.848   0.633  14.740 -0.2424 -1.1562 -0.0825
  778MPD2     N11537   0.617   0.786  14.367  0.1778 -0.2010  0.0327
  778MPD2    H511538   0.538   0.775  14.305 -1.1627  0.6956  1.5914
  778MPD2    N111539   0.447   0.439  14.656  0.0662 -0.1225 -0.0183
  778MPD2    H711540   0.365   0.454  14.600 -0.8013 -0.2791  1.2049
  779MPD2     C11541   0.210   4.270  14.034  0.3247  0.2410 -0.3096
  779MPD2    C111542   0.313   4.293  13.945 -0.2686  0.5227  0.0292
  779MPD2    C211543   0.337   4.419  13.895 -0.0841 -0.2502 -0.0357
  779MPD2    C311544   0.261   4.528  13.943 -0.1147  0.0289  1.0516
  779MPD2    C411545   0.159   4.499  14.034  0.2604 -0.2337  0.5159
  779MPD2    C511546   0.129   4.370  14.079 -0.3228  0.1042  0.0406
  779MPD2     H11547   0.420   4.434  13.827 -1.4171 -1.5274 -1.9325
  779MPD2    H111548   0.092   4.574  14.074  0.4041 -0.3204  0.9188
  779MPD2    H211549   0.184   4.177  14.085  1.8303  0.1930  0.3650
  779MPD2    H311550   0.037   4.349  14.132 -1.8886  1.6105 -2.0572
  779MPD2     N11551   0.297   4.655  13.891 -0.1192 -0.5012  0.2949
  779MPD2    H511552   0.375   4.656  13.825  0.5468  0.4434  1.0937
  779MPD2    N111553   0.402   4.189  13.903  0.0065 -0.0141  0.5714
  779MPD2    H711554   0.490   4.221  13.863  0.4069 -1.7855  0.0442
  780MPD2     C11555   0.530   3.947   0.519  0.1569  0.1940  0.6730
  780MPD2    C111556   0.400   3.974   0.471  0.0050 -0.1704  0.5874
  780MPD2    C211557   0.383   4.051   0.360 -0.4411 -0.1113  0.6643
  780MPD2    C311558   0.492   4.114   0.310  0.1698  0.1783 -0.3294
  780MPD2    C411559   0.618   4.078   0.344  0.2107 -0.5326  0.7201
  780MPD2    C511560   0.638   3.995   0.453 -0.5640 -0.1670 -0.6408
  780MPD2     H11561   0.287   4.080   0.319 -1.7992 -1.8986  2.5823
  780MPD2    H111562   0.710   4.119   0.303 -0.4366 -1.0238 -1.2185
  780MPD2    H211563   0.552   3.887   0.607 -1.3619 -0.1489  0.8181
  780MPD2    H311564   0.730   3.962   0.499  0.8329  2.7079 -1.3631
  780MPD2     N11565   0.470   4.216   0.210  0.3439  0.3960 -0.0274
  780MPD2    H511566   0.374   4.238   0.183  0.7982  1.4735 -0.7371
  780MPD2    N111567   0.298   3.908   0.540 -0.0896  0.0639  0.0873
  780MPD2    H711568   0.322   3.842   0.613  2.9472  0.1029 -0.8854
  781MPD2     C11569   1.878   1.942  11.630 -0.3045 -0.1680 -1.1314
  781MPD2    C111570   1.883   1.804  11.627 -0.5315 -0.2106  0.2228
  781MPD2    C211571   1.962   1.738  11.534  0.0065 -0.0182 -0.9069
  781MPD2    C311572   2.019   1.808  11.433  0.4445  0.5295 -0.6022
  781MPD2    C411573   2.011   1.944  11.430  0.4374  0.1514 -0.5519
  781MPD2    C511574   1.944   2.009  11.536  0.3964  0.0219 -0.0873
  781MPD2     H11575   1.986   1.633  11.543 -2.6634 -0.8033 -3.0572
  781MPD2    H111576   2.066   2.002  11.357  1.3194 -0.0352 -0.0467
  781MPD2    H211577   1.825   2.002  11.703  0.6757 -0.9886  0.2517
  781MPD2    H311578   1.938   2.117  11.548  0.4141  0.1938 -1.7018
  781MPD2     N11579   2.084   1.751  11.327  0.1164 -0.0861  0.0179
  781MPD2    H511580   2.137   1.816  11.269  0.8630 -1.0485 -0.3844
  781MPD2    N111581   1.830   1.741  11.740  0.1913 -0.2774  0.7512
  781MPD2    H711582   1.789   1.802  11.810 -1.3779  0.3911 -0.7384
  782MPD2     C11583   4.228   1.993   9.744  0.1795 -0.1958 -0.0586
  782MPD2    C111584   4.299   1.916   9.838  0.1870 -0.2687  0.7272
  782MPD2    C211585   4.345   1.977   9.951  0.4801  0.6473  0.8024
  782MPD2    C311586   4.325   2.114   9.973 -0.6685  0.4013  0.4245
  782MPD2    C411587   4.263   2.192   9.874  0.1556  0.1260 -0.0150
  782MPD2    C511588   4.207   2.125   9.762 -0.2661 -0.3918  0.4112
  782MPD2     H11589   4.402   1.904  10.007  1.0798  1.2746  1.0092
  782MPD2    H111590   4.260   2.300   9.883  3.0413  0.3415 -1.9123
  782MPD2    H211591   4.182   1.959   9.651 -1.0467  0.0396  0.4658
  782MPD2    H311592   4.151   2.185   9.690  0.7323 -1.1761 -1.0078
  782MPD2     N11593   4.383   2.173  10.088 -0.8224  0.1451  0.3909
  782MPD2    H511594   4.368   2.272  10.103  0.1942  0.0579  1.9731
  782MPD2    N111595   4.335   1.783   9.816 -0.6760 -0.4128  0.2804
  782MPD2    H711596   4.387   1.742   9.894 -1.0498  1.6620  1.6111
  783MPD2     C11597   4.021   1.257  10.457 -0.4299 -0.9566 -0.1565
  783MPD2    C111598   4.090   1.377  10.485 -0.1345  0.1810 -0.1625
  783MPD2    C211599   4.159   1.447  10.383 -0.4306  0.1284 -0.7118
  783MPD2    C311600   4.152   1.394  10.253 -0.3183 -0.6248  0.0852
  783MPD2    C411601   4.077   1.275  10.229 -0.5522 -0.0064  0.2266
  783MPD2    C511602   4.004   1.224  10.331 -0.1702  0.4360 -0.7424
  783MPD2     H11603   4.211   1.541  10.399 -0.6353 -0.3812  2.9266
  783MPD2    H111604   4.081   1.232  10.129  0.1064 -0.6980  0.5475
  783MPD2    H211605   3.973   1.206  10.540 -0.9913 -0.2364 -0.0327
  783MPD2    H311606   3.944   1.135  10.311 -1.9872  1.4551  0.1807
  783MPD2     N11607   4.222   1.457  10.149  0.0748 -0.4339  0.2760
  783MPD2    H511608   4.266   1.548  10.162 -1.8673  0.4392  0.7923
  783MPD2    N111609   4.091   1.414  10.622  0.6843  0.3384  0.6409
  783MPD2    H711610   4.025   1.368  10.684  0.0532 -1.5009 -1.4204
  784MPD2     C11611   2.237   2.321   0.043  0.1949 -0.6714  0.3518
  784MPD2    C111612   2.207   2.370   0.167 -0.0695 -0.3545  0.2566
  784MPD2    C211613   2.097   2.453   0.194 -1.1024 -0.6645  0.0994
  784MPD2    C311614   1.995   2.475   0.098  0.8698  0.2660  0.2089
  784MPD2    C411615   2.027   2.419  17.706 -0.3286  0.1017  0.1735
  784MPD2    C511616   2.149   2.356  17.681  0.3437 -0.0268 -0.1667
  784MPD2     H11617   2.087   2.501   0.290  1.8139 -1.2942  0.7104
  784MPD2    H111618   1.965   2.422  17.617  1.8937  1.2706 -1.3428
  784MPD2    H211619   2.322   2.255   0.027 -0.2962 -1.5643  1.4021
  784MPD2    H311620   2.168   2.319  17.581  3.3973  1.1778 -0.0209
  784MPD2     N11621   1.870   2.525   0.142 -0.7765 -0.1764  0.1650
  784MPD2    H511622   1.858   2.565   0.235 -0.1003 -0.6273  0.4491
  784MPD2    N111623   2.301   2.361   0.276  0.5173 -0.9413 -0.3395
  784MPD2    H711624   2.279   2.413   0.361 -2.3710 -2.6107 -0.0653
  785MPD2     C11625   2.477   0.844  10.490 -0.3796  0.5323 -0.8566
  785MPD2    C111626   2.368   0.925  10.476  0.2747  0.0817 -0.4714
  785MPD2    C211627   2.242   0.866  10.461 -0.0698  0.5070  0.3050
  785MPD2    C311628   2.231   0.733  10.447 -0.2436  0.8140 -0.1143
  785MPD2    C411629   2.338   0.655  10.456  0.8599  0.8313  0.1430
  785MPD2    C511630   2.461   0.712  10.469 -0.4994  0.7185 -0.0399
  785MPD2     H11631   2.150   0.922  10.466 -1.5224 -1.9122  1.1035
  785MPD2    H111632   2.336   0.548  10.437 -0.8677  1.0460 -0.8592
  785MPD2    H211633   2.578   0.881  10.479 -0.2941  1.1962  2.2483
  785MPD2    H311634   2.552   0.653  10.461 -1.5748 -1.0885  0.9642
  785MPD2     N11635   2.096   0.689  10.422  0.4441  0.0340 -0.4001
  785MPD2    H511636   2.018   0.748  10.451  1.5484  0.9518  0.7374
  785MPD2    N111637   2.376   1.060  10.477 -0.2334  0.4614  0.7362
  785MPD2    H711638   2.286   1.105  10.489  0.5586  2.0901  0.6322
  786MPD2     C11639   1.515   3.437  14.456 -0.3700 -0.1967 -0.2620
  786MPD2    C111640   1.583   3.325  14.431  0.5555 -0.3070  0.5935
  786MPD2    C211641   1.678   3.276  14.522 -0.0282 -0.4043 -0.1451
  786MPD2    C311642   1.696   3.343  14.648  0.3027  0.3571 -0.5718
  786MPD2    C411643   1.630   3.463  14.668  0.1320 -0.3927 -0.0896
  786MPD2    C511644   1.546   3.509  14.570  0.8118  0.1699 -1.1063
  786MPD2     H11645   1.738   3.189  14.498  0.0452 -0.9632  2.1002
  786MPD2    H111646   1.648   3.525  14.755  2.7251  0.6558 -1.3769
  786MPD2    H211647   1.439   3.465  14.384  1.4791 -0.2432 -2.2285
  786MPD2    H311648   1.498   3.601  14.601  2.2091  0.0099  1.5883
  786MPD2     N11649   1.792   3.304  14.746  0.0190 -0.2139 -0.0010
  786MPD2    H511650   1.806   3.377  14.816 -0.4655  1.4695 -1.6668
  786MPD2    N111651   1.570   3.262  14.303 -0.0709  0.1225 -0.2634
  786MPD2    H711652   1.652   3.206  14.281 -0.2521 -1.1433  2.3000
  787MPD2     C11653   2.076   2.991  14.026  0.2304 -0.3319 -0.0827
  787MPD2    C111654   2.008   3.043  13.919 -0.6283  0.1306  0.1712
  787MPD2    C211655   2.064   3.039  13.796  0.7555  0.3538 -0.1503
  787MPD2    C311656   2.193   2.984  13.780  0.3099  0.1347 -0.0799
  787MPD2    C411657   2.260   2.921  13.889  0.7431  0.2850  0.1603
  787MPD2    C511658   2.204   2.936  14.010  0.0689 -0.3077  0.0110
  787MPD2     H11659   2.017   3.093  13.716  0.8450 -1.8700 -1.7044
  787MPD2    H111660   2.349   2.860  13.875 -0.4959 -1.5693  0.3347
  787MPD2    H211661   2.041   2.993  14.128  2.4351  0.6804  0.6450
  787MPD2    H311662   2.260   2.904  14.097 -1.5550 -0.0519  1.1533
  787MPD2     N11663   2.250   2.997  13.649  0.2610 -0.4268  0.3216
  787MPD2    H511664   2.188   3.036  13.579 -0.4174  0.1254  1.2325
  787MPD2    N111665   1.881   3.102  13.953 -0.1628  0.0800  0.0968
  787MPD2    H711666   1.855   3.129  14.047  1.8176  1.4872  0.2231
  788MPD2     C11667   3.062   2.110   0.687 -0.4004 -0.3319 -0.2169
  788MPD2    C111668   2.995   2.056   0.582 -0.1801  0.4211 -1.4608
  788MPD2    C211669   2.965   2.142   0.473  0.8454  0.1800 -0.0084
  788MPD2    C311670   3.011   2.275   0.480 -0.0851 -1.0403  0.5651
  788MPD2    C411671   3.094   2.317   0.581  0.8125  0.2177 -0.0034
  788MPD2    C511672   3.109   2.238   0.690 -0.1528  0.2023 -0.7953
  788MPD2     H11673   2.912   2.108   0.385  0.0049  1.2048  0.1064
  788MPD2    H111674   3.127   2.421   0.579 -0.1193  0.5125 -0.0635
  788MPD2    H211675   3.084   2.044   0.770 -0.8915  1.9174  1.7311
  788MPD2    H311676   3.185   2.257   0.765 -0.4330  0.1732 -0.5043
  788MPD2     N11677   2.995   2.360   0.371  0.7176  0.0151 -0.1047
  788MPD2    H511678   3.039   2.451   0.372 -0.9704  0.8094  0.9416
  788MPD2    N111679   2.954   1.918   0.590 -0.0659  0.5677  0.0189
  788MPD2    H711680   3.000   1.856   0.656 -1.7160  0.7857  1.3796
  789MPD2     C11681   3.271   1.684  15.897 -0.9520 -0.4667 -0.0473
  789MPD2    C111682   3.201   1.673  16.013  0.1609 -0.5405 -0.3226
  789MPD2    C211683   3.166   1.783  16.088 -0.4387  0.0348 -0.5548
  789MPD2    C311684   3.211   1.906  16.051 -0.0272  0.3606 -0.6915
  789MPD2    C411685   3.279   1.917  15.930  0.3888 -0.0619 -0.4404
  789MPD2    C511686   3.301   1.808  15.853 -0.5903  0.0971 -0.2845
  789MPD2     H11687   3.104   1.768  16.176  1.0885  1.1814  0.7076
  789MPD2    H111688   3.318   2.015  15.905 -1.2418  0.6286 -0.2704
  789MPD2    H211689   3.285   1.604  15.825 -1.3053  0.7995 -1.5260
  789MPD2    H311690   3.346   1.820  15.755  0.3668 -0.3094  0.1034
  789MPD2     N11691   3.188   2.019  16.132 -0.0747 -0.2193  0.3741
  789MPD2    H511692   3.209   2.107  16.085 -1.4190  0.2805  0.7174
  789MPD2    N111693   3.132   1.554  16.038 -0.7645 -0.3478  0.2854
  789MPD2    H711694   3.059   1.552  16.109  1.0166  0.0814  2.1219
  790MPD2     C11695   4.150   3.409  13.456 -0.4905  0.2903 -0.6104
  790MPD2    C111696   4.159   3.274  13.453  0.2545  0.4743 -0.0059
  790MPD2    C211697   4.136   3.212  13.328 -0.4387 -0.2483  0.4492
  790MPD2    C311698   4.116   3.283  13.213  0.0930  0.0798 -0.0145
  790MPD2    C411699   4.100   3.423  13.230  0.4598  0.0535  0.2597
  790MPD2    C511700   4.126   3.483  13.346 -0.2813 -0.0075 -0.1881
  790MPD2     H11701   4.144   3.104  13.320 -1.2864 -0.2209 -0.7341
  790MPD2    H111702   4.082   3.493  13.150  2.5705 -1.5192 -1.6110
  790MPD2    H211703   4.159   3.456  13.553 -0.5984  0.2725 -0.5928
  790MPD2    H311704   4.118   3.591  13.358  0.7493  0.1033 -0.4785
  790MPD2     N11705   4.094   3.219  13.090  0.2170  0.4118  0.1820
  790MPD2    H511706   4.100   3.118  13.087 -0.1014  0.4227 -1.0273
  790MPD2    N111707   4.202   3.200  13.572  0.1482 -0.1675  0.4689
  790MPD2    H711708   4.175   3.232  13.664  1.5986  1.6548  0.2455
  791MPD2     C11709   3.555   3.145  12.418  0.0224 -0.7182  0.0037
  791MPD2    C111710   3.593   3.070  12.529  0.1202  0.3623 -0.8070
  791MPD2    C211711   3.504   2.972  12.571 -0.6364 -0.2043 -0.0970
  791MPD2    C311712   3.380   2.948  12.506 -0.4048 -0.3155  0.4242
  791MPD2    C411713   3.340   3.034  12.400 -0.0030  0.4313 -0.1853
  791MPD2    C511714   3.429   3.123  12.361  0.4118  0.2221 -0.3514
  791MPD2     H11715   3.527   2.906  12.653 -2.0197 -0.9235 -0.2771
  791MPD2    H111716   3.243   3.030  12.352 -0.4478  1.0901  0.6506
  791MPD2    H211717   3.607   3.230  12.376 -0.8135 -0.1011  0.2149
  791MPD2    H311718   3.400   3.176  12.271  1.3375 -0.9618 -1.3422
  791MPD2     N11719   3.296   2.848  12.552  0.9764  0.1283  0.2143
  791MPD2    H511720   3.340   2.783  12.616  1.5439 -2.8918 -3.2409
  791MPD2    N111721   3.719   3.105  12.592  0.1646 -0.3985 -0.0828
  791MPD2    H711722   3.768   3.187  12.558 -2.0617  0.5744 -0.9568
  792MPD2     C11723   4.330   2.689  10.982  0.4744  0.5558 -1.2194
  792MPD2    C111724   4.212   2.760  11.010  0.3446 -0.2408 -0.6199
  792MPD2    C211725   4.096   2.685  11.018 -0.4369  0.6261 -0.3557
  792MPD2    C311726   4.092   2.553  10.988  0.5253 -0.5425  0.6127
  792MPD2    C411727   4.205   2.487  10.960 -0.1657 -0.3140  0.1180
  792MPD2    C511728   4.328   2.551  10.968 -0.1662 -0.7316  0.1826
  792MPD2     H11729   4.006   2.735  11.052 -0.9406  0.2532 -1.1382
  792MPD2    H111730   4.199   2.382  10.935  0.1857 -0.2749 -0.1284
  792MPD2    H211731   4.430   2.731  10.969  0.0558  1.0375 -2.7964
  792MPD2    H311732   4.412   2.486  10.947  2.0634  1.7635  1.4291
  792MPD2     N11733   3.976   2.474  10.983  0.2948  0.4921  0.3421
  792MPD2    H511734   3.987   2.380  10.946  1.0891 -0.2286  2.4195
  792MPD2    N111735   4.228   2.906  11.030  0.1154  0.5827  0.0219
  792MPD2    H711736   4.324   2.939  11.035  0.7237 -1.3701  1.2269
  793MPD2     C11737   3.451   2.290  10.255  0.3335 -0.6416  0.4754
  793MPD2    C111738   3.570   2.348  10.289  0.7398  0.7520  0.2715
  793MPD2    C211739   3.594   2.374  10.419  0.3282  0.3326  0.6406
  793MPD2    C311740   3.509   2.345  10.520 -0.4427  0.5446 -0.1989
  793MPD2    C411741   3.387   2.283  10.485 -0.0896 -0.9515  0.2411
  793MPD2    C511742   3.359   2.262  10.353  0.3104  0.4591 -1.2039
  793MPD2     H11743   3.690   2.417  10.446 -0.9348  2.0535  2.4678
  793MPD2    H111744   3.315   2.273  10.565 -0.7206  0.0888 -0.2026
  793MPD2    H211745   3.429   2.246  10.158 -1.8735 -1.3014  1.2710
  793MPD2    H311746   3.278   2.195  10.330 -0.6403  1.1438  0.1188
  793MPD2     N11747   3.555   2.356  10.654  0.2436  0.2322 -0.0714
  793MPD2    H511748   3.637   2.416  10.656  1.1494 -0.9869 -0.7964
  793MPD2    N111749   3.680   2.359  10.206  0.1941 -0.1261 -0.2562
  793MPD2    H711750   3.768   2.380  10.251 -0.1440 -5.8115  3.1235
  794MPD2     C11751   4.329   2.499  16.824  0.4869 -0.2472  0.6229
  794MPD2    C111752   4.222   2.432  16.888  0.7991  0.3701  0.2108
  794MPD2    C211753   4.106   2.406  16.822 -0.8504 -0.0420 -0.1674
  794MPD2    C311754   4.090   2.458  16.693  0.0038 -0.2431  0.4241
  794MPD2    C411755   4.183   2.553  16.642 -0.2235  0.2204 -0.1296
  794MPD2    C511756   4.298   2.558  16.712  0.5196 -0.1373 -0.3910
  794MPD2     H11757   4.021   2.361  16.873 -0.3126 -2.2764 -1.2272
  794MPD2    H111758   4.178   2.612  16.551  0.4349  0.9804  0.3339
  794MPD2    H211759   4.429   2.517  16.862 -0.2768  1.4869  1.8034
  794MPD2    H311760   4.372   2.622  16.666  0.0784 -0.1412 -1.1245
  794MPD2     N11761   3.965   2.443  16.621  0.0247 -0.2163 -0.5171
  794MPD2    H511762   3.962   2.503  16.539 -0.3952  0.1035 -0.2670
  794MPD2    N111763   4.237   2.379  17.021  0.5847 -0.1904 -0.2529
  794MPD2    H711764   4.157   2.324  17.051  1.5278 -1.5072 -0.1680
  795MPD2     C11765   1.772   4.427  13.076  0.4349  0.1942  0.7980
  795MPD2    C111766   1.647   4.428  13.140 -0.0093 -0.4932  0.0061
  795MPD2    C211767   1.637   4.399  13.273  0.1677  0.6686 -0.7282
  795MPD2    C311768   1.749   4.356  13.345  0.2139 -0.0298  0.0402
  795MPD2    C411769   1.863   4.342  13.275  0.0365  0.0407  0.2207
  795MPD2    C511770   1.877   4.374  13.141  0.2236 -0.2708 -0.2193
  795MPD2     H11771   1.544   4.428  13.320 -0.0097 -0.9557 -0.0710
  795MPD2    H111772   1.951   4.308  13.327 -0.1918 -0.3535  0.3519
  795MPD2    H211773   1.783   4.459  12.973  0.9193  0.1768  0.8451
  795MPD2    H311774   1.972   4.366  13.089 -0.7836 -1.0396 -1.9176
  795MPD2     N11775   1.754   4.363  13.485  0.1278 -0.5361 -0.0653
  795MPD2    H511776   1.848   4.377  13.519  0.1329 -0.2802 -0.1829
  795MPD2    N111777   1.532   4.481  13.071  0.1677 -0.6486 -0.3417
  795MPD2    H711778   1.454   4.512  13.129  0.1176 -0.5915 -0.4393
  796MPD2     C11779   1.075   1.141  15.493 -1.1785 -0.1713 -0.8151
  796MPD2    C111780   1.146   1.207  15.586  0.2291  0.3862  0.0420
  796MPD2    C211781   1.171   1.342  15.567  0.2224  0.3076 -0.5823
  796MPD2    C311782   1.132   1.398  15.452  0.2925 -0.7301  0.1202
  796MPD2    C411783   1.061   1.332  15.357 -0.2305 -0.6363 -0.1888
  796MPD2    C511784   1.028   1.203  15.383  0.1321 -0.1868 -1.1212
  796MPD2     H11785   1.224   1.406  15.637  1.7273  0.5111 -1.9011
  796MPD2    H111786   1.029   1.375  15.262  1.5417 -1.7111 -1.2606
  796MPD2    H211787   1.062   1.034  15.503 -0.0972 -0.0674  1.6114
  796MPD2    H311788   0.977   1.143  15.308  0.2631 -1.4302 -0.2083
  796MPD2     N11789   1.165   1.539  15.424  0.0701 -0.6412 -0.6885
  796MPD2    H511790   1.170   1.603  15.503  0.4306 -0.9321 -0.4768
  796MPD2    N111791   1.193   1.133  15.701 -0.2094 -0.4320 -0.0610
  796MPD2    H711792   1.147   1.047  15.729 -0.6938  0.3833  1.5854
  797MPD2     C11793   2.382   0.760  17.193 -0.0834  0.7450 -0.9097
  797MPD2    C111794   2.437   0.880  17.159 -0.4834  0.3908 -0.6568
  797MPD2    C211795   2.379   0.953  17.057  1.0044  0.2554  0.0319
  797MPD2    C311796   2.261   0.911  16.992  0.0115 -0.9815  0.8159
  797MPD2    C411797   2.211   0.785  17.029  0.1448  0.3391 -0.8842
  797MPD2    C511798   2.272   0.711  17.124  1.2782 -0.0154  0.4018
  797MPD2     H11799   2.413   1.054  17.039  0.2743  0.6419  0.8395
  797MPD2    H111800   2.114   0.750  16.996  0.4811 -1.6462  0.2549
  797MPD2    H211801   2.416   0.695  17.272 -1.1825  2.6229  1.1010
  797MPD2    H311802   2.217   0.634  17.177  1.6305  0.5639  1.6165
  797MPD2     N11803   2.197   0.995  16.898 -0.3627 -0.0322  0.1840
  797MPD2    H511804   2.227   1.092  16.897  0.5494 -0.3037  1.1861
  797MPD2    N111805   2.546   0.940  17.222 -0.0142  0.5242  0.6068
  797MPD2    H711806   2.575   1.027  17.177 -0.6262  0.3646 -0.1002
  798MPD2     C11807   2.408   1.642  16.996 -0.3062  0.3247  0.0649
  798MPD2    C111808   2.384   1.508  16.979  0.4994  0.5293  0.2254
  798MPD2    C211809   2.466   1.422  17.043  0.7314 -0.5551  0.3085
  798MPD2    C311810   2.563   1.457  17.136  0.4991  0.0430 -0.1892
  798MPD2    C411811   2.580   1.592  17.162 -0.1938 -0.5259 -0.0530
  798MPD2    C511812   2.506   1.679  17.084  0.3426  0.0650 -0.0298
  798MPD2     H11813   2.453   1.315  17.038 -1.8853 -0.2933  1.4998
  798MPD2    H111814   2.642   1.637  17.238 -1.4075  0.7269  0.1935
  798MPD2    H211815   2.351   1.713  16.937  0.6003  0.2973 -0.8297
  798MPD2    H311816   2.519   1.786  17.101  0.9746  0.0574 -0.4563
  798MPD2     N11817   2.626   1.357  17.209  0.1532 -0.0770 -0.0096
  798MPD2    H511818   2.613   1.264  17.171 -0.3574 -0.4985  1.1815
  798MPD2    N111819   2.296   1.465  16.882  0.3493  0.0629  0.4670
  798MPD2    H711820   2.255   1.538  16.825 -0.8598  0.0981  1.3821
  799MPD2     C11821   1.473   2.553  13.904  0.4224  0.2160  0.1396
  799MPD2    C111822   1.385   2.499  13.809  0.8760 -0.0398  0.0382
  799MPD2    C211823   1.327   2.576  13.717  0.0716 -0.2972 -0.0370
  799MPD2    C311824   1.338   2.710  13.721  0.2548  0.9056 -0.3635
  799MPD2    C411825   1.425   2.763  13.814  0.1516  0.3060 -0.0014
  799MPD2    C511826   1.491   2.686  13.904 -0.5289  0.6768  0.3897
  799MPD2     H11827   1.256   2.533  13.647 -1.5616  2.7779 -0.2611
  799MPD2    H111828   1.446   2.869  13.821  0.0041  0.2717  0.9599
  799MPD2    H211829   1.526   2.494  13.978 -3.2484 -1.9056  1.0517
  799MPD2    H311830   1.568   2.730  13.965  0.9271 -1.1796 -0.1040
  799MPD2     N11831   1.292   2.798  13.616 -0.0521  0.1406 -0.5507
  799MPD2    H511832   1.322   2.895  13.620  0.9047 -0.2087  0.5879
  799MPD2    N111833   1.366   2.362  13.797  0.1661 -0.4143 -0.3421
  799MPD2    H711834   1.319   2.340  13.709 -0.7912 -1.9766  0.5598
  800MPD2     C11835   1.376   3.589  14.065 -0.2391 -0.6593  0.2362
  800MPD2    C111836   1.510   3.568  14.045 -0.0002  0.1997  0.3029
  800MPD2    C211837   1.549   3.502  13.926  0.0066 -0.2604  0.2326
  800MPD2    C311838   1.460   3.469  13.828  0.0953 -0.6452 -0.0871
  800MPD2    C411839   1.328   3.505  13.845  0.3254 -0.7015 -0.2649
  800MPD2    C511840   1.289   3.569  13.961 -0.1164  0.1067  0.1860
  800MPD2     H11841   1.655   3.485  13.912  0.3566  0.5153  1.9649
  800MPD2    H111842   1.248   3.482  13.776  1.4468 -2.3293 -1.0285
  800MPD2    H211843   1.337   3.641  14.152  1.0611  0.1935  0.3088
  800MPD2    H311844   1.182   3.580  13.975  0.2732  1.1380  2.3531
  800MPD2     N11845   1.509   3.405  13.714  0.2253 -0.0818 -0.5862
  800MPD2    H511846   1.609   3.387  13.717  0.1715 -0.3452 -0.3547
  800MPD2    N111847   1.600   3.605  14.151  0.5015 -0.2217  0.4491
  800MPD2    H711848   1.561   3.666  14.222  0.2373  1.1931 -0.9088
  801MPD2     C11849   1.790   4.286  14.215 -0.4099 -0.2137  0.2220
  801MPD2    C111850   1.717   4.174  14.198 -0.1552  0.5458 -0.4351
  801MPD2    C211851   1.591   4.191  14.139 -0.0587  0.0643  0.2228
  801MPD2    C311852   1.535   4.317  14.115 -0.0906 -0.6160  0.0414
  801MPD2    C411853   1.613   4.425  14.144 -0.1826 -0.0238 -0.2638
  801MPD2    C511854   1.742   4.412  14.194 -0.3861 -0.4471  0.5371
  801MPD2     H11855   1.535   4.099  14.129 -1.7701  1.1666 -0.2394
  801MPD2    H111856   1.576   4.525  14.123  1.0128 -0.0230 -2.3866
  801MPD2    H211857   1.887   4.282  14.264  0.2328  1.1677 -0.9325
  801MPD2    H311858   1.794   4.503  14.221 -0.3793 -0.3128  0.0689
  801MPD2     N11859   1.406   4.346  14.060  0.6373  0.6232 -0.1562
  801MPD2    H511860   1.372   4.441  14.066  1.7510  0.9752  0.7314
  801MPD2    N111861   1.753   4.042  14.229  0.1970  0.4986  0.3891
  801MPD2    H711862   1.691   3.967  14.200 -3.0147  2.9147  1.0033
  802MPD2     C11863   1.607   0.133  17.671  0.1182  0.4887 -0.4737
  802MPD2    C111864   1.512   0.184  17.588  0.1941  0.4379  0.1419
  802MPD2    C211865   1.492   0.126  17.468  0.5213  0.5411 -0.5077
  802MPD2    C311866   1.573   0.022  17.418 -0.6395 -0.7563  0.7043
  802MPD2    C411867   1.676   4.707  17.496 -0.3670 -0.5304 -0.8681
  802MPD2    C511868   1.691   0.037  17.621  0.4436  0.1604  0.5640
  802MPD2     H11869   1.411   0.172  17.413 -0.3850 -0.4530  0.0093
  802MPD2    H111870   1.749   4.630  17.476  0.8299  0.3907 -0.0429
  802MPD2    H211871   1.634   0.183   0.027 -0.1754  1.4138 -0.8933
  802MPD2    H311872   1.779   0.005  17.675 -0.2720 -1.1282  0.9627
  802MPD2     N11873   1.543   4.706  17.286 -0.2259  0.4034 -0.0952
  802MPD2    H511874   1.468   0.019  17.236 -0.1189  0.9129  0.2266
  802MPD2    N111875   1.426   0.292  17.625  0.8157  0.1462 -0.3055
  802MPD2    H711876   1.350   0.323  17.565  0.9693 -0.5749 -0.8687
  803MPD2     C11877   2.299   3.132  11.687 -0.6541  0.1289  0.0187
  803MPD2    C111878   2.376   3.088  11.795  0.0548 -0.7125  0.0237
  803MPD2    C211879   2.312   3.014  11.893  0.5096  0.0064  0.6092
  803MPD2    C311880   2.179   2.985  11.896 -0.3305  0.5307  0.1753
  803MPD2    C411881   2.099   3.037  11.795  0.1727 -0.4621  0.2055
  803MPD2    C511882   2.164   3.106  11.692 -0.3227 -0.5931 -0.7384
  803MPD2     H11883   2.367   2.976  11.979  2.7809  1.7274 -0.0731
  803MPD2    H111884   1.992   3.018  11.792  0.3916 -2.1582  3.1328
  803MPD2    H211885   2.346   3.178  11.600  0.3756 -2.4418 -0.7671
  803MPD2    H311886   2.096   3.135  11.613  0.6857  0.1265 -1.3446
  803MPD2     N11887   2.118   2.896  11.990  0.0580 -0.0576  0.2176
  803MPD2    H511888   2.018   2.881  11.983 -0.3257  3.0179 -0.6087
  803MPD2    N111889   2.518   3.115  11.812  0.5344  0.2625  0.2787
  803MPD2    H711890   2.564   3.082  11.896 -1.0042  1.6000  1.6396
  804MPD2     C11891   1.823   4.380  16.812 -1.0144  0.7110 -0.1098
  804MPD2    C111892   1.855   4.365  16.947 -0.6097 -0.4047 -0.1275
  804MPD2    C211893   1.868   4.472  17.030 -0.9045  0.2467  0.2554
  804MPD2    C311894   1.865   4.602  16.988 -0.3519 -0.0768 -0.0416
  804MPD2    C411895   1.850   4.622  16.851  0.6126  0.7917  0.6054
  804MPD2    C511896   1.826   4.510  16.772  0.5387  0.1086 -0.3404
  804MPD2     H11897   1.890   4.450  17.133 -2.2362  1.2546  0.7554
  804MPD2    H111898   1.828   4.721  16.812 -0.1737  0.4207  0.1230
  804MPD2    H211899   1.799   4.301  16.741  0.7502 -0.3561  0.4855
  804MPD2    H311900   1.817   4.529  16.665 -1.0231 -1.2902 -0.4516
  804MPD2     N11901   1.878   4.702  17.088 -0.5649  0.8944 -0.1400
  804MPD2    H511902   1.919   4.674  17.177 -1.6030 -1.0181 -0.2767
  804MPD2    N111903   1.872   4.229  16.995 -0.2045 -0.6676 -0.4885
  804MPD2    H711904   1.857   4.208  17.093 -2.0781  2.4127 -0.1069
  805MPD2     C11905   0.792   2.394  15.029  0.1629  0.4353  0.0171
  805MPD2    C111906   0.819   2.519  14.989  0.7467  0.1805  0.3872
  805MPD2    C211907   0.905   2.596  15.061 -0.2994  0.0922  0.8287
  805MPD2    C311908   0.967   2.567  15.177 -0.3369  0.5430  0.2509
  805MPD2    C411909   0.940   2.441  15.219 -0.0230 -0.0571 -0.7859
  805MPD2    C511910   0.854   2.359  15.142 -0.4343  0.5672 -0.7482
  805MPD2     H11911   0.914   2.700  15.034  0.0007  0.3109  1.7896
  805MPD2    H111912   0.991   2.393  15.302 -4.0364 -1.8500  0.6618
  805MPD2    H211913   0.718   2.325  14.991  1.4436 -1.3762  0.8259
  805MPD2    H311914   0.824   2.260  15.176 -0.2775  0.9691  0.5548
  805MPD2     N11915   1.059   2.653  15.238  0.3134  0.1419 -0.1623
  805MPD2    H511916   1.058   2.751  15.211 -2.8139  0.2027  0.1638
  805MPD2    N111917   0.774   2.566  14.861  0.0669 -0.5326 -0.1203
  805MPD2    H711918   0.813   2.654  14.831  1.4103 -0.8359  0.6939
  806MPD2     C11919   1.087   2.227  17.415  0.5867  0.4499  0.1771
  806MPD2    C111920   1.129   2.302  17.527 -0.6424 -0.0324 -0.9695
  806MPD2    C211921   1.231   2.390  17.512  0.5845 -0.5154  0.4217
  806MPD2    C311922   1.278   2.420  17.386  1.0891 -0.2174 -0.3694
  806MPD2    C411923   1.248   2.340  17.274 -0.7475 -0.4802  0.0760
  806MPD2    C511924   1.147   2.244  17.291 -0.1029  0.2348  0.2407
  806MPD2     H11925   1.254   2.449  17.600 -0.1286  1.7670 -0.9404
  806MPD2    H111926   1.282   2.362  17.173 -1.4188  0.8652  0.1421
  806MPD2    H211927   1.014   2.149  17.431  2.9589 -0.9974  4.0086
  806MPD2    H311928   1.118   2.176  17.212 -0.0778  0.0075  0.4251
  806MPD2     N11929   1.353   2.537  17.375  0.3371 -0.4092 -0.6364
  806MPD2    H511930   1.358   2.581  17.467 -3.8085  0.1422 -0.6881
  806MPD2    N111931   1.070   2.270  17.654 -0.3660  0.0840 -0.0303
  806MPD2    H711932   0.984   2.216  17.657 -1.0836  1.0947 -1.9649
  807MPD2     C11933   0.726   1.878   0.539 -0.0122  1.1542 -0.8309
  807MPD2    C111934   0.834   1.947   0.570  0.0825  0.7699  0.1208
  807MPD2    C211935   0.894   1.929   0.689 -0.3700 -0.6336  0.0177
  807MPD2    C311936   0.836   1.860   0.793  0.0922 -0.7240  0.2214
  807MPD2    C411937   0.715   1.799   0.762  0.1178  0.3837 -0.1995
  807MPD2    C511938   0.660   1.811   0.637 -0.0789 -0.1968  0.4623
  807MPD2     H11939   0.991   1.974   0.704 -1.2858  0.8486  1.4685
  807MPD2    H111940   0.653   1.745   0.833 -0.2899  0.3757 -0.5606
  807MPD2    H211941   0.681   1.875   0.440 -1.2062  0.0524 -0.2600
  807MPD2    H311942   0.564   1.766   0.616  0.8028 -2.1697  0.7085
  807MPD2     N11943   0.900   1.852   0.914  0.5817  0.3504 -0.3166
  807MPD2    H511944   0.988   1.902   0.922  1.1381 -0.9994  2.1321
  807MPD2    N111945   0.893   2.046   0.486 -0.1385  0.0956 -0.5871
  807MPD2    H711946   0.973   2.099   0.519  0.1255  0.9585 -2.5741
  808MPD2     C11947   2.024   2.229   9.759  0.4661 -0.2422 -0.1866
  808MPD2    C111948   1.999   2.325   9.856  0.5015 -0.0824  0.9314
  808MPD2    C211949   2.076   2.438   9.859  0.2485  0.3823  0.4083
  808MPD2    C311950   2.154   2.472   9.749 -0.1662  0.0139  0.1047
  808MPD2    C411951   2.171   2.376   9.648 -0.2072  0.2828 -0.5532
  808MPD2    C511952   2.111   2.250   9.658 -0.1048 -0.4014  0.1898
  808MPD2     H11953   2.061   2.499   9.948  1.8390  0.3537  0.7042
  808MPD2    H111954   2.226   2.391   9.556  1.7866 -0.5271  0.5062
  808MPD2    H211955   1.980   2.130   9.757  2.1833 -1.0168  0.7496
  808MPD2    H311956   2.140   2.182   9.579 -1.7086  0.7851 -1.4337
  808MPD2     N11957   2.231   2.590   9.736  0.1001 -0.3451  0.4585
  808MPD2    H511958   2.268   2.594   9.642  1.6131 -0.7341  1.0380
  808MPD2    N111959   1.909   2.306   9.960  1.0033 -0.1011 -0.3578
  808MPD2    H711960   1.917   2.372  10.036 -2.3077 -0.1752  0.0269
  809MPD2     C11961   2.845   2.612   9.191 -0.1337  0.9940  0.3865
  809MPD2    C111962   2.878   2.737   9.255 -0.5134 -0.4087  0.5801
  809MPD2    C211963   2.788   2.797   9.345 -0.1914 -0.1276 -1.1302
  809MPD2    C311964   2.663   2.740   9.370  0.1800 -0.0307 -0.6115
  809MPD2    C411965   2.638   2.621   9.304  0.2175 -0.0608 -0.4508
  809MPD2    C511966   2.724   2.559   9.218  0.5994  0.3176  0.1663
  809MPD2     H11967   2.813   2.896   9.383  2.9397 -0.4214 -2.4535
  809MPD2    H111968   2.542   2.573   9.321  0.2532  1.3704  3.9640
  809MPD2    H211969   2.911   2.555   9.126 -1.1413  0.5667 -0.2739
  809MPD2    H311970   2.711   2.457   9.182  1.9799  0.1376  0.1934
  809MPD2     N11971   2.574   2.779   9.469 -0.0688  0.6868 -0.1947
  809MPD2    H511972   2.492   2.724   9.492  1.2731 -0.6955  1.2759
  809MPD2    N111973   2.994   2.805   9.208 -0.5536  0.0617 -0.0369
  809MPD2    H711974   3.005   2.895   9.253  0.3425  0.8810 -1.8709
  810MPD2     C11975   1.195   3.110  10.540 -0.4907  0.0794  0.0840
  810MPD2    C111976   1.080   3.152  10.475 -0.6012  1.1007  0.4299
  810MPD2    C211977   1.054   3.291  10.469  0.8038  0.6539  0.0438
  810MPD2    C311978   1.130   3.378  10.541 -0.6242  0.3880  0.2624
  810MPD2    C411979   1.242   3.336  10.607 -0.6108  0.5939 -1.0963
  810MPD2    C511980   1.273   3.206  10.605 -0.0144 -0.0743 -0.8488
  810MPD2     H11981   0.969   3.332  10.415  0.4784  0.2230  0.2230
  810MPD2    H111982   1.301   3.410  10.659 -1.1736  0.8461 -0.8104
  810MPD2    H211983   1.230   3.007  10.545  0.4779  0.4433  0.8435
  810MPD2    H311984   1.371   3.180  10.641 -0.6815  0.6341  1.4724
  810MPD2     N11985   1.114   3.520  10.548 -0.6583  0.0687  0.3305
  810MPD2    H511986   1.180   3.568  10.608  1.4264 -2.6658  0.2480
  810MPD2    N111987   0.992   3.064  10.407 -0.0701 -0.2681 -0.3175
  810MPD2    H711988   0.916   3.111  10.359  0.4596  0.4798 -0.4104
  811MPD2     C11989   0.345   3.038   9.923  0.1077  0.6706  0.0752
  811MPD2    C111990   0.462   3.077   9.989 -0.0103  0.0366  0.5015
  811MPD2    C211991   0.490   3.212   9.996 -0.1734  1.0550  0.2858
  811MPD2    C311992   0.411   3.311   9.941 -0.5452 -0.5221 -0.6596
  811MPD2    C411993   0.293   3.273   9.876 -0.5795 -0.0242  0.1195
  811MPD2    C511994   0.266   3.137   9.871 -0.0929 -0.2178  0.0723
  811MPD2     H11995   0.582   3.241  10.045  0.6121 -0.7862 -0.0853
  811MPD2    H111996   0.227   3.343   9.826 -0.3797 -1.0810 -1.6321
  811MPD2    H211997   0.315   2.935   9.908 -0.4990  0.3353  3.7176
  811MPD2    H311998   0.164   3.111   9.843  0.3727  0.2016 -1.9622
  811MPD2     N11999   0.443   3.446   9.965  0.1780  0.4471 -0.7307
  811MPD2    H512000   0.537   3.467   9.994  0.9387 -1.8181 -1.5323
  811MPD2    N112001   0.550   2.985  10.059  0.3590  0.1508 -0.4848
  811MPD2    H712002   0.533   2.885  10.059 -2.1677  0.5701 -1.9629
  812MPD2     C12003   0.154   3.131  11.732 -0.3346 -0.0572  0.2470
  812MPD2    C112004   0.131   3.235  11.821  0.1671  0.0264  0.1280
  812MPD2    C212005   0.123   3.211  11.959  0.5737 -0.6073  0.2288
  812MPD2    C312006   0.127   3.079  12.007 -0.7453 -0.3577 -0.1220
  812MPD2    C412007   0.162   2.978  11.918 -0.4465  0.3686 -0.3990
  812MPD2    C512008   0.168   3.000  11.782  0.7035 -0.2607 -0.1909
  812MPD2     H12009   0.110   3.291  12.030 -3.6166 -0.0399 -1.1865
  812MPD2    H112010   0.162   2.872  11.938 -0.5083  0.2324 -1.1284
  812MPD2    H212011   0.171   3.143  11.626 -0.1358 -2.1759  0.0244
  812MPD2    H312012   0.170   2.915  11.714  0.3805  0.5166 -1.1834
  812MPD2     N12013   0.114   3.058  12.146  0.0236  0.0867 -0.8981
  812MPD2    H512014   0.107   3.147  12.195 -2.0940 -0.3701 -0.3787
  812MPD2    N112015   0.111   3.366  11.762 -0.6823  0.0489  0.5084
  812MPD2    H712016   0.122   3.370  11.662  0.3876  3.6873  0.7745
  813MPD2     C12017   3.098   0.469  12.676  0.7023  0.3807 -0.2943
  813MPD2    C112018   3.125   0.357  12.745  0.7214 -0.0074  0.8142
  813MPD2    C212019   3.036   0.308  12.838 -0.3413 -0.0430 -0.3552
  813MPD2    C312020   2.919   0.383  12.866 -0.2027  0.0194 -0.4926
  813MPD2    C412021   2.885   0.492  12.788  0.3713  0.3991 -0.2334
  813MPD2    C512022   2.973   0.537  12.695 -0.4757  0.8494 -0.6733
  813MPD2     H12023   3.057   0.220  12.898  0.9658  1.0530  0.8015
  813MPD2    H112024   2.800   0.554  12.813  0.0762 -0.9349  2.0793
  813MPD2    H212025   3.150   0.499  12.585  2.1352 -0.2208  0.3340
  813MPD2    H312026   2.936   0.620  12.635 -0.7772  1.4174  0.2865
  813MPD2     N12027   2.826   0.353  12.972 -0.0863 -0.1313  0.4086
  813MPD2    H512028   2.742   0.406  12.994 -0.0212  0.8302 -1.6551
  813MPD2    N112029   3.243   0.288  12.728  0.8888  0.3388 -0.3840
  813MPD2    H712030   3.250   0.199  12.776  0.9383 -0.0419 -1.0982
  814MPD2     C12031   4.300   1.515  11.825  0.2574 -0.2072 -0.2065
  814MPD2    C112032   4.383   1.498  11.719  0.5176 -0.1549  0.1679
  814MPD2    C212033   4.502   1.574  11.703  0.5779  0.5656  0.2191
  814MPD2    C312034   4.536   1.669  11.806  0.6177  0.2731 -0.6550
  814MPD2    C412035   4.451   1.677  11.910 -0.0727 -1.0979  0.5334
  814MPD2    C512036   4.329   1.615  11.913 -0.0369  0.1166  1.0032
  814MPD2     H12037   4.575   1.544  11.629  1.2152  1.9690  0.2678
  814MPD2    H112038   4.476   1.747  11.989 -0.0178  0.8531 -1.1866
  814MPD2    H212039   4.200   1.473  11.833 -0.3445  1.4801  1.1377
  814MPD2    H312040   4.265   1.645  11.994  0.3190  0.4671  1.1543
  814MPD2     N12041   4.661   1.740  11.817  0.1738 -0.0027 -0.1825
  814MPD2    H512042   4.672   1.803  11.896 -1.3570 -1.3443  1.0940
  814MPD2    N112043   4.354   1.404  11.615 -0.6754  0.1894 -0.3787
  814MPD2    H712044   4.410   1.399  11.531  0.1089  0.0774  0.1456
  815MPD2     C12045   4.725   0.306  11.299 -0.9501 -0.9153  0.1472
  815MPD2    C112046   0.008   0.187  11.364  0.9153 -0.0563 -0.2867
  815MPD2    C212047   4.683   0.164  11.487 -0.7740 -0.4168 -0.3012
  815MPD2    C312048   4.611   0.266  11.556 -0.5135  0.5737  0.5401
  815MPD2    C412049   4.596   0.383  11.488 -0.3138  0.2152  0.0621
  815MPD2    C512050   4.645   0.403  11.359 -0.3526  0.4032 -0.3213
  815MPD2     H12051   4.697   0.068  11.536  1.8521  0.4242  0.6133
  815MPD2    H112052   4.544   0.467  11.532 -0.8028  0.2964 -0.6703
  815MPD2    H212053   0.012   0.318  11.193 -1.3721  0.3833  0.2102
  815MPD2    H312054   4.626   0.499  11.311  0.0915 -0.0992 -1.4744
  815MPD2     N12055   4.538   0.235  11.669 -0.2281  0.0296 -0.1788
  815MPD2    H512056   4.562   0.145  11.710 -3.7807 -1.3785 -1.2333
  815MPD2    N112057   0.084   0.093  11.293 -0.1293  0.0919  0.0655
  815MPD2    H712058   0.117   0.114  11.200  0.2031  0.1878  0.2047
  816MPD2     C12059   4.717   3.706  16.858 -0.4816 -0.2641  0.5435
  816MPD2    C112060   0.088   3.796  16.863  0.7482  0.0701 -0.5067
  816MPD2    C212061   0.199   3.777  16.778  0.1672 -0.0720 -0.2856
  816MPD2    C312062   0.210   3.662  16.697  0.1537  0.5894  0.2991
  816MPD2    C412063   0.104   3.578  16.694  0.1514 -0.0297  0.7548
  816MPD2    C512064   4.733   3.592  16.780 -0.0609 -0.3596 -0.2927
  816MPD2     H12065   0.290   3.836  16.777  0.6749 -0.8316  0.2470
  816MPD2    H112066   0.108   3.481  16.646 -0.7105  0.3418 -0.0627
  816MPD2    H212067   4.627   3.717  16.917  0.0477 -0.4890  1.3968
  816MPD2    H312068   4.660   3.512  16.778 -0.0550 -0.3273 -1.5056
  816MPD2     N12069   0.322   3.654  16.620  0.0384  0.1294  0.7058
  816MPD2    H512070   0.399   3.715  16.643  3.1142 -3.5751  0.2199
  816MPD2    N112071   0.081   3.914  16.940 -0.4069 -0.8383 -0.1171
  816MPD2    H712072   4.722   3.931  16.975 -0.6534  2.0305 -2.1318
  817MPD2     C12073   4.186   0.940   9.189 -0.7345  0.5191  0.2827
  817MPD2    C112074   4.151   0.848   9.088 -0.5480 -0.3413 -0.6769
  817MPD2    C212075   4.075   0.893   8.986  0.1789 -0.5294  0.4543
  817MPD2    C312076   4.016   1.017   8.993  0.0067 -0.5677  0.5090
  817MPD2    C412077   4.052   1.100   9.097 -0.0693 -0.2736  0.1153
  817MPD2    C512078   4.137   1.065   9.197 -0.6133 -0.6305 -0.2543
  817MPD2     H12079   4.061   0.829   8.899  0.7779  0.3287 -0.2637
  817MPD2    H112080   4.006   1.198   9.099  2.3977  0.8245  2.5536
  817MPD2    H212081   4.250   0.916   9.273 -1.6640 -2.3831  0.1720
  817MPD2    H312082   4.163   1.129   9.281  1.4265 -1.6361 -0.1245
  817MPD2     N12083   3.934   1.044   8.884  1.3191  0.4402  0.4045
  817MPD2    H512084   3.939   0.983   8.803  0.6252  0.4894  0.3302
  817MPD2    N112085   4.207   0.718   9.080 -0.5446 -0.5064  0.1422
  817MPD2    H712086   4.183   0.664   8.997 -1.4925 -0.5127  0.4293
  818MPD2     C12087   3.437   1.116   9.716  1.1056  0.4303 -0.0126
  818MPD2    C112088   3.332   1.029   9.724 -0.5252 -0.2169 -0.3310
  818MPD2    C212089   3.345   0.908   9.657  0.6359 -0.7712 -0.2739
  818MPD2    C312090   3.463   0.866   9.591  0.8483  0.1389 -0.5343
  818MPD2    C412091   3.569   0.951   9.584 -0.2372 -0.6346 -0.0168
  818MPD2    C512092   3.550   1.076   9.642  0.8654 -0.0013  0.2285
  818MPD2     H12093   3.257   0.845   9.662 -0.1115  0.5539  3.2387
  818MPD2    H112094   3.657   0.943   9.521 -0.0336 -0.0090  0.1905
  818MPD2    H212095   3.436   1.218   9.753 -0.7604  1.5723 -3.2048
  818MPD2    H312096   3.636   1.139   9.620  0.1847  0.9581  0.2957
  818MPD2     N12097   3.475   0.743   9.523  0.3655 -0.9419  0.0036
  818MPD2    H512098   3.560   0.705   9.482  1.6159  1.9101 -0.0360
  818MPD2    N112099   3.217   1.051   9.805 -1.0391  0.0087  0.3859
  818MPD2    H712100   3.152   0.975   9.817 -1.9661  0.7943  0.2829
  819MPD2     C12101   1.701   2.899  15.442 -0.0862  0.3414 -0.1887
  819MPD2    C112102   1.674   2.768  15.408  0.5036 -0.4688  0.1943
  819MPD2    C212103   1.749   2.664  15.475  0.0584 -0.2208 -0.4850
  819MPD2    C312104   1.852   2.695  15.564  0.2106  0.0944 -0.0765
  819MPD2    C412105   1.866   2.829  15.600  0.6268  0.2471  0.4408
  819MPD2    C512106   1.788   2.929  15.541 -0.0920 -0.2224 -0.3999
  819MPD2     H12107   1.743   2.561  15.441 -0.4504  0.0380 -1.1852
  819MPD2    H112108   1.938   2.864  15.673 -0.6636  0.4570  1.6186
  819MPD2    H212109   1.646   2.982  15.400 -0.2637  0.0428 -0.5469
  819MPD2    H312110   1.802   3.033  15.570 -1.8662 -0.3786  0.9951
  819MPD2     N12111   1.928   2.584  15.599 -0.6666  0.1116 -0.1242
  819MPD2    H512112   1.899   2.499  15.553  1.8034 -1.3954  1.0666
  819MPD2    N112113   1.587   2.726  15.305  0.0414  0.2858  0.1829
  819MPD2    H712114   1.579   2.796  15.231 -1.1626  1.0525  1.0370
  820MPD2     C12115   1.296   2.614  14.341 -0.2975 -0.3866 -0.1025
  820MPD2    C112116   1.221   2.657  14.456  0.5972  0.1507  0.9311
  820MPD2    C212117   1.284   2.669  14.581  0.5321  0.6057  0.0512
  820MPD2    C312118   1.420   2.632  14.590  0.2436 -0.0429  0.0881
  820MPD2    C412119   1.488   2.588  14.481 -0.1818 -0.0906  0.8511
  820MPD2    C512120   1.426   2.585  14.358  0.2689  0.7530  0.5270
  820MPD2     H12121   1.230   2.684  14.674  0.2926  1.2063 -0.1852
  820MPD2    H112122   1.594   2.566  14.492  0.4518  2.6619  0.4045
  820MPD2    H212123   1.252   2.596  14.244 -0.0107  0.7112 -0.4406
  820MPD2    H312124   1.488   2.555  14.274 -0.9262  2.0653 -0.8335
  820MPD2     N12125   1.479   2.602  14.713 -0.0207 -0.7685 -0.4829
  820MPD2    H512126   1.550   2.529  14.718  0.8821  0.2839  2.0076
  820MPD2    N112127   1.082   2.677  14.442 -0.0207 -0.0536  0.1755
  820MPD2    H712128   1.040   2.667  14.350  1.7111  0.6327 -0.6902
  821MPD2     C12129   1.615   3.674  12.961 -0.4248 -0.0828  0.4560
  821MPD2    C112130   1.710   3.611  13.026  0.1079  0.2812 -0.0913
  821MPD2    C212131   1.839   3.643  12.997 -0.2656  0.5697 -0.8823
  821MPD2    C312132   1.881   3.743  12.914 -0.3622 -0.2075  0.3391
  821MPD2    C412133   1.779   3.803  12.842 -0.2749 -0.5748 -0.5753
  821MPD2    C512134   1.650   3.763  12.864  0.0413 -0.6318 -0.5516
  821MPD2     H12135   1.908   3.582  13.055 -2.4612 -1.5166 -0.4866
  821MPD2    H112136   1.791   3.878  12.764  0.5416 -0.6555 -0.5348
  821MPD2    H212137   1.508   3.664  12.977 -0.3488 -1.6328 -0.0348
  821MPD2    H312138   1.575   3.812  12.803 -1.4829  0.8575  2.4598
  821MPD2     N12139   2.016   3.782  12.901 -0.0457 -0.8094  0.2380
  821MPD2    H512140   2.037   3.851  12.829  1.2967 -0.7458  0.7048
  821MPD2    N112141   1.693   3.523  13.132  0.7625 -0.3711 -0.6018
  821MPD2    H712142   1.769   3.462  13.160  1.6641  1.8013  1.7055
  822MPD2     C12143   2.441   3.849  15.352 -0.4999 -0.5876 -0.5662
  822MPD2    C112144   2.459   3.845  15.490  0.1834 -0.3514  0.1950
  822MPD2    C212145   2.407   3.949  15.569 -0.2972 -0.3061 -0.6873
  822MPD2    C312146   2.342   4.059  15.509 -0.1851 -0.0301 -0.6172
  822MPD2    C412147   2.340   4.062  15.372  0.2080 -0.0100  0.5757
  822MPD2    C512148   2.386   3.959  15.292  0.2605 -0.3965  0.2968
  822MPD2     H12149   2.412   3.945  15.677  0.2948 -1.0095 -0.7433
  822MPD2    H112150   2.307   4.155  15.326  0.1171 -0.4360 -0.2016
  822MPD2    H212151   2.470   3.767  15.286 -0.3975  0.2540 -1.5589
  822MPD2    H312152   2.367   3.975  15.186  0.2745  0.0867  0.3666
  822MPD2     N12153   2.289   4.163  15.588  0.6553 -0.3269 -0.5514
  822MPD2    H512154   2.266   4.146  15.686 -0.1031 -0.6766 -0.7885
  822MPD2    N112155   2.530   3.743  15.555  0.3804 -0.4239  0.8814
  822MPD2    H712156   2.537   3.753  15.656 -1.2480 -0.0121  0.9586
  823MPD2     C12157   1.960   4.421  16.289 -1.1518  0.0705 -0.1508
  823MPD2    C112158   2.027   4.336  16.207  0.6323 -0.3429 -0.0779
  823MPD2    C212159   2.090   4.223  16.252 -0.2369 -0.0915 -0.8811
  823MPD2    C312160   2.091   4.195  16.390  0.3199  0.5148  0.3826
  823MPD2    C412161   2.027   4.281  16.477 -0.1983 -0.2149 -0.2708
  823MPD2    C512162   1.958   4.394  16.427 -0.3522  0.0810  0.2376
  823MPD2     H12163   2.139   4.164  16.176 -0.6428 -1.2336 -0.2633
  823MPD2    H112164   2.022   4.280  16.585  0.6403  1.5275 -0.2209
  823MPD2    H212165   1.933   4.520  16.256 -2.5693  0.1545  1.2854
  823MPD2    H312166   1.918   4.462  16.502 -0.6327  1.3766 -1.0882
  823MPD2     N12167   2.163   4.082  16.450  0.3359 -0.3234 -0.1382
  823MPD2    H512168   2.139   4.059  16.546  1.4922  2.0025  0.6860
  823MPD2    N112169   2.014   4.371  16.072 -0.2350  0.2625  0.3166
  823MPD2    H712170   1.969   4.460  16.053 -0.0253  0.6995  1.9173
  824MPD2     C12171   2.897   3.006  15.524  0.4982 -0.6687  0.3041
  824MPD2    C112172   2.961   3.118  15.482  0.2416 -0.1111  0.5186
  824MPD2    C212173   3.037   3.121  15.365 -0.0031 -0.3356 -0.3679
  824MPD2    C312174   3.071   2.997  15.311 -0.5747 -0.2888  0.7359
  824MPD2    C412175   3.004   2.889  15.351 -0.0842 -0.3109 -0.0434
  824MPD2    C512176   2.911   2.892  15.452 -0.2644 -0.1499  0.5519
  824MPD2     H12177   3.084   3.213  15.333 -1.5620  0.9542  1.0750
  824MPD2    H112178   3.018   2.789  15.310 -3.5274 -1.4650  1.6058
  824MPD2    H212179   2.827   3.014  15.606 -0.5956 -0.6918 -0.6291
  824MPD2    H312180   2.855   2.804  15.478  1.8723 -1.9721 -1.0594
  824MPD2     N12181   3.171   2.987  15.212  0.0398  0.0368  0.1557
  824MPD2    H512182   3.210   3.076  15.183  0.0702  0.2239  0.7887
  824MPD2    N112183   2.920   3.245  15.520 -0.3126  0.0189  0.5034
  824MPD2    H712184   2.938   3.325  15.460 -0.0274 -0.0034  0.5589
  825MPD2     C12185   3.855   3.170  14.753 -0.4242 -0.2182 -0.1931
  825MPD2    C112186   3.781   3.201  14.868  0.3866 -0.0355 -0.5647
  825MPD2    C212187   3.781   3.328  14.917 -0.4437  1.3995  0.3780
  825MPD2    C312188   3.851   3.428  14.847  0.7917  0.4330 -0.2289
  825MPD2    C412189   3.911   3.400  14.726 -0.0178  0.6309  0.5158
  825MPD2    C512190   3.921   3.268  14.688  0.6658 -0.6722 -0.2644
  825MPD2     H12191   3.724   3.347  15.007 -1.8206  1.7142 -0.5504
  825MPD2    H112192   3.974   3.478  14.684 -1.0763  1.2018  0.0092
  825MPD2    H212193   3.840   3.080  14.695  1.3841 -0.8499  0.3258
  825MPD2    H312194   3.970   3.254  14.592  1.5134  1.6617 -0.1741
  825MPD2     N12195   3.849   3.566  14.881  0.9219  0.6737 -0.9063
  825MPD2    H512196   3.895   3.631  14.818  1.1915  2.3169  0.9815
  825MPD2    N112197   3.713   3.098  14.930 -0.1514 -0.3253  0.3051
  825MPD2    H712198   3.721   3.005  14.889 -1.1926 -0.9933  1.6130
  826MPD2     C12199   3.491   2.869  13.565  0.4483  0.9020  1.0089
  826MPD2    C112200   3.466   2.890  13.434 -0.3117  0.1173  0.5010
  826MPD2    C212201   3.416   3.015  13.393  0.2465  0.7686  0.6114
  826MPD2    C312202   3.377   3.108  13.492 -0.0542  0.3379 -0.5313
  826MPD2    C412203   3.398   3.081  13.625 -0.1020  0.6259  0.5827
  826MPD2    C512204   3.464   2.967  13.662 -0.4813 -0.0578  0.3134
  826MPD2     H12205   3.389   3.035  13.290 -0.8004 -1.6349  0.4249
  826MPD2    H112206   3.361   3.147  13.703 -0.4985  0.5205  0.4839
  826MPD2    H212207   3.552   2.782  13.587 -1.1854 -0.6013 -0.3916
  826MPD2    H312208   3.481   2.954  13.769  0.3943 -1.6610 -0.0084
  826MPD2     N12209   3.311   3.227  13.469 -0.1491 -0.0137  0.3252
  826MPD2    H512210   3.285   3.275  13.555  0.3802  2.8145 -1.1030
  826MPD2    N112211   3.508   2.786  13.346 -0.2416 -0.3563 -0.1184
  826MPD2    H712212   3.552   2.702  13.382  0.3894 -0.2743 -0.7130
  827MPD2     C12213   3.642   4.049   9.502 -0.3268 -0.2329  0.8234
  827MPD2    C112214   3.671   3.928   9.569 -0.0242  0.0814  0.4748
  827MPD2    C212215   3.667   3.805   9.508 -0.7223 -0.8665  0.3507
  827MPD2    C312216   3.606   3.805   9.383  0.3925  0.2357  0.3588
  827MPD2    C412217   3.558   3.921   9.323  0.7100 -0.3403  0.4564
  827MPD2    C512218   3.580   4.043   9.379  0.0113  0.2877 -0.2837
  827MPD2     H12219   3.694   3.718   9.567  0.3487 -1.9723 -1.7862
  827MPD2    H112220   3.498   3.917   9.233  0.6581 -1.4186  0.5335
  827MPD2    H212221   3.664   4.145   9.548 -0.0408 -0.4838  1.2040
  827MPD2    H312222   3.555   4.135   9.327  1.8325  0.3005 -1.1208
  827MPD2     N12223   3.600   3.683   9.312  0.2140 -0.0810 -0.3477
  827MPD2    H512224   3.606   3.601   9.372  0.1408  0.5911  0.5918
  827MPD2    N112225   3.709   3.939   9.706  0.4956  0.4137 -0.0767
  827MPD2    H712226   3.699   4.034   9.740 -2.1179 -0.4977  1.6320
  828MPD2     C12227   1.951   4.132  11.459  0.4980 -0.0522  0.1087
  828MPD2    C112228   1.995   4.252  11.415 -0.5396  0.5940  0.1335
  828MPD2    C212229   2.039   4.272  11.287  0.8556 -0.2855  0.2670
  828MPD2    C312230   2.052   4.168  11.203  0.0497 -0.0476  0.1852
  828MPD2    C412231   2.011   4.043  11.243 -0.3604  0.4774  0.7678
  828MPD2    C512232   1.964   4.031  11.371  0.0173 -0.2723 -0.4683
  828MPD2     H12233   2.086   4.365  11.254  2.7933 -1.0625  0.8191
  828MPD2    H112234   2.012   3.963  11.170 -0.5570  0.6446  0.5835
  828MPD2    H212235   1.912   4.121  11.560  1.0686  1.6130  0.5113
  828MPD2    H312236   1.931   3.934  11.406 -1.2408 -0.4213 -2.0680
  828MPD2     N12237   2.090   4.178  11.065 -1.0943  0.1811  0.9882
  828MPD2    H512238   2.090   4.094  11.007 -0.5028  0.6108  0.3652
  828MPD2    N112239   1.976   4.373  11.485 -0.0831 -0.2075 -0.3999
  828MPD2    H712240   1.991   4.454  11.425  1.4310 -0.8811 -0.9309
  829MPD2     C12241   1.314   4.577  11.082 -0.1577 -0.6651  0.1988
  829MPD2    C112242   1.289   4.512  11.202 -0.2879 -0.1512 -0.3752
  829MPD2    C212243   1.382   4.537  11.303  0.1367  0.2126  0.9271
  829MPD2    C312244   1.493   4.614  11.288  0.3761  0.1489 -0.4714
  829MPD2    C412245   1.513   4.671  11.164 -0.1930 -0.3930  0.1219
  829MPD2    C512246   1.418   4.663  11.068 -0.0620  0.0500 -0.4324
  829MPD2     H12247   1.365   4.481  11.394 -0.2634 -0.6990  0.2921
  829MPD2    H112248   1.601   4.733  11.151  0.1300 -1.0856 -1.0544
  829MPD2    H212249   1.254   4.567  10.992  1.2085  1.1089 -0.9187
  829MPD2    H312250   1.438   4.717  10.976 -0.2170  1.2211  0.2298
  829MPD2     N12251   1.589   4.638  11.390 -0.3210  0.7995  0.2766
  829MPD2    H512252   1.662   4.706  11.373 -1.4558  1.4625 -1.9481
  829MPD2    N112253   1.164   4.440  11.207 -0.0313 -0.0138  0.1574
  829MPD2    H712254   1.094   4.462  11.137 -1.6550 -1.7719  1.2459
  830MPD2     C12255   2.376   1.954  15.256 -0.3740  0.2526  0.0480
  830MPD2    C112256   2.324   2.081  15.243 -0.1875 -0.0476  0.3517
  830MPD2    C212257   2.299   2.142  15.117  0.5240  0.3523  0.4585
  830MPD2    C312258   2.339   2.069  15.003  0.7706  0.3595 -0.3382
  830MPD2    C412259   2.406   1.946  15.018 -0.0081  0.5403 -0.3590
  830MPD2    C512260   2.421   1.890  15.142  0.3027 -0.8377 -0.5463
  830MPD2     H12261   2.237   2.230  15.098 -2.1219 -1.3816  1.0228
  830MPD2    H112262   2.463   1.897  14.940 -2.0411 -0.3079 -1.2867
  830MPD2    H212263   2.396   1.914  15.355  0.5186 -0.9429 -0.6173
  830MPD2    H312264   2.475   1.797  15.152  0.3458 -0.7169  0.3296
  830MPD2     N12265   2.306   2.095  14.870  0.1605 -0.1158 -0.1312
  830MPD2    H512266   2.309   2.018  14.804  0.6233 -1.1989  1.1584
  830MPD2    N112267   2.287   2.145  15.363 -0.7680  0.0650  0.2093
  830MPD2    H712268   2.309   2.104  15.453  1.6437 -1.4664 -1.0832
  831MPD2     C12269   2.571   4.345  15.759 -0.0784 -0.0311 -0.9506
  831MPD2    C112270   2.612   4.215  15.754 -0.5919  0.0674  0.0945
  831MPD2    C212271   2.535   4.122  15.822 -0.3564  0.6272  0.6060
  831MPD2    C312272   2.421   4.153  15.893 -0.5320 -1.0211 -0.4638
  831MPD2    C412273   2.393   4.286  15.903 -0.3692  0.3015  0.1977
  831MPD2    C512274   2.468   4.379  15.839  0.6866 -0.2521 -0.3583
  831MPD2     H12275   2.547   4.014  15.811 -1.5014  0.5532  0.0240
  831MPD2    H112276   2.314   4.331  15.961  0.6347  0.5383  1.3716
  831MPD2    H212277   2.633   4.426  15.722 -1.0225  0.8713 -0.5580
  831MPD2    H312278   2.426   4.479  15.843 -0.9300 -0.9249 -0.6723
  831MPD2     N12279   2.320   4.066  15.923  0.3298 -0.1223 -0.7289
  831MPD2    H512280   2.227   4.104  15.940  0.0570 -1.8569  1.5767
  831MPD2    N112281   2.708   4.173  15.661  0.0362 -0.0594  0.4788
  831MPD2    H712282   2.748   4.246  15.602 -1.1424 -0.3360 -0.6520
  832MPD2     C12283   1.089   0.439  16.645 -0.2662 -0.0877 -0.3422
  832MPD2    C112284   0.997   0.537  16.641 -0.1392 -0.5281 -0.0038
  832MPD2    C212285   0.870   0.514  16.598 -0.8643  0.5539 -0.4594
  832MPD2    C312286   0.830   0.397  16.554 -0.2760  0.6505 -0.5284
  832MPD2    C412287   0.928   0.296  16.552 -0.3895  0.1961 -0.4318
  832MPD2    C512288   1.057   0.316  16.589 -0.5002  0.0230 -0.0267
  832MPD2     H12289   0.792   0.588  16.613  1.1904  2.2838  1.6670
  832MPD2    H112290   0.908   0.192  16.527  0.2287 -0.1621  0.5611
  832MPD2    H212291   1.185   0.444  16.695 -0.1627 -1.4765 -0.4026
  832MPD2    H312292   1.128   0.235  16.590  0.3153  0.7302 -0.7830
  832MPD2     N12293   0.705   0.367  16.498 -0.4787  0.1036 -0.1001
  832MPD2    H512294   0.674   0.273  16.476 -0.0788 -0.0097 -0.1694
  832MPD2    N112295   1.027   0.667  16.702 -0.2712 -0.5155  0.2014
  832MPD2    H712296   0.948   0.729  16.716 -0.2061 -0.3692 -0.0751
  833MPD2     C12297   3.404   1.683  12.272 -0.4614  0.1623 -0.5994
  833MPD2    C112298   3.343   1.729  12.150  0.3578 -0.1679 -1.0806
  833MPD2    C212299   3.308   1.638  12.051 -0.3982 -0.4062 -0.0825
  833MPD2    C312300   3.327   1.502  12.071 -0.4046 -0.9071  0.2055
  833MPD2    C412301   3.391   1.455  12.187  0.1728  0.7723 -0.1083
  833MPD2    C512302   3.432   1.548  12.281  0.1134 -0.2161  0.0026
  833MPD2     H12303   3.254   1.669  11.962  0.2944  1.4389  0.1410
  833MPD2    H112304   3.418   1.351  12.202  0.5190  1.2569  2.7864
  833MPD2    H212305   3.432   1.752  12.350 -0.6087 -1.9486  1.3076
  833MPD2    H312306   3.479   1.509  12.371  0.1139  2.1340  1.0044
  833MPD2     N12307   3.286   1.413  11.968 -0.7633  0.2414 -0.1897
  833MPD2    H512308   3.253   1.460  11.884  0.1032  1.1535 -0.0157
  833MPD2    N112309   3.311   1.873  12.124 -0.5066 -0.2905 -0.6940
  833MPD2    H712310   3.315   1.937  12.202 -0.4662 -0.5450 -0.4854
  834MPD2     C12311   2.454   0.949  11.575  0.1501  0.0703 -0.4284
  834MPD2    C112312   2.506   1.059  11.501 -0.1118 -0.0399  0.2656
  834MPD2    C212313   2.620   1.120  11.545 -0.5745 -0.2537  0.2776
  834MPD2    C312314   2.684   1.076  11.657  0.3772  0.0338 -0.3692
  834MPD2    C412315   2.640   0.962  11.721  0.4458  0.4450  1.2448
  834MPD2    C512316   2.524   0.900  11.682  0.3735 -0.2453 -0.1345
  834MPD2     H12317   2.665   1.208  11.499 -0.3992 -0.6667 -0.3382
  834MPD2    H112318   2.708   0.914  11.790 -0.2182  0.4047  1.8663
  834MPD2    H212319   2.361   0.903  11.545  0.3981 -0.0683 -0.9850
  834MPD2    H312320   2.494   0.808  11.731  1.8112 -0.5369  0.2105
  834MPD2     N12321   2.809   1.136  11.690  0.5008  0.2272  0.1961
  834MPD2    H512322   2.825   1.212  11.625  0.6647 -0.1598 -0.2173
  834MPD2    N112323   2.444   1.099  11.373 -0.7051 -0.0164 -0.0689
  834MPD2    H712324   2.375   1.039  11.328  0.1453 -1.9411  1.1899
  835MPD2     C12325   2.924   3.962  10.352  0.2127  0.5440 -0.1063
  835MPD2    C112326   2.845   4.024  10.443 -0.8340  0.7479 -0.3221
  835MPD2    C212327   2.873   4.007  10.580 -0.6892  0.1137 -0.3183
  835MPD2    C312328   2.983   3.935  10.622  0.2891 -0.2867  0.9008
  835MPD2    C412329   3.062   3.873  10.529  0.1910  0.4169  0.2392
  835MPD2    C512330   3.030   3.895  10.398  0.7081 -0.2444  0.6824
  835MPD2     H12331   2.808   4.053  10.653 -0.3128 -0.0375  0.1143
  835MPD2    H112332   3.153   3.820  10.552  0.9336  1.3320 -0.6393
  835MPD2    H212333   2.911   3.968  10.245 -0.5914  0.6595 -0.0073
  835MPD2    H312334   3.088   3.851  10.318 -1.8565 -1.5675 -0.4654
  835MPD2     N12335   3.013   3.915  10.754 -0.2665  0.6130  0.2374
  835MPD2    H512336   3.082   3.844  10.779 -2.0622 -1.1048  0.2634
  835MPD2    N112337   2.717   4.092  10.409  0.4324 -0.0709  0.2293
  835MPD2    H712338   2.654   4.123  10.483 -0.2539  1.1883 -0.8815
  836MPD2     C12339   2.430   3.932  11.224 -0.4892  0.0229  0.3397
  836MPD2    C112340   2.544   3.918  11.307 -0.1618 -0.4612 -0.4792
  836MPD2    C212341   2.532   3.953  11.440 -0.1229 -1.5440  0.3656
  836MPD2    C312342   2.416   4.003  11.492  0.4039  0.1273 -0.0630
  836MPD2    C412343   2.305   3.999  11.412  0.4060 -0.1900  0.7895
  836MPD2    C512344   2.314   3.964  11.278  0.3604 -0.3641 -0.7335
  836MPD2     H12345   2.620   3.963  11.502  0.3266  1.3878 -0.7054
  836MPD2    H112346   2.211   4.031  11.456 -0.5741 -0.7453 -0.8571
  836MPD2    H212347   2.431   3.907  11.119 -0.4733  1.5704 -0.0271
  836MPD2    H312348   2.230   3.975  11.210 -1.8106 -0.0193  1.9774
  836MPD2     N12349   2.402   4.064  11.618 -0.0630  0.1530 -0.4014
  836MPD2    H512350   2.312   4.108  11.634 -0.5206 -1.0787  0.3856
  836MPD2    N112351   2.664   3.882  11.240 -0.5572 -0.3525  0.3173
  836MPD2    H712352   2.668   3.865  11.140 -1.2239 -1.3965  0.4678
  837MPD2     C12353   0.981   4.036  10.056  1.3727  0.4638  0.3377
  837MPD2    C112354   0.868   4.036  10.142  0.0916 -0.4311  0.7354
  837MPD2    C212355   0.847   4.157  10.211 -0.0839 -0.2443  0.1177
  837MPD2    C312356   0.942   4.255  10.222  0.2394 -0.0546 -0.2595
  837MPD2    C412357   1.053   4.246  10.145 -0.3661 -0.2517  0.0540
  837MPD2    C512358   1.068   4.139  10.058  0.5820 -0.5220  0.1240
  837MPD2     H12359   0.749   4.165  10.256  0.6606 -1.2650  1.9341
  837MPD2    H112360   1.120   4.327  10.119 -1.8101  0.6167 -0.9361
  837MPD2    H212361   0.990   3.960   9.980  0.0230  0.4592  0.1877
  837MPD2    H312362   1.143   4.153   9.980 -1.1769  0.9975 -1.2951
  837MPD2     N12363   0.902   4.375  10.279 -0.0423  0.3355  0.2384
  837MPD2    H512364   0.812   4.375  10.326  0.5147  1.4902  1.2941
  837MPD2    N112365   0.758   3.942  10.141 -0.4349  0.0395  0.0324
  837MPD2    H712366   0.684   3.975  10.201  1.6870  2.1100  1.4783
  838MPD2     C12367   4.482   2.164  11.839  0.3395 -0.6047  0.4927
  838MPD2    C112368   4.415   2.061  11.788 -0.0162  0.6006  0.2466
  838MPD2    C212369   4.314   1.999  11.862  0.4822 -0.6187 -0.4225
  838MPD2    C312370   4.281   2.054  11.988 -0.5903 -0.8915  0.0537
  838MPD2    C412371   4.350   2.157  12.039  0.5607  0.1445  0.4523
  838MPD2    C512372   4.453   2.210  11.968  0.5996  0.2364  0.0911
  838MPD2     H12373   4.249   1.924  11.818  0.5977 -1.8758  1.5733
  838MPD2    H112374   4.324   2.202  12.134 -0.4062  0.2595  0.1297
  838MPD2    H212375   4.565   2.211  11.787  1.6885 -3.6504 -0.0845
  838MPD2    H312376   4.510   2.292  12.010  0.7145  0.7152 -0.9933
  838MPD2     N12377   4.169   1.987  12.046 -0.8438 -0.0782  0.3466
  838MPD2    H512378   4.119   1.919  11.989 -1.0800  0.7418 -0.4152
  838MPD2    N112379   4.436   2.019  11.655  0.2451  0.3094 -0.3381
  838MPD2    H712380   4.361   1.960  11.619 -0.8253  2.7920 -2.1610
  839MPD2     C12381   3.906   1.460  11.470  0.0034  0.5087  0.2089
  839MPD2    C112382   3.964   1.452  11.351 -0.2865 -0.4958 -0.3179
  839MPD2    C212383   4.088   1.514  11.324  0.5778  0.2185  0.4119
  839MPD2    C312384   4.136   1.595  11.424 -0.4963  0.3072 -0.0727
  839MPD2    C412385   4.071   1.612  11.545  0.6640  0.3318  0.0899
  839MPD2    C512386   3.964   1.536  11.567 -0.1984  0.1257  0.5118
  839MPD2     H12387   4.135   1.514  11.227 -0.2802 -0.8172 -0.0009
  839MPD2    H112388   4.106   1.672  11.628 -0.3461  0.5264  0.3756
  839MPD2    H212389   3.816   1.402  11.483  0.7106 -0.6200  0.1136
  839MPD2    H312390   3.927   1.533  11.669 -0.3496 -1.3627  0.4167
  839MPD2     N12391   4.241   1.682  11.403 -0.4226 -0.0893 -0.0728
  839MPD2    H512392   4.247   1.770  11.454  2.5778  0.9333 -2.1418
  839MPD2    N112393   3.900   1.385  11.242 -0.1005 -0.3006 -0.1550
  839MPD2    H712394   3.955   1.385  11.156  0.0551 -2.2763 -0.0460
  840MPD2     C12395   4.001   4.437   9.849 -0.1842 -0.6720  0.3423
  840MPD2    C112396   4.015   4.376   9.969 -0.1252  0.1373 -0.4577
  840MPD2    C212397   4.099   4.430  10.067 -0.4960 -0.2460  0.2462
  840MPD2    C312398   4.151   4.556  10.052 -0.3377 -0.6421 -0.7672
  840MPD2    C412399   4.123   4.616   9.932 -0.3676 -0.3343  0.0258
  840MPD2    C512400   4.067   4.551   9.826  0.2479  0.5595  0.6612
  840MPD2     H12401   4.107   4.388  10.167  1.0321 -0.3700  0.0635
  840MPD2    H112402   4.149   4.719   9.908  0.9349 -0.6972 -0.1370
  840MPD2    H212403   3.927   4.403   9.778  1.7200  1.9994 -2.9409
  840MPD2    H312404   4.044   4.610   9.738 -0.6584  1.8191  1.7382
  840MPD2     N12405   4.213   4.629  10.156 -0.0015  0.0544  0.4135
  840MPD2    H512406   4.230   4.727  10.136 -0.9693 -0.1985 -1.6962
  840MPD2    N112407   3.930   4.263   9.983 -0.1224 -0.1312  0.1292
  840MPD2    H712408   3.877   4.245   9.898 -0.0099 -0.9569  0.2353
  841MPD2     C12409   3.276   4.548  14.212 -0.2746  0.0187  0.1141
  841MPD2    C112410   3.351   4.433  14.208 -0.0066  0.1973  0.2090
  841MPD2    C212411   3.468   4.423  14.277  0.2518 -0.3055 -0.0368
  841MPD2    C312412   3.525   4.528  14.343  0.6555  0.4095 -0.5316
  841MPD2    C412413   3.451   4.647  14.341 -0.1212  0.6136 -0.9395
  841MPD2    C512414   3.334   4.657  14.270  0.3989 -0.5856  0.2039
  841MPD2     H12415   3.508   4.327  14.307  0.8419 -0.5422 -1.5559
  841MPD2    H112416   3.481   0.001  14.396 -0.8834 -0.7500  1.6466
  841MPD2    H212417   3.187   4.555  14.151  1.6266  0.6274 -2.6179
  841MPD2    H312418   3.296   0.025  14.273  0.8393 -0.4746  2.4208
  841MPD2     N12419   3.643   4.511  14.422  0.5420  0.7485 -0.0417
  841MPD2    H512420   3.670   4.413  14.428  0.5949  0.7588 -0.1037
  841MPD2    N112421   3.319   4.320  14.121  0.5471  0.1332 -0.2328
  841MPD2    H712422   3.397   4.257  14.101  0.0779 -0.2280 -0.9210
  842MPD2     C12423   0.094   0.634  16.319  0.0438 -0.1961  0.0298
  842MPD2    C112424   4.705   0.572  16.321 -0.3997 -0.6858  0.5692
  842MPD2    C212425   4.668   0.491  16.424  0.7039 -0.6139 -0.1613
  842MPD2    C312426   0.020   0.485  16.534 -0.1966  0.2175 -0.0879
  842MPD2    C412427   0.148   0.537  16.526  0.0595  0.4219  0.2716
  842MPD2    C512428   0.180   0.618  16.420 -0.0462 -0.4357  0.3324
  842MPD2     H12429   4.563   0.469  16.440  0.1456  1.8713 -0.3820
  842MPD2    H112430   0.213   0.533  16.613 -0.4706  0.4517  0.6666
  842MPD2    H212431   0.133   0.683  16.231 -1.0896  1.0413  0.2089
  842MPD2    H312432   0.273   0.673  16.416 -0.0406 -0.4277  0.5560
  842MPD2     N12433   4.723   0.439  16.665  0.2934  0.1222  0.4426
  842MPD2    H512434   0.062   0.452  16.734  0.0974  1.3471  0.4218
  842MPD2    N112435   4.623   0.591  16.212  0.2253 -0.3901 -0.1856
  842MPD2    H712436   4.666   0.648  16.141 -1.9125  0.5285 -0.7515
  843MPD2     C12437   1.740   1.405  17.019 -0.2974 -0.5217 -0.3733
  843MPD2    C112438   1.758   1.359  17.146 -0.3652 -0.1478 -0.1156
  843MPD2    C212439   1.874   1.396  17.211  0.7768 -0.4031 -0.8502
  843MPD2    C312440   1.968   1.492  17.168 -0.6493 -0.5696 -0.4690
  843MPD2    C412441   1.945   1.545  17.042  0.1748  0.6905 -0.0195
  843MPD2    C512442   1.833   1.492  16.974 -0.0880  0.2291 -0.4101
  843MPD2     H12443   1.888   1.353  17.310  0.9819 -0.2723 -0.8201
  843MPD2    H112444   2.014   1.620  17.005  1.4280  0.0690  1.0875
  843MPD2    H212445   1.664   1.369  16.950  0.7784 -2.0396 -0.7688
  843MPD2    H312446   1.811   1.547  16.883  0.3632 -2.4348 -2.1462
  843MPD2     N12447   2.081   1.541  17.241  0.4391 -0.1448  0.1171
  843MPD2    H512448   2.130   1.617  17.194  0.6320 -0.3834 -0.0663
  843MPD2    N112449   1.657   1.279  17.194 -0.5410  0.2696  0.2977
  843MPD2    H712450   1.576   1.264  17.135 -0.5532 -0.5636  0.5157
  844MPD2     C12451   0.520   0.028  15.952  0.3994  0.0606 -0.0421
  844MPD2    C112452   0.649   4.716  15.950  0.0026  0.0310  0.1386
  844MPD2    C212453   0.752   0.043  16.012 -0.1312 -0.1323 -0.2708
  844MPD2    C312454   0.732   0.160  16.087  0.5543  0.3723  0.3346
  844MPD2    C412455   0.604   0.210  16.088 -0.0898  0.1533  1.3030
  844MPD2    C512456   0.502   0.149  16.015 -0.0550 -0.0298 -0.0159
  844MPD2     H12457   0.856   0.012  16.002  0.5285  1.8020  0.6368
  844MPD2    H112458   0.587   0.310  16.127  0.2448 -0.0628  2.0144
  844MPD2    H212459   0.436   4.719  15.899  0.4129  0.0024 -0.0168
  844MPD2    H312460   0.405   0.198  16.020  0.8510  1.8591 -1.1619
  844MPD2     N12461   0.849   0.231  16.131 -0.3835 -0.7484 -0.1793
  844MPD2    H512462   0.941   0.199  16.104 -0.3288  1.0114 -2.1008
  844MPD2    N112463   0.684   4.600  15.884  0.6489 -0.2789 -0.3025
  844MPD2    H712464   0.783   4.587  15.867  0.7385 -1.0506  0.8330
  845MPD2     C12465   1.323   1.142  16.523  0.2557  0.4158 -0.0784
  845MPD2    C112466   1.200   1.093  16.530  0.3127  0.0654  0.0419
  845MPD2    C212467   1.166   0.972  16.476 -0.2971 -0.1344  0.3761
  845MPD2    C312468   1.261   0.894  16.422 -0.0245 -0.4341 -0.2455
  845MPD2    C412469   1.387   0.952  16.405 -0.1776 -0.3316 -0.1749
  845MPD2    C512470   1.418   1.068  16.464 -0.6238  0.0736 -0.3771
  845MPD2     H12471   1.070   0.924  16.491  0.0296 -1.1272 -0.7073
  845MPD2    H112472   1.461   0.901  16.344  0.0422 -0.4336  0.1772
  845MPD2    H212473   1.344   1.243  16.558  0.9269  0.1906  0.1718
  845MPD2    H312474   1.516   1.114  16.469 -0.2544 -0.9786  1.8168
  845MPD2     N12475   1.233   0.762  16.366 -0.6237  0.3337 -0.2248
  845MPD2    H512476   1.322   0.717  16.350 -0.4612  0.0534  1.4678
  845MPD2    N112477   1.118   1.181  16.599 -0.1816 -0.4011 -0.4992
  845MPD2    H712478   1.155   1.274  16.618  0.5508 -0.4885 -1.5378
  846MPD2     C12479   2.475   0.979  13.238  0.0499  0.0172  0.9816
  846MPD2    C112480   2.389   1.068  13.170  0.4517 -0.2089 -0.1582
  846MPD2    C212481   2.317   1.157  13.248 -0.1573  0.7806  0.0407
  846MPD2    C312482   2.318   1.151  13.385  0.7648 -0.6734 -0.1920
  846MPD2    C412483   2.399   1.056  13.453 -0.2721  0.2381 -0.0049
  846MPD2    C512484   2.483   0.981  13.373  0.0978  0.0083  0.7227
  846MPD2     H12485   2.261   1.238  13.202 -0.9611  0.5660  0.6410
  846MPD2    H112486   2.407   1.061  13.561  1.8068  1.8305 -0.2176
  846MPD2    H212487   2.537   0.908  13.184 -1.0318 -0.8132  0.8296
  846MPD2    H312488   2.541   0.907  13.427  0.8895  0.5182  0.5872
  846MPD2     N12489   2.241   1.254  13.452 -0.2703 -0.5421 -0.7983
  846MPD2    H512490   2.177   1.309  13.396 -1.0117 -0.5752  0.0074
  846MPD2    N112491   2.391   1.062  13.029 -0.5596 -0.4086  0.2697
  846MPD2    H712492   2.459   1.004  12.981 -0.7315 -1.2840  1.0871
  847MPD2     C12493   1.973   2.316  13.968  0.0378  0.3855  1.2766
  847MPD2    C112494   2.024   2.193  13.982  0.4538  0.1663  0.0754
  847MPD2    C212495   1.961   2.109  14.072  0.2658  0.3453  0.0308
  847MPD2    C312496   1.851   2.144  14.146 -0.4387 -0.4700  0.2446
  847MPD2    C412497   1.792   2.264  14.120 -0.7746  0.4789  0.0799
  847MPD2    C512498   1.853   2.343  14.024 -0.2928  0.0621 -0.1507
  847MPD2     H12499   2.006   2.011  14.082 -1.4311 -0.4647 -0.3584
  847MPD2    H112500   1.697   2.299  14.159 -1.2199 -1.1797  0.5255
  847MPD2    H212501   2.011   2.394  13.903 -1.5089  0.3620  0.3264
  847MPD2    H312502   1.810   2.437  13.994  0.9971  0.8627  0.5213
  847MPD2     N12503   1.796   2.053  14.236 -0.3897  0.5479 -0.6591
  847MPD2    H512504   1.847   1.965  14.243  0.3748  1.3210  3.5499
  847MPD2    N112505   2.136   2.146  13.915 -0.2599  0.5001 -0.0413
  847MPD2    H712506   2.155   2.046  13.911 -2.4825  0.1563 -2.0449
  848MPD2     C12507   0.225   0.607  15.868 -0.2781 -0.3658  0.2539
  848MPD2    C112508   0.323   0.642  15.953 -0.4941 -0.4176  0.5995
  848MPD2    C212509   0.397   0.751  15.914 -0.5232 -0.2771 -0.0322
  848MPD2    C312510   0.378   0.811  15.789 -0.6927 -0.0207 -0.6822
  848MPD2    C412511   0.267   0.772  15.711 -0.4008  0.0990  0.5700
  848MPD2    C512512   0.196   0.664  15.748  0.6521  0.1633 -0.4944
  848MPD2     H12513   0.474   0.778  15.986 -1.2336 -0.7877  0.9171
  848MPD2    H112514   0.238   0.829  15.623  0.9092 -2.2707 -1.4119
  848MPD2    H212515   0.147   0.536  15.894  0.1858 -0.9537  0.0573
  848MPD2    H312516   0.108   0.635  15.691 -1.0565  1.6199  1.4012
  848MPD2     N12517   0.439   0.936  15.753  0.0940  0.3136 -0.4181
  848MPD2    H512518   0.404   0.975  15.666 -2.0219 -0.8427 -0.0778
  848MPD2    N112519   0.350   0.579  16.079 -0.1115  0.0545 -0.0494
  848MPD2    H712520   0.417   0.628  16.137  0.6919  0.5812 -1.4229
  849MPD2     C12521   3.797   4.473  14.117  0.1488 -0.0202  0.2423
  849MPD2    C112522   3.833   4.604  14.095 -0.1808  0.2203 -0.2731
  849MPD2    C212523   3.953   4.653  14.154 -0.2213  0.5469 -0.1466
  849MPD2    C312524   4.040   4.563  14.217  0.6103 -0.2946  0.0661
  849MPD2    C412525   4.001   4.433  14.237 -0.1013 -0.3189 -0.1097
  849MPD2    C512526   3.884   4.390  14.185 -0.7341 -0.3372 -0.0296
  849MPD2     H12527   3.982   0.022  14.137  0.4653  0.2726 -0.6454
  849MPD2    H112528   4.070   4.366  14.287 -0.9666 -0.7810  0.4519
  849MPD2    H212529   3.716   4.427  14.062  0.4657  1.3661 -1.3942
  849MPD2    H312530   3.863   4.283  14.181  3.1459 -1.0220 -2.1067
  849MPD2     N12531   4.166   4.592  14.273 -1.0895 -0.8851 -0.1019
  849MPD2    H512532   4.234   4.522  14.301 -0.4995 -0.9033 -1.5972
  849MPD2    N112533   3.747   4.700  14.028  0.3937  0.0875 -0.2482
  849MPD2    H712534   3.665   4.660  13.984  1.1982  1.9326 -3.3947
  850MPD2     C12535   3.274   2.716  14.394  0.0972 -0.1159 -0.5997
  850MPD2    C112536   3.270   2.744  14.527  0.0146  0.0281  0.1190
  850MPD2    C212537   3.322   2.862  14.575 -0.7221 -0.2993 -0.0228
  850MPD2    C312538   3.375   2.955  14.490 -0.0513  0.2811 -0.1416
  850MPD2    C412539   3.385   2.918  14.354  0.6833  0.2811  0.1765
  850MPD2    C512540   3.352   2.793  14.316 -0.2950 -0.9870  0.1009
  850MPD2     H12541   3.317   2.887  14.680  0.3837  1.6334 -0.4209
  850MPD2    H112542   3.438   2.983  14.285  1.9247  0.5092  1.3457
  850MPD2    H212543   3.255   2.615  14.361  1.2798 -1.1438  1.8550
  850MPD2    H312544   3.373   2.762  14.214 -0.4503 -2.0019  0.3691
  850MPD2     N12545   3.431   3.075  14.532  0.6816 -0.3207 -0.7559
  850MPD2    H512546   3.441   3.141  14.456 -0.8472  2.6207  1.5966
  850MPD2    N112547   3.206   2.650  14.608  0.0333 -0.5320 -0.6618
  850MPD2    H712548   3.160   2.569  14.567 -2.6742  1.0245 -0.7286
  851MPD2     C12549   2.783   2.233  14.332  0.2060 -0.3021  0.1564
  851MPD2    C112550   2.732   2.285  14.449 -0.3887  0.0547  0.4113
  851MPD2    C212551   2.600   2.271  14.476 -0.0379  0.0695 -0.1161
  851MPD2    C312552   2.518   2.193  14.389 -0.1460 -0.0655 -0.1069
  851MPD2    C412553   2.564   2.139  14.270  0.6622 -0.0919  0.0781
  851MPD2    C512554   2.702   2.152  14.246  0.1186 -0.4604  0.0477
  851MPD2     H12555   2.555   2.296  14.571  2.2216  2.0348  0.4195
  851MPD2    H112556   2.506   2.077  14.203  0.7336  0.1902 -0.2441
  851MPD2    H212557   2.887   2.246  14.305  0.6374  0.8414  2.3900
  851MPD2    H312558   2.748   2.104  14.161  0.1301 -1.8108  0.8162
  851MPD2     N12559   2.395   2.166  14.446  0.6776 -0.0445  0.2823
  851MPD2    H512560   2.390   2.182  14.546  4.3433 -0.3857  0.5231
  851MPD2    N112561   2.819   2.364  14.532 -0.1305 -0.2903 -0.3208
  851MPD2    H712562   2.916   2.376  14.507  0.1125 -3.9083 -1.1437
  852MPD2     C12563   1.840   0.621   9.684 -0.3356 -0.0240 -0.0528
  852MPD2    C112564   1.915   0.697   9.770  0.4812 -0.1027  0.7493
  852MPD2    C212565   2.005   0.790   9.716  0.1042 -0.0057  0.4069
  852MPD2    C312566   2.043   0.798   9.583 -0.0541 -0.0638  0.1015
  852MPD2    C412567   1.972   0.713   9.502 -0.1665 -0.0529  0.0888
  852MPD2    C512568   1.867   0.637   9.551  0.4634 -0.9024  0.2128
  852MPD2     H12569   2.057   0.854   9.787  1.0501 -1.2223  0.7947
  852MPD2    H112570   1.993   0.720   9.396  1.1942  1.7720  0.4727
  852MPD2    H212571   1.758   0.555   9.710 -0.9829  0.7476 -0.1551
  852MPD2    H312572   1.819   0.579   9.473 -1.4803 -0.0533  0.7772
  852MPD2     N12573   2.142   0.889   9.543  0.3469 -0.1837  0.6387
  852MPD2    H512574   2.174   0.947   9.620 -0.5716  0.2685  0.6734
  852MPD2    N112575   1.896   0.697   9.911 -0.5798  0.1902  0.2090
  852MPD2    H712576   1.941   0.772   9.963  0.1153 -0.1585  0.1009
  853MPD2     C12577   3.759   0.526  12.301 -0.4530 -0.4466 -0.0620
  853MPD2    C112578   3.672   0.612  12.250 -0.0914 -0.2432 -0.5707
  853MPD2    C212579   3.660   0.622  12.111 -0.3032 -0.2792 -0.1372
  853MPD2    C312580   3.744   0.547  12.030  0.0754  0.0501 -0.8936
  853MPD2    C412581   3.834   0.462  12.083  0.1741 -0.5243 -0.0890
  853MPD2    C512582   3.841   0.451  12.219 -0.3834 -0.2090 -0.6227
  853MPD2     H12583   3.586   0.692  12.074 -0.1736 -0.5120 -0.8306
  853MPD2    H112584   3.896   0.403  12.016 -0.2028  0.3092 -1.1761
  853MPD2    H212585   3.752   0.512  12.409  0.1567  0.7547  0.1310
  853MPD2    H312586   3.901   0.373  12.266  0.4366  1.0118  0.3578
  853MPD2     N12587   3.754   0.556  11.889  0.1925  0.2619  0.1001
  853MPD2    H512588   3.828   0.500  11.847  0.7696  0.7503  0.4738
  853MPD2    N112589   3.584   0.675  12.346  0.0400 -0.3101  0.2526
  853MPD2    H712590   3.598   0.653  12.444  0.5874  0.3339  0.3188
  854MPD2     C12591   0.497   0.989  12.226 -0.2734  0.1682  0.5972
  854MPD2    C112592   0.624   0.981  12.173 -0.1321 -1.1507  0.0957
  854MPD2    C212593   0.696   0.870  12.202  0.2229 -0.9548  0.1210
  854MPD2    C312594   0.644   0.766  12.280  0.2610 -0.2847  0.2400
  854MPD2    C412595   0.526   0.780  12.347 -0.4481  0.4016 -0.3884
  854MPD2    C512596   0.453   0.895  12.315 -0.2669  0.6485  0.3801
  854MPD2     H12597   0.787   0.859  12.144 -1.2280  0.3192 -2.4335
  854MPD2    H112598   0.504   0.709  12.426 -0.9282  0.8856 -0.0863
  854MPD2    H212599   0.436   1.078  12.216 -1.7740 -0.7962  1.0311
  854MPD2    H312600   0.356   0.910  12.362  0.6379 -0.8571  2.7654
  854MPD2     N12601   0.715   0.644  12.308 -0.7925  1.0026 -0.1576
  854MPD2    H512602   0.673   0.590  12.383  3.0954 -3.3099 -1.0388
  854MPD2    N112603   0.667   1.080  12.086 -0.4540 -0.0791  0.1190
  854MPD2    H712604   0.596   1.141  12.048 -0.8964  0.5310  1.8958
  855MPD2     C12605   0.973   0.587  13.118 -0.0134 -0.2653  0.1303
  855MPD2    C112606   1.023   0.460  13.072 -0.0179  0.3543  0.4364
  855MPD2    C212607   0.996   0.410  12.946  0.6582  0.0506 -0.6259
  855MPD2    C312608   0.916   0.489  12.866  0.2785 -0.1180 -0.4241
  855MPD2    C412609   0.872   0.620  12.903 -0.1242 -0.3925  0.0051
  855MPD2    C512610   0.909   0.666  13.027 -0.0011 -0.1149 -0.1449
  855MPD2     H12611   1.055   0.332  12.900  0.3555 -0.4168 -0.2205
  855MPD2    H112612   0.822   0.696  12.846  2.9384  0.7201 -1.1787
  855MPD2    H212613   0.996   0.634  13.213 -1.6165 -2.0554  1.3952
  855MPD2    H312614   0.882   0.768  13.054  1.9793  0.0335  1.2669
  855MPD2     N12615   0.890   0.462  12.731  0.6209 -0.0803  0.3719
  855MPD2    H512616   0.840   0.531  12.675 -2.7223 -1.4924  1.5959
  855MPD2    N112617   1.095   0.381  13.155 -0.0167  0.4385  0.2646
  855MPD2    H712618   1.125   0.290  13.121  0.5150  1.0709 -0.9434
  856MPD2     C12619   3.516   1.182  13.399 -0.0960 -0.1917 -0.4539
  856MPD2    C112620   3.568   1.306  13.436 -0.0632 -0.0782 -0.1073
  856MPD2    C212621   3.483   1.412  13.458  0.6212  0.3048 -0.3030
  856MPD2    C312622   3.346   1.386  13.458 -0.4122 -0.5064  0.0276
  856MPD2    C412623   3.297   1.259  13.427  0.3248  0.2014  0.2252
  856MPD2    C512624   3.384   1.160  13.407 -0.0491  0.3224 -0.2857
  856MPD2     H12625   3.524   1.511  13.476 -0.9117  0.6316  1.3130
  856MPD2    H112626   3.194   1.227  13.442  0.1713  0.3239 -0.5938
  856MPD2    H212627   3.577   1.094  13.381 -0.0905 -0.6162  1.6679
  856MPD2    H312628   3.350   1.058  13.387 -2.0861  1.4707 -2.7005
  856MPD2     N12629   3.254   1.483  13.497 -0.6048 -0.2117 -0.1761
  856MPD2    H512630   3.153   1.470  13.499 -0.2390 -2.7676  1.1501
  856MPD2    N112631   3.708   1.334  13.436 -0.4131  0.1110  0.2741
  856MPD2    H712632   3.737   1.430  13.450 -2.4628  0.3844  2.6071
  857MPD2     C12633   0.119   4.018  12.673 -0.3282 -0.4731  0.1806
  857MPD2    C112634   0.207   3.998  12.572 -0.5939  0.5356  0.4181
  857MPD2    C212635   0.246   4.105  12.496 -0.4133 -0.7938  0.2208
  857MPD2    C312636   0.197   4.226  12.527 -0.2667 -0.2216  0.1159
  857MPD2    C412637   0.101   4.244  12.623  0.1502 -0.3118  0.7056
  857MPD2    C512638   0.063   4.140  12.703 -0.2272 -0.7577 -0.3418
  857MPD2     H12639   0.321   4.098  12.418  0.0136 -0.2036  0.5708
  857MPD2    H112640   0.050   4.338  12.640 -0.8861 -0.3170 -2.2885
  857MPD2    H212641   0.085   3.928  12.723 -1.1480 -0.1091  0.2824
  857MPD2    H312642   4.715   4.150  12.773  0.6902 -0.3098  0.6879
  857MPD2     N12643   0.240   4.339  12.452  0.5022 -0.2582  0.3864
  857MPD2    H512644   0.309   4.316  12.381 -0.0282  0.5382 -0.3842
  857MPD2    N112645   0.245   3.865  12.540  0.1109  0.3830  0.3691
  857MPD2    H712646   0.204   3.790  12.594  0.5291 -0.3797 -0.3658
  858MPD2     C12647   0.809   2.768  16.259 -0.4941 -0.5143  0.9815
  858MPD2    C112648   0.943   2.717  16.254  0.5516 -0.1946  0.2424
  858MPD2    C212649   1.038   2.791  16.318 -0.6530  0.4724 -0.5827
  858MPD2    C312650   1.005   2.899  16.400  0.0178 -0.0415 -0.0399
  858MPD2    C412651   0.874   2.948  16.406  0.0375 -0.5227  0.7667
  858MPD2    C512652   0.778   2.887  16.328  0.4595  0.3358 -0.2141
  858MPD2     H12653   1.141   2.758  16.326 -0.6485  0.0365 -2.5576
  858MPD2    H112654   0.852   3.035  16.467  2.6573 -0.0705  1.0773
  858MPD2    H212655   0.726   2.722  16.207 -0.9488  0.6569  0.6780
  858MPD2    H312656   0.676   2.922  16.324  0.6580  0.9591  0.4025
  858MPD2     N12657   1.099   2.968  16.472  0.4066 -0.1066  0.5014
  858MPD2    H512658   1.061   3.035  16.539  0.8520  0.0856  0.5605
  858MPD2    N112659   0.969   2.589  16.189 -0.2037  0.4356 -0.5054
  858MPD2    H712660   0.882   2.544  16.162 -0.2237  0.6176 -0.7449
  859MPD2     C12661   3.849   4.679  15.008  0.3273 -0.4267 -0.2035
  859MPD2    C112662   3.956   4.730  15.068  0.2894  0.2197  0.2954
  859MPD2    C212663   3.986   4.695  15.199 -0.7304 -0.2269  0.5708
  859MPD2    C312664   3.901   4.610  15.272 -0.1940 -0.5653 -0.0619
  859MPD2    C412665   3.780   4.577  15.217  0.8842 -0.5353  0.5077
  859MPD2    C512666   3.759   4.617  15.086 -0.9487 -0.0501  0.4586
  859MPD2     H12667   4.063   0.016  15.251  1.2670 -2.4744  0.0100
  859MPD2    H112668   3.703   4.524  15.271 -0.1439  1.2252  0.7878
  859MPD2    H212669   3.812   4.689  14.906 -2.2012 -0.0721  0.7726
  859MPD2    H312670   3.662   4.593  15.045 -1.3155  1.5354  0.4039
  859MPD2     N12671   3.924   4.564  15.411  0.1907  0.2700  0.3992
  859MPD2    H512672   3.844   4.520  15.454 -0.3865  0.9581  0.0215
  859MPD2    N112673   4.032   0.089  14.988 -0.0899 -0.5031 -0.5251
  859MPD2    H712674   3.989   0.140  14.911 -0.1862  0.8507  0.4217
  860MPD2     C12675   2.246   0.653  11.216  0.3759  0.4884 -0.2509
  860MPD2    C112676   2.226   0.564  11.322  0.3657  0.6565  0.1329
  860MPD2    C212677   2.096   0.543  11.370 -0.0899 -0.5092 -0.3083
  860MPD2    C312678   1.991   0.598  11.314  0.3974 -0.6100  0.1330
  860MPD2    C412679   2.011   0.676  11.199 -0.3178 -0.4366 -0.2061
  860MPD2    C512680   2.137   0.697  11.144 -0.2874 -0.2269  0.7467
  860MPD2     H12681   2.081   0.486  11.461 -1.5323  0.0127 -0.2283
  860MPD2    H112682   1.946   0.738  11.138  0.6285 -1.7822 -2.5519
  860MPD2    H212683   2.348   0.669  11.183 -0.3454  3.0773 -1.2088
  860MPD2    H312684   2.149   0.753  11.052 -0.2470 -0.4639  0.6060
  860MPD2     N12685   1.864   0.595  11.375 -0.5997 -0.2002  0.2786
  860MPD2    H512686   1.859   0.566  11.473  1.2565 -3.4766 -0.6020
  860MPD2    N112687   2.337   0.517  11.388 -0.2876  0.1332  0.2726
  860MPD2    H712688   2.427   0.549  11.355  0.6755 -1.2298  1.5858
  861MPD2     C12689   0.367   3.331  11.068 -0.1903  0.2660 -0.6160
  861MPD2    C112690   0.427   3.425  10.988 -0.2117 -0.9312  0.2946
  861MPD2    C212691   0.365   3.476  10.877 -0.0668  0.2634 -0.2856
  861MPD2    C312692   0.241   3.430  10.844  0.4587  0.1762 -0.6860
  861MPD2    C412693   0.175   3.339  10.926 -0.0948  0.6530  0.1902
  861MPD2    C512694   0.240   3.291  11.038  0.1550 -0.1374  0.1580
  861MPD2     H12695   0.432   3.528  10.809 -1.5759 -0.0626 -2.0168
  861MPD2    H112696   0.075   3.301  10.908  0.4747  1.6189 -4.8369
  861MPD2    H212697   0.416   3.290  11.156  0.9177 -0.7820 -1.7217
  861MPD2    H312698   0.197   3.208  11.093 -0.1339 -1.0484 -1.4396
  861MPD2     N12699   0.173   3.484  10.733 -0.1693  0.1036 -0.1966
  861MPD2    H512700   0.088   3.435  10.710 -0.1674 -0.8717  1.8972
  861MPD2    N112701   0.554   3.480  11.014 -0.5636  0.6268  0.4886
  861MPD2    H712702   0.598   3.548  10.953  0.9595 -1.0869 -0.3358
  862MPD2     C12703   4.425   3.370  10.245  0.1035 -0.5346  0.0353
  862MPD2    C112704   4.471   3.366  10.368  0.4697 -0.3847 -0.0717
  862MPD2    C212705   4.495   3.242  10.423  0.3181 -0.2431 -0.9413
  862MPD2    C312706   4.507   3.123  10.350 -1.2330 -0.2487  0.0411
  862MPD2    C412707   4.462   3.126  10.220  0.1025  0.7512  0.1559
  862MPD2    C512708   4.426   3.251  10.172 -0.2907 -0.6619 -0.2109
  862MPD2     H12709   4.529   3.235  10.526 -0.0557 -0.5760 -0.8448
  862MPD2    H112710   4.456   3.041  10.152  0.8830  2.7342 -2.3971
  862MPD2    H212711   4.375   3.457  10.203  0.5625  1.0354  2.7552
  862MPD2    H312712   4.370   3.244  10.080 -2.4301  3.3641  0.7624
  862MPD2     N12713   4.569   3.008  10.401  0.6636 -0.0649 -0.7141
  862MPD2    H512714   4.547   2.926  10.344  2.0581 -0.7052 -0.3190
  862MPD2    N112715   4.497   3.476  10.443  0.3726 -0.1948  0.2627
  862MPD2    H712716   4.532   3.461  10.537  0.1743 -2.8371 -0.0718
  863MPD2     C12717   4.196   1.810  16.204 -0.2591  0.1073  0.3133
  863MPD2    C112718   4.095   1.826  16.295 -0.1337  0.6590  0.0047
  863MPD2    C212719   4.127   1.815  16.433 -0.8323 -0.0832  0.4194
  863MPD2    C312720   4.250   1.769  16.476 -0.2926 -0.5644 -0.5588
  863MPD2    C412721   4.346   1.755  16.382 -0.5395  0.0418 -0.2431
  863MPD2    C512722   4.321   1.780  16.250  0.0505 -0.0896  0.5676
  863MPD2     H12723   4.065   1.863  16.509 -0.5956 -1.8867  1.7431
  863MPD2    H112724   4.447   1.722  16.406 -0.7907 -1.8062 -1.7861
  863MPD2    H212725   4.180   1.800  16.097 -3.2348 -0.7000  0.8256
  863MPD2    H312726   4.393   1.772  16.170 -1.2065 -2.9119 -0.2808
  863MPD2     N12727   4.278   1.754  16.608  0.1869 -0.5230 -0.1952
  863MPD2    H512728   4.377   1.740  16.626 -0.7759 -0.0950  5.5406
  863MPD2    N112729   3.969   1.861  16.246  0.2201  0.1657 -0.0016
  863MPD2    H712730   3.956   1.869  16.146 -0.5409 -1.0211 -0.0048
  864MPD2     C12731   4.619   2.718  17.056  0.4807 -0.9093  0.0018
  864MPD2    C112732   4.697   2.664  16.962 -0.1611 -0.1844 -0.0085
  864MPD2    C212733   0.051   2.739  16.878  0.1276 -0.0141  0.0332
  864MPD2    C312734   0.059   2.873  16.907  0.3804 -0.6003  0.6435
  864MPD2    C412735   4.713   2.929  16.999 -0.3429 -0.0829 -0.2023
  864MPD2    C512736   4.627   2.853  17.067  0.2028  0.3832 -0.0848
  864MPD2     H12737   0.114   2.691  16.804  1.3369 -0.5659  1.4249
  864MPD2    H112738   4.715   3.036  17.013  0.1958  0.1348 -1.8675
  864MPD2    H212739   4.553   2.663  17.122 -1.3344 -0.4379 -1.4195
  864MPD2    H312740   4.559   2.907  17.132 -0.3155  0.1417 -0.4279
  864MPD2     N12741   0.148   2.961  16.840  0.0505 -0.5597  0.3529
  864MPD2    H512742   0.150   3.060  16.864  1.9764 -0.4458 -0.2909
  864MPD2    N112743   4.676   2.525  16.952 -0.3912 -0.1691 -0.0577
  864MPD2    H712744   4.599   2.493  17.011  0.0452 -2.6291 -0.8190
  865MPD2     C12745   4.421   2.916  16.332  0.5641 -0.7240 -0.0329
  865MPD2    C112746   4.537   2.933  16.262 -0.1873 -0.3615  0.1209
  865MPD2    C212747   4.616   3.039  16.286  0.3374  0.2188 -0.3597
  865MPD2    C312748   4.612   3.113  16.403 -0.6358 -0.1357  0.2775
  865MPD2    C412749   4.499   3.097  16.486 -0.2915 -0.0969  0.3760
  865MPD2    C512750   4.410   2.998  16.443 -0.2736  0.9556 -0.2307
  865MPD2     H12751   4.709   3.051  16.232  0.2823 -2.5898 -1.0598
  865MPD2    H112752   4.488   3.140  16.585  0.4081 -0.9513  0.8185
  865MPD2    H212753   4.350   2.835  16.319  1.9657 -1.8085 -1.0022
  865MPD2    H312754   4.332   2.955  16.504 -1.1179  0.2593 -1.8133
  865MPD2     N12755   4.730   3.186  16.437  0.3100  0.5362  0.1944
  865MPD2    H512756   0.072   3.183  16.371  1.2213  4.3975  1.0913
  865MPD2    N112757   4.566   2.845  16.147  0.3370 -0.3977  0.0642
  865MPD2    H712758   4.497   2.773  16.127 -0.0839 -0.2193  0.8602
  866MPD2     C12759   0.763   3.343  10.692 -0.6493  0.0572  0.0794
  866MPD2    C112760   0.834   3.441  10.753  0.5932  0.7983 -0.0135
  866MPD2    C212761   0.784   3.573  10.743 -0.0851 -0.3731 -0.5850
  866MPD2    C312762   0.658   3.597  10.683 -0.4663 -0.6743 -0.0749
  866MPD2    C412763   0.605   3.494  10.604  0.0832 -0.6256 -0.0027
  866MPD2    C512764   0.662   3.373  10.607 -0.1402 -0.3078  0.4424
  866MPD2     H12765   0.841   3.647  10.797 -0.4481 -1.1196  0.8089
  866MPD2    H112766   0.521   3.508  10.537 -1.0483  0.3266  1.6353
  866MPD2    H212767   0.793   3.239  10.702 -0.4179 -0.1561 -2.8767
  866MPD2    H312768   0.608   3.295  10.554 -0.5273  0.0141  0.3612
  866MPD2     N12769   0.575   3.707  10.703  0.0454  0.4129 -0.1288
  866MPD2    H512770   0.480   3.717  10.668 -0.4143  0.9170  1.2247
  866MPD2    N112771   0.957   3.413  10.824  0.2561  0.3492 -0.3149
  866MPD2    H712772   0.985   3.316  10.826 -0.3275  0.1558 -1.6956
  867MPD2     C12773   3.321   2.968  16.552 -0.0305 -0.4014  0.1138
  867MPD2    C112774   3.412   2.883  16.610 -0.1777  0.3220 -0.2722
  867MPD2    C212775   3.514   2.935  16.698 -0.1996 -0.7410 -0.2153
  867MPD2    C312776   3.503   3.067  16.733  0.4409  0.0291 -0.0725
  867MPD2    C412777   3.400   3.148  16.684  0.0813  0.2548 -0.6750
  867MPD2    C512778   3.311   3.099  16.589 -0.5982  0.4139 -0.0982
  867MPD2     H12779   3.588   2.865  16.732  0.8536  1.1035  1.2545
  867MPD2    H112780   3.383   3.250  16.716 -1.2669 -0.1496 -0.0625
  867MPD2    H212781   3.260   2.933  16.469  1.8053 -2.6355 -0.2850
  867MPD2    H312782   3.233   3.161  16.547 -2.6809 -2.5274 -0.5903
  867MPD2     N12783   3.592   3.130  16.818 -0.6367 -0.2388 -0.0863
  867MPD2    H512784   3.580   3.230  16.828 -2.9540 -0.6461  1.0223
  867MPD2    N112785   3.425   2.751  16.560  1.3376 -0.0357 -0.4881
  867MPD2    H712786   3.390   2.725  16.469 -0.8005  1.8605 -0.2246
  868MPD2     C12787   4.530   1.991  12.755  0.5328  0.0286 -0.1136
  868MPD2    C112788   4.642   2.069  12.744  0.5823  0.7644 -0.3044
  868MPD2    C212789   4.625   2.209  12.749 -0.3024  0.1024 -0.8127
  868MPD2    C312790   4.500   2.258  12.749  0.6277 -0.3444  0.4547
  868MPD2    C412791   4.390   2.181  12.756 -0.0788 -0.4731  0.4140
  868MPD2    C512792   4.406   2.048  12.754  0.5032  0.0097  0.1242
  868MPD2     H12793   4.703   2.284  12.742  0.7020 -0.6159  2.4588
  868MPD2    H112794   4.288   2.218  12.754 -0.5422 -1.7288  1.1080
  868MPD2    H212795   4.546   1.884  12.746  0.3310  0.0388 -0.5503
  868MPD2    H312796   4.323   1.979  12.755  1.5122 -1.1634  1.4573
  868MPD2     N12797   4.495   2.395  12.774  0.1197  0.2342  0.1542
  868MPD2    H512798   4.570   2.451  12.815  0.5273  1.2580 -1.9698
  868MPD2    N112799   0.036   2.008  12.730 -0.1989  0.4931  0.7585
  868MPD2    H712800   0.028   1.908  12.742 -0.6176  0.5771  1.1676
  869MPD2     C12801   0.985   0.069   0.243  0.0966  0.1041  0.1999
  869MPD2    C112802   0.945   0.180   0.307  0.0296  0.0105 -0.9141
  869MPD2    C212803   1.036   0.261   0.367 -0.2365 -0.3858  0.2366
  869MPD2    C312804   1.173   0.246   0.355  0.1013  0.0446 -0.0764
  869MPD2    C412805   1.217   0.137   0.283 -0.7200 -0.3309 -0.1108
  869MPD2    C512806   1.122   0.054   0.228  0.4221 -0.2608  0.4829
  869MPD2     H12807   0.994   0.342   0.426  3.9587  1.4535  0.7108
  869MPD2    H112808   1.318   0.101   0.264 -0.5221  0.2752 -0.2100
  869MPD2    H212809   0.930   4.729   0.186  1.1075  0.2258 -0.9410
  869MPD2    H312810   1.153   4.706   0.165 -0.3270  1.2223 -1.8296
  869MPD2     N12811   1.269   0.333   0.423  0.3413  0.0110 -0.2046
  869MPD2    H512812   1.368   0.314   0.414  0.4772  1.7749 -2.2006
  869MPD2    N112813   0.810   0.209   0.311  0.3803 -0.9299 -0.4386
  869MPD2    H712814   0.752   0.128   0.292  0.3925 -0.8203 -0.9517
  870MPD2     C12815   2.091   3.240   1.229  0.1032 -0.0187  0.2206
  870MPD2    C112816   1.965   3.194   1.187 -0.2036  0.0919 -0.1336
  870MPD2    C212817   1.864   3.289   1.169 -1.1223 -0.2353  0.5034
  870MPD2    C312818   1.881   3.422   1.211  0.7501  0.1822 -0.2357
  870MPD2    C412819   2.009   3.467   1.247  0.5988 -0.0576 -0.1127
  870MPD2    C512820   2.110   3.371   1.253 -0.0505 -0.3378  0.2010
  870MPD2     H12821   1.768   3.251   1.138 -2.1138  1.1157  1.8866
  870MPD2    H112822   2.039   3.570   1.262 -0.4305  0.2316 -0.0375
  870MPD2    H212823   2.176   3.176   1.250  0.6149  1.5440  2.8963
  870MPD2    H312824   2.207   3.402   1.289 -1.7432  0.6030  3.9008
  870MPD2     N12825   1.776   3.509   1.190 -0.0526 -0.3446  0.0193
  870MPD2    H512826   1.691   3.461   1.164  1.2088 -0.6349 -3.5547
  870MPD2    N112827   1.970   3.050   1.156 -0.1192  0.3266 -0.6419
  870MPD2    H712828   2.061   3.007   1.166  0.5340  2.0863  0.9805
  871MPD2     C12829   2.432   3.543  15.925 -0.1410  0.1888  0.6746
  871MPD2    C112830   2.465   3.507  16.051 -0.1981 -0.8037  0.1786
  871MPD2    C212831   2.531   3.384  16.066 -0.5103  0.1812 -0.4919
  871MPD2    C312832   2.562   3.296  15.970  0.2714 -0.1561  1.1251
  871MPD2    C412833   2.528   3.341  15.839  0.2760  0.0665 -0.3245
  871MPD2    C512834   2.468   3.464  15.819 -0.1189  0.8478 -0.2706
  871MPD2     H12835   2.559   3.349  16.165 -1.1679 -1.9505 -1.0563
  871MPD2    H112836   2.526   3.272  15.755  0.7384 -0.6130  0.2277
  871MPD2    H212837   2.378   3.634  15.899 -0.3178 -0.3624 -0.8913
  871MPD2    H312838   2.425   3.483  15.722 -0.4803  1.1190 -0.0602
  871MPD2     N12839   2.616   3.161  15.994  0.2468  0.6554 -0.0660
  871MPD2    H512840   2.630   3.141  16.093 -1.8869  1.0553  0.3168
  871MPD2    N112841   2.430   3.597  16.159 -0.5148  0.0936 -0.0802
  871MPD2    H712842   2.425   3.697  16.143  1.3070  0.1592 -0.2930
  872MPD2     C12843   2.772   1.179  13.330  0.0755  0.2659  0.3192
  872MPD2    C112844   2.833   1.091  13.422  0.2503  0.4561  0.2234
  872MPD2    C212845   2.780   1.071  13.551  0.1346  0.3555  0.2460
  872MPD2    C312846   2.677   1.150  13.589  0.5108  0.1373  0.9479
  872MPD2    C412847   2.634   1.248  13.507 -0.1132 -0.4893 -0.2152
  872MPD2    C512848   2.667   1.254  13.377  0.6915 -0.4660  0.6274
  872MPD2     H12849   2.829   0.991  13.606  1.2387 -0.1531 -1.4692
  872MPD2    H112850   2.548   1.307  13.537  0.3111  0.6246 -1.1856
  872MPD2    H212851   2.797   1.190  13.225 -2.5862 -1.5587 -0.5268
  872MPD2    H312852   2.612   1.309  13.301  0.1392 -0.6943  0.8589
  872MPD2     N12853   2.621   1.140  13.719  0.3886  0.0972  0.1869
  872MPD2    H512854   2.533   1.184  13.744  1.0595  0.9250  1.0853
  872MPD2    N112855   2.946   1.019  13.385  0.1329  0.2965 -0.4307
  872MPD2    H712856   2.979   0.959  13.460  1.2899  1.3856 -0.0558
  873MPD2     C12857   4.503   0.740   0.544  0.3350  0.1173 -0.6161
  873MPD2    C112858   4.589   0.714   0.651 -0.4973  0.1899 -0.6028
  873MPD2    C212859   4.659   0.597   0.645 -0.1625  0.1544  0.5769
  873MPD2    C312860   4.647   0.505   0.538 -0.3075  0.1869  0.0896
  873MPD2    C412861   4.560   0.535   0.436 -0.2745 -0.0207 -0.3035
  873MPD2    C512862   4.500   0.653   0.437 -0.2099  0.0979  0.2987
  873MPD2     H12863   0.001   0.583   0.721 -0.3478  1.7396  1.0479
  873MPD2    H112864   4.557   0.477   0.345  1.0860  0.0860 -0.4211
  873MPD2    H212865   4.460   0.837   0.521 -1.1432 -0.8110 -1.7512
  873MPD2    H312866   4.447   0.680   0.346  0.0253  3.2645  1.1280
  873MPD2     N12867   4.716   0.384   0.535 -0.0848  0.6260 -0.0634
  873MPD2    H512868   4.680   0.318   0.467  2.4873 -0.3900 -0.4459
  873MPD2    N112869   4.612   0.817   0.744 -0.0985  0.8757 -0.0063
  873MPD2    H712870   4.552   0.898   0.738  0.0357  1.0568  1.1868
  874MPD2     C12871   4.596   0.990  15.476  0.1853  0.4767 -0.5398
  874MPD2    C112872   4.647   0.963  15.603 -0.0055 -0.0611 -0.0552
  874MPD2    C212873   0.037   1.017  15.626  0.6948  0.7555  0.3393
  874MPD2    C312874   0.107   1.090  15.537 -0.3750  0.0590  0.8037
  874MPD2    C412875   0.053   1.114  15.410 -0.2556  0.2246 -0.3670
  874MPD2    C512876   4.664   1.063  15.377 -0.0992  0.7988 -0.1960
  874MPD2     H12877   0.078   1.010  15.726  0.5661 -1.3480  0.2511
  874MPD2    H112878   0.105   1.171  15.333  1.9582  0.2813  1.1731
  874MPD2    H212879   4.501   0.945  15.449 -0.7688  1.7118  0.7181
  874MPD2    H312880   4.626   1.075  15.276  2.4175  1.5865 -1.0416
  874MPD2     N12881   0.229   1.146  15.581  0.2514 -0.5050 -0.3812
  874MPD2    H512882   0.249   1.131  15.679  0.5187 -0.3091 -0.4038
  874MPD2    N112883   4.575   0.866  15.678 -0.6163  0.1127  0.3226
  874MPD2    H712884   4.485   0.832  15.645 -1.1163  2.0121 -0.3127
  875MPD2     C12885   1.048   3.924  14.058 -0.4532 -0.4909  0.7165
  875MPD2    C112886   0.929   3.912  14.121 -0.4435  0.2495  0.1269
  875MPD2    C212887   0.927   3.925  14.261 -0.2150  0.0592  0.3603
  875MPD2    C312888   1.038   3.963  14.334 -0.3407  0.0536  0.2861
  875MPD2    C412889   1.154   3.989  14.260 -0.0334  0.5730  0.6932
  875MPD2    C512890   1.160   3.946  14.128 -0.4531 -0.3073  0.2182
  875MPD2     H12891   0.831   3.930  14.311  0.2596  1.2261  1.1666
  875MPD2    H112892   1.249   4.019  14.302 -0.4132 -1.2787  2.8434
  875MPD2    H212893   1.059   3.907  13.951 -0.5268  0.9359  0.4836
  875MPD2    H312894   1.248   3.976  14.071 -1.0611 -1.1799 -1.1851
  875MPD2     N12895   1.036   3.990  14.474  0.2837  0.2108 -0.1188
  875MPD2    H512896   1.112   4.045  14.513  0.0733  1.0873 -0.9604
  875MPD2    N112897   0.803   3.895  14.056  0.1654 -0.2685  0.4895
  875MPD2    H712898   0.716   3.897  14.109  0.1926  0.5394  0.4973
  876MPD2     C12899   4.436   0.439  15.745 -0.1275  0.3531 -0.5117
  876MPD2    C112900   4.564   0.413  15.698  0.4600 -0.0834  0.4573
  876MPD2    C212901   4.635   0.309  15.760 -0.2703 -0.3680  0.1079
  876MPD2    C312902   4.584   0.231  15.860  0.0436  0.0348  0.6041
  876MPD2    C412903   4.450   0.255  15.898 -0.2303 -0.8259 -0.2458
  876MPD2    C512904   4.386   0.362  15.850  0.1675  0.1750 -0.5245
  876MPD2     H12905   0.003   0.285  15.731 -0.3624 -2.8384  1.7939
  876MPD2    H112906   4.407   0.208  15.985 -1.0752 -0.5470 -0.5136
  876MPD2    H212907   4.374   0.523  15.715 -1.9519 -1.0267 -0.5988
  876MPD2    H312908   4.288   0.388  15.889 -0.3189 -1.9250 -0.3182
  876MPD2     N12909   4.663   0.124  15.910  0.8141  0.7107 -0.0298
  876MPD2    H512910   0.028   0.122  15.888  0.8550  1.2628  0.1172
  876MPD2    N112911   4.608   0.487  15.580  0.3241 -0.3059 -0.5711
  876MPD2    H712912   4.539   0.555  15.549  0.3531 -0.0789 -0.1378
  877MPD2     C12913   4.433   0.912  14.967 -0.9464  0.0686  0.3829
  877MPD2    C112914   4.573   0.911  14.963  0.0018 -0.1872  0.8726
  877MPD2    C212915   4.636   0.940  14.842  0.1445 -0.3386 -1.0012
  877MPD2    C312916   4.569   0.982  14.733 -0.3690 -0.4876  0.0533
  877MPD2    C412917   4.433   0.983  14.745 -0.5011 -0.0547  0.4563
  877MPD2    C512918   4.370   0.960  14.863 -0.7944  0.6209  0.3154
  877MPD2     H12919   0.010   0.932  14.840  0.2099  0.3427 -0.2043
  877MPD2    H112920   4.375   1.024  14.663 -0.0015 -2.4825 -1.1182
  877MPD2    H212921   4.370   0.894  15.054  1.4550 -0.2942  2.0335
  877MPD2    H312922   4.262   0.970  14.867 -0.8167  0.5104 -0.0463
  877MPD2     N12923   4.619   1.001  14.605  0.1375 -0.3169 -0.3920
  877MPD2    H512924   4.552   1.007  14.529  0.8282  0.4800 -0.9419
  877MPD2    N112925   4.652   0.866  15.076  0.3148  0.3398 -0.5958
  877MPD2    H712926   0.017   0.866  15.054  0.4369 -0.3091 -0.0342
  878MPD2     C12927   3.284   4.685  13.185  0.2234  0.3436  0.0427
  878MPD2    C112928   3.405   0.002  13.150 -0.7966  0.3456 -0.8676
  878MPD2    C212929   3.492   0.024  13.251  0.0021 -0.3637  0.3526
  878MPD2    C312930   3.465   0.009  13.384 -0.0023  0.5824  0.7375
  878MPD2    C412931   3.342   4.706  13.421 -0.5873 -0.0954  0.4899
  878MPD2    C512932   3.253   4.680  13.318  0.5260  0.2438 -0.4123
  878MPD2     H12933   3.578   0.087  13.231 -0.4942  0.1696 -0.0693
  878MPD2    H112934   3.298   4.714  13.520 -0.6736  0.1829  0.4280
  878MPD2    H212935   3.219   4.660  13.102 -1.4093 -0.7417  1.6538
  878MPD2    H312936   3.151   4.660  13.349  1.1094 -2.8057 -0.4279
  878MPD2     N12937   3.560   0.058  13.476  0.5918 -0.6991 -0.1554
  878MPD2    H512938   3.639   0.110  13.439  0.0355  2.0405  2.5026
  878MPD2    N112939   3.442   0.019  13.014  0.3940 -0.2402 -0.6055
  878MPD2    H712940   3.364   0.002  12.951  0.0915 -1.7129  0.1591
  879MPD2     C12941   0.062   1.765  16.445  0.2113  0.3173  0.5562
  879MPD2    C112942   0.050   1.651  16.523  0.3491 -0.2545 -0.1205
  879MPD2    C212943   0.007   1.542  16.474  0.1368  0.1165 -0.0266
  879MPD2    C312944   4.679   1.539  16.347 -0.0957 -0.3617  0.1363
  879MPD2    C412945   4.680   1.657  16.276 -0.2424 -0.0093  0.1698
  879MPD2    C512946   0.013   1.763  16.324  0.0845 -0.0487 -0.2217
  879MPD2     H12947   0.010   1.454  16.537 -2.0179  0.0393 -0.0115
  879MPD2    H112948   4.627   1.661  16.182 -0.0288  0.8781  0.0858
  879MPD2    H212949   0.105   1.856  16.484 -0.2725 -0.3219  2.6122
  879MPD2    H312950   0.020   1.859  16.274  1.1294 -1.0931 -2.1057
  879MPD2     N12951   4.605   1.435  16.297 -0.7180 -0.2008  0.2936
  879MPD2    H512952   4.567   1.458  16.205 -1.0801 -0.9248  0.2597
  879MPD2    N112953   0.103   1.657  16.653 -0.1562  0.2194 -0.6368
  879MPD2    H712954   0.140   1.745  16.689 -0.1434 -0.6958  1.5789
  880MPD2     C12955   1.132   3.142  17.579 -0.3351  0.4028 -0.4741
  880MPD2    C112956   1.193   3.151  17.700 -0.0245  0.2296  0.1249
  880MPD2    C212957   1.235   3.040   0.034 -0.2292  0.1584  0.4586
  880MPD2    C312958   1.231   2.916  17.710  0.0809 -0.1939 -1.2647
  880MPD2    C412959   1.181   2.909  17.584 -0.1962  0.3597 -0.0488
  880MPD2    C512960   1.139   3.021  17.514  1.0379  0.3225 -0.3730
  880MPD2     H12961   1.285   3.054   0.130  1.3200  1.3173 -0.5206
  880MPD2    H112962   1.176   2.820  17.522  2.0974  0.4960 -0.4490
  880MPD2    H212963   1.094   3.234  17.536 -1.6779  1.4724  2.9551
  880MPD2    H312964   1.096   3.004  17.416 -0.7740  2.0955  0.1077
  880MPD2     N12965   1.288   2.812   0.049  0.2657  0.5797  0.0595
  880MPD2    H512966   1.306   2.832   0.147 -0.7160 -2.5895  0.8876
  880MPD2    N112967   1.218   3.284   0.009  0.0399 -0.0562 -0.2862
  880MPD2    H712968   1.201   3.355  17.674  0.3729  0.6966  0.3976
  881MPD2     C12969   1.407   4.110  17.316 -0.4199 -0.1287  0.0471
  881MPD2    C112970   1.458   3.984  17.320 -0.1515 -0.0461  0.0490
  881MPD2    C212971   1.453   3.906  17.433 -1.0181  0.3233  0.0275
  881MPD2    C312972   1.373   3.945  17.535  0.2125 -0.0261  0.2387
  881MPD2    C412973   1.300   4.062  17.525  0.7268 -1.0040  0.0391
  881MPD2    C512974   1.327   4.150  17.424 -0.5865 -0.2257  0.3315
  881MPD2     H12975   1.515   3.817  17.437 -2.7154 -0.8927 -0.6393
  881MPD2    H112976   1.227   4.095  17.598 -0.6710 -3.3148 -0.3094
  881MPD2    H212977   1.406   4.178  17.232  0.6818 -1.6070 -1.1724
  881MPD2    H312978   1.283   4.249  17.431  1.2754  0.4865  1.7765
  881MPD2     N12979   1.342   3.858  17.651  0.4684 -0.0118  0.0455
  881MPD2    H512980   1.278   3.889  17.723  0.0887  0.2141 -0.3885
  881MPD2    N112981   1.547   3.964  17.213 -1.0634 -0.1642 -0.4026
  881MPD2    H712982   1.546   4.031  17.137  1.2084 -0.3613 -0.6103
  882MPD2     C12983   4.532   0.559  13.981 -0.4789 -0.2813 -0.9691
  882MPD2    C112984   4.488   0.662  14.060 -0.7427 -1.0378 -0.4233
  882MPD2    C212985   4.358   0.655  14.110  0.6181  1.1878 -0.3940
  882MPD2    C312986   4.276   0.549  14.094  0.7037 -0.3561  0.1667
  882MPD2    C412987   4.330   0.435  14.035  0.2336 -0.4057 -0.1810
  882MPD2    C512988   4.451   0.444  13.974 -0.9038  0.0480 -0.0959
  882MPD2     H12989   4.324   0.740  14.169  1.2928  0.3938  1.1308
  882MPD2    H112990   4.275   0.343  14.019 -0.2486 -0.2378  0.5295
  882MPD2    H212991   4.633   0.557  13.941  0.2324 -2.5650  0.9195
  882MPD2    H312992   4.502   0.361  13.925  0.0001  0.3050  0.3969
  882MPD2     N12993   4.151   0.535  14.149 -0.7538 -0.2198 -0.4737
  882MPD2    H512994   4.112   0.443  14.164 -2.9595  0.6320 -0.9177
  882MPD2    N112995   4.576   0.773  14.067  0.2303 -0.1699  0.1625
  882MPD2    H712996   4.664   0.769  14.018  0.1630  0.4539 -0.0023
  883MPD2     C12997   1.315   0.710  15.442  0.1629 -0.2767 -0.1805
  883MPD2    C112998   1.360   0.836  15.433 -0.3944 -0.3016  0.4571
  883MPD2    C212999   1.462   0.882  15.519  1.0259 -0.1975  0.1874
  883MPD2    C313000   1.509   0.798  15.620 -0.1935 -0.1682 -0.2763
  883MPD2    C413001   1.467   0.663  15.621 -0.1055  0.4051 -0.2045
  883MPD2    C513002   1.367   0.627  15.533  0.3101 -0.5384  0.1594
  883MPD2     H13003   1.491   0.986  15.512  2.1872 -0.5431 -0.1687
  883MPD2    H113004   1.505   0.593  15.694  0.3271  0.4099 -0.4257
  883MPD2    H213005   1.237   0.661  15.384 -1.7997  1.6294  0.8744
  883MPD2    H313006   1.332   0.525  15.536 -2.6941  0.4234 -3.2805
  883MPD2     N13007   1.611   0.848  15.704  0.5511 -0.3558  0.0012
  883MPD2    H513008   1.643   0.942  15.686  1.6333 -0.7060  0.0831
  883MPD2    N113009   1.308   0.921  15.335  0.1581  0.2902  0.1057
  883MPD2    H713010   1.366   1.002  15.313 -0.0929 -0.3708 -3.0903
  884MPD2     C13011   3.665   1.586  14.765  0.2047  0.6288 -0.1417
  884MPD2    C113012   3.630   1.686  14.670  0.8493  0.0170  0.1531
  884MPD2    C213013   3.525   1.765  14.697 -0.2939 -0.6647 -0.2435
  884MPD2    C313014   3.452   1.754  14.809 -0.5025  0.2024  0.6432
  884MPD2    C413015   3.480   1.654  14.898  0.0253  0.3114 -0.1015
  884MPD2    C513016   3.586   1.568  14.885  0.8853  0.1877  0.1052
  884MPD2     H13017   3.500   1.842  14.625  0.5794  1.4871  1.7326
  884MPD2    H113018   3.418   1.635  14.985  0.7529 -0.9774  0.1269
  884MPD2    H213019   3.750   1.522  14.744 -0.1153  0.2670 -0.3334
  884MPD2    H313020   3.609   1.492  14.958 -0.9401  0.6547  1.1689
  884MPD2     N13021   3.356   1.854  14.823  0.0485 -0.2131 -0.2629
  884MPD2    H513022   3.344   1.916  14.744  0.9634 -1.5707 -1.4709
  884MPD2    N113023   3.708   1.712  14.556  0.6896 -0.4634  0.4212
  884MPD2    H713024   3.683   1.787  14.492 -0.6227 -0.4207  0.9862
  885MPD2     C13025   1.797   1.809  17.355 -0.8015 -0.3067 -0.5588
  885MPD2    C113026   1.844   1.935  17.395 -0.2881 -0.1212 -0.4686
  885MPD2    C213027   1.871   2.027  17.294  0.6032 -0.3779 -0.3586
  885MPD2    C313028   1.853   1.995  17.162  0.2845 -0.6829  0.5420
  885MPD2    C413029   1.794   1.868  17.126  0.0389 -0.2997  0.1227
  885MPD2    C513030   1.766   1.778  17.228  0.4793  0.1195  0.0469
  885MPD2     H13031   1.914   2.123  17.319  0.3812 -0.3849  0.0498
  885MPD2    H113032   1.771   1.841  17.023 -1.4552  1.0129  0.1269
  885MPD2    H213033   1.782   1.734  17.432  0.1454  0.3384  0.2639
  885MPD2    H313034   1.717   1.685  17.200 -0.3454  0.2425  1.0941
  885MPD2     N13035   1.890   2.090  17.062 -0.1567  0.1963 -0.0831
  885MPD2    H513036   1.953   2.162  17.094 -0.2137  0.4266 -0.4840
  885MPD2    N113037   1.878   1.959  17.529  0.0108 -0.2973  0.1014
  885MPD2    H713038   1.882   1.878  17.590  1.7969  0.7929  1.4306
  886MPD2     C13039   3.160   0.149  14.895 -0.5811 -0.3224 -0.7439
  886MPD2    C113040   3.230   0.228  14.982 -0.2384  0.1788  0.2771
  886MPD2    C213041   3.242   0.366  14.954  0.5635 -0.5768  0.1408
  886MPD2    C313042   3.207   0.418  14.829 -0.0307  0.5689  0.2589
  886MPD2    C413043   3.144   0.330  14.740  0.3390  0.0333 -0.4369
  886MPD2    C513044   3.128   0.200  14.771  0.9354  0.1459 -0.2606
  886MPD2     H13045   3.300   0.421  15.027 -0.1502 -0.8964  0.9548
  886MPD2    H113046   3.116   0.367  14.642 -1.4019  1.0399  0.4465
  886MPD2    H213047   3.161   0.040  14.898 -1.5812 -0.3268 -0.6601
  886MPD2    H313048   3.081   0.139  14.695 -0.7609  1.9457 -0.6244
  886MPD2     N13049   3.216   0.550  14.791 -0.2153  0.1290 -0.5628
  886MPD2    H513050   3.195   0.563  14.692  0.8484  1.1709 -0.6567
  886MPD2    N113051   3.302   0.178  15.096  0.1083 -0.3654  0.4641
  886MPD2    H713052   3.353   0.250  15.146 -1.7399  2.9320 -2.3338
  887MPD2     C13053   3.962   0.278  15.316 -0.1957 -0.2540  0.5527
  887MPD2    C113054   3.842   0.332  15.275  0.1745 -0.1358  0.4788
  887MPD2    C213055   3.830   0.444  15.194  0.8019 -0.2418 -0.5809
  887MPD2    C313056   3.944   0.515  15.169 -0.5665 -0.0248 -0.2200
  887MPD2    C413057   4.065   0.465  15.214  0.2518 -0.0927  0.2709
  887MPD2    C513058   4.072   0.351  15.283 -0.2945  0.0338 -0.5072
  887MPD2     H13059   3.732   0.478  15.161  0.4613 -0.9517 -0.3056
  887MPD2    H113060   4.154   0.525  15.201 -1.4148  2.1321 -0.9608
  887MPD2    H213061   3.973   0.180  15.362  0.6257 -0.9493 -1.1266
  887MPD2    H313062   4.170   0.321  15.319 -1.1762 -1.1657  0.8917
  887MPD2     N13063   3.932   0.633  15.096 -0.1712 -0.0362  0.9207
  887MPD2    H513064   3.836   0.654  15.070  0.0615  1.9970  1.7207
  887MPD2    N113065   3.717   0.265  15.310  0.9457  0.5586 -0.0824
  887MPD2    H713066   3.631   0.294  15.266 -0.4079 -0.7227  1.7563
  888MPD2     C13067   0.806   0.481  14.067  0.5094  0.2997  0.4556
  888MPD2    C113068   0.851   0.501  14.196  0.2085  0.3473 -0.3751
  888MPD2    C213069   0.910   0.624  14.217  0.1384 -0.5405 -0.3061
  888MPD2    C313070   0.927   0.724  14.123  0.9571  0.8987  0.0688
  888MPD2    C413071   0.884   0.691  13.997  0.2598  0.5374  0.0891
  888MPD2    C513072   0.830   0.573  13.969  0.9831  0.5544  0.0877
  888MPD2     H13073   0.939   0.647  14.319 -0.5735 -2.0558  0.2298
  888MPD2    H113074   0.884   0.770  13.923 -2.2634  1.6553  1.2889
  888MPD2    H213075   0.772   0.384  14.033  0.6517  0.2679  0.4051
  888MPD2    H313076   0.787   0.557  13.871  0.1281  1.1209  0.3726
  888MPD2     N13077   0.968   0.852  14.172 -0.4546 -0.2429  0.2732
  888MPD2    H513078   0.986   0.868  14.270  0.5577 -1.0863  0.2330
  888MPD2    N113079   0.826   0.412  14.309 -0.2231 -0.3515 -0.3717
  888MPD2    H713080   0.867   0.448  14.394 -1.4039 -1.8986  0.8493
  889MPD2     C13081   0.048   0.299  12.055  0.1270 -0.4261  0.0608
  889MPD2    C113082   0.051   0.272  12.189 -0.0508  0.3185  0.3912
  889MPD2    C213083   4.666   0.301  12.262 -0.1245 -0.9510  0.0406
  889MPD2    C313084   4.570   0.364  12.196 -0.4498 -0.0066  0.2754
  889MPD2    C413085   4.574   0.407  12.066  0.2398  0.3115  0.2108
  889MPD2    C513086   4.689   0.378  11.997  0.5659 -0.0648  0.5285
  889MPD2     H13087   4.649   0.256  12.359  1.5087  2.1198  1.7623
  889MPD2    H113088   4.495   0.460  12.015 -0.7011  0.7665  2.1179
  889MPD2    H213089   0.135   0.277  11.993 -0.6899  0.4887 -1.4150
  889MPD2    H313090   4.703   0.414  11.896 -0.0192 -0.0827  0.4419
  889MPD2     N13091   4.452   0.394  12.270 -0.1876  0.5599 -0.5707
  889MPD2    H513092   4.466   0.381  12.369 -0.5108  0.2142 -0.5682
  889MPD2    N113093   0.130   0.174  12.249 -0.7319 -0.3430 -0.3051
  889MPD2    H713094   0.110   0.131  12.338  1.6751  2.0732  1.4206
  890MPD2     C13095   0.015   1.477  13.873 -0.4956  0.3725 -0.4156
  890MPD2    C113096   0.077   1.576  13.936 -0.1339 -0.4437 -0.1145
  890MPD2    C213097   0.079   1.585  14.073 -0.0950  0.1355  0.4748
  890MPD2    C313098   0.020   1.492  14.149 -0.1038 -0.0456  0.5363
  890MPD2    C413099   4.684   1.394  14.089  0.2257  0.2496 -0.3482
  890MPD2    C513100   4.686   1.387  13.956  0.5382  0.2203  0.3210
  890MPD2     H13101   0.125   1.662  14.134  0.1697  1.3988 -1.3323
  890MPD2    H113102   4.619   1.323  14.139  1.0705  0.6931  1.4109
  890MPD2    H213103   4.732   1.478  13.766  0.5442 -0.0170 -0.5814
  890MPD2    H313104   4.633   1.304  13.910  1.8254 -2.1278  3.1214
  890MPD2     N13105   0.023   1.513  14.289  0.7170  0.4733 -0.2939
  890MPD2    H513106   0.072   1.595  14.324 -0.2125  1.1978 -0.6853
  890MPD2    N113107   0.163   1.658  13.864 -0.9241 -0.5631 -0.0157
  890MPD2    H713108   0.166   1.655  13.763 -0.2430  0.5380 -0.0347
  891MPD2     C13109   2.462   0.821  16.243  0.3819 -0.0228 -0.2215
  891MPD2    C113110   2.446   0.686  16.265  0.6518 -0.2264 -0.2423
  891MPD2    C213111   2.531   0.629  16.352 -0.0892  0.0203 -0.2940
  891MPD2    C313112   2.615   0.702  16.429 -0.0274 -0.5123  0.2181
  891MPD2    C413113   2.614   0.843  16.413  0.2272  0.5508 -0.3793
  891MPD2    C513114   2.542   0.898  16.324  0.2505  0.2204  0.6613
  891MPD2     H13115   2.545   0.522  16.365 -1.7328  0.1241  2.4756
  891MPD2    H113116   2.682   0.904  16.472 -0.7989  1.4349 -0.1145
  891MPD2    H213117   2.418   0.872  16.157 -2.0358  2.7005  2.6088
  891MPD2    H313118   2.547   1.006  16.312 -0.3487 -0.0819 -2.2871
  891MPD2     N13119   2.708   0.628  16.516 -0.5957 -0.0543  0.0447
  891MPD2    H513120   2.693   0.528  16.519 -0.0813 -0.1732 -1.6337
  891MPD2    N113121   2.365   0.613  16.173 -0.5123 -0.8006 -0.7755
  891MPD2    H713122   2.297   0.667  16.119 -0.6590 -0.2624 -0.0574
  892MPD2     C13123   3.730   1.370  14.254  0.3397 -0.5796  0.6873
  892MPD2    C113124   3.653   1.292  14.341  0.0875 -0.4346  0.1321
  892MPD2    C213125   3.681   1.156  14.356 -0.1903  0.3464  0.5505
  892MPD2    C313126   3.785   1.095  14.287 -0.5274  0.2318 -0.3461
  892MPD2    C413127   3.870   1.172  14.217 -0.0935  0.3237  0.7016
  892MPD2    C513128   3.840   1.306  14.194  0.1362 -0.7634  0.1643
  892MPD2     H13129   3.616   1.097  14.420  0.0124  0.5081  0.9076
  892MPD2    H113130   3.964   1.135  14.180  0.0851  0.3670  1.1119
  892MPD2    H213131   3.719   1.475  14.231  1.4579 -0.0876  2.3895
  892MPD2    H313132   3.907   1.366  14.135  0.8523 -3.0672 -1.3629
  892MPD2     N13133   3.801   0.956  14.279  0.6569 -0.2467  0.4082
  892MPD2    H513134   3.868   0.918  14.213  1.1008  1.6962 -0.2761
  892MPD2    N113135   3.545   1.353  14.402 -0.4374 -0.4460  0.5931
  892MPD2    H713136   3.523   1.438  14.352  0.3116 -0.1906  0.6868
  893MPD2     C13137   0.078   3.804   1.161  0.5441 -0.0143 -0.6087
  893MPD2    C113138   0.041   3.885   1.050 -0.4368 -0.0112  0.2441
  893MPD2    C213139   4.655   3.866   0.989  0.4135 -0.5602 -0.5649
  893MPD2    C313140   4.563   3.774   1.052  0.1030 -0.3425  0.6418
  893MPD2    C413141   4.601   3.698   1.161 -0.2003  0.7181  0.3500
  893MPD2    C513142   4.732   3.704   1.200  0.0968 -0.5058 -0.2189
  893MPD2     H13143   4.631   3.914   0.895  1.2482 -1.6260 -1.3278
  893MPD2    H113144   4.529   3.636   1.214 -0.9684  0.8228 -0.5671
  893MPD2    H213145   0.180   3.814   1.197 -0.1694 -1.3593  1.7732
  893MPD2    H313146   0.034   3.645   1.284  0.8223  0.2312 -0.0097
  893MPD2     N13147   4.430   3.764   1.008 -0.2977  0.4670 -0.2865
  893MPD2    H513148   4.368   3.694   1.047 -0.0112  1.2416  1.5558
  893MPD2    N113149   0.139   3.965   0.999  0.3085  0.4636 -0.6660
  893MPD2    H713150   0.225   3.956   1.053 -2.1003  0.3327  3.1821
  894MPD2     C13151   3.407   1.408   1.164 -0.3815  0.8723 -0.2383
  894MPD2    C113152   3.322   1.475   1.084 -0.5638 -0.2036  0.1519
  894MPD2    C213153   3.367   1.575   1.007 -0.0043  0.1929 -0.2145
  894MPD2    C313154   3.509   1.599   1.009  0.4262  0.2590  0.0214
  894MPD2    C413155   3.593   1.517   1.083  0.1842 -0.1864  0.7879
  894MPD2    C513156   3.539   1.426   1.163 -0.9539  0.8854 -0.5567
  894MPD2     H13157   3.301   1.635   0.945  1.5763  1.0109 -1.0837
  894MPD2    H113158   3.701   1.529   1.093  0.4799 -4.4974  2.8143
  894MPD2    H213159   3.364   1.319   1.209 -2.2763  2.0308  0.2175
  894MPD2    H313160   3.604   1.359   1.219  1.8613  0.0672 -4.7913
  894MPD2     N13161   3.562   1.705   0.931  0.3316 -0.1543  0.0142
  894MPD2    H513162   3.498   1.754   0.869  0.0385 -1.1741 -0.4863
  894MPD2    N113163   3.185   1.450   1.073  0.1842 -0.0662  0.2414
  894MPD2    H713164   3.141   1.519   1.012 -1.8440 -1.8434 -0.2831
  895MPD2     C13165   2.204   0.805  13.550 -0.0046  0.2814 -0.6350
  895MPD2    C113166   2.179   0.693  13.471  0.1272 -0.2880 -0.6923
  895MPD2    C213167   2.266   0.584  13.481  0.7957 -0.2833  0.1279
  895MPD2    C313168   2.369   0.592  13.575 -0.5975  0.0448 -0.6724
  895MPD2    C413169   2.392   0.702  13.660 -0.9735 -0.0852  0.5053
  895MPD2    C513170   2.304   0.810  13.645 -0.4877  0.0925  0.0832
  895MPD2     H13171   2.237   0.489  13.437 -2.2136  0.8487 -0.3275
  895MPD2    H113172   2.471   0.706  13.733  2.5692 -1.0887 -3.2626
  895MPD2    H213173   2.148   0.894  13.523 -1.4538  0.2234  2.1777
  895MPD2    H313174   2.321   0.898  13.706  1.6689 -1.2570  1.4207
  895MPD2     N13175   2.450   0.480  13.577 -0.0582  0.4918  0.1856
  895MPD2    H513176   2.425   0.411  13.506 -0.5851  0.6942  0.1767
  895MPD2    N113177   2.076   0.681  13.376  0.5796  0.3686 -0.1744
  895MPD2    H713178   2.060   0.587  13.343  1.3134 -0.5009  1.9665
  896MPD2     C13179   0.646   2.434   1.270 -0.1670 -0.6972  0.0233
  896MPD2    C113180   0.597   2.482   1.148 -0.5257 -0.4720 -0.4012
  896MPD2    C213181   0.470   2.432   1.109 -0.0956 -0.5527 -0.2515
  896MPD2    C313182   0.407   2.332   1.178 -0.7253  1.0064  0.1814
  896MPD2    C413183   0.457   2.285   1.289  0.5481  0.2996 -0.5685
  896MPD2    C513184   0.577   2.337   1.337  0.1628 -0.2315  0.4530
  896MPD2     H13185   0.431   2.474   1.017 -0.7590  1.2245  0.8450
  896MPD2    H113186   0.393   2.220   1.348 -3.0254  3.6735 -0.6945
  896MPD2    H213187   0.736   2.472   1.316  0.7042  0.9062 -3.0318
  896MPD2    H313188   0.626   2.288   1.420 -0.5819 -2.9963 -0.7436
  896MPD2     N13189   0.275   2.307   1.142  0.7634  0.0883  0.2011
  896MPD2    H513190   0.221   2.368   1.082 -0.6899 -1.2567  0.1408
  896MPD2    N113191   0.675   2.575   1.074 -0.4290  1.0549  0.3441
  896MPD2    H713192   0.761   2.604   1.119  0.2481  0.9391 -0.8759
  897MPD2     C13193   0.952   4.358  10.649  0.7678  0.2868 -0.1254
  897MPD2    C113194   1.048   4.450  10.670 -0.3583 -0.4714  0.0004
  897MPD2    C213195   1.004   4.582  10.668  0.3995  0.0583 -0.2739
  897MPD2    C313196   0.869   4.615  10.652 -0.1649 -0.3008  0.7201
  897MPD2    C413197   0.778   4.509  10.654  0.1923  0.0044  0.4434
  897MPD2    C513198   0.819   4.380  10.646  0.5907  0.0545 -0.0510
  897MPD2     H13199   1.076   4.662  10.679  0.5941 -0.1244 -0.2069
  897MPD2    H113200   0.671   4.524  10.654  0.3828  1.3302 -0.3374
  897MPD2    H213201   0.984   4.255  10.644  2.5328  0.9069 -1.2140
  897MPD2    H313202   0.759   4.290  10.644  0.4421  0.1587 -0.2314
  897MPD2     N13203   0.837   0.019  10.652 -0.3467 -0.5439  0.5079
  897MPD2    H513204   0.914   0.083  10.668 -0.7887 -0.2717  1.5696
  897MPD2    N113205   1.178   4.412  10.682  0.7600  0.2199  0.3397
  897MPD2    H713206   1.195   4.314  10.664 -0.6500  0.7123 -3.7002
  898MPD2     C13207   3.751   0.573  16.931 -0.1823 -0.3546 -0.2151
  898MPD2    C113208   3.723   0.539  17.057  0.1674 -0.4302  0.7050
  898MPD2    C213209   3.657   0.630  17.138 -0.7940  0.1312  0.1018
  898MPD2    C313210   3.630   0.759  17.098 -0.4044  0.0107  0.1257
  898MPD2    C413211   3.665   0.792  16.970 -0.1186  0.6312 -0.4119
  898MPD2    C513212   3.725   0.698  16.894  0.0234  0.1770 -0.0853
  898MPD2     H13213   3.640   0.596  17.239 -0.8787  0.5576  0.2288
  898MPD2    H113214   3.637   0.886  16.924  0.1670  0.3121 -1.2289
  898MPD2    H213215   3.799   0.505  16.862 -1.0331 -0.6020 -0.5635
  898MPD2    H313216   3.765   0.743  16.804 -0.3039  0.1014 -0.2704
  898MPD2     N13217   3.563   0.842  17.190 -0.0161 -0.0915 -0.3544
  898MPD2    H513218   3.544   0.798  17.280  0.7974 -1.5428 -0.9005
  898MPD2    N113219   3.756   0.410  17.109  0.3918 -0.0032  0.7896
  898MPD2    H713220   3.708   0.387  17.195 -1.8546  0.6864 -0.2908
  899MPD2     C13221   3.875   1.354  17.073  0.2370 -0.1446 -0.3344
  899MPD2    C113222   3.974   1.397  17.156  0.4311  0.5740  0.1245
  899MPD2    C213223   3.952   1.407  17.296 -0.3046 -0.2502  0.2761
  899MPD2    C313224   3.838   1.372  17.347  0.0040  0.4572 -0.4555
  899MPD2    C413225   3.737   1.331  17.263 -0.8986 -0.8429 -0.2421
  899MPD2    C513226   3.752   1.318  17.126  0.8669 -0.1834  0.1848
  899MPD2     H13227   4.022   1.458  17.361 -1.0416  0.5435  0.4431
  899MPD2    H113228   3.636   1.324  17.302  0.7874 -0.6708  4.2299
  899MPD2    H213229   3.883   1.337  16.966  0.1193 -3.3472  0.1543
  899MPD2    H313230   3.674   1.264  17.073  0.3972 -0.3426  1.0356
  899MPD2     N13231   3.800   1.389  17.483 -0.0000 -0.7403 -0.1857
  899MPD2    H513232   3.704   1.401  17.514 -0.0237  0.7111 -0.8399
  899MPD2    N113233   4.082   1.456  17.083 -0.3261 -0.7313  0.7698
  899MPD2    H713234   4.074   1.458  16.982  0.8935  0.2432  0.6975
  900MPD2     C13235   4.112   2.708  12.503 -1.1152 -0.4751 -0.6875
  900MPD2    C113236   4.032   2.595  12.470 -0.1496 -0.1599  0.1126
  900MPD2    C213237   3.922   2.617  12.393  0.4339  0.1082  0.4774
  900MPD2    C313238   3.887   2.744  12.347 -0.1228  0.3596 -0.5210
  900MPD2    C413239   3.974   2.853  12.374  0.5036 -0.1908  0.1491
  900MPD2    C513240   4.079   2.831  12.463 -0.0074  0.9394 -0.1369
  900MPD2     H13241   3.870   2.534  12.347 -0.5761  1.1841 -0.3023
  900MPD2    H113242   3.944   2.945  12.326  1.2931  1.2456  2.4310
  900MPD2    H213243   4.204   2.680  12.555 -0.6385  1.4503 -0.5023
  900MPD2    H313244   4.143   2.918  12.477 -1.1582  1.7675  0.0323
  900MPD2     N13245   3.771   2.758  12.264  0.0305  0.1401  0.5378
  900MPD2    H513246   3.726   2.670  12.241 -0.3724  0.9672 -1.8563
  900MPD2    N113247   4.083   2.465  12.500 -0.3922  0.0534 -0.0099
  900MPD2    H713248   4.173   2.460  12.547 -1.1813 -0.0350  1.4888
  901MPD2     C13249   3.837   1.398  12.626 -0.4357 -0.3416  0.7750
  901MPD2    C113250   3.971   1.414  12.638  0.0214  0.6759  0.5338
  901MPD2    C213251   4.031   1.534  12.605 -0.3328 -0.3209  0.6101
  901MPD2    C313252   3.954   1.638  12.556  0.7674  0.2667 -0.4767
  901MPD2    C413253   3.817   1.615  12.532 -0.0937  0.4121  0.1478
  901MPD2    C513254   3.766   1.493  12.566 -0.3767  0.0075 -0.4372
  901MPD2     H13255   4.138   1.550  12.601 -0.0673 -2.0192  0.9359
  901MPD2    H113256   3.747   1.690  12.496 -0.4026 -0.0026 -0.1043
  901MPD2    H213257   3.794   1.300  12.644 -1.6219  0.0178 -0.0693
  901MPD2    H313258   3.659   1.475  12.574 -0.1377 -0.6785  1.0494
  901MPD2     N13259   4.019   1.760  12.535  0.3790  0.5864  0.1092
  901MPD2    H513260   4.119   1.763  12.553  0.3494  0.6963  0.2565
  901MPD2    N113261   4.048   1.301  12.663  0.2900  0.6394 -0.4566
  901MPD2    H713262   3.999   1.214  12.681 -1.1505  1.4193 -0.5711
  902MPD2     C13263   2.615   0.684  12.498 -0.4792 -0.3698 -0.0937
  902MPD2    C113264   2.706   0.781  12.453  0.1096  0.4299  0.7677
  902MPD2    C213265   2.826   0.738  12.393 -0.3713 -0.4972 -0.0680
  902MPD2    C313266   2.843   0.599  12.370 -0.6756  0.0636  0.1259
  902MPD2    C413267   2.749   0.508  12.422  0.2405  0.3454  0.3433
  902MPD2    C513268   2.631   0.550  12.476 -0.1273 -0.3898  0.3135
  902MPD2     H13269   2.905   0.805  12.361 -1.7512  0.3651 -1.5858
  902MPD2    H113270   2.764   0.402  12.408 -0.3620  0.2365  0.5429
  902MPD2    H213271   2.518   0.705  12.542  0.9620  0.8165  2.4956
  902MPD2    H313272   2.559   0.478  12.514 -1.4973 -0.0055 -1.5796
  902MPD2     N13273   2.970   0.549  12.321  0.8876  0.3268 -0.4227
  902MPD2    H513274   2.976   0.449  12.332  0.8042  0.4286  0.5517
  902MPD2    N113275   2.692   0.926  12.484  0.0343 -0.0710 -0.7699
  902MPD2    H713276   2.757   0.996  12.449  0.1355 -0.9347 -2.2875
  903MPD2     C13277   3.206   0.816  11.743  0.0669  0.8366  0.1135
  903MPD2    C113278   3.190   0.695  11.806 -0.1901  0.1361 -0.7582
  903MPD2    C213279   3.069   0.632  11.793  0.0381  0.3748  0.2774
  903MPD2    C313280   2.968   0.673  11.712  0.8377  0.1410 -0.1505
  903MPD2    C413281   2.992   0.788  11.642 -0.3335 -0.3761 -0.3730
  903MPD2    C513282   3.106   0.858  11.659  0.2115 -0.6885 -0.5771
  903MPD2     H13283   3.043   0.553  11.862 -2.0403  1.0875  0.2957
  903MPD2    H113284   2.925   0.831  11.568  0.7086  1.0400 -0.4867
  903MPD2    H213285   3.295   0.879  11.751 -0.5072  1.5955  0.5565
  903MPD2    H313286   3.105   0.953  11.607 -0.7722 -0.0844  0.5255
  903MPD2     N13287   2.851   0.601  11.707  0.2292 -0.3621  0.1660
  903MPD2    H513288   2.833   0.530  11.778 -1.7560 -1.1154 -1.0827
  903MPD2    N113289   3.286   0.647  11.894 -0.2029  0.4813 -0.4650
  903MPD2    H713290   3.359   0.709  11.926 -0.1438 -0.6922  1.7057
  904MPD2     C13291   1.992   4.602  14.022 -0.4413  0.0510 -0.0850
  904MPD2    C113292   2.072   4.710  13.985 -0.7540  0.1430  0.3162
  904MPD2    C213293   2.201   4.723  14.031  0.1064 -0.0427 -0.3680
  904MPD2    C313294   2.258   4.626  14.113  0.0988  0.0764 -0.5349
  904MPD2    C413295   2.172   4.522  14.144 -0.1829 -0.3118  0.3475
  904MPD2    C513296   2.051   4.510  14.094 -0.3389 -0.4422  0.5799
  904MPD2     H13297   2.256   0.077  14.001  0.6919 -0.3224 -0.1128
  904MPD2    H113298   2.202   4.439  14.206 -1.9723 -0.3370  1.1807
  904MPD2    H213299   1.889   4.594  13.987 -0.1422 -0.7196 -0.7912
  904MPD2    H313300   2.000   4.423  14.132 -0.8513 -0.2337  0.3720
  904MPD2     N13301   2.396   4.623  14.146 -0.2741 -0.0620 -0.1020
  904MPD2    H513302   2.453   4.703  14.119  0.4069 -0.2446  0.7854
  904MPD2    N113303   2.010   0.076  13.908  0.4150 -0.3703  0.1311
  904MPD2    H713304   2.068   0.159  13.907 -1.3415  0.8593 -0.6389
  905MPD2     C13305   1.991   4.709  13.297  0.0435 -0.3405 -0.8315
  905MPD2    C113306   2.015   0.102  13.325 -0.2538 -0.0590  0.7316
  905MPD2    C213307   2.143   0.149  13.314 -0.8311  0.4238  0.9661
  905MPD2    C313308   2.249   0.065  13.271 -0.1916 -0.6522 -0.2664
  905MPD2    C413309   2.217   4.678  13.224 -0.7471 -0.9317  1.5078
  905MPD2    C513310   2.088   4.630  13.239  0.6281  0.6474 -0.2871
  905MPD2     H13311   2.166   0.252  13.337  0.7367  0.1804  0.4793
  905MPD2    H113312   2.299   4.608  13.207  0.8648  1.2762  0.1367
  905MPD2    H213313   1.894   4.662  13.315 -0.6678  1.0597 -0.9911
  905MPD2    H313314   2.079   4.527  13.205 -1.0776  0.9843 -0.8419
  905MPD2     N13315   2.385   0.103  13.295 -0.1583  0.0601 -0.3001
  905MPD2    H513316   2.458   0.036  13.273  0.1688  0.5023 -0.5672
  905MPD2    N113317   1.908   0.169  13.394 -0.7631  0.2479  0.2776
  905MPD2    H713318   1.833   0.107  13.424 -2.0489  2.0196  0.6969
  906MPD2     C13319   4.424   4.623  10.995  0.2856  0.4274  0.6094
  906MPD2    C113320   4.331   4.577  10.908  0.2037  0.1338 -0.5179
  906MPD2    C213321   4.246   4.478  10.951 -0.8964 -0.3987  0.6613
  906MPD2    C313322   4.261   4.414  11.080 -0.7466 -0.2403  0.8063
  906MPD2    C413323   4.359   4.463  11.166  0.5167 -0.4168 -0.1068
  906MPD2    C513324   4.431   4.577  11.123  0.1636 -0.1950 -0.3399
  906MPD2     H13325   4.163   4.452  10.887  1.3372 -2.4251 -1.3832
  906MPD2    H113326   4.371   4.423  11.265 -2.0905 -2.2550 -0.5229
  906MPD2    H213327   4.493   4.705  10.976 -0.6875  0.3399 -3.3761
  906MPD2    H313328   4.506   4.619  11.188 -0.7568 -2.3130  2.0967
  906MPD2     N13329   4.187   4.302  11.119  0.1122  0.4584 -0.0490
  906MPD2    H513330   4.220   4.260  11.205  2.2989 -0.0691 -1.1276
  906MPD2    N113331   4.314   4.628  10.776  0.0750  0.4398  0.2164
  906MPD2    H713332   4.234   4.586  10.730  1.2938 -2.1622  0.4862
  907MPD2     C13333   3.723   4.094  15.553 -0.2719  0.7238 -0.5020
  907MPD2    C113334   3.770   3.975  15.504  0.2635  0.5122  0.3239
  907MPD2    C213335   3.831   3.893  15.597 -0.4911  0.3475  0.0985
  907MPD2    C313336   3.849   3.938  15.726  0.5953  0.0998  0.0152
  907MPD2    C413337   3.801   4.055  15.768 -0.9187  0.4639  0.0263
  907MPD2    C513338   3.738   4.134  15.682  0.5657  0.2743 -0.3403
  907MPD2     H13339   3.856   3.793  15.562 -0.7485  0.4020 -0.2334
  907MPD2    H113340   3.819   4.087  15.870 -1.9284  0.6146  0.1519
  907MPD2    H213341   3.672   4.165  15.488 -0.4430  1.0083 -0.0578
  907MPD2    H313342   3.714   4.237  15.705 -1.2053 -0.1112 -0.4356
  907MPD2     N13343   3.911   3.852  15.813 -0.4457  0.0907  0.4509
  907MPD2    H513344   3.934   3.761  15.775 -3.3035  0.0886 -1.3043
  907MPD2    N113345   3.764   3.939  15.360 -0.8449 -0.5614  0.1561
  907MPD2    H713346   3.805   3.847  15.346  1.3917  0.4887 -0.1795
  908MPD2     C13347   1.374   3.936   9.995  0.2843  0.9904  0.2801
  908MPD2    C113348   1.380   3.885  10.123 -0.5151 -0.1003 -0.1579
  908MPD2    C213349   1.428   3.971  10.223  0.3511 -0.4303  0.1100
  908MPD2    C313350   1.464   4.101  10.195 -0.1540 -0.5968  0.2756
  908MPD2    C413351   1.463   4.153  10.065  0.4344  0.5094  0.2743
  908MPD2    C513352   1.431   4.066   9.960 -0.2530  1.0661 -0.2157
  908MPD2     H13353   1.443   3.934  10.324  0.9651  1.6469  0.7910
  908MPD2    H113354   1.491   4.254  10.036  0.9173  0.4320  0.4760
  908MPD2    H213355   1.336   3.864   9.924 -1.3701  1.2774  0.8807
  908MPD2    H313356   1.436   4.103   9.859 -0.9623  1.5634 -0.0660
  908MPD2     N13357   1.505   4.197  10.294 -0.2498 -0.2492 -0.1182
  908MPD2    H513358   1.547   4.282  10.257 -0.8487 -0.1475 -0.5759
  908MPD2    N113359   1.347   3.751  10.141 -0.1630  0.2728 -0.6353
  908MPD2    H713360   1.315   3.696  10.062  2.8109  1.2189 -2.4714
  909MPD2     C13361   1.478   2.543  11.844  0.2449 -0.3342 -0.5856
  909MPD2    C113362   1.529   2.661  11.798  0.2627  0.3252  0.5654
  909MPD2    C213363   1.464   2.777  11.841 -0.3394  0.8688  0.0411
  909MPD2    C313364   1.348   2.774  11.920  0.1125 -0.1483 -0.7139
  909MPD2    C413365   1.306   2.656  11.967  0.1603 -0.0532  0.6089
  909MPD2    C513366   1.366   2.541  11.923  0.4629  0.0782  0.8210
  909MPD2     H13367   1.503   2.876  11.824  0.8648  0.3936  0.0636
  909MPD2    H113368   1.223   2.637  12.034  1.2618 -0.2239  1.9188
  909MPD2    H213369   1.536   2.453  11.830 -0.3500 -1.1152  1.8977
  909MPD2    H313370   1.325   2.447  11.959  2.0263 -0.5713  0.8929
  909MPD2     N13371   1.293   2.889  11.966 -0.5500 -0.3187  0.5814
  909MPD2    H513372   1.326   2.971  11.916 -1.8179  0.0980  0.4274
  909MPD2    N113373   1.649   2.680  11.720 -0.0568  0.4342 -0.6973
  909MPD2    H713374   1.679   2.774  11.698 -0.6826  0.0208 -3.3880
  910MPD2     C13375   3.113   4.577  15.842 -0.4931  0.1082 -1.0541
  910MPD2    C113376   3.048   4.456  15.810 -0.2345  0.3279 -0.6358
  910MPD2    C213377   2.954   4.470  15.713  0.1315  0.5640 -0.2629
  910MPD2    C313378   2.904   4.589  15.668  0.3607  0.2507 -0.6263
  910MPD2    C413379   2.974   4.706  15.710  0.0138  0.0993 -0.2432
  910MPD2    C513380   3.083   4.693  15.789  0.2359  0.6720  0.4572
  910MPD2     H13381   2.914   4.373  15.684  0.1099  0.2979  0.6530
  910MPD2    H113382   2.953   0.073  15.677 -2.1654 -0.5497 -0.8263
  910MPD2    H213383   3.197   4.593  15.907  0.6605 -4.7118 -1.3235
  910MPD2    H313384   3.127   0.045  15.837  0.3192  1.2236 -0.5935
  910MPD2     N13385   2.799   4.601  15.564  0.0059 -0.1386 -0.5518
  910MPD2    H513386   2.776   4.695  15.535  2.3296 -0.2422 -2.7288
  910MPD2    N113387   3.076   4.336  15.873  0.9366  0.0572  0.1386
  910MPD2    H713388   3.052   4.252  15.821 -1.4898 -0.8297  2.7144
  911MPD2     C13389   0.979   4.710  15.597 -0.0006  0.7228 -0.5480
  911MPD2    C113390   0.993   0.040  15.717 -0.3673  0.3683 -0.2026
  911MPD2    C213391   0.928   0.157  15.752 -0.4100 -0.2903 -0.2955
  911MPD2    C313392   0.835   0.204  15.654 -0.5494  0.6746  0.7649
  911MPD2    C413393   0.819   0.138  15.530 -0.1596  0.0400 -0.2248
  911MPD2    C513394   0.899   0.028  15.502  0.1236 -0.3869 -0.5125
  911MPD2     H13395   0.946   0.204  15.848  2.0674 -1.8398 -0.0144
  911MPD2    H113396   0.759   0.174  15.448  0.0575 -0.6594 -0.6956
  911MPD2    H213397   1.026   4.616  15.571  0.9365  0.8241  0.8024
  911MPD2    H313398   0.874   4.700  15.417  3.3116 -1.3156 -0.7676
  911MPD2     N13399   0.745   0.309  15.678 -0.4386  0.5169  0.9065
  911MPD2    H513400   0.660   0.308  15.622  0.6705  0.3512 -0.7672
  911MPD2    N113401   1.086   4.707  15.802  0.1719 -0.2925 -0.3639
  911MPD2    H713402   1.138   4.630  15.762 -3.3601 -1.6339 -2.4357
  912MPD2     C13403   0.513   0.215  15.249 -0.1281  0.0994 -0.1405
  912MPD2    C113404   0.471   0.202  15.384 -0.8547 -0.1929  0.0858
  912MPD2    C213405   0.501   0.087  15.447 -0.0602 -0.3426 -0.6123
  912MPD2    C313406   0.572   4.721  15.380 -0.0092 -0.1918  0.4513
  912MPD2    C413407   0.595   4.724  15.242  0.3474 -0.3267 -0.0165
  912MPD2    C513408   0.576   0.110  15.179 -0.5102  0.1186  0.3390
  912MPD2     H13409   0.492   0.064  15.552  2.4595 -0.5120 -0.4298
  912MPD2    H113410   0.636   4.640  15.187  0.6688 -0.8834  1.0657
  912MPD2    H213411   0.478   0.298  15.188 -2.8374 -1.5656 -0.8273
  912MPD2    H313412   0.598   0.126  15.074  2.0511  0.7128  0.9732
  912MPD2     N13413   0.604   4.602  15.456  0.2373  0.3540 -0.1630
  912MPD2    H513414   0.592   4.597  15.557 -2.0432 -1.6013 -0.5405
  912MPD2    N113415   0.418   0.311  15.451 -0.2853  0.6964  0.1577
  912MPD2    H713416   0.404   0.391  15.389 -1.4024  0.1124 -0.3268
  913MPD2     C13417   1.503   0.675   9.809 -0.3635 -0.1393 -0.7054
  913MPD2    C113418   1.505   0.760   9.913  0.0066 -0.4069  0.3761
  913MPD2    C213419   1.539   0.897   9.890 -0.6260 -0.4046 -0.4523
  913MPD2    C313420   1.558   0.942   9.766  0.4379  0.5069 -0.4611
  913MPD2    C413421   1.548   0.856   9.657 -0.0669  0.0421  0.1447
  913MPD2    C513422   1.522   0.725   9.687  0.9216 -0.7981 -0.3824
  913MPD2     H13423   1.536   0.968   9.972 -1.0911  0.3765 -1.1496
  913MPD2    H113424   1.546   0.889   9.554  0.6004 -0.2439  0.0408
  913MPD2    H213425   1.492   0.568   9.817 -1.4555 -0.0387 -0.9065
  913MPD2    H313426   1.528   0.649   9.611 -0.5501 -0.7100 -0.5798
  913MPD2     N13427   1.604   1.072   9.734  0.1795  0.0260  0.3757
  913MPD2    H513428   1.639   1.082   9.639 -2.2524  1.2953 -0.3789
  913MPD2    N113429   1.467   0.705  10.038 -0.0032 -0.1484  0.4948
  913MPD2    H713430   1.437   0.608  10.038  0.4686 -0.2946 -1.7027
  914MPD2     C13431   3.692   1.316  12.144  0.2705  0.0921  0.3470
  914MPD2    C113432   3.794   1.397  12.193 -0.0734  0.4463 -0.6061
  914MPD2    C213433   3.883   1.338  12.285 -0.0482 -0.0201 -0.5628
  914MPD2    C313434   3.880   1.197  12.308  0.0503  0.7733  0.6796
  914MPD2    C413435   3.777   1.120  12.251 -0.0292 -0.0030  0.2027
  914MPD2    C513436   3.688   1.184  12.166  1.0403 -0.9163  0.7832
  914MPD2     H13437   3.958   1.400  12.332  1.1451 -2.8968  1.2894
  914MPD2    H113438   3.765   1.013  12.266 -0.1783 -0.2872 -1.9307
  914MPD2    H213439   3.622   1.355  12.071  1.5595  1.2767 -0.2632
  914MPD2    H313440   3.608   1.134  12.111  2.3793 -3.3060  1.0080
  914MPD2     N13441   3.987   1.140  12.376 -0.2533  0.6002 -0.3473
  914MPD2    H513442   4.063   1.206  12.391  0.4834 -0.5975  1.1715
  914MPD2    N113443   3.805   1.536  12.159 -0.1575 -0.5254  0.3690
  914MPD2    H713444   3.729   1.576  12.105 -0.8509 -0.5887  1.2998
  915MPD2     C13445   1.958   1.694  14.993  0.8212 -0.2181 -0.4775
  915MPD2    C113446   1.831   1.713  15.032  0.2367 -0.1769  0.0494
  915MPD2    C213447   1.801   1.746  15.166 -0.1109 -0.2951 -0.7010
  915MPD2    C313448   1.898   1.785  15.256 -0.4133 -0.2199 -0.3516
  915MPD2    C413449   2.030   1.771  15.209 -0.2188 -0.1975 -1.0233
  915MPD2    C513450   2.061   1.725  15.082 -0.5032 -0.1231 -0.0536
  915MPD2     H13451   1.699   1.736  15.202  1.5020 -0.8870  3.6648
  915MPD2    H113452   2.113   1.785  15.277 -0.4445 -1.7608 -0.4228
  915MPD2    H213453   1.981   1.658  14.894 -2.8892  0.2713 -1.5364
  915MPD2    H313454   2.166   1.726  15.052 -0.6815 -0.1362 -0.6748
  915MPD2     N13455   1.861   1.815  15.392 -0.7722  0.4581 -0.5914
  915MPD2    H513456   1.761   1.824  15.410 -0.4882 -1.1108  1.7655
  915MPD2    N113457   1.730   1.663  14.944  0.1569  0.2221 -1.0116
  915MPD2    H713458   1.754   1.614  14.858  2.5174 -1.7308  0.7302
  916MPD2     C13459   0.254   4.622  15.438 -0.2829 -0.3580 -1.4033
  916MPD2    C113460   0.243   4.511  15.515  0.4669 -0.5592 -0.1229
  916MPD2    C213461   0.282   4.392  15.465  0.0498  0.2473  1.4027
  916MPD2    C313462   0.300   4.373  15.331 -0.1960  1.3642 -0.4344
  916MPD2    C413463   0.294   4.487  15.251  0.5292 -0.4505  0.1454
  916MPD2    C513464   0.267   4.607  15.303  0.4573 -0.3798 -0.0576
  916MPD2     H13465   0.287   4.306  15.530  2.0004  0.7193  1.8631
  916MPD2    H113466   0.314   4.492  15.144  0.0611  0.1903  0.0832
  916MPD2    H213467   0.245   4.723  15.476  1.3350 -0.0258 -1.8870
  916MPD2    H313468   0.266   4.695  15.240  1.2016 -0.6844 -0.4897
  916MPD2     N13469   0.344   4.241  15.286 -0.3507  0.1789  0.5071
  916MPD2    H513470   0.361   4.170  15.357  1.0055  0.0097  0.0020
  916MPD2    N113471   0.194   4.532  15.649  0.6375  0.2188 -0.2488
  916MPD2    H713472   0.166   4.624  15.680 -0.8055  0.3169 -1.8903
  917MPD2     C13473   0.881   1.840  11.012 -0.2369 -0.3682  0.3053
  917MPD2    C113474   0.756   1.855  10.948 -0.3132  0.0882  0.2372
  917MPD2    C213475   0.765   1.897  10.814 -0.3432  0.1914  0.1485
  917MPD2    C313476   0.885   1.922  10.741 -0.4452 -0.4036 -0.0065
  917MPD2    C413477   1.001   1.892  10.812  0.5151  0.7086 -0.0174
  917MPD2    C513478   1.002   1.861  10.941  0.4822  0.2823 -0.9748
  917MPD2     H13479   0.673   1.920  10.762  0.9803  1.7569 -1.5274
  917MPD2    H113480   1.105   1.910  10.784  0.5515 -0.2790 -0.5014
  917MPD2    H213481   0.886   1.816  11.118  0.4171  2.3857  0.9149
  917MPD2    H313482   1.096   1.864  10.995  0.3545 -1.0404 -0.6842
  917MPD2     N13483   0.893   1.985  10.614  0.9670 -0.6662 -0.3021
  917MPD2    H513484   0.988   1.993  10.578  0.8027  0.9201 -0.3792
  917MPD2    N113485   0.637   1.849  11.025 -0.2541 -0.2597 -0.0685
  917MPD2    H713486   0.648   1.835  11.125 -1.8281 -1.1717 -0.0276
  918MPD2     C13487   0.383   2.366  11.698  0.0532  0.1249 -0.0270
  918MPD2    C113488   0.502   2.303  11.682 -0.1361 -0.6501  0.0786
  918MPD2    C213489   0.500   2.204  11.584 -0.6660 -0.3821 -0.4040
  918MPD2    C313490   0.384   2.175  11.507  0.8347 -0.7951 -0.0275
  918MPD2    C413491   0.267   2.240  11.535  0.0337  1.1282  0.2636
  918MPD2    C513492   0.273   2.341  11.619  0.1532  0.0274  0.2580
  918MPD2     H13493   0.595   2.160  11.554  0.5255  1.1726  1.0289
  918MPD2    H113494   0.173   2.216  11.486 -0.3381  1.4237  0.8367
  918MPD2    H213495   0.369   2.430  11.784 -1.2824 -1.4243  0.8867
  918MPD2    H313496   0.175   2.381  11.643 -0.3773 -0.4145 -1.1819
  918MPD2     N13497   0.392   2.056  11.433  0.5128  0.2316  0.1205
  918MPD2    H513498   0.478   2.003  11.432  1.1721  1.2654  1.4222
  918MPD2    N113499   0.618   2.322  11.766  0.1715  0.1044  0.3566
  918MPD2    H713500   0.708   2.285  11.736  0.0003 -0.0848  0.0841
  919MPD2     C13501   0.982   0.922  11.161  0.0509  0.1132  0.4467
  919MPD2    C113502   0.866   0.971  11.209  0.4356  1.2248  0.6538
  919MPD2    C213503   0.763   1.010  11.124 -0.8809  0.0122  0.0296
  919MPD2    C313504   0.779   1.000  10.987  0.3556 -0.9963  0.7207
  919MPD2    C413505   0.899   0.953  10.944 -0.1875 -0.0708  0.5269
  919MPD2    C513506   0.995   0.899  11.025  0.3947  0.7046  0.6125
  919MPD2     H13507   0.675   1.061  11.161 -1.5299 -0.5162 -0.7660
  919MPD2    H113508   0.910   0.943  10.837 -1.5526  0.4125  0.3414
  919MPD2    H213509   1.057   0.879  11.227  0.8496  0.6151 -0.1443
  919MPD2    H313510   1.088   0.865  10.980  0.3654  1.4120  0.0223
  919MPD2     N13511   0.692   1.044  10.884 -0.2646 -0.4513  0.0262
  919MPD2    H513512   0.722   1.034  10.787  0.1671 -0.1343  0.1249
  919MPD2    N113513   0.841   0.980  11.347  0.6661 -0.1018 -0.8737
  919MPD2    H713514   0.752   1.023  11.369  0.2969 -0.1110 -2.3512
  920MPD2     C13515   0.505   1.339   9.954  0.0496  1.4107  0.1186
  920MPD2    C113516   0.375   1.353  10.008  0.0579  0.2902  0.7635
  920MPD2    C213517   0.375   1.349  10.144  0.0099  0.1280  0.2962
  920MPD2    C313518   0.481   1.324  10.230  0.2350  0.0164 -0.3500
  920MPD2    C413519   0.609   1.317  10.171  0.7136  0.0299  0.1854
  920MPD2    C513520   0.617   1.315  10.035 -0.3988  0.0186  0.8866
  920MPD2     H13521   0.274   1.358  10.182 -0.8042  3.1371 -2.6167
  920MPD2    H113522   0.694   1.283  10.229 -0.9738 -0.8810  2.1043
  920MPD2    H213523   0.514   1.343   9.846  1.9787 -2.5237  0.1388
  920MPD2    H313524   0.712   1.286   9.990 -0.4295 -1.1798  1.5758
  920MPD2     N13525   0.455   1.300  10.361  0.3715 -0.3449  0.2466
  920MPD2    H513526   0.360   1.303  10.395 -0.0207 -0.5215 -0.8274
  920MPD2    N113527   0.257   1.364   9.932 -0.4175 -0.3701 -0.4402
  920MPD2    H713528   0.164   1.359   9.973  0.2969  0.2755  1.2423
  921MPD2     C13529   1.949   0.139  16.390 -0.1620 -0.2728 -0.3435
  921MPD2    C113530   1.915   0.130  16.257  0.0532 -0.1405 -0.4279
  921MPD2    C213531   1.790   0.086  16.212  0.1153 -0.4276 -0.4166
  921MPD2    C313532   1.699   0.038  16.306  0.4266 -0.8634  0.0925
  921MPD2    C413533   1.740   0.036  16.439 -0.4542  0.2087  0.5679
  921MPD2    C513534   1.858   0.097  16.482  0.2280  0.6549  0.2539
  921MPD2     H13535   1.769   0.082  16.106  0.0602 -0.7299 -0.3945
  921MPD2    H113536   1.672   4.728  16.512  0.9151 -2.2034  0.4317
  921MPD2    H213537   2.032   0.190  16.436 -1.1613  0.3012  0.8220
  921MPD2    H313538   1.886   0.093  16.587 -0.6634 -1.3838  0.4124
  921MPD2     N13539   1.574   4.715  16.269  0.2380  0.1921 -0.0362
  921MPD2    H513540   1.510   4.683  16.341  1.1656  2.5352  1.8457
  921MPD2    N113541   2.011   0.185  16.165  0.1038  0.7193  1.2111
  921MPD2    H713542   2.096   0.225  16.204 -0.3063  1.4525  1.3529
  922MPD2     C13543   2.755   3.118  16.819 -0.3407  0.3436  0.5609
  922MPD2    C113544   2.684   3.133  16.937 -0.1343  0.3681  0.2448
  922MPD2    C213545   2.573   3.055  16.951  0.4205 -0.1081 -0.5732
  922MPD2    C313546   2.532   2.957  16.861  0.2120  0.2041  0.2488
  922MPD2    C413547   2.610   2.942  16.750 -0.3213  0.2278  0.2065
  922MPD2    C513548   2.716   3.024  16.730  0.6234 -0.5185 -0.1821
  922MPD2     H13549   2.513   3.067  17.040  0.9772  1.3344 -0.4030
  922MPD2    H113550   2.579   2.872  16.673  0.8606 -2.5157  2.2193
  922MPD2    H213551   2.844   3.174  16.795 -0.7284  0.0732 -1.5278
  922MPD2    H313552   2.762   3.021  16.631 -1.1491 -3.5318 -0.9028
  922MPD2     N13553   2.407   2.897  16.887 -0.3857 -0.9456  0.1811
  922MPD2    H513554   2.349   2.939  16.959 -1.1672  2.4723 -2.4917
  922MPD2    N113555   2.717   3.234  17.036  0.0372 -0.8962  0.0111
  922MPD2    H713556   2.662   3.220  17.120  2.4198  0.3959  1.7854
  923MPD2     C13557   3.560   3.854   8.490 -0.4497 -0.3081  0.3770
  923MPD2    C113558   3.554   3.994   8.485  0.5259  0.3276  0.1062
  923MPD2    C213559   3.661   4.060   8.545  0.0088 -0.2214  0.1716
  923MPD2    C313560   3.764   3.996   8.617  0.0753  0.7659  0.0560
  923MPD2    C413561   3.759   3.857   8.627 -0.0167 -0.0799  0.0213
  923MPD2    C513562   3.663   3.785   8.557 -0.4015  0.5013 -0.3507
  923MPD2     H13563   3.664   4.168   8.532 -0.1097 -0.2642 -0.2036
  923MPD2    H113564   3.834   3.803   8.684  0.7410  0.4180 -0.5099
  923MPD2    H213565   3.483   3.793   8.445 -0.4099 -1.5859  2.0663
  923MPD2    H313566   3.661   3.677   8.568 -1.3021  0.5654  0.1234
  923MPD2     N13567   3.866   4.066   8.690 -0.1154 -0.1584  0.0255
  923MPD2    H513568   3.939   4.010   8.734  0.0727  1.1810  1.4013
  923MPD2    N113569   3.450   4.057   8.413  0.5547 -0.1183 -0.4903
  923MPD2    H713570   3.391   3.997   8.356 -0.2259  0.2072 -0.0281
  924MPD2     C13571   3.824   3.046  15.708  0.3837 -0.3612 -0.3903
  924MPD2    C113572   3.835   3.053  15.843  1.2767 -0.0892  0.6864
  924MPD2    C213573   3.902   3.151  15.908 -0.3500 -0.5397 -0.2708
  924MPD2    C313574   3.964   3.251  15.839 -0.0580 -0.0459  0.1502
  924MPD2    C413575   3.959   3.243  15.695 -0.2098  0.0264  0.1740
  924MPD2    C513576   3.892   3.143  15.633  0.1625  0.1117 -0.1701
  924MPD2     H13577   3.903   3.163  16.016  1.0919 -0.0965 -0.3385
  924MPD2    H113578   4.019   3.314  15.638 -1.1696 -1.4944 -2.6952
  924MPD2    H213579   3.776   2.961  15.660 -0.3058 -0.1764 -0.0375
  924MPD2    H313580   3.900   3.124  15.527 -1.7628  3.3162 -0.8798
  924MPD2     N13581   4.024   3.350  15.920  0.0125  0.2883 -0.1075
  924MPD2    H513582   4.009   3.339  16.020  1.9023 -1.9334 -0.0731
  924MPD2    N113583   3.765   2.954  15.914 -0.1460 -0.3510  0.0532
  924MPD2    H713584   3.689   2.906  15.866 -0.7912 -0.4959  1.2121
  925MPD2     C13585   2.773   1.115  14.567 -0.4737  0.1539  0.0912
  925MPD2    C113586   2.643   1.145  14.529  0.0781 -0.3062  0.4232
  925MPD2    C213587   2.552   1.191  14.623 -0.0226 -0.1389  0.5721
  925MPD2    C313588   2.584   1.210  14.760  0.2098  0.8816  0.8662
  925MPD2    C413589   2.711   1.180  14.799  0.6222 -0.1930 -0.1318
  925MPD2    C513590   2.796   1.139  14.698 -0.8042  0.7420  0.6234
  925MPD2     H13591   2.452   1.208  14.587  0.7543 -0.2278 -1.6357
  925MPD2    H113592   2.743   1.190  14.902  1.1580  0.4228 -0.3591
  925MPD2    H213593   2.846   1.087  14.492 -2.2240 -3.7842 -0.1408
  925MPD2    H313594   2.899   1.128  14.732 -0.9242  0.1138  0.7874
  925MPD2     N13595   2.487   1.247  14.857  0.1724 -0.3971  0.0922
  925MPD2    H513596   2.526   1.252  14.951 -1.5632  0.5368  0.7642
  925MPD2    N113597   2.591   1.124  14.398 -0.2017 -0.3549  0.1632
  925MPD2    H713598   2.496   1.154  14.380  0.0324  2.0922  3.0333
  926MPD2     C13599   1.956   4.070  13.079  0.4754 -0.1201  0.4430
  926MPD2    C113600   1.858   4.101  12.990 -0.2224 -0.3714  0.2105
  926MPD2    C213601   1.892   4.166  12.872 -1.0410  0.0401 -0.1321
  926MPD2    C313602   2.025   4.216  12.844 -0.4344 -0.0968  0.5647
  926MPD2    C413603   2.119   4.194  12.947 -0.4135 -0.0269  0.0669
  926MPD2    C513604   2.084   4.119  13.059 -0.2364 -0.4144 -0.0408
  926MPD2     H13605   1.820   4.165  12.790  1.5448 -0.7534 -2.3894
  926MPD2    H113606   2.222   4.226  12.936 -0.8353  1.9518  1.9306
  926MPD2    H213607   1.930   4.011  13.167  1.2297 -0.0774  0.6908
  926MPD2    H313608   2.157   4.099  13.137 -0.5256 -2.0242 -0.1705
  926MPD2     N13609   2.067   4.281  12.723  0.4145  0.5011  0.2646
  926MPD2    H513610   2.161   4.319  12.723  0.6565 -0.1069 -1.3876
  926MPD2    N113611   1.724   4.074  13.000  0.3024  0.0239  0.4034
  926MPD2    H713612   1.663   4.093  12.921  1.2896 -0.1867 -0.4107
  927MPD2     C13613   0.910   1.588  17.078 -0.0217  0.1651  0.5174
  927MPD2    C113614   0.943   1.707  17.141 -0.0953  0.3234  0.0451
  927MPD2    C213615   1.055   1.769  17.093  0.4047 -0.3703 -0.3947
  927MPD2    C313616   1.137   1.714  16.997  1.2114  0.5562  0.6866
  927MPD2    C413617   1.104   1.597  16.939 -0.1390 -0.1005  0.9978
  927MPD2    C513618   0.991   1.538  16.983 -0.7666 -0.7051  0.5134
  927MPD2     H13619   1.084   1.865  17.134  0.7575 -1.4090  1.7705
  927MPD2    H113620   1.163   1.545  16.865 -1.3004 -2.8458  1.9960
  927MPD2    H213621   0.830   1.523  17.113 -1.6362  2.7913  1.6859
  927MPD2    H313622   0.953   1.446  16.941 -0.5815 -0.0763 -1.0330
  927MPD2     N13623   1.250   1.787  16.956  0.1529  0.0205  0.0652
  927MPD2    H513624   1.272   1.874  17.002 -2.8334  0.3186  0.9579
  927MPD2    N113625   0.856   1.751  17.247 -0.0944 -0.3001 -0.2293
  927MPD2    H713626   0.769   1.700  17.263 -0.5043  0.3246 -0.4550
  928MPD2     C13627   3.958   4.109   0.499 -0.4988 -0.4249  0.3218
  928MPD2    C113628   3.931   4.244   0.530  0.4538  0.2239  0.4306
  928MPD2    C213629   3.959   4.341   0.435 -0.8846  0.0926 -0.2810
  928MPD2    C313630   4.019   4.315   0.314 -0.4250  0.0035 -0.1826
  928MPD2    C413631   4.038   4.185   0.278  0.3993 -0.4206  0.1490
  928MPD2    C513632   4.023   4.087   0.374  0.0872 -0.2899 -0.9453
  928MPD2     H13633   3.932   4.444   0.455  1.4209  0.4832  0.8564
  928MPD2    H113634   4.083   4.145   0.189 -1.2237  2.2612 -1.8748
  928MPD2    H213635   3.942   4.018   0.556  1.3948 -1.2902 -0.5072
  928MPD2    H313636   4.056   3.993   0.333  1.2039 -0.1891 -0.2702
  928MPD2     N13637   4.061   4.408   0.222 -0.2108  0.0870  0.0999
  928MPD2    H513638   4.101   4.381   0.132 -0.9245 -1.2142  0.1821
  928MPD2    N113639   3.886   4.268   0.662  0.3556  0.4564 -0.1459
  928MPD2    H713640   3.896   4.194   0.731 -1.1685  1.6974  1.3902
  929MPD2     C13641   3.525   0.293  10.217  0.4292 -0.2099 -0.3416
  929MPD2    C113642   3.527   0.185  10.136 -0.1033 -0.4040 -0.1682
  929MPD2    C213643   3.514   0.206  10.002  0.6490 -0.0144 -0.1179
  929MPD2    C313644   3.487   0.331   9.946 -0.0782  0.6424 -0.4624
  929MPD2    C413645   3.476   0.439  10.030 -0.7671  0.0215 -0.0579
  929MPD2    C513646   3.485   0.417  10.165  0.9538 -0.1349 -0.0492
  929MPD2     H13647   3.506   0.123   9.933  3.2822 -0.1383 -0.2947
  929MPD2    H113648   3.463   0.537   9.986 -0.2362 -0.1553 -0.6137
  929MPD2    H213649   3.529   0.281  10.325  0.9798  3.4574  0.0367
  929MPD2    H313650   3.460   0.498  10.233 -0.7933 -0.6331 -0.0947
  929MPD2     N13651   3.468   0.358   9.807 -0.0432  0.8793  0.3744
  929MPD2    H513652   3.452   0.452   9.772  0.1396  0.5394 -0.6181
  929MPD2    N113653   3.522   0.062  10.199 -0.7925 -0.5687  0.4189
  929MPD2    H713654   3.523   0.058  10.300  0.6496  2.7990  0.5447
  930MPD2     C13655   0.714   2.323  13.233  0.1118 -0.7088  0.0766
  930MPD2    C113656   0.835   2.288  13.171  1.1566 -0.1096  0.8562
  930MPD2    C213657   0.845   2.178  13.086  0.0551  0.2401 -0.5050
  930MPD2    C313658   0.728   2.111  13.041  0.2852 -0.4715 -0.4957
  930MPD2    C413659   0.610   2.160  13.092  0.3724 -0.2899 -0.5359
  930MPD2    C513660   0.604   2.261  13.189 -0.8410 -0.0453  0.0589
  930MPD2     H13661   0.947   2.146  13.068  0.3473  1.2036 -0.5865
  930MPD2    H113662   0.517   2.112  13.067  0.1200  0.0988 -0.3430
  930MPD2    H213663   0.705   2.406  13.302  0.7746  2.8566 -4.0881
  930MPD2    H313664   0.513   2.299  13.233 -1.6721 -1.8208 -0.1351
  930MPD2     N13665   0.721   1.993  12.960 -0.3032 -0.6163  0.0469
  930MPD2    H513666   0.631   1.948  12.966 -2.5948  3.9512 -0.1425
  930MPD2    N113667   0.950   2.361  13.211  0.3346 -0.1262 -0.4290
  930MPD2    H713668   0.947   2.439  13.276 -2.5949  0.9069 -1.8111
  931MPD2     C13669   0.593   1.454   0.177 -0.5304 -0.8663  0.0283
  931MPD2    C113670   0.681   1.554   0.204 -0.0400  1.7185 -0.4698
  931MPD2    C213671   0.757   1.555   0.321 -0.5739  0.5197 -0.9537
  931MPD2    C313672   0.740   1.457   0.420 -0.0631  0.5258 -0.3865
  931MPD2    C413673   0.654   1.350   0.389  0.2679  0.0278 -0.4052
  931MPD2    C513674   0.587   1.350   0.268 -0.2621 -0.1579 -0.6436
  931MPD2     H13675   0.812   1.645   0.347  0.6297 -0.2731 -0.7352
  931MPD2    H113676   0.637   1.269   0.458  1.6840 -0.6165 -0.8087
  931MPD2    H213677   0.536   1.455   0.085  0.4561 -1.6743 -0.5812
  931MPD2    H313678   0.520   1.268   0.244 -0.3138 -0.3065  0.0115
  931MPD2     N13679   0.789   1.464   0.548 -0.2526  0.6332  0.9176
  931MPD2    H513680   0.750   1.392   0.608 -0.2898  0.0366  0.1817
  931MPD2    N113681   0.711   1.657   0.109  0.3864 -0.3221 -0.0722
  931MPD2    H713682   0.758   1.740   0.144 -1.1924  0.2690  0.6430
  932MPD2     C13683   2.532   0.627  10.820 -0.6160  0.3290  0.1547
  932MPD2    C113684   2.563   0.670  10.948 -0.9812 -0.0123  0.7314
  932MPD2    C213685   2.601   0.580  11.044 -0.4139 -0.8220 -0.8059
  932MPD2    C313686   2.629   0.449  11.013  0.3394  0.1309  0.9887
  932MPD2    C413687   2.623   0.412  10.878 -0.2274  0.5858 -0.2042
  932MPD2    C513688   2.578   0.502  10.786  0.1899  0.0811  0.2542
  932MPD2     H13689   2.602   0.622  11.144 -2.3253 -1.4887 -0.5008
  932MPD2    H113690   2.658   0.313  10.848  0.2522  1.0717 -1.2459
  932MPD2    H213691   2.487   0.694  10.748 -3.1296  0.0962  1.5208
  932MPD2    H313692   2.569   0.472  10.683  0.5107  1.2473 -0.1167
  932MPD2     N13693   2.656   0.345  11.110 -0.1675  0.2194 -0.2963
  932MPD2    H513694   2.671   0.251  11.076  4.4725  0.0009  2.4423
  932MPD2    N113695   2.539   0.802  10.988 -0.1092  0.2666 -0.3339
  932MPD2    H713696   2.543   0.819  11.088  0.6800 -1.9518  0.0108
  933MPD2     C13697   3.874   0.178   1.345  0.0420  0.1578  0.1236
  933MPD2    C113698   3.803   0.148   1.231  0.1747  0.2302 -0.0957
  933MPD2    C213699   3.707   0.242   1.187  0.0236  0.1669 -0.0051
  933MPD2    C313700   3.689   0.359   1.263 -0.1650  0.0467  0.3324
  933MPD2    C413701   3.754   0.381   1.379  0.7357 -0.7381  0.2085
  933MPD2    C513702   3.857   0.297   1.415  0.0362 -0.1373  0.0654
  933MPD2     H13703   3.650   0.226   1.097  1.4908  2.7942 -1.3825
  933MPD2    H113704   3.729   0.460   1.449 -3.5450 -2.4925  0.6478
  933MPD2    H213705   3.951   0.112   1.383 -1.6655 -1.9150 -0.0483
  933MPD2    H313706   3.908   0.324   1.507 -0.3188  0.4469  0.0973
  933MPD2     N13707   3.585   0.448   1.228  0.2945 -0.0696 -0.0462
  933MPD2    H513708   3.515   0.420   1.160  1.0006  0.5745 -1.0455
  933MPD2    N113709   3.829   0.023   1.169  0.7651 -0.5005  0.3920
  933MPD2    H713710   3.903   4.704   1.215 -1.2116 -1.8174  2.0609
  934MPD2     C13711   0.364   1.490   1.813  0.6701 -1.0792  0.1402
  934MPD2    C113712   0.411   1.585   1.727 -0.0911  0.3026  0.3724
  934MPD2    C213713   0.326   1.614   1.615 -0.1481  0.4983 -0.1810
  934MPD2    C313714   0.207   1.545   1.589 -0.0372  0.1121 -0.0765
  934MPD2    C413715   0.172   1.446   1.680 -0.0149 -0.3667 -0.3525
  934MPD2    C513716   0.246   1.422   1.791  0.0061 -0.5302 -0.3634
  934MPD2     H13717   0.366   1.696   1.556  2.7242  0.3560  1.6179
  934MPD2    H113718   0.082   1.390   1.657 -1.0011  0.4729  1.4664
  934MPD2    H213719   0.414   1.443   1.896 -0.8813 -1.6254  0.7749
  934MPD2    H313720   0.222   1.340   1.858  0.8129 -0.8116 -0.4142
  934MPD2     N13721   0.120   1.583   1.477  0.1236  0.0566 -1.3075
  934MPD2    H513722   0.028   1.539   1.471 -0.9090  2.2979 -1.8635
  934MPD2    N113723   0.538   1.647   1.744  0.2562  0.4322  0.3818
  934MPD2    H713724   0.576   1.689   1.660 -0.1944 -3.2102 -1.6145
  935MPD2     C13725   0.325   1.418   0.563 -0.0551 -0.2967 -0.2132
  935MPD2    C113726   0.203   1.353   0.600 -0.7003 -0.5842  0.1134
  935MPD2    C213727   0.136   1.399   0.713  0.3261 -0.1254  0.1899
  935MPD2    C313728   0.201   1.496   0.795  0.5517  0.3457  0.5812
  935MPD2    C413729   0.326   1.546   0.763  0.3634  0.2755 -0.8122
  935MPD2    C513730   0.382   1.515   0.640  0.2442  0.2705 -0.4733
  935MPD2     H13731   0.041   1.353   0.738  2.0676 -3.2294  1.0164
  935MPD2    H113732   0.377   1.616   0.828 -0.6834 -0.0076  0.3198
  935MPD2    H213733   0.371   1.387   0.470 -0.7630  2.5398 -1.5116
  935MPD2    H313734   0.483   1.546   0.618  0.8991 -0.1631  1.8767
  935MPD2     N13735   0.144   1.535   0.919 -0.1997 -0.3193  0.0543
  935MPD2    H513736   0.202   1.605   0.965 -0.2268 -0.1629 -0.1519
  935MPD2    N113737   0.137   1.252   0.531  0.7844 -0.2487 -0.3953
  935MPD2    H713738   0.050   1.221   0.571  0.4487  0.5254 -0.5209
  936MPD2     C13739   3.162   3.815  12.076  0.4201 -0.1932  0.4066
  936MPD2    C113740   3.260   3.752  12.145 -0.2804  0.0282  0.1202
  936MPD2    C213741   3.389   3.741  12.098 -0.5366  0.4524 -0.5450
  936MPD2    C313742   3.421   3.803  11.975 -0.1874 -0.4307 -0.9564
  936MPD2    C413743   3.318   3.868  11.903  0.1761  0.3082  0.5130
  936MPD2    C513744   3.194   3.881  11.960  0.0284  0.1232  0.4935
  936MPD2     H13745   3.464   3.680  12.147 -0.7377 -0.7701 -1.7680
  936MPD2    H113746   3.328   3.912  11.804 -0.8708  1.1002  0.7646
  936MPD2    H213747   3.064   3.834  12.117  0.2326 -1.3381  0.4920
  936MPD2    H313748   3.123   3.946  11.911  2.1246  1.3053 -1.0069
  936MPD2     N13749   3.556   3.785  11.938 -0.5227  0.0706 -0.3020
  936MPD2    H513750   3.612   3.736  12.008 -0.0858  0.9002 -0.0678
  936MPD2    N113751   3.235   3.677  12.262 -0.3214 -0.2116 -0.1025
  936MPD2    H713752   3.316   3.621  12.285  0.1574  0.6927  0.4398
  937MPD2     C13753   1.171   0.475  11.573  0.2552  0.6409 -0.2218
  937MPD2    C113754   1.191   0.611  11.550  0.1850  0.6635 -1.0803
  937MPD2    C213755   1.251   0.653  11.434  0.2467 -0.0490 -1.0326
  937MPD2    C313756   1.302   0.565  11.339  0.0771  0.5627  0.1228
  937MPD2    C413757   1.283   0.430  11.358 -0.0205 -0.8765 -0.4769
  937MPD2    C513758   1.222   0.392  11.476  0.1828 -0.0706  0.0695
  937MPD2     H13759   1.270   0.757  11.409  1.1625 -0.2295 -1.0747
  937MPD2    H113760   1.317   0.349  11.294 -1.5179 -3.1914  1.6428
  937MPD2    H213761   1.127   0.430  11.661 -0.3672 -0.3989 -1.0738
  937MPD2    H313762   1.211   0.285  11.485 -1.7544  0.0227 -1.1390
  937MPD2     N13763   1.352   0.620  11.217  0.3308 -0.6045  0.4210
  937MPD2    H513764   1.338   0.720  11.214  1.7296 -0.4147  0.5427
  937MPD2    N113765   1.126   0.716  11.615  0.7958  0.9270 -0.3200
  937MPD2    H713766   1.124   0.807  11.569 -1.8954  0.5408 -0.9570
  938MPD2     C13767   3.431   2.117   0.366  0.7628 -0.1802  0.1095
  938MPD2    C113768   3.549   2.058   0.400  0.1212  0.3021  0.0086
  938MPD2    C213769   3.539   1.933   0.465 -0.4279 -0.4390  0.5205
  938MPD2    C313770   3.416   1.874   0.500  0.4389 -0.1409 -0.7558
  938MPD2    C413771   3.303   1.945   0.469  0.3878 -0.5134 -0.1440
  938MPD2    C513772   3.310   2.059   0.399  0.0496 -0.5559  0.4890
  938MPD2     H13773   3.631   1.880   0.485  0.1577 -0.0120 -1.0218
  938MPD2    H113774   3.203   1.904   0.481  0.8270 -1.3566  0.6687
  938MPD2    H213775   3.424   2.201   0.297 -1.1685  1.6012  2.4702
  938MPD2    H313776   3.222   2.104   0.354 -0.5392 -3.4994 -1.2508
  938MPD2     N13777   3.407   1.742   0.552  0.0282  0.5394 -0.2954
  938MPD2    H513778   3.316   1.699   0.566 -0.7274  1.7782 -1.4232
  938MPD2    N113779   3.676   2.099   0.363  0.1633 -0.1720  0.0682
  938MPD2    H713780   3.758   2.045   0.390 -0.8396 -1.5637  0.3655
  939MPD2     C13781   0.210   2.339   0.284  0.6495  0.3562 -0.7975
  939MPD2    C113782   0.173   2.471   0.305  0.2484  0.6573 -0.3536
  939MPD2    C213783   0.198   2.564   0.202  0.2391 -0.5583 -0.3389
  939MPD2    C313784   0.252   2.530   0.080  0.3914  0.1902 -0.2266
  939MPD2    C413785   0.289   2.391   0.071  0.1096 -0.4103 -0.0787
  939MPD2    C513786   0.268   2.299   0.168 -0.2091  0.6016 -0.7222
  939MPD2     H13787   0.174   2.669   0.215  0.1952 -0.4900 -0.9784
  939MPD2    H113788   0.354   2.350  17.730 -0.0737  0.4771 -0.7166
  939MPD2    H213789   0.187   2.262   0.356 -0.7379  0.1415 -1.4715
  939MPD2    H313790   0.316   2.205   0.144 -0.4505  0.2005  0.3708
  939MPD2     N13791   0.290   2.625  17.713  0.3848  0.3439 -0.3235
  939MPD2    H513792   0.279   2.722   0.006 -0.2206 -0.3182  1.6963
  939MPD2    N113793   0.089   2.506   0.418  0.3460  0.1701 -0.1745
  939MPD2    H713794   0.069   2.429   0.480 -1.0898  1.4721  0.9654
  940MPD2     C13795   4.473   4.397  12.838  0.2716 -0.2856  0.3854
  940MPD2    C113796   4.396   4.280  12.830 -0.2220  0.3546  0.2150
  940MPD2    C213797   4.403   4.197  12.717 -0.9998 -0.7253  0.4698
  940MPD2    C313798   4.479   4.233  12.606  0.1007  0.8599 -0.6160
  940MPD2    C413799   4.546   4.354  12.616  0.2560 -0.3152  0.0203
  940MPD2    C513800   4.542   4.444  12.728 -0.1735 -0.1379 -0.2638
  940MPD2     H13801   4.343   4.107  12.719 -0.4796 -1.1184 -1.7976
  940MPD2    H113802   4.604   4.391  12.532  0.0438 -0.2423 -0.0934
  940MPD2    H213803   4.461   4.468  12.919 -0.7798  1.3529 -1.2370
  940MPD2    H313804   4.608   4.530  12.738 -0.2664  0.2724 -3.1275
  940MPD2     N13805   4.494   4.148  12.490  0.0536 -0.1129 -0.2311
  940MPD2    H513806   4.568   4.177  12.426  1.4709 -0.1709  1.3632
  940MPD2    N113807   4.307   4.252  12.929  0.0565 -0.8884  0.6221
  940MPD2    H713808   4.248   4.170  12.913 -0.8059 -0.1144 -0.1506
  941MPD2     C13809   3.244   2.523   9.366  0.3204 -0.0240 -0.0903
  941MPD2    C113810   3.302   2.516   9.489 -0.3307 -0.9547 -0.1516
  941MPD2    C213811   3.236   2.462   9.592 -0.0824 -0.2860 -0.1766
  941MPD2    C313812   3.102   2.416   9.573  0.8205 -0.0205 -0.5765
  941MPD2    C413813   3.044   2.422   9.449 -0.0973 -0.1128 -1.3072
  941MPD2    C513814   3.114   2.476   9.346 -0.1205  0.2618  0.1068
  941MPD2     H13815   3.283   2.457   9.690 -0.5169  3.2939  0.2139
  941MPD2    H113816   2.936   2.421   9.439 -0.3873  2.7678  1.6101
  941MPD2    H213817   3.279   2.578   9.280  1.2331 -0.1687  0.1922
  941MPD2    H313818   3.064   2.483   9.250 -2.4182  2.1391  1.4477
  941MPD2     N13819   3.019   2.354   9.668 -0.0043  0.3778  0.3263
  941MPD2    H513820   2.933   2.310   9.635  0.1365 -1.2053  2.0707
  941MPD2    N113821   3.423   2.579   9.529  0.9155 -0.1916  0.1953
  941MPD2    H713822   3.454   2.576   9.626 -1.9804  0.4773  1.1387
  942MPD2     C13823   2.461   4.218   9.165 -0.6137 -0.2034  0.6768
  942MPD2    C113824   2.432   4.185   9.035 -0.3153  0.1970 -0.4145
  942MPD2    C213825   2.539   4.179   8.944  0.3010  0.2793 -0.2987
  942MPD2    C313826   2.672   4.212   8.983 -0.3407 -0.4813  0.3976
  942MPD2    C413827   2.685   4.264   9.112  0.1309  0.0432  0.6155
  942MPD2    C513828   2.587   4.261   9.202  0.2685  0.1767  0.0872
  942MPD2     H13829   2.527   4.149   8.841  1.7775  1.7096 -0.8901
  942MPD2    H113830   2.779   4.295   9.154 -0.3595 -0.0279  1.7685
  942MPD2    H213831   2.384   4.217   9.241 -0.6685  0.9313  0.6367
  942MPD2    H313832   2.603   4.311   9.297 -0.4509  0.6841 -0.0609
  942MPD2     N13833   2.782   4.197   8.897  0.6708  0.3503  0.2722
  942MPD2    H513834   2.872   4.228   8.934 -0.1608 -0.0237  2.6509
  942MPD2    N113835   2.302   4.141   8.987 -0.2279  0.1701 -0.6152
  942MPD2    H713836   2.300   4.117   8.889 -2.4025  0.8642 -0.7474
  943MPD2     C13837   2.544   2.284   9.733 -0.5248 -0.0038  0.2329
  943MPD2    C113838   2.520   2.336   9.864 -0.5004 -0.5963  0.0151
  943MPD2    C213839   2.566   2.464   9.898  0.5119 -0.2790 -0.1491
  943MPD2    C313840   2.633   2.548   9.802  0.7164  0.1044  0.2142
  943MPD2    C413841   2.666   2.488   9.682 -0.0798  0.0868 -0.2970
  943MPD2    C513842   2.619   2.362   9.641 -0.0622  0.5873  0.5209
  943MPD2     H13843   2.525   2.499   9.992 -1.2699 -0.8528 -0.7097
  943MPD2    H113844   2.722   2.550   9.613 -1.2327  0.6345 -0.7430
  943MPD2    H213845   2.506   2.186   9.706  1.1606 -1.4967  3.2743
  943MPD2    H313846   2.627   2.331   9.538  0.2015  2.4473 -0.0142
  943MPD2     N13847   2.683   2.677   9.833 -0.3850  0.3564  0.4129
  943MPD2    H513848   2.744   2.722   9.765  2.5652 -0.3724  2.5791
  943MPD2    N113849   2.451   2.259   9.967  0.6179  0.2812  0.4979
  943MPD2    H713850   2.399   2.174   9.943  1.5164 -0.2992  0.6006
  944MPD2     C13851   2.136   2.249  10.878  0.4640  0.1307 -0.0537
  944MPD2    C113852   2.009   2.200  10.883  0.0981  0.6377  0.1155
  944MPD2    C213853   1.903   2.271  10.945  0.2209  0.1399  0.1500
  944MPD2    C313854   1.933   2.394  11.008  0.3836  0.2202 -0.2676
  944MPD2    C413855   2.062   2.443  10.991  0.4336 -0.0923  0.1482
  944MPD2    C513856   2.159   2.366  10.933  0.1501 -0.2961  0.7704
  944MPD2     H13857   1.801   2.235  10.956 -0.2381  1.5547  0.4985
  944MPD2    H113858   2.104   2.531  11.040  0.0791  0.0683  0.1634
  944MPD2    H213859   2.219   2.192  10.836  2.1026  1.0030  1.9927
  944MPD2    H313860   2.262   2.401  10.934 -0.8076  2.5803 -1.0830
  944MPD2     N13861   1.830   2.455  11.082  0.2214 -0.2815 -0.5020
  944MPD2    H513862   1.743   2.406  11.096  0.6456 -1.3115 -1.3993
  944MPD2    N113863   1.992   2.071  10.825  0.1517  0.3567  0.6920
  944MPD2    H713864   2.069   2.024  10.778  0.3282 -1.6254  2.9326
    1TMC1    C113865   3.954   3.313  14.203 -0.1647 -0.1817  0.0994
    1TMC1    C213866   3.899   3.224  14.285  0.0434 -0.7649 -0.0069
    1TMC1    C313867   3.784   3.167  14.246  0.2671  0.6418 -0.6377
    1TMC1    C413868   3.885   3.360  14.095  0.3152 -0.1321 -0.1841
    1TMC1    C513869   3.770   3.301  14.060 -0.1224 -0.6165 -0.0950
    1TMC1    C613870   3.706   3.212  14.140  0.4095 -0.5794 -0.6220
    1TMC1     C13871   4.098   3.340  14.227  0.5973  0.6314 -0.2678
    1TMC1     O13872   4.144   3.303  14.331  0.1847 -0.1231  0.1479
    1TMC1     H13873   3.944   3.184  14.375  2.1821 -1.7119 -1.4827
    1TMC1    H113874   3.926   3.444  14.041 -0.6484 -0.5082 -1.4951
    1TMC1    H213875   3.607   3.168  14.135  0.8387 -1.7367  1.3995
    1TMC1    C713876   3.707   3.342  13.941  0.4565 -0.4725  0.6223
    1TMC1    C813877   3.733   3.046  14.320 -0.2527 -0.4632  0.2821
    1TMC1    O113878   3.715   3.445  13.882  0.6900 -0.1012  0.1548
    1TMC1    O213879   3.763   3.021  14.435 -0.0886 -0.4427  0.1923
    1TMC1    O313880   3.658   3.228  13.889 -0.1276  0.0861 -0.2462
    1TMC1    H313881   3.682   3.146  13.936 -0.2105 -0.8396 -1.8320
    1TMC1    O513882   3.684   2.961  14.223 -0.0916  0.0446  0.1534
    1TMC1    H513883   3.712   2.989  14.134  1.5993  0.9384  0.9716
    2MPD2     C13884   4.572   3.371  14.023  0.5439  0.0919 -0.1848
    2MPD2    C113885   4.488   3.387  13.917 -0.1848  0.2808 -0.0242
    2MPD2    C213886   4.347   3.384  13.947  0.4748  0.5162  0.1578
    2MPD2    C313887   4.300   3.362  14.077  0.0580 -0.0768 -0.1914
    2MPD2    C413888   4.396   3.329  14.176 -0.6441 -0.7963 -0.3503
    2MPD2    C513889   4.529   3.340  14.144  0.0485 -0.1733 -0.1395
    2MPD2     H13890   4.275   3.402  13.868  3.7571  2.3771 -2.4351
    2MPD2    H113891   4.365   3.304  14.277  1.4570 -0.2637  0.4114
    2MPD2    H213892   4.680   3.368  14.010  0.6193  0.2507  0.4008
    2MPD2    H313893   4.608   3.326  14.216 -0.5586  0.6618  0.6885
    2MPD2     N13894   4.162   3.366  14.106  0.2890  0.4883 -0.3406
    2MPD2    H513895   4.104   3.394  14.027  2.1240 -0.8499 -2.1618
    2MPD2    N113896   4.529   3.405  13.792  0.4335 -0.0109 -0.2689
    2MPD2    H713897   4.625   3.386  13.765  0.6853  0.4574  0.3020
    3TMC2    C113898   4.505   3.431  13.561  0.3427  0.2482  0.7037
    3TMC2    C213899   4.540   3.302  13.531 -0.0938  0.0023 -0.0272
    3TMC2    C313900   4.554   3.287  13.392 -0.2223 -0.2084  0.1753
    3TMC2    C413901   4.499   3.531  13.472 -0.1747 -0.5927 -0.0603
    3TMC2    C513902   4.533   3.503  13.338  0.8142 -0.4817 -0.3231
    3TMC2    C613903   4.554   3.381  13.294 -0.0251 -1.5922 -0.0285
    3TMC2     C13904   4.453   3.456  13.690  0.3839  0.5491  0.2894
    3TMC2     O13905   4.360   3.540  13.697 -0.6898  0.5376 -0.8619
    3TMC2     H13906   4.529   3.219  13.600 -1.1371 -0.9852 -1.3854
    3TMC2    H113907   4.455   3.624  13.506 -1.6042 -1.8872  1.6310
    3TMC2    H213908   4.585   3.351  13.195 -0.1340 -2.5373  0.2269
    3TMC2    C713909   4.531   3.610  13.246  0.4068 -0.0485  0.7428
    3TMC2    C813910   4.598   3.155  13.349 -0.1882 -0.2208  0.2602
    3TMC2    O113911   4.524   3.580  13.127  0.1564 -0.1586  0.3667
    3TMC2    O213912   4.594   3.127  13.229 -0.1653 -0.2724  0.3849
    3TMC2    O513913   4.707   3.131  13.429 -0.0410 -0.2743  0.1632
    3TMC2    H513914   4.711   3.193  13.505  0.8093  0.0670 -0.1525
    4TMC2    C113915   4.305   4.480  13.574  0.2891  0.8903 -0.1753
    4TMC2    C213916   4.308   4.578  13.478  0.0027 -0.4779 -0.5360
    4TMC2    C313917   4.415   4.566  13.398 -0.1270 -0.0133 -0.7921
    4TMC2    C413918   4.390   4.375  13.586 -0.2349  0.2034 -0.6676
    4TMC2    C513919   4.481   4.362  13.490 -0.6892 -0.2696 -0.4146
    4TMC2    C613920   4.493   4.460  13.395  0.5239  0.3504 -0.2544
    4TMC2     C13921   4.179   4.467  13.648  0.0522 -0.2505  0.3235
    4TMC2     O13922   4.177   4.415  13.759  0.5991 -0.0233 -0.0936
    4TMC2     H13923   4.240   4.661  13.489  1.2934  0.4228  0.6126
    4TMC2    H113924   4.372   4.304  13.665  1.6854  2.0032  1.3864
    4TMC2    H213925   4.591   4.461  13.349 -0.0504  1.5115 -1.4587
    4TMC2    C713926   4.515   4.221  13.463 -0.5191  0.4613 -0.4198
    4TMC2    C813927   4.441   4.671  13.302 -0.4370  0.4413 -0.4408
    4TMC2    O113928   4.519   4.127  13.541  0.3594 -0.1713  0.0203
    4TMC2    O213929   4.559   4.693  13.277 -0.0114 -0.1041  0.0510
    4TMC2    O513930   4.334   4.700  13.231 -0.0611 -0.2156 -0.0679
    4TMC2    H513931   4.262   4.645  13.267 -0.8615  1.1627  0.4599
    5MPD2     C13932   3.671   4.427  13.633 -0.0231  0.4891 -0.5656
    5MPD2    C113933   3.712   4.436  13.503  0.4477 -0.3099  0.0044
    5MPD2    C213934   3.847   4.477  13.495  0.9309 -0.4214 -0.2258
    5MPD2    C313935   3.939   4.479  13.596  0.2062 -0.4978 -0.0691
    5MPD2    C413936   3.894   4.459  13.722  0.1293 -0.1162  0.4581
    5MPD2    C513937   3.763   4.434  13.739  0.0610  0.3755 -0.1661
    5MPD2     H13938   3.888   4.504  13.398 -1.3590  3.0883 -0.2229
    5MPD2    H113939   3.956   4.456  13.811 -0.1280  3.3508  0.7700
    5MPD2    H213940   3.572   4.394  13.660  0.6403  0.2298  1.5815
    5MPD2    H313941   3.725   4.402  13.835 -0.0212  0.3180 -0.2175
    5MPD2     N13942   4.071   4.484  13.557  0.0763 -0.1388 -0.9882
    5MPD2    H513943   4.098   4.504  13.461  3.9689 -0.3269  0.0807
    5MPD2    N113944   3.627   4.407  13.392  0.3530  0.4625  0.1992
    5MPD2    H713945   3.533   4.378  13.416  0.5045 -0.2337 -0.0366
    6MPD1     C13946   2.036   0.480  12.990 -0.7285  0.4249 -0.5827
    6MPD1    C113947   2.152   0.537  12.938 -0.3970  0.9214  0.5819
    6MPD1    C213948   2.260   0.455  12.904 -0.5867  0.4468  0.0316
    6MPD1    C313949   2.252   0.315  12.921  0.0149  0.1281 -1.4753
    6MPD1    C413950   2.137   0.265  12.979  0.3032  0.8136  0.5429
    6MPD1    C513951   2.029   0.345  13.006 -0.0783 -0.6128  0.0007
    6MPD1     H13952   2.349   0.505  12.869 -0.6718  0.5611 -0.0228
    6MPD1    H113953   2.127   0.165  13.020 -0.1765 -0.3835 -2.4754
    6MPD1    H213954   1.956   0.543  13.028  1.2266  2.0321  0.8939
    6MPD1    H313955   1.943   0.299  13.051  1.0851 -1.8803  0.9277
    6MPD1     N13956   2.358   0.226  12.891 -0.0591 -0.1139  0.4519
    6MPD1    H513957   2.356   0.129  12.921  1.7777  0.3046  1.8885
    6MPD1    N113958   2.166   0.677  12.941  0.3479 -0.3043 -0.5264
    6MPD1    H613959   2.253   0.704  12.894  0.3034  2.3751  0.9403
    6MPD1    H713960   2.087   0.725  12.900 -1.1045 -2.0562  0.2539
    7MPD2     C13961   2.821   4.551  13.338 -0.3501 -0.1859 -0.0462
    7MPD2    C113962   2.850   4.524  13.204  0.1154 -0.1187  0.4147
    7MPD2    C213963   2.964   4.452  13.175  0.2912 -0.2598  0.0825
    7MPD2    C313964   3.052   4.412  13.275  0.4481 -0.7803 -0.7056
    7MPD2    C413965   3.021   4.442  13.405 -0.2304 -0.0526 -0.0553
    7MPD2    C513966   2.915   4.517  13.434 -0.3760  0.4718  0.8146
    7MPD2     H13967   2.987   4.432  13.071  0.8423 -0.1939  0.1899
    7MPD2    H113968   3.092   4.434  13.487 -0.6601  0.7514  0.3871
    7MPD2    H213969   2.739   4.614  13.370 -1.0131  0.1300 -2.3592
    7MPD2    H313970   2.901   4.567  13.529 -1.5007  1.4118  0.1648
    7MPD2     N13971   3.175   4.346  13.246 -0.1637 -0.7025 -0.0534
    7MPD2    H513972   3.228   4.319  13.329  0.3761  0.0527 -0.1510
    7MPD2    N113973   2.773   4.565  13.093  0.7057 -0.5963  0.2341
    7MPD2    H713974   2.813   4.526  13.007 -0.9950  1.9814 -1.7003
    8TMC3    C113975   3.359   4.260  13.119 -0.3040  0.8134 -0.2799
    8TMC3    C213976   3.441   4.333  13.204 -0.2827 -0.2613 -0.1482
    8TMC3    C313977   3.557   4.388  13.165 -0.3400 -0.5338  0.1691
    8TMC3    C413978   3.401   4.257  12.993 -0.4535  0.3251 -0.6008
    8TMC3    C513979   3.509   4.320  12.950 -0.3969  0.5364  1.2000
    8TMC3    C613980   3.590   4.396  13.033 -0.0949 -0.0977 -0.2987
    8TMC3     C13981   3.216   4.300  13.120 -0.3863  0.4863 -0.9335
    8TMC3     O13982   3.159   4.308  13.010 -0.3355  0.3775 -0.3506
    8TMC3     H13983   3.416   4.327  13.309 -0.8283 -0.4174 -0.2840
    8TMC3    H113984   3.338   4.208  12.920  1.3473 -0.6401 -1.5183
    8TMC3    H213985   3.679   4.451  13.006 -0.1350  1.0767  1.9960
    8TMC3    C713986   3.484   4.399  12.834 -0.7100 -0.6507  0.4571
    8TMC3    C813987   3.645   4.447  13.263  0.0564 -0.3437 -0.1920
    8TMC3    O113988   3.580   4.460  12.787 -0.3719  0.6018  0.8159
    8TMC3    O213989   3.737   4.514  13.222 -0.3012 -0.3596  0.2256
    9TMC3    C113990   2.578   0.158  12.843 -0.3570 -0.1994  1.0251
    9TMC3    C213991   2.653   0.123  12.733  0.0107 -0.0841 -0.5543
    9TMC3    C313992   2.734   0.009  12.749  0.0744 -0.7759 -0.2783
    9TMC3    C413993   2.565   0.080  12.951  0.0110 -0.0258 -0.2338
    9TMC3    C513994   2.629   4.692  12.956 -0.6102  0.4665 -0.2097
    9TMC3    C613995   2.717   4.661  12.854  0.3396 -0.2464  0.3632
    9TMC3     C13996   2.475   0.256  12.828  0.2477  0.5729 -0.3394
    9TMC3     O13997   2.517   0.361  12.777 -0.5269 -0.8462  0.2847
    9TMC3     H13998   2.645   0.173  12.637  3.9910  2.3705  0.4064
    9TMC3    H113999   2.510   0.120  13.036 -1.9464 -1.2944 -0.8973
    9TMC3    H214000   2.772   4.567  12.854  0.9114  0.0922 -2.1609
    9TMC3    C714001   2.663   4.647  13.088  0.1713  0.4002 -0.4975
    9TMC3    C814002   2.863   0.017  12.680  0.2918  0.0583  0.0495
    9TMC3    O114003   2.601   4.696  13.179  0.1195  0.1493  0.4713
    9TMC3    O214004   2.885   0.115  12.610 -0.1182  0.2992  0.0326
   10MPD2     C14005   3.352   4.590  12.628  0.4273 -0.6466  0.5249
   10MPD2    C114006   3.288   4.528  12.734  0.7961 -0.3542 -0.0184
   10MPD2    C214007   3.154   4.548  12.761  0.1916 -0.2486 -0.4856
   10MPD2    C314008   3.088   4.649  12.690  0.4701 -0.0959 -0.1857
   10MPD2    C414009   3.157   4.725  12.596  0.3951 -0.4147 -0.1815
   10MPD2    C514010   3.287   4.680  12.552  0.2556 -0.5587  0.0347
   10MPD2     H14011   3.108   4.499  12.846  0.5375  0.2564 -0.0071
   10MPD2    H114012   3.111   0.070  12.538 -0.1266 -0.4980  0.1275
   10MPD2    H214013   3.456   4.566  12.608  0.1807 -2.4483  1.3873
   10MPD2    H314014   3.329   4.714  12.458 -1.3422  4.6384  1.1940
   10MPD2     N14015   2.953   4.662  12.721  0.4741 -0.5548  0.4360
   10MPD2    H514016   2.918   4.605  12.797  0.5990 -2.3292 -0.8444
   10MPD2    N114017   3.349   4.438  12.824 -0.2199  0.5768  0.3608
   10MPD2    H714018   3.292   4.394  12.895 -0.5213  2.0438  1.0250
   11MPD2     C14019   4.595   3.855  13.102  0.1555  0.3260 -0.6780
   11MPD2    C114020   4.571   3.850  13.235 -0.0392  0.5270 -0.0694
   11MPD2    C214021   4.557   3.962  13.316  0.0334 -0.3387 -0.0588
   11MPD2    C314022   4.550   4.090  13.254  0.6625 -0.7816  0.3513
   11MPD2    C414023   4.581   4.094  13.122 -0.4418  0.1815  0.0830
   11MPD2    C514024   4.609   3.982  13.054 -0.0682  0.4372  0.0225
   11MPD2     H14025   4.528   3.958  13.420  0.8385  1.2469  0.2349
   11MPD2    H114026   4.584   4.185  13.063 -0.0881  0.0558 -0.0881
   11MPD2    H214027   4.611   3.769  13.038 -2.7648 -0.0782 -0.8784
   11MPD2    H314028   4.622   3.990  12.946 -0.4278 -0.2357 -0.0740
   11MPD2     N14029   4.538   4.214  13.330  0.2947 -0.2935 -0.2887
   11MPD2    H514030   4.532   4.296  13.271 -1.5816 -0.7072 -0.6599
   11MPD2    N114031   4.554   3.726  13.306  0.2332 -0.9740  0.0389
   11MPD2    H714032   4.558   3.721  13.407  0.6601  0.5456  0.0932
    1MPD1     C14033   4.079   4.543  15.984 -0.2839  0.1759 -0.3764
    1MPD1    C114034   3.949   4.502  15.978  0.1859  0.5441 -0.4213
    1MPD1    C214035   3.852   4.591  16.020  0.0952 -0.8893 -0.6692
    1MPD1    C314036   3.881   4.722  16.066  0.3077  0.2824 -0.6316
    1MPD1    C414037   4.012   0.020  16.075 -0.0093 -0.8104 -0.1330
    1MPD1    C514038   4.111   4.667  16.036  0.0675 -0.7251  0.3892
    1MPD1     H14039   3.751   4.550  16.025 -2.0875  4.5919  0.1363
    1MPD1    H114040   4.054   0.105  16.129 -3.6274  0.0908  1.2742
    1MPD1    H214041   4.165   4.481  15.962 -0.5802 -0.4763  0.3029
    1MPD1    H314042   4.214   4.698  16.037  0.2147 -1.1103 -2.8702
    1MPD1     N14043   3.789   0.082  16.121  0.0890  0.4272  0.4188
    1MPD1    H514044   3.830   0.170  16.149  3.4125 -0.2945 -2.1675
    1MPD1    N114045   3.905   4.388  15.908  0.3093 -0.0175 -0.4824
    1MPD1    H614046   3.978   4.318  15.895  0.6750 -0.5012  4.2313
    1MPD1    H714047   3.822   4.355  15.956  2.4014 -2.2087  1.6073
    2MPD1     C14048   2.769   0.442  16.166 -0.1479  0.2189  0.2073
    2MPD1    C114049   2.853   0.552  16.187  0.5288  1.0570  0.7900
    2MPD1    C214050   2.987   0.520  16.197 -0.1667  0.1245 -1.3264
    2MPD1    C314051   3.042   0.392  16.199  0.8825  0.5542  0.6717
    2MPD1    C414052   2.950   0.290  16.190  0.0601  0.0625 -0.1161
    2MPD1    C514053   2.815   0.313  16.162 -0.1423  0.2628 -0.1271
    2MPD1     H14054   3.056   0.604  16.202  0.0367 -0.1702  0.7722
    2MPD1    H114055   2.973   0.184  16.188 -1.6218 -0.3003 -0.2908
    2MPD1    H214056   2.665   0.461  16.144 -0.0311  0.6121  0.0001
    2MPD1    H314057   2.744   0.231  16.166 -0.8760  0.9723  1.3282
    2MPD1     N14058   3.176   0.370  16.220 -0.3103 -0.5637 -0.0449
    2MPD1    H514059   3.227   0.457  16.230 -1.9411  0.3281  0.4645
    2MPD1    N114060   2.805   0.688  16.177 -0.3601 -0.2050  0.1166
    2MPD1    H614061   2.726   0.700  16.239 -0.0938 -0.8912  0.5954
    2MPD1    H714062   2.877   0.757  16.199  0.0937 -0.3917 -0.7848
    3TMC3    C114063   3.389   0.265  16.236  0.5646 -0.8593 -1.3968
    3TMC3    C214064   3.449   0.385  16.275 -0.8374  0.3310 -0.2461
    3TMC3    C314065   3.583   0.384  16.280  0.2441 -0.6971 -0.2539
    3TMC3    C414066   3.456   0.153  16.213 -0.9801 -0.7606 -0.3032
    3TMC3    C514067   3.590   0.157  16.222  0.0483  0.0900  0.0222
    3TMC3    C614068   3.657   0.273  16.255  0.1796 -0.7453 -0.0551
    3TMC3     C14069   3.244   0.251  16.221 -0.2405  0.1439 -0.2196
    3TMC3     O14070   3.194   0.141  16.224  0.5189 -0.3438  0.3718
    3TMC3     H14071   3.382   0.464  16.307 -0.4610  0.2543  0.7235
    3TMC3    H114072   3.410   0.062  16.176 -0.6452 -1.3687  0.7774
    3TMC3    H214073   3.757   0.261  16.294 -0.5831 -2.9083  1.2653
    3TMC3    C714074   3.654   0.047  16.144  0.4171 -0.1380 -0.2990
    3TMC3    C814075   3.662   0.496  16.333 -0.3227  0.1876  0.2126
    3TMC3    O114076   3.595   4.673  16.142  0.1925 -0.3916 -0.8698
    3TMC3    O214077   3.782   0.485  16.329 -0.1657 -0.0656  0.2985
    4MPD1     C14078   3.658   0.937  16.590 -0.2495  0.4599 -0.0630
    4MPD1    C114079   3.528   0.915  16.552  0.4189 -0.0167  0.8401
    4MPD1    C214080   3.504   0.803  16.473  0.5350 -0.3906  0.3927
    4MPD1    C314081   3.608   0.722  16.432 -0.0045  0.7439  0.1269
    4MPD1    C414082   3.736   0.753  16.467 -0.2365 -0.1944  0.6688
    4MPD1    C514083   3.756   0.850  16.555  0.5551  0.0276  0.3877
    4MPD1     H14084   3.401   0.776  16.454  0.3536 -0.3429  1.3158
    4MPD1    H114085   3.819   0.694  16.430 -1.0533 -2.5270  2.5659
    4MPD1    H214086   3.680   1.024  16.650  1.3458 -0.5408  0.8285
    4MPD1    H314087   3.855   0.886  16.578  0.6384 -0.4132  0.7239
    4MPD1     N14088   3.578   0.603  16.364  0.5274 -0.1915 -0.0526
    4MPD1    H514089   3.482   0.590  16.334  0.6824 -0.2836 -0.5065
    4MPD1    N114090   3.424   0.996  16.607  0.8129  0.0635 -0.0089
    4MPD1    H614091   3.457   1.084  16.646  0.7711 -0.3570  0.9543
    4MPD1    H714092   3.339   1.006  16.552  0.6573 -2.6106 -0.2809
    1TCq1    O114093   3.049   4.288  10.643 -0.1840  0.4269  0.3410
    1TCq1    C114094   3.094   4.265  10.765  0.3235  0.5852 -0.5169
    1TCq1    O214095   3.048   4.298  10.877  0.5814 -0.4800 -0.7118
    1TCq1    C214096   3.231   4.218  10.755 -0.1116  0.7994  0.2199
    1TCq1    C314097   3.287   4.173  10.640  0.3007 -0.5796  0.8599
    1TCq1    C414098   3.414   4.124  10.637  0.6526  0.6259  0.2162
    1TCq1    C514099   3.493   4.151  10.746 -0.3869  0.4674  0.0530
    1TCq1    C614100   3.431   4.193  10.859 -0.1820  0.2591  0.1059
    1TCq1    C714101   3.298   4.221  10.868 -0.3871 -0.2227 -0.1676
    1TCq1    C814102   3.516   4.197  10.972 -0.1057 -0.1947  0.9497
    1TCq1    O414103   3.633   4.213  10.949 -0.4334 -0.0043  0.1439
    1TCq1    C914104   3.487   4.111  10.513  0.3015  0.2192 -0.3476
    1TCq1    O514105   3.613   4.124  10.512  0.0616  0.3735 -0.4133
    1TCq1    O614106   3.414   4.135  10.414 -0.1990  0.2499 -0.2996
    1TCq1    H114107   3.109   4.267  10.569 -1.2888  0.2424 -0.5086
    1TCq1    H214108   3.230   4.149  10.551 -0.2854  1.4633  0.6914
    1TCq1    H314109   3.601   4.141  10.742 -0.6530 -1.9603 -0.8325
    1TCq1    H414110   3.254   4.250  10.963  0.2588  1.6470 -0.4275
    2MPD1     C14111   3.659   4.043  11.447 -0.1896 -0.8641  0.2514
    2MPD1    C114112   3.534   3.996  11.422  0.4782  0.3442 -0.0080
    2MPD1    C214113   3.472   4.033  11.303 -0.2531  0.6588  0.4140
    2MPD1    C314114   3.537   4.121  11.206  0.5394  0.5536  0.9573
    2MPD1    C414115   3.660   4.163  11.241 -0.1864 -0.6573  0.5009
    2MPD1    C514116   3.716   4.121  11.354 -0.1275  0.2352  0.2287
    2MPD1     H14117   3.376   3.991  11.277  0.6538 -0.7153 -0.7102
    2MPD1    H114118   3.720   4.220  11.172  1.1468  0.8781  2.9331
    2MPD1    H214119   3.726   4.019  11.529 -0.3961 -4.1316 -0.5549
    2MPD1    H314120   3.820   4.150  11.365 -0.0378  0.6783 -1.8229
    2MPD1     N14121   3.464   4.150  11.087  0.6028  0.4782  0.5879
    2MPD1    H514122   3.366   4.125  11.088  0.9742 -1.1070 -3.1147
    2MPD1    N114123   3.479   3.894  11.498 -0.1963  0.5503 -0.0265
    2MPD1    H614124   3.379   3.878  11.495 -0.3131  1.0804  1.3051
    2MPD1    H714125   3.508   3.894  11.596  1.1669  0.4895 -0.4241
    1TMC1    C114126   1.470   1.976  17.407 -0.0656  0.0909 -1.3096
    1TMC1    C214127   1.435   1.974  17.538  0.1007 -0.2418 -0.0650
    1TMC1    C314128   1.463   2.093  17.603 -0.7251 -0.2729  0.2953
    1TMC1    C414129   1.527   2.081  17.343  0.3997  0.4400  0.1324
    1TMC1    C514130   1.570   2.182  17.423 -0.1118  0.0935 -0.0122
    1TMC1    C614131   1.534   2.196  17.548  0.3064 -0.5250 -0.4806
    1TMC1     C14132   1.442   1.864  17.321  0.1317  0.1716  0.2969
    1TMC1     O14133   1.443   1.880  17.203  0.0534 -0.9248  0.0244
    1TMC1     H14134   1.383   1.892  17.585 -0.1635 -1.2108 -2.0554
    1TMC1    H114135   1.563   2.083  17.241 -1.0148 -1.4577 -0.4053
    1TMC1    H214136   1.561   2.285  17.604 -0.1607 -0.1223 -0.8986
    1TMC1    C714137   1.631   2.294  17.352 -0.4606 -0.6762 -0.5694
    1TMC1    C814138   1.434   2.099   0.009 -0.5482  0.1589  0.1826
    1TMC1    O114139   1.628   2.293  17.230  0.0343  0.9196  0.4046
    1TMC1    O214140   1.515   2.147   0.085 -0.2128 -0.0752  0.3565
    1TMC1    O314141   1.689   2.388  17.434  0.5707  0.8645 -0.7249
    1TMC1    H314142   1.701   2.374  17.531 -0.3020 -0.6520 -0.8427
    1TMC1    O514143   1.322   2.035   0.042  1.5313 -0.0424  0.4647
    1TMC1    H514144   1.275   2.005  17.698  1.5579  0.8585  0.1074
    2MPD1     C14145   1.362   1.371  17.228  0.2833 -0.5972 -0.3144
    2MPD1    C114146   1.343   1.387  17.365  0.3981 -0.3769  0.2425
    2MPD1    C214147   1.370   1.517  17.408  0.0482 -0.4747 -0.4000
    2MPD1    C314148   1.413   1.620  17.328 -0.3778  0.6359 -0.2805
    2MPD1    C414149   1.433   1.596  17.191  0.2887 -0.6048 -0.1546
    2MPD1    C514150   1.413   1.469  17.148 -0.4497 -0.5654 -0.0666
    2MPD1     H14151   1.358   1.532  17.514  0.8718 -1.9665 -0.0967
    2MPD1    H114152   1.476   1.672  17.128  0.9891 -2.0810 -1.4481
    2MPD1    H214153   1.341   1.275  17.181  0.3143  0.4073 -2.3779
    2MPD1    H314154   1.427   1.453  17.041  0.2659  1.2790 -0.2553
    2MPD1     N14155   1.431   1.750  17.389  0.3730 -0.0321  0.1604
    2MPD1    H514156   1.426   1.758  17.490  0.4193 -0.8080  0.2254
    2MPD1    N114157   1.279   1.288  17.438 -0.1575  0.4491  0.6851
    2MPD1    H614158   1.329   1.277  17.526 -0.6925  0.7854  1.0289
    2MPD1    H714159   1.261   1.200  17.389 -0.7750  0.0689  1.6103
    1MPD1     C14160   0.333   3.937  11.664 -0.0055  0.2384  0.2420
    1MPD1    C114161   0.392   4.002  11.558  0.6288  0.5351 -0.2513
    1MPD1    C214162   0.419   4.141  11.564 -0.4319  0.0164  0.3650
    1MPD1    C314163   0.395   4.211  11.683  0.7158 -0.4064 -0.2529
    1MPD1    C414164   0.347   4.140  11.791  0.1058  0.3276  0.1918
    1MPD1    C514165   0.317   4.005  11.779 -0.2570 -0.3648 -0.1104
    1MPD1     H14166   0.459   4.196  11.479  1.0336  0.8708  1.5996
    1MPD1    H114167   0.306   4.190  11.878  1.3879 -1.3388  1.7302
    1MPD1    H214168   0.303   3.833  11.659  0.0690  0.2435 -0.3689
    1MPD1    H314169   0.268   3.947  11.855  0.1862  0.7789  1.0569
    1MPD1     N14170   0.423   4.351  11.681  0.1251 -0.6404 -0.1521
    1MPD1    H514171   0.460   4.399  11.599  3.5975  2.0563  2.9824
    1MPD1    N114172   0.385   3.938  11.432  0.2371 -0.0715  0.2868
    1MPD1    H614173   0.456   3.982  11.374 -1.8649  1.7626 -0.8793
    1MPD1    H714174   0.416   3.841  11.439  2.3786  0.5415 -0.7127
    2MPD1     C14175   4.213   0.387  11.158 -0.1242  0.0262  0.0678
    2MPD1    C114176   4.231   0.297  11.054 -0.1947  0.3320 -0.3138
    2MPD1    C214177   4.311   0.345  10.950 -0.2778 -0.1642 -0.3518
    2MPD1    C314178   4.355   0.478  10.941 -0.5903  0.4722  0.6730
    2MPD1    C414179   4.344   0.553  11.056  0.4910  0.1476 -0.4737
    2MPD1    C514180   4.273   0.512  11.160 -0.2326  0.4002  0.5167
    2MPD1     H14181   4.338   0.279  10.869  1.9991  0.0720  0.2075
    2MPD1    H114182   4.388   0.651  11.072  1.0215 -0.4280  1.6442
    2MPD1    H214183   4.165   0.368  11.254  1.9076  1.9116  1.4693
    2MPD1    H314184   4.260   0.587  11.237 -0.6736 -1.3180  2.1414
    2MPD1     N14185   4.424   0.532  10.831 -0.1456  0.0315  0.3848
    2MPD1    H514186   4.489   0.609  10.846  0.0714 -0.1731  0.4899
    2MPD1    N114187   4.177   0.167  11.071 -0.4048  0.0317 -0.0146
    2MPD1    H614188   4.149   0.106  10.994 -1.3748 -1.6599  1.6661
    2MPD1    H714189   4.101   0.158  11.139 -0.1877  1.8459  0.4649
    3MPD1     C14190   0.029   0.815   9.839 -0.4375 -0.5392  0.6546
    3MPD1    C114191   0.081   0.892   9.944 -0.4644 -0.0530 -0.3307
    3MPD1    C214192   0.024   0.872  10.069  0.4357 -0.6703  0.3221
    3MPD1    C314193   4.666   0.775  10.088 -0.1338  0.1929  0.3378
    3MPD1    C414194   4.609   0.704   9.984  0.3604 -0.5988 -0.3891
    3MPD1    C514195   4.666   0.721   9.859  0.4852 -0.0644 -0.0466
    3MPD1     H14196   0.057   0.932  10.153  1.4205 -1.7707  0.7135
    3MPD1    H114197   4.526   0.634   9.985  0.7074 -1.0059 -0.0644
    3MPD1    H214198   0.050   0.835   9.735  0.0580 -1.6005  0.5478
    3MPD1    H314199   4.636   0.655   9.778 -0.4880 -0.9916  1.0742
    3MPD1     N14200   4.642   0.748  10.223 -0.3621 -0.1605 -0.2071
    3MPD1    H514201   4.708   0.791  10.287 -0.7184  0.5870 -0.3461
    3MPD1    N114202   0.172   0.994   9.935  0.2665 -0.2978  0.6939
    3MPD1    H614203   0.226   0.997  10.022  0.9113 -2.9942  0.3877
    3MPD1    H714204   0.239   0.976   9.861 -0.8192 -0.5774 -0.2016
    4MPD2     C14205   0.211   0.439  11.689  0.4892 -0.1226  0.0184
    4MPD2    C114206   0.329   0.379  11.658  1.0200 -0.1110 -0.5813
    4MPD2    C214207   0.416   0.443  11.575  0.2126 -0.6742  0.8378
    4MPD2    C314208   0.392   0.567  11.527  0.2703 -0.1746 -0.1517
    4MPD2    C414209   0.268   0.625  11.553  0.7622 -0.4483  0.0817
    4MPD2    C514210   0.177   0.557  11.635 -0.0837  0.5837  0.3265
    4MPD2     H14211   0.506   0.384  11.562  0.7924  0.6218 -0.9519
    4MPD2    H114212   0.255   0.724  11.512 -0.0161 -0.4092  0.4389
    4MPD2    H214213   0.148   0.397  11.767 -0.9443 -1.8294 -2.0750
    4MPD2    H314214   0.086   0.611  11.661 -0.9505 -0.1582 -1.1506
    4MPD2     N14215   0.491   0.650  11.459 -0.2304 -0.0962  0.4970
    4MPD2    H514216   0.455   0.737  11.420 -0.2704 -0.0766  0.5758
    4MPD2    N114217   0.370   0.263  11.721  0.6040 -0.1117 -0.7144
    4MPD2    H714218   0.464   0.228  11.703  0.9601  1.0376 -1.0407
    5TMC3    C114219   0.386   0.070  11.838 -1.0454 -0.2963  0.4447
    5TMC3    C214220   0.338   4.675  11.812  0.1186  0.4050  0.6364
    5TMC3    C314221   0.426   4.582  11.761 -0.5428  0.6430  0.1051
    5TMC3    C414222   0.518   0.099  11.834  0.2684  1.1020  0.1879
    5TMC3    C514223   0.602   0.002  11.776 -0.0129 -0.3521  0.1222
    5TMC3    C614224   0.556   4.613  11.740  0.0526  0.0209  0.3638
    5TMC3     C14225   0.295   0.178  11.799  0.2904  0.4638  0.9479
    5TMC3     O14226   0.170   0.160  11.798  0.5151  0.0707  0.5654
    5TMC3     H14227   0.235   4.643  11.825  0.8900 -2.6530 -0.7425
    5TMC3    H114228   0.566   0.188  11.872 -1.2726  2.4962 -1.1725
    5TMC3    H214229   0.622   4.540  11.695  0.7144  0.0690  1.2723
    5TMC3    C714230   0.684   0.072  11.688  0.3172 -0.2337 -0.0674
    5TMC3    C814231   0.383   4.439  11.778 -0.1757 -0.3482 -0.0635
    5TMC3    O114232   0.642   0.186  11.677 -0.4950 -0.1433  0.1080
    5TMC3    O214233   0.299   4.419  11.864  0.5470  0.3594 -0.0987
    6TMC3    C114234   4.514   0.546  10.625 -0.2364  0.3948 -0.6652
    6TMC3    C214235   4.492   0.559  10.492  0.3751  0.0913  0.2519
    6TMC3    C314236   4.590   0.630  10.414  0.7047  0.8088 -0.0186
    6TMC3    C414237   4.629   0.596  10.678 -1.0386  0.0043 -0.4896
    6TMC3    C514238   4.729   0.659  10.607 -0.6624 -0.1583 -0.2649
    6TMC3    C614239   4.714   0.672  10.469  0.1216 -0.2454  0.0670
    6TMC3     C14240   4.420   0.480  10.705  0.5247  0.2256  0.0788
    6TMC3     O14241   4.321   0.423  10.662  0.2414 -0.6086  0.2819
    6TMC3     H14242   4.396   0.522  10.460  0.3085  0.8419 -0.4250
    6TMC3    H114243   4.642   0.589  10.785 -0.9137  2.4138 -0.3527
    6TMC3    H214244   0.066   0.697  10.407 -0.1722  0.1697 -0.1779
    6TMC3    C714245   0.124   0.665  10.672 -0.3020 -0.3454 -0.5679
    6TMC3    C814246   4.566   0.645  10.275  0.2112  0.3010  0.3623
    6TMC3    O114247   0.139   0.621  10.784  0.2153 -0.2417 -0.0870
    6TMC3    O214248   4.475   0.577  10.222 -0.4350 -0.3936 -0.2479
    7MPD2     C14249   1.013   0.165  11.304  0.7456 -0.1738  0.4473
    7MPD2    C114250   0.906   0.239  11.359  0.3660  0.7484  0.4813
    7MPD2    C214251   0.830   0.189  11.467 -0.3009  0.3743 -0.2218
    7MPD2    C314252   0.865   0.064  11.524  0.0211  0.3447 -1.6719
    7MPD2    C414253   0.976   4.728  11.473  0.3592  0.1272  0.2858
    7MPD2    C514254   1.051   0.048  11.371  0.9630  0.4786 -0.0350
    7MPD2     H14255   0.741   0.245  11.493 -0.4457  0.0037  0.0626
    7MPD2    H114256   0.997   4.627  11.505 -0.6435 -0.8907 -2.2475
    7MPD2    H214257   1.077   0.207  11.227 -1.0370  1.3439 -0.1995
    7MPD2    H314258   1.144   0.000  11.341  1.5540  0.3354  2.0439
    7MPD2     N14259   0.779   0.000  11.620  0.1244 -0.0048 -0.0917
    7MPD2    H514260   0.808   4.644  11.656  0.7570 -0.2618 -1.2557
    7MPD2    N114261   0.862   0.366  11.310 -0.4179  0.0956  0.4398
    7MPD2    H714262   0.783   0.404  11.360 -0.5249  0.2979  0.1153
    8TMC3    C114263   0.845   0.565  11.195  0.2282  0.1464 -0.8786
    8TMC3    C214264   0.766   0.596  11.089  1.2019  0.3102 -0.3995
    8TMC3    C314265   0.663   0.679  11.112  0.9337  0.1886  0.4725
    8TMC3    C414266   0.813   0.597  11.322  0.6522  0.2062  0.6631
    8TMC3    C514267   0.695   0.666  11.338  0.9201  0.1725  0.1745
    8TMC3    C614268   0.628   0.721  11.235  0.3493  0.2068 -0.0310
    8TMC3     C14269   0.902   0.429  11.202  0.3514 -0.1146 -0.0546
    8TMC3     O14270   0.945   0.380  11.100 -0.1165  0.0663  0.0336
    8TMC3     H14271   0.784   0.567  10.986 -2.6320 -0.4408 -0.8647
    8TMC3    H114272   0.881   0.586  11.406  1.1002  0.6712  0.3610
    8TMC3    H214273   0.535   0.776  11.245  1.6061  2.4115 -0.3999
    8TMC3    C714274   0.618   0.605  11.441  0.1284 -0.7839 -0.0534
    8TMC3    C814275   0.566   0.701  11.005 -0.6294  0.2880  0.9944
    8TMC3    O114276   0.683   0.524  11.506  0.7427  0.4678 -0.1111
    8TMC3    O214277   0.447   0.715  11.042  1.0422  0.3513 -0.3617
    9MPD2     C14278   0.621   0.776  10.648 -0.7940  0.4635 -0.3523
    9MPD2    C114279   0.546   0.735  10.757  0.4752  0.2113 -0.7932
    9MPD2    C214280   0.411   0.720  10.740 -0.4930  0.4358  0.2557
    9MPD2    C314281   0.348   0.768  10.624 -0.3861 -0.3964 -0.0575
    9MPD2    C414282   0.432   0.827  10.528  0.4948  0.3156 -0.0847
    9MPD2    C514283   0.563   0.814  10.531  1.2318  0.1995  0.4882
    9MPD2     H14284   0.357   0.691  10.829  0.6486  0.8450  1.0834
    9MPD2    H114285   0.379   0.851  10.437 -0.3002  1.6196  0.7223
    9MPD2    H214286   0.729   0.778  10.657 -1.0194  1.5199  2.1930
    9MPD2    H314287   0.624   0.865  10.457  1.2507 -0.3370  0.1351
    9MPD2     N14288   0.215   0.737  10.595  0.3852  0.2456 -0.1541
    9MPD2    H514289   0.189   0.756  10.498 -3.3230 -2.9399  0.2273
    9MPD2    N114290   0.620   0.708  10.880 -0.3205 -0.5849 -0.5577
    9MPD2    H714291   0.721   0.708  10.892 -0.5266 -0.4526  1.1809
    1MPD1     C14292   4.010   1.169  16.399  0.1224  0.4958  0.2240
    1MPD1    C114293   3.911   1.208  16.484  0.2437 -0.0660  0.3002
    1MPD1    C214294   3.923   1.167  16.613 -0.3840 -0.4835 -0.5024
    1MPD1    C314295   4.035   1.100  16.661  0.0679 -0.7579  0.4949
    1MPD1    C414296   4.149   1.085  16.585  0.4980  0.2080  0.3235
    1MPD1    C514297   4.125   1.126  16.454 -0.1847  0.3061 -0.3347
    1MPD1     H14298   3.842   1.193  16.681 -1.7634  0.1081 -2.3472
    1MPD1    H114299   4.244   1.035  16.600  0.8098 -0.4351 -3.8744
    1MPD1    H214300   4.010   1.193  16.293  1.4891  1.2271  0.3841
    1MPD1    H314301   4.204   1.107  16.382 -0.4238  0.5963 -0.6716
    1MPD1     N14302   4.048   1.050  16.790 -0.0505 -0.8223  0.0673
    1MPD1    H514303   4.135   1.009  16.825 -1.0122 -1.5461  1.6402
    1MPD1    N114304   3.790   1.259  16.435 -0.2572 -0.0905 -0.3023
    1MPD1    H614305   3.804   1.318  16.354  3.3379 -0.0684  0.3438
    1MPD1    H714306   3.754   1.315  16.512 -0.4351 -0.2349 -0.2797
    2TMC2    C114307   4.161   0.845  17.104 -0.6462 -0.5894  0.0327
    2TMC2    C214308   4.088   0.837  17.217  0.1012 -0.0163  1.1144
    2TMC2    C314309   3.966   0.894  17.207 -0.3445  0.1277 -0.2460
    2TMC2    C414310   4.121   0.922  17.001 -0.6653 -0.4218  0.1527
    2TMC2    C514311   4.002   0.977  17.004 -0.4995 -0.6871 -0.2349
    2TMC2    C614312   3.918   0.968  17.107 -0.5070  0.0539  0.1102
    2TMC2     C14313   4.308   0.826  17.110 -0.0837 -0.2780 -0.3258
    2TMC2     O14314   4.385   0.892  17.038 -0.8662 -0.1573 -0.1938
    2TMC2     H14315   4.125   0.794  17.310 -0.7699 -0.9138  1.0510
    2TMC2    H114316   4.190   0.919  16.918  0.7714 -0.3555  1.3267
    2TMC2    H214317   3.820   1.015  17.114 -0.7619 -0.3313 -0.8043
    2TMC2    C714318   3.952   1.049  16.888  0.1382 -0.1368  0.0307
    2TMC2    C814319   3.913   0.934  17.334 -0.2286 -0.3175  0.1717
    2TMC2    O114320   3.836   1.066  16.874 -0.5268  0.0903  0.1723
    2TMC2    O214321   3.836   1.025  17.341 -0.0309 -0.1326  0.1505
    2TMC2    O514322   3.886   0.828  17.411 -0.0029 -0.1080  0.0768
    2TMC2    H514323   3.916   0.742  17.375 -1.1783 -0.5948  0.2888
    3MPD1     C14324   4.717   0.691  17.386  0.5172 -0.7652  0.3575
    3MPD1    C114325   4.611   0.610  17.411  0.2260  0.8013 -0.7167
    3MPD1    C214326   4.493   0.635  17.352  0.0690  0.2110 -0.8737
    3MPD1    C314327   4.471   0.734  17.262 -0.6341 -0.2873  0.2012
    3MPD1    C414328   4.581   0.818  17.245 -0.6102  0.2289 -0.0624
    3MPD1    C514329   4.705   0.788  17.292  0.0517  0.4509 -0.4930
    3MPD1     H14330   4.411   0.570  17.379  0.8562  0.3589  1.8449
    3MPD1    H114331   4.569   0.907  17.185  1.0293 -0.0292 -0.7615
    3MPD1    H214332   0.075   0.678  17.442  0.1201 -1.0008  0.9522
    3MPD1    H314333   0.058   0.851  17.274  0.9903  0.4233  3.8439
    3MPD1     N14334   4.344   0.744  17.215 -0.3380  0.1952  0.3771
    3MPD1    H514335   4.282   0.678  17.260 -0.7051 -1.1676 -2.1607
    3MPD1    N114336   4.619   0.517  17.512 -0.2603 -0.1496 -0.4966
    3MPD1    H614337   4.551   0.442  17.516 -1.0808  0.6321  0.2851
    3MPD1    H714338   4.712   0.477  17.522  1.0123  2.5049 -1.5005
    1TMC1    C114339   3.020   3.086  12.780 -0.6138  0.0640 -0.1249
    1TMC1    C214340   3.023   2.955  12.811  0.3828  0.2506 -0.2048
    1TMC1    C314341   2.919   2.905  12.887  0.2215  0.3018 -0.2901
    1TMC1    C414342   2.918   3.170  12.818  0.0436  0.1530  0.1138
    1TMC1    C514343   2.830   3.116  12.909  0.8568  0.2458 -0.4796
    1TMC1    C614344   2.825   2.979  12.947 -1.0162  0.6036 -0.1610
    1TMC1     C14345   3.140   3.150  12.753 -0.5325  0.6638 -0.6290
    1TMC1     O14346   3.127   3.266  12.719 -0.4303  0.2999 -0.2358
    1TMC1     H14347   3.110   2.893  12.795 -1.1975 -1.5577 -1.8910
    1TMC1    H114348   2.922   3.278  12.805 -0.1405 -0.2285 -3.0940
    1TMC1    H214349   2.741   2.939  13.003 -1.0417 -3.4787 -3.1223
    1TMC1    C714350   2.723   3.215  12.933  0.3151 -0.5671  0.1070
    1TMC1    C814351   2.914   2.753  12.895  0.0564  0.2418  0.4418
    1TMC1    O114352   2.691   3.300  12.851  0.7598  0.2164 -0.2156
    1TMC1    O214353   2.982   2.679  12.831 -0.8558  0.7017 -0.3819
    1TMC1    O314354   2.679   3.186  13.057  0.3299  0.1714  0.1428
    1TMC1    H314355   2.743   3.128  13.102  1.3249  0.2602 -1.1417
    1TMC1    O514356   2.839   2.709  12.993  0.1517  0.3499 -0.1209
    1TMC1    H514357   2.786   2.774  13.045 -0.9294 -1.2320  0.7532
    2MPD2     C14358   3.423   3.245  12.752  0.3067  1.0402  0.0679
    2MPD2    C114359   3.374   3.151  12.848  0.5526  0.7053 -0.2736
    2MPD2    C214360   3.446   3.127  12.965 -0.3633 -0.0907  0.0251
    2MPD2    C314361   3.572   3.186  12.986  0.0551  0.2357  0.2629
    2MPD2    C414362   3.620   3.272  12.894 -0.2513 -0.1016  0.3594
    2MPD2    C514363   3.546   3.301  12.778  0.2217 -0.3170 -0.2362
    2MPD2     H14364   3.403   3.062  13.040  1.1220  0.3373  1.2471
    2MPD2    H114365   3.713   3.329  12.900 -0.8081  0.5279  3.0164
    2MPD2    H214366   3.371   3.272  12.661 -0.1070  1.1005  0.3210
    2MPD2    H314367   3.595   3.367  12.708 -0.3709  0.1043 -0.2502
    2MPD2     N14368   3.643   3.154  13.108 -0.2638  0.6690 -0.1832
    2MPD2    H514369   3.602   3.078  13.162 -0.2708  2.7392  2.7349
    2MPD2    N114370   3.240   3.096  12.834 -0.0655  0.2502 -0.1831
    2MPD2    H714371   3.212   3.031  12.907  1.0931 -0.6396 -0.5344
    3TCq1    O114372   3.925   3.182  13.712  0.2825  0.1926  0.6012
    3TCq1    C114373   3.839   3.247  13.632 -0.1474 -0.4503  0.0074
    3TCq1    O214374   3.843   3.368  13.633  0.6438 -0.1371 -0.7046
    3TCq1    C214375   3.822   3.175  13.511  0.1193  0.5573 -0.6675
    3TCq1    C314376   3.827   3.037  13.516  0.2162  0.2019  0.3389
    3TCq1    C414377   3.819   2.976  13.392  0.3221 -0.5166 -0.1614
    3TCq1    C514378   3.796   3.043  13.276 -0.1634 -0.5811  0.5564
    3TCq1    C614379   3.786   3.185  13.285 -1.0969 -0.4292 -0.2965
    3TCq1    C714380   3.793   3.250  13.403  0.0662  0.7748  0.2271
    3TCq1    C814381   3.729   3.243  13.169  0.3611  0.3572  0.0043
    3TCq1    O414382   3.753   3.361  13.139 -0.3627  0.2432 -0.2901
    3TCq1    C914383   3.851   2.833  13.384 -0.6704  0.0999 -0.2581
    3TCq1    O514384   3.853   2.774  13.498  0.2391  0.1168 -0.4092
    3TCq1    O614385   3.849   2.777  13.271  0.0006 -0.1491 -0.1028
    3TCq1    H114386   3.893   3.095  13.742  4.3665 -1.8035 -0.8509
    3TCq1    H214387   3.853   2.979  13.604 -3.0391 -0.5494  0.7977
    3TCq1    H314388   3.812   2.993  13.182 -1.2853 -1.5890  0.9063
    3TCq1    H414389   3.790   3.358  13.410  3.9127  0.9117 -0.2231
    1MPD2     C14390   1.100   3.877  15.151  0.2602 -0.0785 -0.2133
    1MPD2    C114391   1.232   3.863  15.117  0.5275  0.1611  0.5431
    1MPD2    C214392   1.320   3.864  15.223 -0.2410 -0.6296  0.8238
    1MPD2    C314393   1.278   3.889  15.358  0.1057 -0.7487  0.5352
    1MPD2    C414394   1.146   3.905  15.382 -0.3259  0.5297 -0.1392
    1MPD2    C514395   1.057   3.896  15.279  0.1522 -0.2464 -0.2641
    1MPD2     H14396   1.427   3.859  15.204  0.0026  1.4172  1.6665
    1MPD2    H114397   1.101   3.921  15.480 -0.8274 -0.4836 -0.2028
    1MPD2    H214398   1.025   3.878  15.073 -0.6379 -1.4437  0.6255
    1MPD2    H314399   0.953   3.907  15.310  0.1547  1.1173 -0.7872
    1MPD2     N14400   1.382   3.888  15.454  0.2570  0.1937  0.1272
    1MPD2    H514401   1.472   3.877  15.410 -0.2211 -1.5714 -0.4200
    1MPD2    N114402   1.272   3.834  14.986  0.5448 -0.5768  0.3954
    1MPD2    H714403   1.197   3.833  14.918  2.0398  1.5007 -1.3224
    2TMC3    C114404   1.431   3.814  14.802 -0.1259  0.1541 -0.3281
    2TMC3    C214405   1.565   3.798  14.784 -0.5100  0.0553  0.2654
    2TMC3    C314406   1.639   3.883  14.704  0.0590 -0.0296  0.2578
    2TMC3    C414407   1.373   3.912  14.723 -0.8259  0.0091 -0.7579
    2TMC3    C514408   1.454   4.006  14.664 -0.0128 -0.2585 -0.0574
    2TMC3    C614409   1.588   3.995  14.647  0.1788  0.4143  0.6799
    2TMC3     C14410   1.408   3.809  14.943 -0.0315  0.8900 -0.1635
    2TMC3     O14411   1.513   3.811  15.008 -0.5897 -0.1631  0.2570
    2TMC3     H14412   1.608   3.708  14.826 -0.5877  0.5883  1.4879
    2TMC3    H114413   1.267   3.932  14.728 -0.6839  0.4153  0.5627
    2TMC3    H214414   1.651   4.062  14.588 -0.0395  2.8537  3.2491
    2TMC3    C714415   1.384   4.125  14.606  0.8373  0.6573 -0.2835
    2TMC3    C814416   1.776   3.899  14.750  0.4395  0.0613  0.9574
    2TMC3    O114417   1.269   4.103  14.565 -0.3341 -0.1610  0.6219
    2TMC3    O214418   1.866   3.931  14.674 -0.7709 -0.2639  0.3518
    3TCq1    O114419   2.038   0.351  14.202 -0.4276 -0.1350  0.3295
    3TCq1    C114420   1.919   0.377  14.264 -0.3238  0.3502  0.3948
    3TCq1    O214421   1.824   0.431  14.208  0.4030 -0.9011 -0.0955
    3TCq1    C214422   1.895   0.251  14.334  0.0372 -0.7075 -0.2905
    3TCq1    C314423   1.973   0.197  14.431  0.1040 -0.6067  0.0647
    3TCq1    C414424   1.949   0.066  14.461  0.8700  0.1162 -0.4715
    3TCq1    C514425   1.841   4.734  14.414 -0.0878  0.5877  0.0438
    3TCq1    C614426   1.760   0.061  14.319  0.1555  0.4486 -0.0729
    3TCq1    C714427   1.784   0.191  14.288 -0.7867 -0.0174 -0.4483
    3TCq1    C814428   1.628   0.014  14.320 -0.5765 -0.2729 -0.7802
    3TCq1    O414429   1.557   0.039  14.223 -0.7837  0.2789 -0.3283
    3TCq1    C914430   2.037   4.731  14.547  0.2736  0.9300 -0.3509
    3TCq1    O514431   2.140   0.053  14.581 -0.2307 -0.0067  1.0810
    3TCq1    O614432   1.989   4.625  14.601  0.5562 -0.1101 -0.8361
    3TCq1    H114433   2.112   0.306  14.249 -0.3388  0.7864  1.0718
    3TCq1    H214434   2.056   0.251  14.475 -0.4053 -0.8039  1.2626
    3TCq1    H314435   1.841   4.626  14.422 -4.2211  0.5790  0.1255
    3TCq1    H414436   1.719   0.234  14.212 -1.2350  0.5883  0.2745
    4MPD2     C14437   1.399   4.570  14.356 -0.6303  0.3324 -0.5505
    4MPD2    C114438   1.510   4.560  14.427  0.0198 -0.0386  0.1832
    4MPD2    C214439   1.532   4.453  14.505  0.6187  0.3393  0.8582
    4MPD2    C314440   1.441   4.350  14.514 -0.9433 -0.1192  0.3446
    4MPD2    C414441   1.316   4.369  14.460 -0.5537 -0.6253 -0.1136
    4MPD2    C514442   1.295   4.478  14.382  0.5001 -0.3484  0.1471
    4MPD2     H14443   1.634   4.443  14.543  0.6300  1.5638  1.1502
    4MPD2    H114444   1.235   4.298  14.470 -0.1834 -0.9430  0.6129
    4MPD2    H214445   1.373   4.658  14.299  1.8900  0.5214 -1.3643
    4MPD2    H314446   1.194   4.499  14.350  1.0692 -1.7219 -2.5622
    4MPD2     N14447   1.474   4.230  14.583 -0.3454  0.0050 -0.3298
    4MPD2    H514448   1.572   4.221  14.608  0.3379  1.9758 -2.3205
    4MPD2    N114449   1.607   4.661  14.422  0.2099  0.4593  0.0825
    4MPD2    H714450   1.673   4.652  14.498 -0.9409 -1.0042  0.9010
    5TMC2    C114451   1.705   3.869  15.524 -0.3247 -0.6258  0.2237
    5TMC2    C214452   1.744   3.756  15.582  0.5212  0.1842  0.7463
    5TMC2    C314453   1.651   3.708  15.674  0.9913  0.4018  0.1381
    5TMC2    C414454   1.589   3.940  15.550  0.8662  0.0263  0.4775
    5TMC2    C514455   1.508   3.894  15.638  0.6432 -1.1184  0.7338
    5TMC2    C614456   1.534   3.777  15.704 -0.8662 -0.1722 -0.1730
    5TMC2     C14457   1.729   3.876  15.385 -0.0929 -0.8468  0.4514
    5TMC2     O14458   1.633   3.898  15.315 -0.0144  0.6040  0.4463
    5TMC2     H14459   1.818   3.693  15.535  0.6916  0.0452  1.2018
    5TMC2    H114460   1.572   4.040  15.513 -2.8057 -0.6214  0.4128
    5TMC2    H214461   1.463   3.750  15.781 -1.0974 -1.0250 -0.6817
    5TMC2    C714462   1.369   3.890  15.587 -0.0995  0.5297 -0.9505
    5TMC2    C814463   1.675   3.570  15.717 -0.4402 -0.5927  1.4678
    5TMC2    O114464   1.273   3.883  15.662 -0.0548 -0.0514 -0.2351
    5TMC2    O214465   1.794   3.541  15.726  0.6084  0.2935  0.3275
    5TMC2    O514466   1.585   3.558  15.817  0.3321 -0.3822 -0.4212
    5TMC2    H514467   1.491   3.568  15.791  0.4926 -1.6925 -1.5354
    6MPD2     C14468   2.017   3.891  14.963  0.1884  0.7736 -0.3812
    6MPD2    C114469   1.881   3.883  14.985  0.8247  0.0961  0.5310
    6MPD2    C214470   1.843   3.882  15.115 -0.1150 -0.8677 -0.5743
    6MPD2    C314471   1.923   3.885  15.225  0.2281 -0.0482  0.4144
    6MPD2    C414472   2.059   3.905  15.202 -0.3360 -0.6853 -0.0439
    6MPD2    C514473   2.102   3.905  15.070 -0.1086  0.1766  0.2339
    6MPD2     H14474   1.736   3.866  15.121  0.1838 -2.2151  1.0375
    6MPD2    H114475   2.126   3.913  15.287  0.0098 -3.9525 -0.0349
    6MPD2    H214476   2.053   3.896  14.861 -1.0820 -0.6102 -0.8987
    6MPD2    H314477   2.208   3.912  15.051 -0.1542 -2.1891 -0.9485
    6MPD2     N14478   1.863   3.868  15.352 -0.1133  0.6941 -0.4996
    6MPD2    H514479   1.925   3.868  15.433 -0.5897 -0.4031 -0.1483
    6MPD2    N114480   1.777   3.875  14.891  0.1034  0.2113  0.0921
    6MPD2    H714481   1.686   3.859  14.931  0.2156  0.2821  0.3715
  945NH4     N114482   0.068   0.450  10.984 -0.0703  0.0672  0.5109
  945NH4     H214483   0.113   0.501  10.905 -2.4148 -1.5820 -1.8771
  945NH4     H314484   0.030   0.356  10.962 -0.9873 -0.2322  3.4100
  945NH4     H414485   4.723   0.509  11.015 -0.2670 -0.4796  1.0392
  945NH4     H514486   0.134   0.443  11.064 -1.0507 -1.1602  1.1935
  946SOD     NA14487   1.924   3.986   7.513 -0.1420 -0.3423  0.0920
  947SOD     NA14488   2.078   4.524  14.790 -0.2827  0.4149  0.5963
  948SOD     NA14489   2.789   4.053  11.756 -0.1315 -0.3474 -0.4310
  949SOD     NA14490   4.440   3.439  15.447 -0.0205  0.2660 -0.2851
  950SOD     NA14491   0.552   1.424   2.113  0.4912 -0.4420 -0.3547
  951SOD     NA14492   0.996   2.594   9.646 -0.2305  0.3976 -0.1221
  952SOD     NA14493   3.607   3.002  10.524  0.4532 -0.2398 -0.1000
  953SOL     OW14494   3.438   0.160   2.964 -0.1942  0.4407 -0.4384
  953SOL    HW114495   3.354   0.191   2.928 -0.8109 -0.5158  0.1851
  953SOL    HW214496   3.430   0.066   2.947 -1.5379  0.4509  0.1629
  954SOL     OW14497   3.973   0.643   7.741 -0.1919 -0.0935  0.1175
  954SOL    HW114498   4.058   0.659   7.700 -0.0575  0.9968  0.8076
  954SOL    HW214499   3.928   0.726   7.721  0.8034  0.9673  2.2044
  955SOL     OW14500   3.423   2.762   3.604  0.5986  0.0860 -0.3477
  955SOL    HW114501   3.435   2.836   3.663 -1.0082  1.2836 -1.5077
  955SOL    HW214502   3.384   2.705   3.670 -1.2757  1.3603 -0.3666
  956SOL     OW14503   0.263   1.032  16.116  0.4774 -0.4686 -0.1260
  956SOL    HW114504   0.273   1.077  16.200  3.7258 -0.2481 -0.6299
  956SOL    HW214505   0.321   0.957  16.128 -0.8161 -1.4196  0.1799
  957SOL     OW14506   2.395   0.554   5.900  0.2230 -0.0957  0.2031
  957SOL    HW114507   2.415   0.485   5.963  1.0064  0.8796  1.0193
  957SOL    HW214508   2.477   0.567   5.851  0.2666  0.2375  0.3665
  958SOL     OW14509   3.195   1.627   5.212  0.4337  0.0836  0.2389
  958SOL    HW114510   3.099   1.625   5.201  0.5810 -1.4263 -0.8269
  958SOL    HW214511   3.216   1.534   5.206 -0.4539 -0.2039  1.6291
  959SOL     OW14512   1.213   0.456   5.311 -0.5387 -1.0805 -0.4842
  959SOL    HW114513   1.172   0.380   5.352 -0.5713  0.0458  1.5803
  959SOL    HW214514   1.283   0.420   5.257  1.4557 -0.4039  1.6652
  960SOL     OW14515   2.132   0.585   5.839  0.0882  0.2764 -0.0284
  960SOL    HW114516   2.220   0.586   5.877 -0.4188  2.7028  1.0889
  960SOL    HW214517   2.144   0.615   5.749  1.3890 -1.9146 -0.5813
  961SOL     OW14518   1.874   2.798   7.819  0.3823  0.8083 -0.1320
  961SOL    HW114519   1.951   2.852   7.800  0.5896  0.7083  0.4271
  961SOL    HW214520   1.879   2.727   7.755 -0.6896 -1.1545  1.9540
  962SOL     OW14521   3.089   1.892   7.745  0.1565  0.0175 -0.9086
  962SOL    HW114522   3.045   1.861   7.824  1.2949  2.6678  0.7690
  962SOL    HW214523   3.180   1.865   7.758 -0.2562 -0.8405  0.2269
  963SOL     OW14524   0.260   1.283   4.342  0.2751  0.4229 -0.7269
  963SOL    HW114525   0.278   1.213   4.405  0.6930  0.0926 -1.2215
  963SOL    HW214526   0.171   1.302   4.372  0.2207 -1.0936  0.0958
  964SOL     OW14527   1.332   3.663  13.512  0.0274  0.0306 -0.3422
  964SOL    HW114528   1.313   3.570  13.526 -0.2788  0.2252  0.5461
  964SOL    HW214529   1.256   3.679  13.456  0.1167  0.5632 -0.3125
  965SOL     OW14530   1.467   0.523   4.310  0.3809 -0.1571  0.3508
  965SOL    HW114531   1.529   0.583   4.353  1.9498 -1.0863 -0.6071
  965SOL    HW214532   1.525   0.448   4.295  1.9370  0.8818  1.1003
  966SOL     OW14533   3.234   0.164   5.580 -0.4216  0.4039  0.7186
  966SOL    HW114534   3.322   0.135   5.605  0.2899 -0.2472 -2.6064
  966SOL    HW214535   3.189   0.080   5.583 -1.4972  0.8972 -1.6515
  967SOL     OW14536   1.631   0.745   8.436  0.2573  0.6547 -0.4753
  967SOL    HW114537   1.683   0.760   8.357 -0.3029 -0.3549 -1.0233
  967SOL    HW214538   1.555   0.802   8.430  0.5601  0.8948 -2.1406
  968SOL     OW14539   4.092   0.251   1.048 -0.0857  0.2535  0.0973
  968SOL    HW114540   4.126   0.185   0.987 -0.3520  0.5001 -0.3183
  968SOL    HW214541   4.016   0.279   0.998  0.1845  0.4260 -0.2183
  969SOL     OW14542   0.653   2.844   3.424  0.1721  0.3282  0.4675
  969SOL    HW114543   0.572   2.860   3.472  0.9507  1.8404  1.2599
  969SOL    HW214544   0.703   2.925   3.429 -1.4746  1.3544  0.2567
  970SOL     OW14545   0.269   1.921  14.336  0.2368  0.6142  0.1643
  970SOL    HW114546   0.308   1.987  14.394  3.0646  0.4577 -1.6010
  970SOL    HW214547   0.244   1.980  14.265 -0.4453 -0.5012 -0.5068
  971SOL     OW14548   0.696   0.987  17.683 -0.0321  0.0487  0.3624
  971SOL    HW114549   0.728   1.034   0.025  0.0386  0.0860  0.3102
  971SOL    HW214550   0.655   1.051  17.625  0.5240 -0.0864 -0.1737
  972SOL     OW14551   1.607   3.271  17.568  0.2705 -0.1382  0.0657
  972SOL    HW114552   1.702   3.256  17.572  0.7379  3.0554  0.4523
  972SOL    HW214553   1.598   3.337  17.636  1.9505  0.5305 -0.3631
  973SOL     OW14554   2.795   0.595   2.441 -0.1395 -0.4698  0.2183
  973SOL    HW114555   2.793   0.624   2.533 -2.6307 -1.4016  0.4575
  973SOL    HW214556   2.880   0.555   2.458  0.1470  1.0668  2.5852
  974SOL     OW14557   1.523   1.635   8.664 -0.0565  0.1355 -0.1126
  974SOL    HW114558   1.483   1.629   8.577  1.7651 -0.7631 -0.8827
  974SOL    HW214559   1.617   1.647   8.649 -0.2076  2.2968  0.6212
  975SOL     OW14560   0.767   0.315   8.945  0.1734  0.1739 -0.2725
  975SOL    HW114561   0.733   0.402   8.922 -2.2237 -0.2639  1.6687
  975SOL    HW214562   0.787   0.287   8.855 -2.3151 -0.5820 -0.5954
  976SOL     OW14563   1.521   4.120   9.618 -0.4431 -0.5296  0.0451
  976SOL    HW114564   1.558   4.175   9.688  0.6518 -0.4896 -0.5675
  976SOL    HW214565   1.595   4.092   9.565  0.5980  2.0763  0.1180
  977SOL     OW14566   0.865   4.557   2.962  0.7635  0.5178  0.5962
  977SOL    HW114567   0.858   4.466   2.933 -0.5622  0.6823  0.4070
  977SOL    HW214568   0.771   4.572   2.956  0.9504  2.3181  1.9931
  978SOL     OW14569   1.378   4.103   1.680  0.2434  0.6401 -0.0604
  978SOL    HW114570   1.309   4.148   1.632  1.0809  4.3499  2.1797
  978SOL    HW214571   1.422   4.049   1.615 -2.9954 -0.6469 -1.2010
  979SOL     OW14572   3.202   4.483  17.421 -0.8166 -0.2533  0.4155
  979SOL    HW114573   3.261   4.558  17.415  0.4646 -1.1520  1.7598
  979SOL    HW214574   3.221   4.449  17.334  0.7373  0.7338  0.3671
  980SOL     OW14575   3.199   1.954   6.570  0.1033  0.2097  0.0691
  980SOL    HW114576   3.275   1.979   6.517  0.0402  2.5326  1.1006
  980SOL    HW214577   3.146   2.032   6.559  0.9330  0.2071 -4.1074
  981SOL     OW14578   0.137   2.269  15.646 -0.3360 -0.0946 -0.0567
  981SOL    HW114579   0.196   2.213  15.595 -1.4819 -1.8745  0.5907
  981SOL    HW214580   0.052   2.240  15.615 -0.0341 -1.9022  0.8218
  982SOL     OW14581   4.185   2.926   1.865 -0.0563  0.1170 -0.1230
  982SOL    HW114582   4.216   2.892   1.949 -1.5103 -0.9967 -0.0263
  982SOL    HW214583   4.253   2.893   1.807 -0.7849 -1.0963 -0.3009
  983SOL     OW14584   3.631   4.304   6.174 -0.3515  0.4638  0.7433
  983SOL    HW114585   3.624   4.230   6.114 -0.6879  1.3889 -0.3582
  983SOL    HW214586   3.559   4.292   6.235  2.2819  0.0579  3.7956
  984SOL     OW14587   3.308   3.502   5.286  0.5352  0.4014 -0.2047
  984SOL    HW114588   3.301   3.456   5.202 -1.4355 -2.7073  1.6651
  984SOL    HW214589   3.337   3.590   5.265  2.4534 -0.2714 -0.3663
  985SOL     OW14590   1.313   4.245   5.330 -0.3495  0.5320 -0.5166
  985SOL    HW114591   1.364   4.324   5.313 -0.1618  0.3589 -0.7563
  985SOL    HW214592   1.378   4.189   5.373 -0.7414  0.7427  0.3359
  986SOL     OW14593   4.452   3.232   4.492  0.4647 -0.1795  0.1859
  986SOL    HW114594   4.532   3.273   4.524  0.3017  0.1595  0.1551
  986SOL    HW214595   4.400   3.311   4.480 -0.1056 -0.4175  1.0902
  987SOL     OW14596   2.232   1.970   1.229 -0.3604 -0.5475 -0.0267
  987SOL    HW114597   2.240   2.045   1.287  0.7573 -0.9266  0.3199
  987SOL    HW214598   2.308   1.971   1.171 -0.5555 -0.7625 -0.2873
  988SOL     OW14599   3.427   3.704   3.974  0.2324 -0.6664  0.8221
  988SOL    HW114600   3.495   3.769   3.956  1.5028 -1.8883  1.2253
  988SOL    HW214601   3.426   3.652   3.894  0.6589 -0.5438  0.7369
  989SOL     OW14602   3.775   4.442  12.126 -0.1028 -0.2790  0.0969
  989SOL    HW114603   3.714   4.459  12.197 -0.1084 -1.8730  0.4877
  989SOL    HW214604   3.797   4.351  12.150 -0.1336 -0.1803  0.5011
  990SOL     OW14605   4.392   4.508   4.943  0.0428  0.7486  0.0734
  990SOL    HW114606   4.472   4.489   4.992 -0.0066  2.1031  0.6987
  990SOL    HW214607   4.364   4.581   4.998  2.4895  0.8648  1.1621
  991SOL     OW14608   4.081   4.622   7.198 -0.7407 -0.1972  0.8767
  991SOL    HW114609   4.055   4.635   7.107 -3.0220 -1.8811  1.2878
  991SOL    HW214610   4.138   4.698   7.209 -0.6880 -0.4123  2.0325
  992SOL     OW14611   0.362   0.597   9.233  0.1835 -0.9064  0.1038
  992SOL    HW114612   0.324   0.685   9.231 -0.6493 -1.2242  1.8559
  992SOL    HW214613   0.450   0.624   9.259 -0.4202  1.5302 -0.3244
  993SOL     OW14614   0.537   3.730   4.819  0.1779 -0.3065 -0.3975
  993SOL    HW114615   0.629   3.731   4.794  0.4949 -2.7852  0.7713
  993SOL    HW214616   0.543   3.721   4.914 -1.1712 -1.3389 -0.4210
  994SOL     OW14617   3.902   3.204   5.431  0.2909 -0.5991  0.8840
  994SOL    HW114618   3.972   3.142   5.452 -0.4078 -1.4315  0.7738
  994SOL    HW214619   3.913   3.223   5.338 -2.2456  0.6902  0.8497
  995SOL     OW14620   4.024   1.187   6.097 -0.1544  0.3432 -0.2824
  995SOL    HW114621   3.963   1.161   6.167 -0.4346  0.5284 -0.4584
  995SOL    HW214622   4.055   1.271   6.132  0.2675  0.4505 -0.9323
  996SOL     OW14623   0.599   4.442   6.495 -0.2409 -0.1264 -0.1159
  996SOL    HW114624   0.642   4.503   6.554 -1.6950  0.0994  0.7027
  996SOL    HW214625   0.660   4.441   6.421  0.4004 -1.4527  0.4242
  997SOL     OW14626   1.154   0.055  17.380  0.3489 -0.3438 -0.2675
  997SOL    HW114627   1.207   0.014  17.448  0.6525 -0.7314 -0.7292
  997SOL    HW214628   1.088   0.100  17.431  1.4266 -0.0588  0.8779
  998SOL     OW14629   4.199   1.602   2.297 -0.1108  0.5385  0.0026
  998SOL    HW114630   4.284   1.629   2.263 -0.4739  2.1479  0.3872
  998SOL    HW214631   4.165   1.684   2.332 -0.6317 -0.4556  1.8080
  999SOL     OW14632   4.638   4.295   4.795  0.3830  0.2270 -0.0658
  999SOL    HW114633   4.555   4.334   4.766 -0.6128 -1.6170  0.3030
  999SOL    HW214634   4.701   4.366   4.783  0.2512  0.0633 -1.7477
 1000SOL     OW14635   2.355   2.359  12.194  0.7130 -0.5223  0.0229
 1000SOL    HW114636   2.418   2.423  12.164  1.4573 -1.3808 -0.2380
 1000SOL    HW214637   2.395   2.314  12.269 -1.1180 -0.9727  0.7484
 1001SOL     OW14638   0.138   3.778   8.310 -0.1828 -0.2713 -0.4133
 1001SOL    HW114639   0.082   3.702   8.326 -0.1964  0.1957  1.8456
 1001SOL    HW214640   0.078   3.850   8.328  2.2402  1.5844  0.3728
 1002SOL     OW14641   0.488   1.499   6.205  0.1833 -0.1395  0.5156
 1002SOL    HW114642   0.553   1.558   6.242  0.5788 -0.8573  0.9658
 1002SOL    HW214643   0.517   1.515   6.115 -0.0267  2.8914  1.0046
 1003SOL     OW14644   3.706   1.462   6.873 -0.1502  0.2332 -0.2264
 1003SOL    HW114645   3.660   1.546   6.873  0.5292  0.5970 -1.5183
 1003SOL    HW214646   3.780   1.465   6.812 -0.4162  1.3935 -0.4995
 1004SOL     OW14647   0.991   4.607   2.125 -0.2945 -0.0668 -0.0305
 1004SOL    HW114648   0.993   4.638   2.215 -2.2430  1.1059 -0.4004
 1004SOL    HW214649   1.046   4.671   2.082  0.0001  1.1051  2.0840
 1005SOL     OW14650   1.186   0.425   4.540 -0.1244 -0.1123  0.0692
 1005SOL    HW114651   1.253   0.357   4.547 -1.0065 -0.6466  3.2242
 1005SOL    HW214652   1.104   0.378   4.551 -0.8100  1.3525  1.2225
 1006SOL     OW14653   2.913   4.680   8.261 -0.2286 -0.4427 -0.4759
 1006SOL    HW114654   2.886   0.006   8.331  0.8768 -0.0703 -0.3785
 1006SOL    HW214655   3.007   4.697   8.262 -0.1763 -0.6856 -0.9659
 1007SOL     OW14656   0.127   0.871   4.911 -0.3241 -0.0255 -0.0886
 1007SOL    HW114657   0.138   0.776   4.922  0.9181  0.4437  2.7675
 1007SOL    HW214658   0.134   0.895   5.003  3.0066  1.7098 -0.8132
 1008SOL     OW14659   2.780   4.481   6.500  0.0593 -0.2091  0.3962
 1008SOL    HW114660   2.875   4.496   6.505  0.0561  0.4567 -1.6150
 1008SOL    HW214661   2.760   4.436   6.582  1.6997  1.2267  1.5750
 1009SOL     OW14662   2.284   0.877   8.336 -0.0307  0.1074 -0.3697
 1009SOL    HW114663   2.372   0.859   8.369 -0.0299 -2.4504 -1.7369
 1009SOL    HW214664   2.299   0.954   8.281  0.7633 -0.5976 -1.1374
 1010SOL     OW14665   0.711   3.367   0.881 -0.6466 -0.7664  0.5510
 1010SOL    HW114666   0.726   3.286   0.930  0.2173 -1.0301 -0.1559
 1010SOL    HW214667   0.776   3.428   0.915  1.6667 -2.8449 -0.1434
 1011SOL     OW14668   4.303   1.311   6.503  0.1356 -0.6825 -0.6857
 1011SOL    HW114669   4.258   1.380   6.455 -1.7946  0.1693  2.3700
 1011SOL    HW214670   4.392   1.331   6.472  0.1127 -0.1556 -0.3996
 1012SOL     OW14671   4.469   3.145   1.800 -0.1736  0.1083  0.5624
 1012SOL    HW114672   4.516   3.221   1.767  1.3101 -1.0218  0.0998
 1012SOL    HW214673   4.429   3.173   1.882  0.7686  0.2001  0.9896
 1013SOL     OW14674   4.661   1.817  15.184 -0.3086 -0.3294 -0.3100
 1013SOL    HW114675   4.731   1.779  15.238  0.6585 -1.2081 -2.1699
 1013SOL    HW214676   4.699   1.802  15.098  2.3062 -2.1716  1.1464
 1014SOL     OW14677   3.914   3.130   1.244 -0.1916 -0.0290 -0.2956
 1014SOL    HW114678   4.002   3.155   1.215 -0.9474  0.4312 -2.1422
 1014SOL    HW214679   3.937   3.038   1.227  0.9214  0.5471 -1.8757
 1015SOL     OW14680   4.360   0.169   0.739 -0.2466 -0.6277 -0.1427
 1015SOL    HW114681   4.273   0.141   0.769 -1.7889  1.3311 -2.7482
 1015SOL    HW214682   4.343   0.261   0.719 -3.1817 -1.3580 -1.0734
 1016SOL     OW14683   0.030   4.008   9.036 -0.4797  0.0266 -0.4556
 1016SOL    HW114684   0.082   4.009   8.955 -2.5484  1.5064 -1.7347
 1016SOL    HW214685   4.702   4.079   9.022  0.4154  0.6638 -1.2304
 1017SOL     OW14686   3.876   2.330   1.917 -0.6336 -0.4290 -0.1745
 1017SOL    HW114687   3.948   2.268   1.924 -0.7738 -0.5273  0.4463
 1017SOL    HW214688   3.838   2.341   2.004 -0.8333 -0.7488 -0.2190
 1018SOL     OW14689   0.306   1.107   8.308 -0.6160  0.2177 -0.4201
 1018SOL    HW114690   0.281   1.015   8.299 -1.5793  0.3311  1.1834
 1018SOL    HW214691   0.338   1.112   8.398 -0.7560 -0.5429 -0.3223
 1019SOL     OW14692   0.067   3.523  14.397  0.4359 -0.5316 -0.5340
 1019SOL    HW114693   0.084   3.525  14.303  1.8132  1.7846 -0.2405
 1019SOL    HW214694   0.009   3.448  14.406  1.1874 -1.0684 -0.1675
 1020SOL     OW14695   1.722   2.881   9.413  0.3886  0.7076 -0.5559
 1020SOL    HW114696   1.720   2.843   9.326 -1.3682  0.4028 -0.3752
 1020SOL    HW214697   1.810   2.852   9.434 -0.3186 -0.7798  0.3508
 1021SOL     OW14698   1.663   3.438   4.528  0.0983 -0.2561 -0.4337
 1021SOL    HW114699   1.744   3.470   4.489  0.3675  0.6618  0.8998
 1021SOL    HW214700   1.671   3.346   4.501 -0.5256 -0.2761 -0.5419
 1022SOL     OW14701   3.466   3.974   6.525 -0.1494 -0.1088 -0.8893
 1022SOL    HW114702   3.376   4.002   6.510 -0.6572 -0.2111  2.0331
 1022SOL    HW214703   3.497   3.940   6.440  2.0396 -1.1337  0.3156
 1023SOL     OW14704   4.459   1.992   3.068  0.3877 -0.2522 -0.1255
 1023SOL    HW114705   4.490   2.065   3.121  1.5578 -1.6265  1.0600
 1023SOL    HW214706   4.542   1.949   3.049  1.7276  2.2654  0.1679
 1024SOL     OW14707   1.673   0.663   4.462  0.1090 -0.2371  0.6227
 1024SOL    HW114708   1.660   0.646   4.555 -3.0650 -1.8400 -0.1017
 1024SOL    HW214709   1.757   0.619   4.444  0.4290  0.4650  0.3903
 1025SOL     OW14710   0.176   1.189   9.493 -0.0877 -0.0865  0.1882
 1025SOL    HW114711   0.266   1.179   9.523  0.1768 -1.7717 -1.1530
 1025SOL    HW214712   0.172   1.253   9.421  0.4279 -0.1693  0.0883
 1026SOL     OW14713   1.217   0.450   4.943  0.6001  0.6471  0.0802
 1026SOL    HW114714   1.210   0.365   4.987  2.0378  0.4541 -0.0624
 1026SOL    HW214715   1.302   0.457   4.898 -0.8000 -0.8866 -2.8138
 1027SOL     OW14716   1.975   2.152   7.023  0.7854  0.6323 -0.2253
 1027SOL    HW114717   1.907   2.218   7.020  1.0389  1.0034  2.0326
 1027SOL    HW214718   2.056   2.191   6.992 -0.2576  2.5135 -0.5322
 1028SOL     OW14719   3.142   4.239   3.134  0.2442 -0.2023 -0.2134
 1028SOL    HW114720   3.218   4.211   3.185 -0.8642  1.3338  2.2435
 1028SOL    HW214721   3.171   4.187   3.059  0.7682 -0.7907  0.3956
 1029SOL     OW14722   1.302   2.874  10.267 -0.0817  0.6840  0.0173
 1029SOL    HW114723   1.243   2.878  10.342  1.3012  2.3968  1.0081
 1029SOL    HW214724   1.355   2.953  10.274  1.0899 -0.0270 -0.6645
 1030SOL     OW14725   3.525   4.533   4.005 -0.0242 -0.1075  0.1177
 1030SOL    HW114726   3.581   4.470   4.051  1.5046  2.3709  1.6949
 1030SOL    HW214727   3.530   4.493   3.919 -2.6069 -0.0810 -0.0398
 1031SOL     OW14728   0.337   3.861   5.457  0.4608 -0.0935  0.1381
 1031SOL    HW114729   0.429   3.863   5.431  1.0140 -2.1869  1.9656
 1031SOL    HW214730   0.304   3.931   5.400  1.4143  0.9025  0.8319
 1032SOL     OW14731   4.172   3.556   5.687  0.3393  0.6118  0.4500
 1032SOL    HW114732   4.097   3.605   5.653 -0.0719 -0.3083  0.0184
 1032SOL    HW214733   4.188   3.618   5.758  1.1773  0.1219  0.6883
 1033SOL     OW14734   0.142   0.408  13.274 -0.0323  0.1593  0.2781
 1033SOL    HW114735   0.169   0.343  13.339  1.4138 -1.8221 -2.3049
 1033SOL    HW214736   0.101   0.471  13.333 -0.7943  0.8306 -0.9759
 1034SOL     OW14737   4.090   0.679   1.297  0.1085  0.8147 -0.4310
 1034SOL    HW114738   4.087   0.585   1.281 -2.5428  0.9542 -0.7816
 1034SOL    HW214739   4.010   0.693   1.349 -0.6881 -0.6091 -1.2852
 1035SOL     OW14740   2.921   3.367   9.744 -0.0803  0.1823 -0.0013
 1035SOL    HW114741   2.888   3.280   9.722 -3.0616  1.4675 -0.6494
 1035SOL    HW214742   3.013   3.350   9.764  0.3266 -0.8125 -2.7103
 1036SOL     OW14743   2.522   3.668   0.956  0.0195  0.2307  0.0335
 1036SOL    HW114744   2.478   3.600   1.007 -0.6698  0.6335 -0.0201
 1036SOL    HW214745   2.508   3.746   1.010  0.7453  0.5510 -0.2369
 1037SOL     OW14746   0.772   1.393  12.426 -0.0226 -0.6394  0.5168
 1037SOL    HW114747   0.747   1.445  12.502  1.0636 -1.3972  1.3857
 1037SOL    HW214748   0.867   1.398  12.429 -0.0063 -0.0148 -0.7944
 1038SOL     OW14749   0.527   2.515   2.860  0.2254  0.3209  0.1744
 1038SOL    HW114750   0.591   2.453   2.827 -1.3642 -1.6454  0.8227
 1038SOL    HW214751   0.552   2.581   2.795  0.2934  0.6222  0.5005
 1039SOL     OW14752   3.074   1.503   5.651  0.1204 -0.3192 -0.2260
 1039SOL    HW114753   3.068   1.422   5.702  1.2165 -1.1288 -1.3857
 1039SOL    HW214754   2.986   1.512   5.612 -0.2773  1.7158  1.1493
 1040SOL     OW14755   0.100   2.261  14.478  0.6959  0.0536 -0.0622
 1040SOL    HW114756   0.181   2.269  14.427 -0.9314 -0.9269 -2.7985
 1040SOL    HW214757   0.065   2.175  14.455  0.2951  0.2503 -0.1894
 1041SOL     OW14758   1.869   0.712   3.900  0.1321  0.1342 -0.1700
 1041SOL    HW114759   1.774   0.719   3.900  0.1617  0.5141  0.8305
 1041SOL    HW214760   1.898   0.801   3.878 -2.5851  1.3563  1.2182
 1042SOL     OW14761   1.292   3.663   8.611  0.5654  0.6000 -0.5212
 1042SOL    HW114762   1.226   3.731   8.595 -0.7495 -0.3722  0.7364
 1042SOL    HW214763   1.367   3.717   8.636  1.2094 -0.0513 -1.0602
 1043SOL     OW14764   4.165   1.485   4.743 -0.2235 -0.0774  0.0002
 1043SOL    HW114765   4.133   1.490   4.834  1.7848 -1.3747  0.7680
 1043SOL    HW214766   4.176   1.578   4.726 -1.1615 -0.1286 -0.9007
 1044SOL     OW14767   3.743   4.664   2.896 -0.1194  0.5109  0.1743
 1044SOL    HW114768   3.830   4.704   2.898 -0.7290  1.8385  0.4912
 1044SOL    HW214769   3.699   4.690   2.977 -2.7866 -1.6144 -0.5749
 1045SOL     OW14770   0.758   2.934  11.388 -0.1807  0.6036 -0.0265
 1045SOL    HW114771   0.692   2.999  11.363  1.2145  2.8592  2.1728
 1045SOL    HW214772   0.701   2.857  11.399 -0.0300  0.4193 -0.5316
 1046SOL     OW14773   1.665   1.319   1.865  0.4473  0.0605  0.0479
 1046SOL    HW114774   1.694   1.342   1.776  1.8798  0.5853  0.6660
 1046SOL    HW214775   1.575   1.302   1.836 -0.0170  0.4764  1.2884
 1047SOL     OW14776   0.024   2.679   7.732 -0.0648 -0.5126  0.3669
 1047SOL    HW114777   0.064   2.625   7.663 -0.9066 -0.1879 -0.3719
 1047SOL    HW214778   4.709   2.617   7.786 -0.8563 -0.0210  0.2103
 1048SOL     OW14779   1.328   1.160  13.544 -0.6450  0.0252 -0.0687
 1048SOL    HW114780   1.240   1.123  13.554  0.4530 -2.1729  1.2165
 1048SOL    HW214781   1.377   1.081  13.522  0.1085  0.2354  0.9196
 1049SOL     OW14782   3.709   3.836   5.750  0.1769 -0.3903  0.2191
 1049SOL    HW114783   3.727   3.923   5.716  1.5532 -0.5784  0.4835
 1049SOL    HW214784   3.687   3.789   5.670  3.2274 -3.0185  0.9324
 1050SOL     OW14785   4.450   3.225  15.541  0.4209  0.6067 -0.1628
 1050SOL    HW114786   4.460   3.172  15.620  2.3786  1.1153 -0.0875
 1050SOL    HW214787   4.503   3.168  15.485  1.9157  2.0293 -0.1956
 1051SOL     OW14788   3.167   3.058   3.002 -0.5350  0.0956 -0.4743
 1051SOL    HW114789   3.170   3.053   2.906 -1.3513  1.4421 -0.5685
 1051SOL    HW214790   3.212   2.978   3.030  1.1423  0.1789 -2.9548
 1052SOL     OW14791   0.707   3.972  12.954  0.5131 -1.0567  0.9249
 1052SOL    HW114792   0.786   3.959  12.902 -0.5789 -1.3391 -0.6894
 1052SOL    HW214793   0.705   3.886  12.997 -0.2869 -0.6176  1.7601
 1053SOL     OW14794   3.108   3.430   5.484 -0.1427  0.3065  0.8895
 1053SOL    HW114795   3.025   3.421   5.438  1.5693 -1.4958 -1.8129
 1053SOL    HW214796   3.154   3.460   5.406 -1.7509  2.3751  0.7300
 1054SOL     OW14797   3.401   1.575  17.109 -0.2320  0.0257  0.3974
 1054SOL    HW114798   3.344   1.648  17.133 -0.0315 -0.4858  2.3915
 1054SOL    HW214799   3.344   1.509  17.148  1.2568 -2.0032 -0.8435
 1055SOL     OW14800   3.356   1.677   3.425 -0.2815 -1.3411  0.1863
 1055SOL    HW114801   3.340   1.598   3.476  1.4190 -1.5782  0.3499
 1055SOL    HW214802   3.264   1.696   3.408  0.5491  0.1676 -2.6844
 1056SOL     OW14803   3.327   0.895   6.415 -0.4730 -0.6859  0.1479
 1056SOL    HW114804   3.357   0.973   6.370 -1.5436  0.2979  1.1337
 1056SOL    HW214805   3.380   0.828   6.373  3.4394  1.4212  1.7559
 1057SOL     OW14806   3.510   4.374   2.571 -0.4499  0.0498 -0.3863
 1057SOL    HW114807   3.456   4.334   2.504 -0.6220 -2.8517  1.4999
 1057SOL    HW214808   3.536   4.303   2.630 -2.3334 -0.1230  0.2511
 1058SOL     OW14809   0.356   3.341   9.494  0.2099 -0.1807 -0.1100
 1058SOL    HW114810   0.408   3.401   9.547 -0.9085  0.9397 -0.3127
 1058SOL    HW214811   0.427   3.311   9.436  0.1667 -2.5212  1.0622
 1059SOL     OW14812   3.951   0.748   8.135 -0.1736 -0.4742 -0.6372
 1059SOL    HW114813   3.856   0.753   8.137 -0.2136 -2.4524  2.3963
 1059SOL    HW214814   3.972   0.675   8.078 -0.0917 -2.1979  1.5915
 1060SOL     OW14815   1.089   4.180  11.974 -0.1788 -0.4732  0.5194
 1060SOL    HW114816   1.068   4.172  12.067 -2.0801  0.1401  0.1419
 1060SOL    HW214817   1.112   4.273  11.973  2.7222 -1.1628  2.2086
 1061SOL     OW14818   4.272   2.912   5.195 -0.0123 -0.5211 -0.2513
 1061SOL    HW114819   4.268   3.007   5.190  3.1464 -0.4600 -1.5807
 1061SOL    HW214820   4.232   2.884   5.113  0.4387 -0.1035 -0.6134
 1062SOL     OW14821   4.071   1.769   2.483 -0.1517 -0.2065  0.1976
 1062SOL    HW114822   4.117   1.843   2.523 -2.9156  0.9462  1.3037
 1062SOL    HW214823   3.979   1.792   2.500 -0.1467 -1.0830  1.3927
 1063SOL     OW14824   0.452   1.675   8.979 -0.1389 -0.6628 -0.0455
 1063SOL    HW114825   0.513   1.602   8.969  0.3230 -0.1813 -0.7076
 1063SOL    HW214826   0.427   1.688   8.888  2.8862 -0.3841 -0.8320
 1064SOL     OW14827   2.842   0.243   4.229 -0.5688 -0.2360  0.1310
 1064SOL    HW114828   2.856   0.240   4.134  0.9248 -0.7975  0.3696
 1064SOL    HW214829   2.928   0.225   4.267 -0.5313  0.2332  0.2715
 1065SOL     OW14830   3.890   1.673   0.550 -0.2512 -0.2221 -0.4554
 1065SOL    HW114831   3.900   1.607   0.619 -1.1440  1.4382  1.2779
 1065SOL    HW214832   3.794   1.672   0.558 -0.2289  0.6370 -0.0594
 1066SOL     OW14833   4.640   3.541   8.991 -0.0336 -0.3602 -0.7106
 1066SOL    HW114834   4.552   3.525   9.026 -0.5214 -0.3935 -1.9718
 1066SOL    HW214835   4.673   3.453   8.973 -0.0738 -0.5432  0.0816
 1067SOL     OW14836   3.052   1.652  10.258 -0.6385  0.6236  0.1691
 1067SOL    HW114837   2.998   1.579  10.228 -1.4763  0.8923  1.0069
 1067SOL    HW214838   3.071   1.615  10.344 -0.7509 -0.7760 -0.4040
 1068SOL     OW14839   0.018   2.429   3.375  0.2993  0.1402 -0.0570
 1068SOL    HW114840   4.723   2.349   3.332 -1.8464  0.9937 -0.2461
 1068SOL    HW214841   0.099   2.398   3.414 -1.6424 -2.3479  2.0391
 1069SOL     OW14842   3.924   2.969   6.686  0.4629  0.1940  0.4261
 1069SOL    HW114843   3.995   3.034   6.690  0.6289  0.1457 -1.7473
 1069SOL    HW214844   3.975   2.905   6.636  0.4909 -0.5862  1.4502
 1070SOL     OW14845   3.788   4.552   5.312 -0.2334  0.4929 -0.7966
 1070SOL    HW114846   3.874   4.544   5.270  0.0112  0.4547 -0.2880
 1070SOL    HW214847   3.814   4.617   5.377  0.8606 -1.0561  0.2857
 1071SOL     OW14848   1.945   1.929   4.977  1.0394  0.2151 -1.0462
 1071SOL    HW114849   2.027   1.880   4.977  0.4609 -0.7133  2.4237
 1071SOL    HW214850   1.882   1.857   4.985 -0.3587  1.6976  1.2101
 1072SOL     OW14851   2.157   3.344   6.653  0.1152 -0.2977  0.3173
 1072SOL    HW114852   2.157   3.439   6.665  2.4041 -0.3049  0.3636
 1072SOL    HW214853   2.229   3.321   6.594 -0.7646 -0.3447 -0.7377
 1073SOL     OW14854   3.865   0.389   7.624  0.4704 -0.7333 -0.3005
 1073SOL    HW114855   3.800   0.390   7.694  0.2136  1.6826 -0.5623
 1073SOL    HW214856   3.920   0.466   7.638 -1.7718  0.5274  1.4564
 1074SOL     OW14857   2.580   0.439   2.640  0.2926 -0.5902 -0.0557
 1074SOL    HW114858   2.627   0.489   2.706  0.5570 -0.1393 -0.5886
 1074SOL    HW214859   2.650   0.388   2.598 -0.2035 -1.1631 -0.1861
 1075SOL     OW14860   3.563   1.227  13.753  0.1459  0.0242 -0.4364
 1075SOL    HW114861   3.544   1.261  13.665  1.6339  2.6610  0.2650
 1075SOL    HW214862   3.508   1.149  13.752  0.8931 -0.4649 -2.3653
 1076SOL     OW14863   4.066   1.161  16.017  0.0790 -0.2793 -0.0951
 1076SOL    HW114864   4.093   1.152  15.926  0.1139  1.0873 -0.2260
 1076SOL    HW214865   4.076   1.070  16.046  0.0901  0.3906  2.0117
 1077SOL     OW14866   2.525   2.218   0.922 -0.5636 -0.2308  0.1578
 1077SOL    HW114867   2.450   2.256   0.877  0.2026 -0.8097 -1.6148
 1077SOL    HW214868   2.546   2.153   0.855  0.7634  1.2868 -0.9071
 1078SOL     OW14869   1.074   0.531   6.462  0.0572 -0.3926  0.0651
 1078SOL    HW114870   1.052   0.507   6.372  1.2405  0.6647 -0.4983
 1078SOL    HW214871   1.167   0.548   6.446 -0.2785 -0.7068 -2.1970
 1079SOL     OW14872   2.721   3.328   5.084  0.2459  0.3250 -0.3552
 1079SOL    HW114873   2.655   3.397   5.070  0.0679  0.2536  0.1148
 1079SOL    HW214874   2.677   3.267   5.144 -0.5016  2.8414  1.7105
 1080SOL     OW14875   2.173   0.112   3.759 -0.6453 -0.1450  0.6295
 1080SOL    HW114876   2.110   0.043   3.781 -1.6125  0.2690 -0.8377
 1080SOL    HW214877   2.232   0.086   3.830 -0.1560  0.0130  0.2735
 1081SOL     OW14878   1.383   2.155   5.821 -0.3168  0.9866  0.4313
 1081SOL    HW114879   1.358   2.154   5.914 -0.2799 -0.8507  0.4130
 1081SOL    HW214880   1.413   2.067   5.801 -0.4269  0.8836  0.7139
 1082SOL     OW14881   4.713   4.505   0.896  0.1363  0.3851 -0.7248
 1082SOL    HW114882   4.623   4.532   0.881  0.1184  0.8392  0.2105
 1082SOL    HW214883   4.711   4.414   0.866  2.3356  0.4549 -1.1056
 1083SOL     OW14884   3.371   1.545   1.470 -0.0541 -0.1659 -0.6128
 1083SOL    HW114885   3.411   1.458   1.473 -3.3634 -1.7428 -2.3681
 1083SOL    HW214886   3.436   1.602   1.510 -2.4183  2.3976 -0.4361
 1084SOL     OW14887   3.592   1.667   3.272 -1.0522 -0.4498 -0.4299
 1084SOL    HW114888   3.509   1.687   3.315 -0.6659  0.2863 -0.0252
 1084SOL    HW214889   3.655   1.673   3.344 -0.0289  1.2297 -1.4783
 1085SOL     OW14890   0.601   0.705   9.203  0.3716 -0.1899  0.4714
 1085SOL    HW114891   0.684   0.662   9.182  0.5090  0.5932 -0.6029
 1085SOL    HW214892   0.620   0.777   9.263  1.6041 -1.0984  1.1597
 1086SOL     OW14893   1.713   0.323   9.255  0.5961 -0.0588 -0.0032
 1086SOL    HW114894   1.803   0.307   9.284  0.6169  0.7650  0.3710
 1086SOL    HW214895   1.728   0.385   9.184  0.2296  2.7498  2.4171
 1087SOL     OW14896   3.670   2.516   7.334  0.2628  0.4680  0.0992
 1087SOL    HW114897   3.619   2.597   7.331 -1.6602 -0.7317  0.3317
 1087SOL    HW214898   3.600   2.452   7.320  2.0814 -2.1275  2.9377
 1088SOL     OW14899   0.472   3.830  11.167 -0.1363  0.2113  0.4361
 1088SOL    HW114900   0.455   3.787  11.251  0.6250  0.5249  0.7556
 1088SOL    HW214901   0.388   3.870  11.145  0.2004  1.0485  0.6664
 1089SOL     OW14902   0.284   1.083   1.912  0.9984  0.0180 -0.0330
 1089SOL    HW114903   0.222   1.126   1.970 -0.4343 -1.0625 -0.7645
 1089SOL    HW214904   0.280   0.991   1.939  0.9706 -0.1698 -0.6817
 1090SOL     OW14905   4.534   4.619   8.765  0.1607  0.0132  0.1541
 1090SOL    HW114906   4.575   4.540   8.801  0.4729  0.6056  1.1090
 1090SOL    HW214907   4.441   4.600   8.779  0.8778 -2.2615  1.8993
 1091SOL     OW14908   2.130   4.305  14.728 -0.3864  0.6259  0.4602
 1091SOL    HW114909   2.065   4.308  14.658  1.2258  1.3929 -1.0115
 1091SOL    HW214910   2.135   4.210  14.744 -1.9495  0.6334  0.9644
 1092SOL     OW14911   2.062   4.086   6.811  0.0516  0.3524 -0.1363
 1092SOL    HW114912   2.023   4.168   6.779 -2.4635 -0.0248  1.9511
 1092SOL    HW214913   2.147   4.115   6.844 -0.1943  0.9065  0.0257
 1093SOL     OW14914   1.482   4.214   5.888  0.1604  0.1449 -0.4673
 1093SOL    HW114915   1.446   4.267   5.960 -0.4415  2.4684 -2.4996
 1093SOL    HW214916   1.514   4.281   5.828  1.3470  1.5716  1.7477
 1094SOL     OW14917   0.253   2.929   0.320 -0.0559  0.0676 -0.0233
 1094SOL    HW114918   0.171   2.883   0.340  1.0324 -1.4810  0.8354
 1094SOL    HW214919   0.283   2.940   0.411  1.4933 -2.7639 -0.1887
 1095SOL     OW14920   3.081   0.581   9.788  0.4344  0.2564  0.4530
 1095SOL    HW114921   3.168   0.610   9.760  1.0498  1.3363  3.4320
 1095SOL    HW214922   3.091   0.486   9.792 -0.8597  0.0470 -1.5369
 1096SOL     OW14923   2.981   3.367  10.908  0.4440 -0.4905  0.9715
 1096SOL    HW114924   2.999   3.305  10.979 -1.3223 -1.0657  0.9185
 1096SOL    HW214925   2.930   3.301  10.861  1.0782 -0.6221  0.4645
 1097SOL     OW14926   4.232   2.531  11.943  0.3233 -0.5108 -0.1121
 1097SOL    HW114927   4.208   2.485  12.023  1.9089 -1.0510  0.0544
 1097SOL    HW214928   4.327   2.529  11.944  0.3400 -0.1134 -0.9426
 1098SOL     OW14929   4.683   1.820  12.114  0.5201 -0.4066  0.0079
 1098SOL    HW114930   4.617   1.786  12.174  0.6855  0.2520  0.5582
 1098SOL    HW214931   0.025   1.799  12.167 -1.0628 -0.4842  2.2433
 1099SOL     OW14932   0.150   4.341   5.554 -0.1952 -0.3500  0.8046
 1099SOL    HW114933   0.204   4.389   5.616  0.8711  0.0342 -0.4331
 1099SOL    HW214934   0.214   4.308   5.492 -1.0759  1.3564 -1.0488
 1100SOL     OW14935   1.263   4.259   3.553  0.2606 -0.2411 -0.0657
 1100SOL    HW114936   1.334   4.198   3.574  0.8866 -0.5896 -3.1431
 1100SOL    HW214937   1.285   4.295   3.467 -1.2863 -2.3612 -1.3237
 1101SOL     OW14938   1.339   3.894   2.663 -0.3681 -0.0983  0.2285
 1101SOL    HW114939   1.336   3.973   2.609  0.5271 -0.3726 -0.2107
 1101SOL    HW214940   1.253   3.858   2.641 -1.2482  1.7194  0.6762
 1102SOL     OW14941   4.222   1.301  16.189  0.0100  0.7858  0.2811
 1102SOL    HW114942   4.165   1.242  16.141 -1.9575  2.6785  0.2910
 1102SOL    HW214943   4.214   1.377  16.131  0.8984  0.2062 -0.6065
 1103SOL     OW14944   4.543   3.973   2.820  0.0751 -0.5063  0.3781
 1103SOL    HW114945   4.563   3.931   2.904  1.9732  1.1988  0.7746
 1103SOL    HW214946   4.625   4.000   2.779  0.0338  0.0075  0.6314
 1104SOL     OW14947   0.256   2.659   9.770 -0.2932 -0.1319  0.1629
 1104SOL    HW114948   0.210   2.679   9.689 -0.4775 -0.0671  0.2824
 1104SOL    HW214949   0.313   2.586   9.744 -0.8103 -0.6294  0.4112
 1105SOL     OW14950   3.904   4.086   4.423 -0.4765 -0.2878  0.2765
 1105SOL    HW114951   3.969   4.018   4.436 -2.4043 -1.9631  1.1458
 1105SOL    HW214952   3.951   4.159   4.383 -2.0829 -0.2542 -1.5913
 1106SOL     OW14953   0.961   2.504  10.953  0.3335 -0.4548 -0.0800
 1106SOL    HW114954   0.973   2.452  11.033 -1.1025 -1.1161 -0.2989
 1106SOL    HW214955   0.936   2.587  10.994  0.8903 -0.0350 -0.6145
 1107SOL     OW14956   1.953   0.642   2.294  0.0943 -0.2171 -0.5960
 1107SOL    HW114957   1.965   0.668   2.203 -1.5993  1.8566 -0.2310
 1107SOL    HW214958   1.859   0.655   2.305  0.1442 -0.8824  0.6129
 1108SOL     OW14959   2.512   3.480   0.673  0.9470 -0.6345  0.5811
 1108SOL    HW114960   2.524   3.412   0.740 -0.4992  0.2518  1.7409
 1108SOL    HW214961   2.497   3.554   0.731  2.3703  1.2609 -1.4846
 1109SOL     OW14962   3.544   1.930   9.414  0.3424  0.1949  0.8475
 1109SOL    HW114963   3.610   1.889   9.470  0.5204  0.0979  0.5650
 1109SOL    HW214964   3.531   1.862   9.348 -1.3277  0.6674  0.6867
 1110SOL     OW14965   4.492   4.160   1.056 -0.0263  0.1218 -0.1999
 1110SOL    HW114966   4.412   4.112   1.035 -0.6590  0.6428  1.0020
 1110SOL    HW214967   4.560   4.126   0.997  1.9324  1.0407  1.5568
 1111SOL     OW14968   1.573   3.821   8.396 -0.4217  0.0946  0.4779
 1111SOL    HW114969   1.586   3.913   8.369  0.5667 -0.1787 -0.0111
 1111SOL    HW214970   1.539   3.839   8.483  0.2036 -1.6960  1.0817
 1112SOL     OW14971   1.003   1.106   8.804  0.5760 -0.2674  0.1033
 1112SOL    HW114972   1.089   1.068   8.785  0.5596 -0.6358  0.7508
 1112SOL    HW214973   0.974   1.156   8.728  2.7951 -1.1341 -1.3224
 1113SOL     OW14974   4.079   0.555   5.312  0.2207  0.3959  0.3487
 1113SOL    HW114975   4.022   0.514   5.247  0.3156  0.7471  0.0395
 1113SOL    HW214976   4.054   0.647   5.306  0.2255  0.2856 -1.3685
 1114SOL     OW14977   0.909   1.076  12.373 -0.4880  0.4443  0.2465
 1114SOL    HW114978   0.846   1.144  12.393  2.4452  3.1420  0.3889
 1114SOL    HW214979   0.869   1.052  12.290 -0.3675  0.8012  0.0847
 1115SOL     OW14980   2.721   1.976   2.951 -0.2321  0.0587 -0.0706
 1115SOL    HW114981   2.637   2.022   2.945 -0.3472  0.0413  1.3772
 1115SOL    HW214982   2.730   1.946   2.861 -0.2546 -0.7702  0.2061
 1116SOL     OW14983   2.272   2.222   2.285 -0.2947  0.1456 -0.1051
 1116SOL    HW114984   2.316   2.269   2.215  0.3204 -1.0938 -0.5353
 1116SOL    HW214985   2.267   2.286   2.356  1.9570  3.5391 -3.0196
 1117SOL     OW14986   1.347   3.701   7.557  0.1678  0.0930  0.1802
 1117SOL    HW114987   1.280   3.640   7.528 -0.9363  1.2000  0.4413
 1117SOL    HW214988   1.323   3.713   7.648 -1.2745 -1.7255  0.0372
 1118SOL     OW14989   3.944   4.577   3.476 -1.1815 -0.3146  0.1465
 1118SOL    HW114990   3.940   4.502   3.535  1.3480 -0.9121 -0.4610
 1118SOL    HW214991   3.905   4.643   3.534  0.9528  1.8220 -0.8201
 1119SOL     OW14992   3.411   1.343  15.611  0.5035 -0.1570 -0.5920
 1119SOL    HW114993   3.408   1.432  15.646 -2.5556 -0.2198 -0.6826
 1119SOL    HW214994   3.502   1.316  15.615 -0.4491 -3.0803  1.3120
 1120SOL     OW14995   4.270   4.206   5.227 -0.1228 -0.1374 -0.0371
 1120SOL    HW114996   4.301   4.116   5.214  0.8783 -0.1174  2.3394
 1120SOL    HW214997   4.310   4.226   5.311  0.2378 -0.9427 -0.0222
 1121SOL     OW14998   2.550   3.447   4.188 -0.6621 -0.0011 -0.3154
 1121SOL    HW114999   2.559   3.515   4.255 -1.6245  2.0490 -2.2593
 1121SOL    HW215000   2.590   3.495   4.115 -0.2086 -1.4113 -0.9826
 1122SOL     OW15001   1.309   3.715  16.038  0.3821  0.6599  0.3725
 1122SOL    HW115002   1.223   3.686  16.008 -0.1922 -1.6670  4.1816
 1122SOL    HW215003   1.353   3.633  16.060  0.4777  1.2259  2.2668
 1123SOL     OW15004   0.082   2.561  13.850 -0.2749 -0.1124 -0.0242
 1123SOL    HW115005   0.061   2.483  13.901 -2.3676  0.7754  0.4543
 1123SOL    HW215006   0.163   2.529  13.809 -0.4235 -0.9891  0.3549
 1124SOL     OW15007   3.742   2.729   3.800 -0.3869 -0.3530 -0.1795
 1124SOL    HW115008   3.780   2.650   3.838  0.8639 -1.1981 -3.1339
 1124SOL    HW215009   3.693   2.774   3.868  0.6700 -0.5394  0.7025
 1125SOL     OW15010   0.613   3.635   3.287 -0.0592 -0.0740 -0.3227
 1125SOL    HW115011   0.701   3.661   3.316 -0.2775 -0.2971  0.5401
 1125SOL    HW215012   0.562   3.619   3.366  0.9967  0.5428  0.4745
 1126SOL     OW15013   3.798   2.483  12.659  0.1460 -0.0749 -0.4874
 1126SOL    HW115014   3.849   2.449  12.585  1.3644 -0.8204  0.6893
 1126SOL    HW215015   3.857   2.546  12.700 -1.8016  0.0804  2.0422
 1127SOL     OW15016   1.582   1.303   7.089  0.5338  0.1674 -0.2101
 1127SOL    HW115017   1.592   1.208   7.086  0.7006  0.1930 -0.4907
 1127SOL    HW215018   1.647   1.335   7.026  1.5818  1.2315  1.4000
 1128SOL     OW15019   4.548   0.979   7.692  0.1894  0.2510  0.1837
 1128SOL    HW115020   4.585   0.893   7.673 -0.3972  0.3646 -1.4643
 1128SOL    HW215021   4.522   1.006   7.604 -0.7058 -1.1586  0.0093
 1129SOL     OW15022   3.395   1.469   2.799 -1.0670 -0.4385  0.1730
 1129SOL    HW115023   3.441   1.394   2.760  0.5637  1.4356 -1.5194
 1129SOL    HW215024   3.386   1.442   2.890 -0.0655 -2.5410 -0.3374
 1130SOL     OW15025   2.185   0.124   0.664  0.1018  0.3513  0.4635
 1130SOL    HW115026   2.262   0.145   0.612  0.4490  1.7876  1.5782
 1130SOL    HW215027   2.198   0.032   0.688 -2.1074  0.2880  1.4386
 1131SOL     OW15028   3.669   3.120   7.101  0.0507 -0.3913 -0.7800
 1131SOL    HW115029   3.684   3.033   7.062 -0.4545 -1.0311  0.4500
 1131SOL    HW215030   3.714   3.113   7.185  0.9374  0.5392 -1.1887
 1132SOL     OW15031   0.603   3.403   3.622 -0.1704  0.3631  1.1007
 1132SOL    HW115032   0.618   3.308   3.624  1.8861  0.6962  1.2666
 1132SOL    HW215033   0.603   3.426   3.715  0.4139  0.5912  1.0436
 1133SOL     OW15034   1.125   1.024   4.288  0.1560  0.2122 -0.4455
 1133SOL    HW115035   1.045   0.975   4.304  0.7876 -0.8655 -0.5335
 1133SOL    HW215036   1.136   1.062   4.375  1.4001  0.1199 -0.5525
 1134SOL     OW15037   1.975   0.164   0.869  0.0173 -0.4826  0.9332
 1134SOL    HW115038   1.998   0.124   0.785 -0.4906  1.5669 -0.1885
 1134SOL    HW215039   2.023   0.246   0.862  1.7502 -1.6000 -0.2287
 1135SOL     OW15040   3.404   3.182   4.687  0.8142  0.2641 -0.4131
 1135SOL    HW115041   3.375   3.244   4.619  1.2068 -1.5507 -2.2326
 1135SOL    HW215042   3.399   3.099   4.640 -1.3694 -0.7211  1.5271
 1136SOL     OW15043   3.291   2.171   9.969  0.4040 -0.4038  0.0492
 1136SOL    HW115044   3.240   2.129   9.899  1.4754 -1.2266 -0.2412
 1136SOL    HW215045   3.265   2.260   9.947 -0.7900 -0.7728 -0.0497
 1137SOL     OW15046   1.581   0.310  12.332 -0.9012 -1.0755  0.7594
 1137SOL    HW115047   1.599   0.218  12.354 -3.1399 -1.6471  0.2302
 1137SOL    HW215048   1.498   0.302  12.286  0.5934 -0.5099 -2.0605
 1138SOL     OW15049   4.338   0.449   2.874 -0.1415 -0.8388  0.0522
 1138SOL    HW115050   4.329   0.378   2.938 -1.8067 -0.7415 -0.0607
 1138SOL    HW215051   4.248   0.479   2.861 -0.1275 -1.5617 -1.6734
 1139SOL     OW15052   2.127   2.069   7.853 -0.2847  0.2747 -0.0870
 1139SOL    HW115053   2.107   2.161   7.869  1.5404  0.9660 -1.8157
 1139SOL    HW215054   2.194   2.083   7.786 -0.0579 -1.6623 -0.2860
 1140SOL     OW15055   4.134   3.798   5.800 -0.2604  0.2250 -0.5184
 1140SOL    HW115056   4.065   3.858   5.828 -0.1906 -1.1099  2.5384
 1140SOL    HW215057   4.138   3.739   5.876 -0.8631  0.1161 -0.5687
 1141SOL     OW15058   1.840   1.688   2.780 -0.8497  0.2662  0.0284
 1141SOL    HW115059   1.778   1.724   2.843  0.3120  0.5309  1.0120
 1141SOL    HW215060   1.778   1.684   2.707 -0.7009 -2.6207  0.0447
 1142SOL     OW15061   1.756   0.174   6.358  0.0954  0.2986 -0.1414
 1142SOL    HW115062   1.807   0.202   6.282  0.1963 -0.5656 -0.4004
 1142SOL    HW215063   1.825   0.132   6.410 -0.2912 -1.3816 -0.9956
 1143SOL     OW15064   2.034   4.337  17.531 -0.3822  0.2278  0.1107
 1143SOL    HW115065   2.008   4.300  17.615  0.9126 -0.0258  0.3868
 1143SOL    HW215066   2.060   4.425  17.557 -0.0294  0.3964 -0.7880
 1144SOL     OW15067   0.906   3.505  13.791  0.2040  0.5134 -0.1017
 1144SOL    HW115068   0.936   3.496  13.882 -0.2931 -1.6944 -0.1678
 1144SOL    HW215069   0.872   3.594  13.783 -0.4460  0.2174 -0.6612
 1145SOL     OW15070   2.309   3.307   5.481 -0.1780 -0.7130 -0.2857
 1145SOL    HW115071   2.379   3.328   5.543 -1.6118  0.4865  0.9149
 1145SOL    HW215072   2.360   3.290   5.402  0.6713 -2.4263  0.6215
 1146SOL     OW15073   1.102   3.284   8.087  0.0028 -0.4040 -0.0716
 1146SOL    HW115074   1.022   3.293   8.035  0.0917  2.5513  0.2929
 1146SOL    HW215075   1.103   3.360   8.146 -1.4442 -0.9130  0.6267
 1147SOL     OW15076   2.066   4.100   4.664 -0.4496  0.4915  0.3778
 1147SOL    HW115077   2.126   4.121   4.736  1.5866 -2.3184 -0.4986
 1147SOL    HW215078   2.120   4.134   4.593  1.8775  0.9456  2.3643
 1148SOL     OW15079   1.764   3.627   7.639  0.4268 -0.3979  0.6323
 1148SOL    HW115080   1.795   3.554   7.691  1.3473  0.5135  1.3476
 1148SOL    HW215081   1.692   3.597   7.583 -0.4020  3.5881 -0.4553
 1149SOL     OW15082   1.244   1.565  10.453 -0.3284  0.5585  0.0829
 1149SOL    HW115083   1.259   1.643  10.400 -0.9611 -0.2939 -1.3639
 1149SOL    HW215084   1.242   1.606  10.540 -1.2775  1.5427 -0.4002
 1150SOL     OW15085   3.280   2.353   5.770 -0.1050  0.4350  0.8209
 1150SOL    HW115086   3.310   2.276   5.721  0.6390  1.0781  0.2503
 1150SOL    HW215087   3.253   2.398   5.690 -0.7735  1.2749  1.5220
 1151SOL     OW15088   2.888   4.420  16.771 -0.0776  0.1453  1.0004
 1151SOL    HW115089   2.923   4.344  16.726  0.0469  0.8777 -0.1550
 1151SOL    HW215090   2.843   4.467  16.701  2.2972 -2.2388 -2.0757
 1152SOL     OW15091   4.462   4.004   1.818  0.4231 -0.4429  0.1789
 1152SOL    HW115092   4.382   4.052   1.840  0.1707 -0.7832  0.0034
 1152SOL    HW215093   4.522   4.069   1.855  2.2393 -1.3863 -1.1300
 1153SOL     OW15094   4.593   4.362   4.007 -0.1259  0.0112  0.2709
 1153SOL    HW115095   4.659   4.328   4.067 -1.5744 -0.4533  1.6156
 1153SOL    HW215096   4.631   4.366   3.919  0.1051  0.5400  0.3948
 1154SOL     OW15097   4.543   2.303  13.803 -0.1444  0.3145  0.0895
 1154SOL    HW115098   4.573   2.212  13.806  2.1327  1.1003  1.0669
 1154SOL    HW215099   4.558   2.332  13.893 -0.4636  1.7958 -0.3395
 1155SOL     OW15100   0.184   2.950  14.904 -0.4514 -0.0248  0.2716
 1155SOL    HW115101   0.178   2.855  14.894 -0.4121 -0.3931  3.8149
 1155SOL    HW215102   0.124   2.947  14.979 -0.7601 -1.2344 -0.0131
 1156SOL     OW15103   2.074   3.559   4.967 -0.2717  0.3044  0.2696
 1156SOL    HW115104   2.059   3.618   4.892 -0.7075 -0.8742 -0.5620
 1156SOL    HW215105   2.154   3.600   5.000  0.3713  1.3701 -2.5297
 1157SOL     OW15106   1.149   4.310   2.028 -0.2072  0.2196  0.3624
 1157SOL    HW115107   1.222   4.346   1.976 -1.1578 -1.2481 -2.0080
 1157SOL    HW215108   1.141   4.225   1.984  0.3876  0.0119  0.6459
 1158SOL     OW15109   1.487   0.263   4.600 -0.2196 -0.9455  0.2116
 1158SOL    HW115110   1.517   0.174   4.618  0.3411 -0.7923  0.0348
 1158SOL    HW215111   1.547   0.286   4.529 -1.7528  0.8085 -0.5076
 1159SOL     OW15112   1.982   4.530   5.634 -0.8007 -0.1032  0.5428
 1159SOL    HW115113   1.983   4.588   5.711 -1.6239  0.0700  0.4264
 1159SOL    HW215114   1.893   4.548   5.603 -0.5243 -1.5688 -1.1038
 1160SOL     OW15115   4.584   3.049   4.371  0.1527 -0.3195 -0.1973
 1160SOL    HW115116   4.520   3.106   4.413  1.0861  0.3391  0.3356
 1160SOL    HW215117   4.599   3.002   4.453 -3.4159 -1.2481 -0.0937
 1161SOL     OW15118   3.183   3.328   3.600  0.3206 -0.2558 -0.7717
 1161SOL    HW115119   3.145   3.241   3.614 -1.5899  0.7844  0.4219
 1161SOL    HW215120   3.179   3.351   3.693  0.8778  2.7323 -1.4976
 1162SOL     OW15121   2.538   3.222   6.748 -0.3159 -0.3573 -0.0801
 1162SOL    HW115122   2.555   3.181   6.833  0.6975 -0.0747 -0.1407
 1162SOL    HW215123   2.593   3.299   6.761  0.8194 -1.0759 -0.5805
 1163SOL     OW15124   2.153   2.594   5.680 -0.3194 -0.8052 -0.1863
 1163SOL    HW115125   2.076   2.541   5.659 -2.3870  1.5066  1.5234
 1163SOL    HW215126   2.169   2.659   5.611 -1.0557 -0.4053  0.0206
 1164SOL     OW15127   1.192   4.193  15.241 -0.1959  0.2624 -0.0460
 1164SOL    HW115128   1.172   4.202  15.147  1.5659  2.5884 -0.1875
 1164SOL    HW215129   1.229   4.105  15.249  0.2650  0.5197  0.6201
 1165SOL     OW15130   0.634   3.644   1.565  0.1798  0.8787 -0.0115
 1165SOL    HW115131   0.578   3.700   1.512  0.6328  1.1277 -0.2251
 1165SOL    HW215132   0.565   3.619   1.627  0.7284  1.2425  0.7572
 1166SOL     OW15133   0.348   0.024   1.163 -0.2616 -0.1858 -0.1167
 1166SOL    HW115134   0.322   4.728   1.076  4.2239 -1.3641 -1.0667
 1166SOL    HW215135   0.271   0.014   1.219  1.3970  0.4711  2.3039
 1167SOL     OW15136   4.229   2.946  11.706 -1.4072 -0.0098 -0.3632
 1167SOL    HW115137   4.205   2.992  11.787  0.0656  2.3776 -1.2682
 1167SOL    HW215138   4.238   3.011  11.636 -0.7945  0.8966  0.5606
 1168SOL     OW15139   2.977   2.153  15.854  0.8110 -0.1590  0.1763
 1168SOL    HW115140   2.966   2.072  15.805  1.3980 -0.3556  0.3661
 1168SOL    HW215141   2.932   2.123  15.933  3.7108 -0.9564  1.5425
 1169SOL     OW15142   3.164   3.531   6.094 -0.3168  0.4311  0.4708
 1169SOL    HW115143   3.160   3.531   5.998 -0.5807  0.1389  0.4830
 1169SOL    HW215144   3.113   3.607   6.123  0.0307  0.0990  1.9286
 1170SOL     OW15145   0.077   0.390   8.978  0.2120 -0.3397  0.0557
 1170SOL    HW115146   0.049   0.479   8.997  0.2049  0.1298 -2.1148
 1170SOL    HW215147   0.015   0.356   8.914  1.5146 -2.0800 -0.2738
 1171SOL     OW15148   0.586   2.788   8.682  0.3299 -0.1011 -0.0075
 1171SOL    HW115149   0.659   2.745   8.725 -0.3141 -0.7220  0.4702
 1171SOL    HW215150   0.620   2.831   8.604 -1.5669  1.4748  0.0321
 1172SOL     OW15151   0.165   3.875  14.144  0.3327 -0.3915  0.2316
 1172SOL    HW115152   0.247   3.914  14.174  0.2581  0.3296 -0.4920
 1172SOL    HW215153   0.148   3.926  14.064  0.5852  1.9318  1.6559
 1173SOL     OW15154   3.074   1.291   5.808 -0.2559 -0.4044  0.2948
 1173SOL    HW115155   3.159   1.252   5.825 -0.8119 -1.5767  0.3947
 1173SOL    HW215156   3.028   1.252   5.882  0.1277 -0.0178  0.7336
 1174SOL     OW15157   1.865   2.209   1.990  0.1422 -0.0671 -0.5601
 1174SOL    HW115158   1.796   2.144   2.007  1.4740 -0.7843  2.0552
 1174SOL    HW215159   1.938   2.163   2.031  2.0885  0.9367 -2.9411
 1175SOL     OW15160   3.171   3.173   5.279 -0.1102 -0.0526  0.3057
 1175SOL    HW115161   3.215   3.124   5.349  1.3412  0.4272 -0.2734
 1175SOL    HW215162   3.213   3.134   5.202  1.1042 -0.9291  1.4139
 1176SOL     OW15163   4.421   0.353   3.375 -0.1625  0.8949  0.1586
 1176SOL    HW115164   4.472   0.396   3.444  0.4478  2.2383 -1.1122
 1176SOL    HW215165   4.434   0.265   3.409 -2.0906  0.0108 -1.3617
 1177SOL     OW15166   0.687   2.700  13.067  0.0642 -0.1311  0.0075
 1177SOL    HW115167   0.774   2.661  13.073 -0.3215 -1.1628 -1.1695
 1177SOL    HW215168   0.681   2.681  12.973  0.7048 -0.2617 -0.0058
 1178SOL     OW15169   4.580   3.402   7.491  0.3775 -0.2235  0.7568
 1178SOL    HW115170   4.624   3.473   7.537  0.5524 -0.2691  0.6626
 1178SOL    HW215171   4.638   3.368   7.422  1.0701  0.5595  0.9617
 1179SOL     OW15172   1.376   2.279   5.287  0.0847 -0.2690 -0.5170
 1179SOL    HW115173   1.358   2.230   5.367 -1.1128  1.4447  0.2671
 1179SOL    HW215174   1.432   2.213   5.246  1.7472  2.1530 -2.2154
 1180SOL     OW15175   3.778   2.824  16.535  0.0816  0.5142  0.6320
 1180SOL    HW115176   3.816   2.740  16.508 -0.3450  0.3438  0.5588
 1180SOL    HW215177   3.791   2.834  16.629  2.1943  1.9300  0.1809
 1181SOL     OW15178   1.555   2.718   8.162  0.3375 -0.5030  0.0222
 1181SOL    HW115179   1.594   2.713   8.249  1.8394  1.8581 -0.5203
 1181SOL    HW215180   1.632   2.732   8.108 -0.9134 -0.0259 -1.6337
 1182SOL     OW15181   1.346   1.544   9.501  0.4428  0.4215 -0.0931
 1182SOL    HW115182   1.359   1.556   9.407 -0.5671 -1.2259 -0.4395
 1182SOL    HW215183   1.342   1.636   9.526 -0.2265  0.1115  0.9314
 1183SOL     OW15184   0.722   2.667   3.803 -0.6805 -0.0471 -0.2897
 1183SOL    HW115185   0.670   2.632   3.731 -1.7865 -1.2042  1.0645
 1183SOL    HW215186   0.651   2.685   3.864 -0.3243 -2.7189  0.9436
 1184SOL     OW15187   4.537   3.097  12.485 -0.1271  0.1986 -0.5615
 1184SOL    HW115188   4.577   3.142  12.560 -0.3545 -3.4285  1.7583
 1184SOL    HW215189   4.506   3.172  12.435  0.1279  1.5294  1.2761
 1185SOL     OW15190   1.555   3.634   1.949  0.4294  0.2555 -0.4001
 1185SOL    HW115191   1.543   3.627   2.044  0.2910  0.5395 -0.3960
 1185SOL    HW215192   1.650   3.630   1.936  0.6198 -1.5752  1.5990
 1186SOL     OW15193   2.820   4.139  13.205 -0.2297  0.2091  0.6026
 1186SOL    HW115194   2.872   4.177  13.276 -1.3817  1.1494  0.9538
 1186SOL    HW215195   2.809   4.047  13.229  0.5212 -0.3346 -1.1295
 1187SOL     OW15196   2.120   1.496   3.056 -0.0099  0.5703 -0.0744
 1187SOL    HW115197   2.194   1.495   3.116 -2.5488  0.9611  3.0408
 1187SOL    HW215198   2.178   1.504   2.980  0.8978 -0.2077  0.5391
 1188SOL     OW15199   4.219   4.205   0.011 -0.0216  0.7317  0.0206
 1188SOL    HW115200   4.248   4.157  17.669 -1.9274 -1.4168  0.6435
 1188SOL    HW215201   4.124   4.197   0.000  0.1143 -0.1957 -0.4978
 1189SOL     OW15202   1.730   0.430   2.105  0.6569  0.2895 -0.5179
 1189SOL    HW115203   1.706   0.447   2.196  1.8726 -0.9989  0.0533
 1189SOL    HW215204   1.666   0.483   2.058  0.3431  1.7839  1.6042
 1190SOL     OW15205   0.836   2.244   1.715 -0.5474 -0.1925 -0.1155
 1190SOL    HW115206   0.802   2.261   1.803 -1.2481 -1.1484 -0.2020
 1190SOL    HW215207   0.767   2.205   1.663  0.3343 -3.0152  0.8538
 1191SOL     OW15208   2.668   1.599   5.104  0.3885  0.1224  0.5018
 1191SOL    HW115209   2.668   1.515   5.058 -2.5413  0.5808 -0.3481
 1191SOL    HW215210   2.640   1.657   5.033  1.7029 -2.2174 -1.9365
 1192SOL     OW15211   2.354   2.746   0.128 -0.1671 -0.1311  0.1027
 1192SOL    HW115212   2.389   2.690   0.059 -1.6654 -0.3938 -0.4491
 1192SOL    HW215213   2.363   2.834   0.091  0.3859 -0.5160 -0.6784
 1193SOL     OW15214   2.237   2.734   4.148  0.0663  0.5326 -0.3041
 1193SOL    HW115215   2.226   2.650   4.103 -1.8263 -0.8765  2.7985
 1193SOL    HW215216   2.147   2.745   4.181 -0.5161  1.0776 -2.0703
 1194SOL     OW15217   0.544   3.094  11.310  1.0823 -0.3002 -0.3671
 1194SOL    HW115218   0.561   3.183  11.280  2.7318 -0.5152 -0.0825
 1194SOL    HW215219   0.533   3.109  11.403 -0.1649 -1.1790 -0.3714
 1195SOL     OW15220   0.103   1.811   3.895  0.0293  0.4099  0.0842
 1195SOL    HW115221   0.085   1.880   3.959  1.9098 -0.2759  1.3284
 1195SOL    HW215222   0.050   1.744   3.939  0.1091  2.4095  3.2376
 1196SOL     OW15223   2.415   3.342  16.897 -0.4936 -0.4377  0.3672
 1196SOL    HW115224   2.343   3.388  16.855  0.2850 -1.0737 -1.6341
 1196SOL    HW215225   2.380   3.325  16.984 -1.6953 -2.5494 -0.5437
 1197SOL     OW15226   4.400   0.737   7.871  0.0987 -0.6586 -0.2091
 1197SOL    HW115227   4.371   0.698   7.953  2.3912 -2.1609 -0.1115
 1197SOL    HW215228   4.337   0.807   7.854  1.0556  0.0659 -0.7486
 1198SOL     OW15229   1.004   0.896   4.759  0.4545 -0.1072 -0.0980
 1198SOL    HW115230   0.967   0.895   4.670 -0.1970  1.7543  0.1524
 1198SOL    HW215231   0.941   0.950   4.807 -1.5628 -3.1903  0.7303
 1199SOL     OW15232   2.694   2.019   0.197  0.6898  0.0468  0.3959
 1199SOL    HW115233   2.720   2.109   0.217 -0.7316  0.7606 -1.0310
 1199SOL    HW215234   2.732   1.970   0.270 -1.0803 -0.6784  0.8248
 1200SOL     OW15235   1.963   4.238   2.646  0.0000 -0.1693 -0.2759
 1200SOL    HW115236   1.905   4.166   2.621 -0.5330  0.3357 -0.5299
 1200SOL    HW215237   1.919   4.254   2.730  0.0210 -1.2068 -0.0780
 1201SOL     OW15238   3.334   0.738   4.154  0.2875 -0.0826 -0.6939
 1201SOL    HW115239   3.339   0.730   4.059 -0.0983 -0.2200 -0.7031
 1201SOL    HW215240   3.355   0.832   4.157  1.4339 -0.3499 -0.5755
 1202SOL     OW15241   0.822   3.070  16.066  0.3432 -0.2711 -0.0383
 1202SOL    HW115242   0.805   3.102  16.155 -2.2232  0.1822 -0.6982
 1202SOL    HW215243   0.813   3.150  16.015  0.4274  0.2679  0.7976
 1203SOL     OW15244   0.428   1.907  12.149  0.1206  0.0047 -0.3980
 1203SOL    HW115245   0.514   1.868  12.164 -0.0889  0.1648  1.2946
 1203SOL    HW215246   0.453   1.998  12.166  2.3627 -0.6730 -0.1190
 1204SOL     OW15247   1.891   2.243   8.611 -0.1115  0.5572  0.4429
 1204SOL    HW115248   1.857   2.331   8.625  0.3028  0.7145  0.4571
 1204SOL    HW215249   1.885   2.205   8.699  1.3717 -1.7291 -0.4431
 1205SOL     OW15250   3.164   0.254   8.978 -0.3132 -0.3359  0.1544
 1205SOL    HW115251   3.155   0.264   9.072  1.7476  0.2604  0.2865
 1205SOL    HW215252   3.232   0.188   8.967  0.3677  0.4062 -0.0786
 1206SOL     OW15253   3.760   3.091   4.034 -0.0213  0.6306  0.0135
 1206SOL    HW115254   3.836   3.049   3.993 -0.7928 -0.3088 -0.4651
 1206SOL    HW215255   3.790   3.084   4.124 -0.5159 -0.4842  0.0960
 1207SOL     OW15256   2.155   2.319   0.986  0.2206 -0.0928  0.6246
 1207SOL    HW115257   2.203   2.297   1.066 -0.8900  0.1513  1.3450
 1207SOL    HW215258   2.227   2.320   0.923  0.9457  1.9890  1.4699
 1208SOL     OW15259   2.343   3.985   8.751  0.1332 -0.0019 -0.1362
 1208SOL    HW115260   2.357   4.029   8.667  0.3626 -0.5789 -0.3984
 1208SOL    HW215261   2.418   3.927   8.763 -1.3692 -2.2822 -1.6961
 1209SOL     OW15262   0.787   3.361   4.339 -0.2539 -0.0983 -0.2033
 1209SOL    HW115263   0.733   3.390   4.265 -0.0238  1.8298  0.3829
 1209SOL    HW215264   0.875   3.382   4.308  0.8326 -0.3740  2.7072
 1210SOL     OW15265   2.325   0.959  14.649  0.2651 -1.0129  0.1552
 1210SOL    HW115266   2.319   1.054  14.643 -1.6166 -1.0882  0.8730
 1210SOL    HW215267   2.278   0.940  14.568  2.0565 -0.7925 -0.9239
 1211SOL     OW15268   4.019   0.303  15.655 -0.4906 -0.3441 -0.3520
 1211SOL    HW115269   4.048   0.394  15.660 -2.4998  0.1459  2.4624
 1211SOL    HW215270   4.099   0.249  15.650  0.2248  0.7888 -1.0761
 1212SOL     OW15271   2.819   0.491   7.074  0.2104 -0.1541 -0.1948
 1212SOL    HW115272   2.789   0.403   7.095 -1.1378  0.6843  1.3536
 1212SOL    HW215273   2.839   0.540   7.154 -2.2093  1.2351 -0.4440
 1213SOL     OW15274   0.891   3.692   3.931  0.5682 -0.6404 -0.0007
 1213SOL    HW115275   0.828   3.692   4.003 -1.0554 -0.7179 -1.4236
 1213SOL    HW215276   0.896   3.600   3.905 -0.1294 -0.9110  0.8073
 1214SOL     OW15277   0.843   4.035   1.736  0.0955  0.1183 -0.2741
 1214SOL    HW115278   0.915   3.999   1.685  0.7960 -1.5235  1.8859
 1214SOL    HW215279   0.825   3.959   1.792 -2.1673 -0.4375 -1.7463
 1215SOL     OW15280   3.254   4.523   8.976 -0.2611  0.2513  0.2771
 1215SOL    HW115281   3.272   4.479   8.893 -2.3804 -2.0044  0.9801
 1215SOL    HW215282   3.167   4.492   9.003 -0.0626 -0.5373  0.0189
 1216SOL     OW15283   0.176   1.683   7.575  0.5901 -0.4840  0.3560
 1216SOL    HW115284   0.088   1.648   7.591 -0.3662  0.9427 -1.7756
 1216SOL    HW215285   0.213   1.672   7.662 -0.5641 -0.4702  0.8432
 1217SOL     OW15286   2.987   1.512   6.980  0.3371  0.1122 -0.0708
 1217SOL    HW115287   2.901   1.479   6.955 -0.0847  1.0059  0.1969
 1217SOL    HW215288   3.038   1.531   6.901  0.0916  1.8319  0.1803
 1218SOL     OW15289   2.826   2.004  16.051  0.5978  0.3207 -0.0666
 1218SOL    HW115290   2.851   1.913  16.037 -1.2123 -0.3269  0.8189
 1218SOL    HW215291   2.786   1.998  16.138  2.3597  1.2108  0.7977
 1219SOL     OW15292   2.990   0.314   8.209  0.7365 -0.0992  0.0465
 1219SOL    HW115293   2.923   0.309   8.278 -0.2974  0.9983 -0.8914
 1219SOL    HW215294   3.041   0.234   8.224  0.8097 -0.3244 -1.4359
 1220SOL     OW15295   4.103   2.554  15.412  0.0660  1.1562 -0.0367
 1220SOL    HW115296   4.039   2.621  15.388 -1.5971  0.0815  1.4270
 1220SOL    HW215297   4.181   2.603  15.386  1.3889 -2.1806 -2.3653
 1221SOL     OW15298   3.949   2.733   2.838 -0.6793 -0.4575 -0.4165
 1221SOL    HW115299   3.966   2.664   2.902 -3.6133  1.2068  2.1560
 1221SOL    HW215300   3.867   2.711   2.794 -0.2266 -0.1782 -1.3870
 1222SOL     OW15301   4.264   3.663   6.664  0.3892 -0.9336 -0.1436
 1222SOL    HW115302   4.280   3.570   6.646 -2.5100 -1.6110  0.8757
 1222SOL    HW215303   4.230   3.684   6.577 -0.1050 -3.6518 -0.5868
 1223SOL     OW15304   2.796   0.372   6.017 -0.0568  0.8836  0.7025
 1223SOL    HW115305   2.824   0.302   5.958 -1.0061  0.3744  0.8556
 1223SOL    HW215306   2.778   0.325   6.099  0.2575  2.6863  1.8078
 1224SOL     OW15307   1.483   4.031  13.486 -0.8814  0.2090  0.0519
 1224SOL    HW115308   1.468   3.971  13.559 -0.1210  1.2499  1.0515
 1224SOL    HW215309   1.531   4.092  13.541 -0.1206 -0.7470  0.4592
 1225SOL     OW15310   4.348   3.047  15.194  0.4125 -0.1352  0.3598
 1225SOL    HW115311   4.426   3.094  15.165 -0.0996  0.9091  0.6509
 1225SOL    HW215312   4.277   3.088  15.145  1.4338 -2.3402 -2.9634
 1226SOL     OW15313   0.402   0.515   2.962 -0.2772 -0.2485  0.5472
 1226SOL    HW115314   0.348   0.494   3.038 -0.1221  0.1986  0.7814
 1226SOL    HW215315   0.406   0.426   2.927  2.1869 -0.2397  0.8075
 1227SOL     OW15316   0.614   3.618   7.030 -0.3594  0.1897 -0.0396
 1227SOL    HW115317   0.660   3.587   6.952  1.1587  1.8183  0.2159
 1227SOL    HW215318   0.569   3.693   6.990  0.0602 -0.2227 -1.2574
 1228SOL     OW15319   0.698   4.487  13.990  0.0640  0.0866 -0.2998
 1228SOL    HW115320   0.709   4.571  14.033 -0.3912 -0.0194  0.0192
 1228SOL    HW215321   0.671   4.520  13.904 -0.3514  1.1538  0.2446
 1229SOL     OW15322   4.326   1.266   2.883  0.2252 -0.4858 -0.3613
 1229SOL    HW115323   4.247   1.216   2.902  0.4677  0.4805  3.0702
 1229SOL    HW215324   4.400   1.209   2.902  1.3859  1.0808 -0.1058
 1230SOL     OW15325   0.035   0.675   2.194 -0.1730  0.0929 -0.4143
 1230SOL    HW115326   0.122   0.663   2.231 -0.6531 -0.1361  0.6246
 1230SOL    HW215327   0.020   0.601   2.136  0.3719  0.8292 -1.5008
 1231SOL     OW15328   4.305   2.054   2.848 -0.3181 -0.0438 -0.0478
 1231SOL    HW115329   4.374   2.021   2.905 -0.1097 -0.3017 -0.4541
 1231SOL    HW215330   4.258   2.116   2.904  0.2484  0.1363  0.2275
 1232SOL     OW15331   4.336   0.047   6.407  0.3191 -0.7444  0.7581
 1232SOL    HW115332   4.347   4.704   6.462 -0.5810 -0.9615  0.6265
 1232SOL    HW215333   4.296   4.725   6.341  1.8512 -1.0037  0.0376
 1233SOL     OW15334   0.527   2.701   3.983 -0.2992 -0.4828 -0.9635
 1233SOL    HW115335   0.593   2.743   4.038 -2.9544  1.4511  0.7416
 1233SOL    HW215336   0.474   2.772   3.945 -0.8461 -2.4654 -3.8633
 1234SOL     OW15337   3.396   0.971   4.272 -0.3736  0.4713 -0.4040
 1234SOL    HW115338   3.387   0.946   4.364 -1.2757  0.0645 -0.6019
 1234SOL    HW215339   3.441   1.055   4.286  1.7386 -0.3360 -2.4008
 1235SOL     OW15340   0.382   2.485   5.678  0.1362  0.1436  0.6894
 1235SOL    HW115341   0.439   2.536   5.736 -0.4563  1.7173 -0.1154
 1235SOL    HW215342   0.449   2.422   5.651  1.1279  0.7823  1.6788
 1236SOL     OW15343   0.795   3.752   1.874  0.0689 -0.1675  0.4025
 1236SOL    HW115344   0.741   3.676   1.897  0.3999 -0.7825 -0.8739
 1236SOL    HW215345   0.789   3.799   1.958 -0.1956  1.6606 -0.6501
 1237SOL     OW15346   1.873   1.404   3.205  0.1442 -0.0441  0.1103
 1237SOL    HW115347   1.918   1.405   3.121 -0.2515  0.0288 -0.1020
 1237SOL    HW215348   1.948   1.393   3.263 -1.6786  2.8907  3.0658
 1238SOL     OW15349   0.542   3.596  17.593 -0.2455 -0.7131 -0.1161
 1238SOL    HW115350   0.549   3.524  17.531  0.0289  1.9270 -3.1140
 1238SOL    HW215351   0.531   3.554  17.679  1.3904  2.4238  1.6406
 1239SOL     OW15352   0.423   1.972   1.394 -0.4225 -0.4255  0.0646
 1239SOL    HW115353   0.389   1.883   1.384  1.3286 -1.0311 -0.5357
 1239SOL    HW215354   0.384   2.008   1.314  1.3288  0.1752 -0.5137
 1240SOL     OW15355   1.959   2.986   9.739 -1.0692 -0.2699  0.0120
 1240SOL    HW115356   1.872   2.980   9.780 -1.3279 -2.3962 -0.8337
 1240SOL    HW215357   1.980   3.079   9.745  2.6802 -1.0306 -1.2170
 1241SOL     OW15358   1.334   1.511   9.222  0.4378  0.1301  0.0974
 1241SOL    HW115359   1.345   1.434   9.166 -0.9283 -0.6846  0.9520
 1241SOL    HW215360   1.389   1.570   9.171 -0.1875  0.7481  0.1344
 1242SOL     OW15361   1.152   4.259   6.131  0.2626  0.2118 -0.1849
 1242SOL    HW115362   1.143   4.354   6.129  0.4159  0.2376  0.3086
 1242SOL    HW215363   1.213   4.245   6.204  1.6550  1.3487 -1.1069
 1243SOL     OW15364   3.883   1.848  11.631 -0.3003  0.5058 -0.3142
 1243SOL    HW115365   3.808   1.792  11.650  0.7243 -1.0911 -0.9961
 1243SOL    HW215366   3.898   1.830  11.538  1.2497 -1.2905  0.2783
 1244SOL     OW15367   3.898   2.893   3.386  0.1320 -0.5607  0.3738
 1244SOL    HW115368   3.915   2.983   3.414  0.8727 -0.4154 -0.5560
 1244SOL    HW215369   3.867   2.851   3.466 -2.0656 -0.8279 -0.6296
 1245SOL     OW15370   4.405   1.464  12.885  0.3468  0.7690 -0.5701
 1245SOL    HW115371   4.348   1.537  12.910 -0.5881  0.1866 -0.9892
 1245SOL    HW215372   4.349   1.403  12.837 -1.0934  0.5363  1.4157
 1246SOL     OW15373   4.579   2.848  13.260  0.4233 -0.0959  0.2641
 1246SOL    HW115374   4.583   2.943  13.251 -0.9378 -0.1506 -0.9422
 1246SOL    HW215375   4.672   2.832  13.248  0.9034  1.3817  1.9519
 1247SOL     OW15376   0.248   1.633   7.835  0.5644  0.2103  0.3721
 1247SOL    HW115377   0.213   1.550   7.867  0.5478  0.0176 -0.1499
 1247SOL    HW215378   0.275   1.676   7.916  0.9764  2.4471 -0.9477
 1248SOL     OW15379   2.820   0.728   4.243 -0.0506  0.0375  0.3193
 1248SOL    HW115380   2.876   0.665   4.198 -0.1898  0.4719 -0.4445
 1248SOL    HW215381   2.793   0.796   4.182  3.0157  1.9974  1.1317
 1249SOL     OW15382   4.237   2.738   7.253 -0.2610  0.2499 -0.4783
 1249SOL    HW115383   4.256   2.827   7.281 -0.1714 -0.1663  0.7976
 1249SOL    HW215384   4.187   2.700   7.326  1.6336  1.3279  1.3769
 1250SOL     OW15385   4.060   0.166   6.659  0.3212  0.2395 -0.0559
 1250SOL    HW115386   3.980   0.127   6.697  0.1401 -0.9448 -1.6385
 1250SOL    HW215387   4.074   0.248   6.706 -2.0212  1.1988 -1.0023
 1251SOL     OW15388   2.364   3.840   8.194 -0.3047 -0.1880 -0.2671
 1251SOL    HW115389   2.286   3.786   8.180 -0.9051  1.1920 -2.2351
 1251SOL    HW215390   2.320   3.925   8.200  0.1655  0.0480 -0.2136
 1252SOL     OW15391   1.808   3.739   0.137 -0.2577 -0.5352  0.6322
 1252SOL    HW115392   1.852   3.773   0.215  0.4419  1.0610 -0.4465
 1252SOL    HW215393   1.754   3.674   0.180 -1.1738 -2.6335 -3.6379
 1253SOL     OW15394   1.900   3.378   4.141 -0.2376 -0.1102  0.0729
 1253SOL    HW115395   1.845   3.313   4.099 -0.8899  0.8128 -0.5080
 1253SOL    HW215396   1.924   3.333   4.222 -0.3706  0.3598  0.3776
 1254SOL     OW15397   4.590   2.671   6.445 -0.1737 -0.1755 -0.2064
 1254SOL    HW115398   4.563   2.652   6.355  0.1399  1.1094 -0.5842
 1254SOL    HW215399   4.561   2.597   6.497  2.0604 -1.7565 -1.2242
 1255SOL     OW15400   2.777   4.244   3.905  0.5255  0.1529  0.7940
 1255SOL    HW115401   2.781   4.329   3.948  0.0200  1.0213 -0.8708
 1255SOL    HW215402   2.685   4.240   3.878  0.8657 -2.5737 -0.0128
 1256SOL     OW15403   4.564   1.032  16.912  0.0575  0.0594 -0.5256
 1256SOL    HW115404   4.597   0.965  16.853 -0.9230 -1.2837  0.4425
 1256SOL    HW215405   4.493   0.984  16.954 -0.1807  1.9728  1.2560
 1257SOL     OW15406   4.578   1.122   5.493 -0.0332 -0.2573 -0.2879
 1257SOL    HW115407   4.526   1.166   5.559  0.4864  0.4444 -0.3390
 1257SOL    HW215408   4.602   1.199   5.440  0.0070  0.0429  0.1702
 1258SOL     OW15409   1.054   3.554  14.568 -0.4235  0.0121  0.2462
 1258SOL    HW115410   1.076   3.475  14.616  1.5227  1.4460  1.7121
 1258SOL    HW215411   0.959   3.541  14.564 -0.4838  1.2134 -2.6241
 1259SOL     OW15412   4.357   0.734  15.549 -0.3238 -0.8209 -0.3957
 1259SOL    HW115413   4.307   0.788  15.489  1.0736  0.0512 -0.7674
 1259SOL    HW215414   4.326   0.646  15.526  2.2172 -1.5832 -0.8905
 1260SOL     OW15415   1.221   2.967   1.917 -0.9217  0.4214 -0.3501
 1260SOL    HW115416   1.217   3.052   1.872  1.5661  0.7934  0.1604
 1260SOL    HW215417   1.185   2.990   2.003  1.0281  2.6521 -0.1328
 1261SOL     OW15418   4.182   3.419   3.821 -0.6660  0.3962 -0.4032
 1261SOL    HW115419   4.088   3.435   3.833 -0.9813  0.0691 -2.4337
 1261SOL    HW215420   4.210   3.506   3.792 -0.9570  0.3307 -0.8855
 1262SOL     OW15421   4.346   0.197   7.933 -0.6542  0.2473  0.1733
 1262SOL    HW115422   4.360   0.244   8.015 -0.1170 -1.7911  1.2534
 1262SOL    HW215423   4.379   0.110   7.955 -1.6440 -0.3710 -0.7966
 1263SOL     OW15424   4.571   2.655  13.739  0.0138  0.1005  0.4162
 1263SOL    HW115425   4.634   2.627  13.806  1.7256 -1.6545 -1.9528
 1263SOL    HW215426   4.623   2.666  13.660  0.3020  0.2230  0.6204
 1264SOL     OW15427   2.774   2.493  10.129 -0.5307 -0.4819  0.3840
 1264SOL    HW115428   2.769   2.524  10.220 -0.1809  0.7797 -0.0233
 1264SOL    HW215429   2.692   2.444  10.120 -0.8508  0.1660 -0.2042
 1265SOL     OW15430   1.103   3.453   6.650  0.0834  0.2787 -0.0818
 1265SOL    HW115431   1.099   3.537   6.694  1.3388  1.7530 -2.7550
 1265SOL    HW215432   1.012   3.428   6.660  0.2192  0.7681  2.2375
 1266SOL     OW15433   1.700   1.639   1.786 -0.3724 -0.4231  0.3077
 1266SOL    HW115434   1.606   1.622   1.796 -0.5604  0.3588 -0.0453
 1266SOL    HW215435   1.700   1.633   1.691 -3.4195  0.5865  0.2330
 1267SOL     OW15436   0.503   3.312   0.322  0.6709  0.4558 -0.2957
 1267SOL    HW115437   0.408   3.310   0.308  0.9859  0.1803 -2.4193
 1267SOL    HW215438   0.527   3.403   0.338 -0.8801  1.0214 -1.0986
 1268SOL     OW15439   3.556   2.889   2.508 -0.0528  0.5218 -0.2439
 1268SOL    HW115440   3.483   2.843   2.468  0.6627 -2.5069  1.9801
 1268SOL    HW215441   3.603   2.808   2.525 -0.4673 -0.0781 -1.9145
 1269SOL     OW15442   1.776   4.567   6.237 -0.4558  0.0653  0.3508
 1269SOL    HW115443   1.713   4.525   6.296 -0.2999 -1.1026 -0.3092
 1269SOL    HW215444   1.738   4.653   6.219 -1.5481 -0.3548  0.6355
 1270SOL     OW15445   2.485   1.424   8.039 -0.0340  0.1273  0.1282
 1270SOL    HW115446   2.507   1.514   8.015  1.5521 -1.0120 -2.7097
 1270SOL    HW215447   2.572   1.388   8.055 -0.0947  0.7128  1.7907
 1271SOL     OW15448   1.309   4.447   9.281  0.6711  0.0351 -0.4716
 1271SOL    HW115449   1.351   4.422   9.199  0.1636  1.8579 -1.3063
 1271SOL    HW215450   1.367   4.406   9.344 -0.4283 -0.9365 -0.0899
 1272SOL     OW15451   0.061   4.527   4.781  0.4013 -1.0355  0.3321
 1272SOL    HW115452   0.152   4.523   4.752 -0.1666 -0.7903 -1.4632
 1272SOL    HW215453   0.027   4.583   4.711  0.6792 -0.7660  0.4106
 1273SOL     OW15454   4.439   1.625  10.476 -0.1198  0.1978 -0.2375
 1273SOL    HW115455   4.500   1.660  10.540 -0.6142 -1.9769  1.4299
 1273SOL    HW215456   4.353   1.620  10.518  0.0182  0.5531  0.0839
 1274SOL     OW15457   1.694   1.652   7.477 -0.0065 -0.7214 -0.1816
 1274SOL    HW115458   1.642   1.623   7.553 -0.6476 -0.9206 -0.7014
 1274SOL    HW215459   1.651   1.611   7.402  0.9531 -0.1391 -1.0440
 1275SOL     OW15460   0.264   1.548   6.729 -0.5798 -0.2580 -0.0437
 1275SOL    HW115461   0.350   1.589   6.721 -0.5333 -0.3952 -0.2319
 1275SOL    HW215462   0.209   1.613   6.685  0.3718  2.0524  2.1768
 1276SOL     OW15463   0.307   2.789   3.482 -0.0689 -0.0756 -0.3782
 1276SOL    HW115464   0.364   2.743   3.420  0.6748 -0.9160  0.9324
 1276SOL    HW215465   0.262   2.843   3.418  2.2119 -0.6303 -2.4447
 1277SOL     OW15466   2.583   4.658   2.795  0.4320  0.2381 -0.3585
 1277SOL    HW115467   2.504   4.605   2.782 -0.9143  2.1798 -0.0482
 1277SOL    HW215468   2.557   0.001   2.746 -0.7363  0.0512 -0.0317
 1278SOL     OW15469   0.141   2.825   6.334  0.2099 -1.0039 -0.0940
 1278SOL    HW115470   0.133   2.733   6.308  0.4161 -1.3677  1.1155
 1278SOL    HW215471   0.234   2.845   6.328  0.0411 -0.0921  0.2921
 1279SOL     OW15472   2.316   2.295   0.756 -0.4406 -0.1219  0.3219
 1279SOL    HW115473   2.272   2.249   0.685  0.3885 -1.2213  0.5186
 1279SOL    HW215474   2.326   2.376   0.706 -1.9385 -0.5767 -0.7044
 1280SOL     OW15475   4.005   1.952   8.939 -0.0589  0.1252  0.4508
 1280SOL    HW115476   3.946   1.877   8.941 -0.2661  0.2845  0.3175
 1280SOL    HW215477   3.948   2.024   8.967  1.4136  3.0281 -3.9835
 1281SOL     OW15478   3.943   1.437   6.714  0.0211 -0.2759 -0.2202
 1281SOL    HW115479   3.914   1.382   6.642 -0.2047 -0.3243 -0.0927
 1281SOL    HW215480   4.035   1.408   6.715  0.5308  1.3773  1.5041
 1282SOL     OW15481   3.003   1.795   3.759  0.3824  0.4908  0.4241
 1282SOL    HW115482   2.975   1.804   3.667  3.6680 -1.7471 -0.8153
 1282SOL    HW215483   2.927   1.836   3.800 -0.5750 -0.3294 -0.4934
 1283SOL     OW15484   4.653   3.324   3.746 -0.3924  0.6500  0.1756
 1283SOL    HW115485   4.644   3.248   3.803 -0.0383 -0.3352 -1.0835
 1283SOL    HW215486   4.579   3.375   3.779  0.8776  2.4314  0.3090
 1284SOL     OW15487   3.429   0.157   2.441  0.1431 -0.7175 -0.4827
 1284SOL    HW115488   3.366   0.174   2.371  1.9168  1.4961 -1.5545
 1284SOL    HW215489   3.448   0.065   2.422 -2.7352 -0.8398 -2.8495
 1285SOL     OW15490   0.631   0.720   5.106 -0.2433 -0.0411  0.3351
 1285SOL    HW115491   0.712   0.684   5.071 -1.2447 -0.3923 -1.6492
 1285SOL    HW215492   0.570   0.648   5.086 -0.6440  0.3334  0.2107
 1286SOL     OW15493   4.247   3.107  17.480  0.4060 -0.2368 -0.4623
 1286SOL    HW115494   4.155   3.114  17.455  1.1462  1.6642 -2.5960
 1286SOL    HW215495   4.266   3.192  17.521 -1.0611 -0.1897  0.1243
 1287SOL     OW15496   1.565   3.752   3.898 -0.4226  0.7587  0.1528
 1287SOL    HW115497   1.607   3.717   3.819 -1.4854  0.6976 -0.3807
 1287SOL    HW215498   1.616   3.833   3.909  2.0641 -0.7805  0.0674
 1288SOL     OW15499   0.417   3.411  16.068  0.0991 -0.5485 -0.3075
 1288SOL    HW115500   0.365   3.395  15.989 -0.4720  2.5249 -0.5325
 1288SOL    HW215501   0.409   3.329  16.117  1.0296 -0.5788 -0.2065
 1289SOL     OW15502   4.331   3.073   1.578 -0.4461  0.7273  0.5761
 1289SOL    HW115503   4.279   3.153   1.585 -2.0118 -0.2261 -0.1198
 1289SOL    HW215504   4.365   3.059   1.667  0.9211 -0.7494 -0.1734
 1290SOL     OW15505   2.270   0.694  11.801  0.4470  0.2999 -0.4385
 1290SOL    HW115506   2.308   0.769  11.846  0.5558  0.1798 -0.3310
 1290SOL    HW215507   2.194   0.731  11.756 -0.6509 -0.6694  0.6383
 1291SOL     OW15508   1.553   2.168   9.243 -0.5931 -0.7996  0.0924
 1291SOL    HW115509   1.496   2.210   9.178  3.0435  0.0107 -2.5507
 1291SOL    HW215510   1.608   2.245   9.259  0.1518 -1.6700  1.6801
 1292SOL     OW15511   1.360   3.260   9.093  0.0631  0.0673  0.4154
 1292SOL    HW115512   1.337   3.352   9.084 -1.6330 -0.3440  0.6607
 1292SOL    HW215513   1.346   3.244   9.186 -0.5445 -0.4575  0.2331
 1293SOL     OW15514   0.151   1.110  16.375 -0.3867 -0.7032 -0.2980
 1293SOL    HW115515   0.220   1.077  16.433  2.3435 -0.5894 -3.5387
 1293SOL    HW215516   0.182   1.194  16.343 -1.8485 -0.4814 -1.1115
 1294SOL     OW15517   2.491   0.077  14.768  0.1848  0.4517  0.2356
 1294SOL    HW115518   2.565   0.121  14.727  0.3388 -0.1887 -0.1671
 1294SOL    HW215519   2.533   0.009  14.820  1.2222  1.7089  1.0379
 1295SOL     OW15520   2.170   3.390   2.386 -0.5009 -0.1725  0.0602
 1295SOL    HW115521   2.126   3.312   2.420 -1.8730  0.4422 -0.3219
 1295SOL    HW215522   2.166   3.373   2.292  2.9653  0.1695 -0.1470
 1296SOL     OW15523   1.147   1.782  15.921  0.5111  0.1802  0.0809
 1296SOL    HW115524   1.087   1.791  15.995 -0.4190 -2.8844 -0.3045
 1296SOL    HW215525   1.179   1.692  15.920 -0.8682 -0.2781 -2.0847
 1297SOL     OW15526   1.785   0.480   6.977 -0.4374 -0.2292 -0.4974
 1297SOL    HW115527   1.730   0.404   6.959 -1.5983  0.1080  1.7139
 1297SOL    HW215528   1.851   0.444   7.036 -0.1295  0.3663 -0.4728
 1298SOL     OW15529   0.646   2.810   0.315  0.1521  0.2631  0.2774
 1298SOL    HW115530   0.724   2.758   0.337 -0.2880 -0.7106 -0.4609
 1298SOL    HW215531   0.674   2.884   0.368 -1.8324  0.3736  1.1566
 1299SOL     OW15532   3.282   2.259   3.553 -0.7335 -0.3557 -0.2492
 1299SOL    HW115533   3.190   2.283   3.541 -0.4222  1.0832  0.2303
 1299SOL    HW215534   3.324   2.325   3.499  1.0799 -0.8748  0.5454
 1300SOL     OW15535   1.912   1.733  17.672  0.2169  0.3406  0.2858
 1300SOL    HW115536   1.889   1.653  17.626 -2.0653  1.0079  0.2853
 1300SOL    HW215537   1.868   1.718   0.020  2.6163 -0.6148  1.4024
 1301SOL     OW15538   2.352   0.571   2.322  0.1262 -0.9064 -0.3331
 1301SOL    HW115539   2.440   0.540   2.300  0.7842  1.3317 -0.7961
 1301SOL    HW215540   2.304   0.513   2.263 -0.7221  2.6451 -3.1278
 1302SOL     OW15541   1.656   3.212  11.436 -0.1293 -0.3670  0.3581
 1302SOL    HW115542   1.568   3.220  11.399  0.4401 -0.0968 -0.9552
 1302SOL    HW215543   1.685   3.140  11.380  0.0298  0.5442 -0.7221
 1303SOL     OW15544   3.276   2.017   3.630  0.5335  0.3039 -0.3260
 1303SOL    HW115545   3.206   1.969   3.585 -1.0414 -0.1713  2.6531
 1303SOL    HW215546   3.274   2.105   3.593 -1.0234 -0.8104 -2.8800
 1304SOL     OW15547   0.954   1.216   3.844  0.1701  0.1007  0.4246
 1304SOL    HW115548   1.011   1.181   3.912 -0.6614  1.9587  2.0809
 1304SOL    HW215549   0.871   1.183   3.878 -1.0362  2.7869  0.1109
 1305SOL     OW15550   0.591   0.785   3.836  1.0793 -0.0044 -0.0888
 1305SOL    HW115551   0.670   0.749   3.795 -0.4565 -1.6809 -1.5166
 1305SOL    HW215552   0.616   0.787   3.928 -2.0578 -1.9443  0.7720
 1306SOL     OW15553   3.138   2.370   6.477  0.6998  0.1686 -0.5989
 1306SOL    HW115554   3.096   2.431   6.417  1.6303  1.6533  0.2646
 1306SOL    HW215555   3.209   2.417   6.521 -0.9308  0.9818  1.1881
 1307SOL     OW15556   2.541   3.445   2.092 -0.1087 -0.6416 -0.2457
 1307SOL    HW115557   2.530   3.432   2.187  0.6587 -0.0469 -0.0748
 1307SOL    HW215558   2.611   3.510   2.096  0.4346 -1.2598  0.3351
 1308SOL     OW15559   1.571   1.408  11.495  0.5474  0.0166  0.0515
 1308SOL    HW115560   1.637   1.365  11.549  1.2841 -0.7872 -1.4724
 1308SOL    HW215561   1.620   1.471  11.442  0.7476 -2.0479 -2.2074
 1309SOL     OW15562   0.574   4.293   5.460 -0.3522  0.0053  0.2667
 1309SOL    HW115563   0.621   4.272   5.379  0.1045 -1.1877  0.8378
 1309SOL    HW215564   0.645   4.343   5.500  0.5667 -1.0143 -0.1103
 1310SOL     OW15565   0.984   0.044   1.789  0.3143 -0.0909 -0.3142
 1310SOL    HW115566   1.065   0.025   1.837  0.1313 -0.6949 -0.2409
 1310SOL    HW215567   0.915   0.032   1.854  2.5132 -1.9383  1.7106
 1311SOL     OW15568   1.124   1.377   2.245  0.1164 -0.2549 -0.1725
 1311SOL    HW115569   1.036   1.398   2.278 -0.3396  1.6613 -2.6040
 1311SOL    HW215570   1.173   1.409   2.321 -1.2492  0.4085  0.4250
 1312SOL     OW15571   1.205   4.181  14.961 -0.4729  0.2853  0.1571
 1312SOL    HW115572   1.294   4.155  14.936 -0.9702 -1.2016 -0.0229
 1312SOL    HW215573   1.200   4.271  14.927 -2.5188  0.1928  0.2272
 1313SOL     OW15574   0.218   4.136   8.398 -0.0672 -0.1683  0.3092
 1313SOL    HW115575   0.232   4.172   8.486  1.5787  1.6272 -0.7132
 1313SOL    HW215576   0.223   4.210   8.338 -3.3405 -1.4062 -1.5283
 1314SOL     OW15577   1.825   2.109   6.393  0.2404  0.2575 -0.6542
 1314SOL    HW115578   1.842   2.016   6.401  0.8410  0.2103 -2.5793
 1314SOL    HW215579   1.824   2.116   6.298 -1.0961  1.4472 -0.5652
 1315SOL     OW15580   1.765   4.125  10.512  0.3890 -0.7684 -0.3991
 1315SOL    HW115581   1.732   4.036  10.525  1.7387 -1.4012 -1.2518
 1315SOL    HW215582   1.757   4.161  10.600 -1.0527  1.7758 -1.5709
 1316SOL     OW15583   4.560   3.965   8.631  0.6298  0.7962 -0.1544
 1316SOL    HW115584   4.546   3.897   8.696  3.5982  1.1850  0.8996
 1316SOL    HW215585   4.470   3.983   8.602  0.1272 -0.0141  0.9114
 1317SOL     OW15586   3.731   2.844   7.746 -0.0072  0.2896  0.2887
 1317SOL    HW115587   3.699   2.765   7.701  0.7697  0.2841 -0.2718
 1317SOL    HW215588   3.753   2.811   7.833  0.9808  3.6186  1.3090
 1318SOL     OW15589   1.782   1.383   8.505  0.2176  0.0943 -0.1549
 1318SOL    HW115590   1.711   1.444   8.527 -2.5583 -3.2348 -0.0491
 1318SOL    HW215591   1.859   1.431   8.473 -1.0563  0.8153 -2.1192
 1319SOL     OW15592   3.961   0.328   7.374  0.6452 -0.2357 -0.1455
 1319SOL    HW115593   3.928   0.374   7.451  0.8284 -0.1395 -0.1252
 1319SOL    HW215594   3.921   0.241   7.383  1.8045 -0.6669  0.8206
 1320SOL     OW15595   3.969   1.086   5.527  0.0371  0.0449 -1.1146
 1320SOL    HW115596   3.977   1.167   5.577 -0.5815 -0.5020 -0.1389
 1320SOL    HW215597   3.945   1.024   5.596  3.6587  1.8270  1.7456
 1321SOL     OW15598   3.629   3.366   9.998  0.2546  0.0625 -0.4321
 1321SOL    HW115599   3.611   3.366   9.904  0.6427  1.6776 -0.5193
 1321SOL    HW215600   3.634   3.272  10.015  1.2947  0.5859  2.1536
 1322SOL     OW15601   0.006   1.607   4.286  0.3757 -0.1906  0.0928
 1322SOL    HW115602   0.031   1.515   4.294  0.8027 -0.1939 -1.3535
 1322SOL    HW215603   4.708   1.621   4.376 -1.6304  0.7210 -0.7592
 1323SOL     OW15604   3.016   1.881   5.260 -0.0891 -0.5878  0.0962
 1323SOL    HW115605   3.076   1.806   5.255 -0.8722 -1.2071  0.0299
 1323SOL    HW215606   2.990   1.871   5.352  2.4614  0.5426  0.9602
 1324SOL     OW15607   1.189   1.133   6.693  0.7875  0.2913  0.3548
 1324SOL    HW115608   1.255   1.069   6.664 -2.2354 -1.6574 -2.2006
 1324SOL    HW215609   1.183   1.204   6.629  1.9781  1.7920  1.8881
 1325SOL     OW15610   2.720   4.127   1.660  0.5346 -0.0296  0.1321
 1325SOL    HW115611   2.801   4.087   1.629  1.4717  0.7532  1.5873
 1325SOL    HW215612   2.665   4.147   1.584  0.5094 -2.8059 -0.5865
 1326SOL     OW15613   0.588   2.226  11.172  0.0477  0.2352  0.2063
 1326SOL    HW115614   0.601   2.319  11.190  0.5761  0.7291 -2.7403
 1326SOL    HW215615   0.577   2.222  11.077 -2.1793 -0.5283  0.5035
 1327SOL     OW15616   1.504   1.756   3.358  0.4925  0.3726 -0.2781
 1327SOL    HW115617   1.594   1.765   3.391  0.7371  0.0925 -0.8775
 1327SOL    HW215618   1.469   1.702   3.429 -0.9825  2.4439  0.5936
 1328SOL     OW15619   1.383   0.738   1.876 -0.2654  0.5275 -0.0418
 1328SOL    HW115620   1.463   0.741   1.823 -1.5780 -1.9567 -2.1908
 1328SOL    HW215621   1.366   0.831   1.890  3.0604  0.8501  1.7941
 1329SOL     OW15622   3.550   1.608   6.602  0.2445  0.3439  0.0321
 1329SOL    HW115623   3.533   1.657   6.683 -1.6600 -0.3041  0.0256
 1329SOL    HW215624   3.624   1.652   6.561  1.6310  0.5561  2.7225
 1330SOL     OW15625   4.505   2.332   8.096 -0.0128  0.6788 -0.4561
 1330SOL    HW115626   4.520   2.339   8.190  1.2291 -1.2623 -0.5195
 1330SOL    HW215627   4.422   2.380   8.094 -1.5757 -2.1271 -1.9929
 1331SOL     OW15628   2.599   0.402   3.161  0.5089 -0.0679 -0.4390
 1331SOL    HW115629   2.623   0.378   3.072  1.2121  0.0840 -0.2927
 1331SOL    HW215630   2.668   0.366   3.216 -0.6946 -1.6889  0.0195
 1332SOL     OW15631   2.696   3.769   1.763 -0.2205 -0.0073 -0.2259
 1332SOL    HW115632   2.754   3.753   1.836  1.1371  0.2748 -1.2441
 1332SOL    HW215633   2.621   3.812   1.804  0.0390  0.4174 -0.2033
 1333SOL     OW15634   2.321   4.166   6.930  0.8055  0.0367 -0.2620
 1333SOL    HW115635   2.358   4.137   7.014 -0.2477 -0.3352  0.0881
 1333SOL    HW215636   2.355   4.255   6.926  0.0342  0.4973  2.9621
 1334SOL     OW15637   1.559   2.615   4.448  0.0254  0.4490 -0.1051
 1334SOL    HW115638   1.594   2.703   4.460 -0.3349  0.6348 -0.4339
 1334SOL    HW215639   1.546   2.592   4.540  0.2828 -0.7156 -0.3515
 1335SOL     OW15640   2.701   2.605   6.141  0.2658  0.1884  0.5767
 1335SOL    HW115641   2.649   2.543   6.191 -0.1170  2.6257  3.2202
 1335SOL    HW215642   2.737   2.669   6.203 -0.7121  0.5916  0.7363
 1336SOL     OW15643   4.214   3.307   7.719 -0.0122 -0.1155 -0.4216
 1336SOL    HW115644   4.178   3.389   7.686  1.9465  0.4148 -1.2740
 1336SOL    HW215645   4.246   3.268   7.637 -1.0647  2.2101 -1.9229
 1337SOL     OW15646   1.464   3.926   5.299 -0.3758 -0.4150  0.2092
 1337SOL    HW115647   1.516   3.954   5.223 -1.3028 -2.2077 -1.0772
 1337SOL    HW215648   1.434   3.842   5.264  1.4494 -0.2048 -1.8376
 1338SOL     OW15649   0.425   2.573   8.210  0.4805  0.5529  0.1050
 1338SOL    HW115650   0.460   2.661   8.220 -1.1919  0.9522  2.3011
 1338SOL    HW215651   0.510   2.528   8.208  0.0860 -0.1198 -1.5049
 1339SOL     OW15652   0.325   0.367   1.632 -0.1818  0.3764 -0.2612
 1339SOL    HW115653   0.293   0.277   1.633  0.6901  0.0856  1.4261
 1339SOL    HW215654   0.251   0.404   1.584 -0.0130  0.6691 -0.3015
 1340SOL     OW15655   1.026   1.084   2.626 -0.2279  0.5782 -0.0702
 1340SOL    HW115656   1.077   1.022   2.574  1.5262  2.3667 -0.4718
 1340SOL    HW215657   1.084   1.086   2.702 -0.4932  1.6775  0.1069
 1341SOL     OW15658   1.708   4.258  16.313 -0.0132 -0.2575  0.1372
 1341SOL    HW115659   1.747   4.303  16.238  1.6134 -1.6166  0.1560
 1341SOL    HW215660   1.644   4.201  16.269  0.5175  0.9272 -2.1556
 1342SOL     OW15661   1.594   2.230   6.566 -0.0428 -0.5107 -0.0282
 1342SOL    HW115662   1.568   2.321   6.554  0.2433 -0.4336 -0.0655
 1342SOL    HW215663   1.679   2.241   6.522  0.1660 -0.8132  0.2954
 1343SOL     OW15664   2.512   3.986  17.169 -0.0114  0.0903  0.0230
 1343SOL    HW115665   2.588   3.952  17.122 -1.0031 -0.4982 -1.1706
 1343SOL    HW215666   2.447   3.997  17.099  0.7633  0.3231 -0.6621
 1344SOL     OW15667   2.800   3.001   5.869  0.0205 -0.2660 -0.1024
 1344SOL    HW115668   2.753   3.023   5.949  0.6364 -1.0665  0.4806
 1344SOL    HW215669   2.772   2.910   5.858  2.0059 -0.9221  0.3879
 1345SOL     OW15670   4.088   2.656   1.674  0.3554  0.0017  0.3610
 1345SOL    HW115671   4.025   2.689   1.738 -0.3310  1.3922 -1.0292
 1345SOL    HW215672   4.121   2.736   1.633  1.6814 -1.3366 -1.1529
 1346SOL     OW15673   3.135   2.658   9.831 -0.0549 -0.1581 -0.0836
 1346SOL    HW115674   3.225   2.653   9.865 -0.8439 -0.8924  1.8703
 1346SOL    HW215675   3.123   2.566   9.809 -2.8605 -0.1477  1.3706
 1347SOL     OW15676   3.348   0.410   6.901 -0.4114  0.1100  0.1899
 1347SOL    HW115677   3.435   0.414   6.940 -0.2458  3.2394 -0.5584
 1347SOL    HW215678   3.292   0.389   6.976  1.3392  1.0185  1.7256
 1348SOL     OW15679   0.974   4.376  15.908  0.2026 -0.6425 -0.2134
 1348SOL    HW115680   1.001   4.289  15.937  1.7650  0.1870  0.8051
 1348SOL    HW215681   0.945   4.358  15.818  0.4512 -0.1001 -0.4055
 1349SOL     OW15682   1.186   1.975   3.430  0.5226  0.2277 -0.0920
 1349SOL    HW115683   1.100   1.974   3.473  0.6025  0.6742  0.0782
 1349SOL    HW215684   1.246   1.980   3.504 -1.4571 -1.7984  1.6701
 1350SOL     OW15685   2.843   2.617   2.863 -0.2418  0.5068  0.2759
 1350SOL    HW115686   2.874   2.690   2.918 -0.0752  0.1639  0.6395
 1350SOL    HW215687   2.925   2.577   2.831 -0.9160 -0.0213 -0.7963
 1351SOL     OW15688   0.357   4.096   4.945  0.3047 -0.0866  0.2047
 1351SOL    HW115689   0.329   4.159   5.011 -1.8846 -0.6722 -0.1596
 1351SOL    HW215690   0.453   4.102   4.946  0.1389  2.4893  0.6973
 1352SOL     OW15691   2.660   2.164   9.228 -0.5925 -0.5165 -0.8851
 1352SOL    HW115692   2.587   2.190   9.172 -1.3064 -1.9755 -0.6257
 1352SOL    HW215693   2.647   2.072   9.249 -0.7551 -0.3184 -0.1097
 1353SOL     OW15694   1.206   3.003   5.416  0.3392  0.0988  0.9939
 1353SOL    HW115695   1.140   3.062   5.451 -0.9215 -0.4858 -0.4206
 1353SOL    HW215696   1.168   2.924   5.453 -1.3576 -0.3360 -1.6766
 1354SOL     OW15697   3.222   2.887  16.919 -0.2339 -0.1330  0.1693
 1354SOL    HW115698   3.275   2.818  16.880  0.7641  1.5915 -1.5127
 1354SOL    HW215699   3.219   2.949  16.846 -1.0210 -0.3307  0.0314
 1355SOL     OW15700   1.980   1.939   9.446 -0.1439 -0.0578  0.3431
 1355SOL    HW115701   1.891   1.924   9.413 -0.6411 -0.8656  2.0287
 1355SOL    HW215702   1.956   1.925   9.538  0.5066 -0.4173  0.4554
 1356SOL     OW15703   1.128   1.318   6.505  0.0641 -0.2148  0.0142
 1356SOL    HW115704   1.113   1.389   6.567 -1.8359 -0.0984 -0.5724
 1356SOL    HW215705   1.037   1.294   6.485 -0.4526 -0.8992  3.2476
 1357SOL     OW15706   2.194   2.604   6.880  0.0365 -0.0666 -0.1285
 1357SOL    HW115707   2.106   2.567   6.879  0.3088 -0.7659  1.9425
 1357SOL    HW215708   2.243   2.537   6.927 -2.7601 -0.2390  2.5218
 1358SOL     OW15709   4.654   4.354   3.310  0.1779  0.1317 -0.4520
 1358SOL    HW115710   4.733   4.313   3.344 -1.5243 -1.1323  1.9816
 1358SOL    HW215711   4.692   4.431   3.267  0.6988 -1.4859 -2.8401
 1359SOL     OW15712   0.764   3.996   8.091  0.1717 -0.2363 -0.0812
 1359SOL    HW115713   0.755   4.075   8.145 -1.1669 -0.2798 -0.2362
 1359SOL    HW215714   0.711   3.933   8.140 -1.4715  1.1208 -0.1093
 1360SOL     OW15715   2.961   4.043  17.733 -0.1803  0.5043 -0.2593
 1360SOL    HW115716   3.017   3.995  17.672  0.4107  1.1419 -0.2232
 1360SOL    HW215717   2.893   4.068  17.671 -0.4578  0.6264  0.0955
 1361SOL     OW15718   1.918   2.252   3.114 -0.0052 -0.1314 -0.0929
 1361SOL    HW115719   1.864   2.176   3.137 -0.4503  0.6141  1.3387
 1361SOL    HW215720   1.861   2.320   3.151 -0.7965 -0.3054 -0.9951
 1362SOL     OW15721   0.310   2.584   2.484 -0.2081  0.0502  0.2116
 1362SOL    HW115722   0.232   2.550   2.441  0.9962 -0.0668 -1.8487
 1362SOL    HW215723   0.292   2.582   2.578  1.9280 -4.3159  0.5677
 1363SOL     OW15724   1.248   4.388  16.544 -0.1528 -0.3172  0.7936
 1363SOL    HW115725   1.187   4.362  16.475 -0.7150 -0.1137  1.2179
 1363SOL    HW215726   1.216   4.339  16.620  2.0150 -2.1555  0.5344
 1364SOL     OW15727   0.535   2.344   6.799  0.3592 -0.1216 -0.1885
 1364SOL    HW115728   0.471   2.353   6.728 -0.9306 -1.7606  0.7655
 1364SOL    HW215729   0.507   2.262   6.841 -0.4004  0.1701 -0.1189
 1365SOL     OW15730   4.405   0.777  12.064  0.3841 -0.8109 -0.8943
 1365SOL    HW115731   4.386   0.684  12.055  0.2896 -0.9212  0.4518
 1365SOL    HW215732   4.412   0.806  11.973 -0.6966 -0.0101 -0.7084
 1366SOL     OW15733   4.506   0.654   2.452  0.0790 -0.0296 -0.4457
 1366SOL    HW115734   4.594   0.665   2.416  0.1209 -3.4107 -1.3560
 1366SOL    HW215735   4.522   0.609   2.535 -0.0933 -1.1851 -1.0451
 1367SOL     OW15736   3.509   2.799  10.499  0.5150  0.5870  0.5393
 1367SOL    HW115737   3.524   2.752  10.581 -3.0135 -0.5644  0.5388
 1367SOL    HW215738   3.413   2.791  10.491  0.4544  1.2827  0.5760
 1368SOL     OW15739   1.347   3.557   5.637 -0.2970 -0.2490  0.6346
 1368SOL    HW115740   1.391   3.641   5.627  2.0544 -1.5778 -0.0230
 1368SOL    HW215741   1.367   3.510   5.557 -1.4693 -0.9034  0.7231
 1369SOL     OW15742   0.772   0.754  14.977 -0.0014 -0.6253 -0.1376
 1369SOL    HW115743   0.678   0.770  14.984  0.1560  0.5135 -0.5830
 1369SOL    HW215744   0.799   0.803  15.055 -1.0774 -1.8639  1.0052
 1370SOL     OW15745   0.852   4.569   4.048  0.3709  0.3868 -0.1631
 1370SOL    HW115746   0.770   4.582   4.000  0.1969  2.8859  0.8426
 1370SOL    HW215747   0.917   4.552   3.980  0.2600  0.5991 -0.3223
 1371SOL     OW15748   2.404   1.966  12.786  0.1443 -0.8228  0.4995
 1371SOL    HW115749   2.364   2.048  12.815  2.1013  0.1277  0.4820
 1371SOL    HW215750   2.457   1.943  12.862  0.0625 -3.2555 -0.1757
 1372SOL     OW15751   2.870   3.120   4.947  0.0745  0.5387  0.2406
 1372SOL    HW115752   2.831   3.194   4.995 -1.5386 -0.5707  0.6055
 1372SOL    HW215753   2.882   3.053   5.014  2.9945  0.0101 -0.8079
 1373SOL     OW15754   0.730   2.663  14.076 -0.1202 -0.2137  0.1114
 1373SOL    HW115755   0.798   2.704  14.128  0.4479  1.2758 -1.8077
 1373SOL    HW215756   0.679   2.737  14.044  1.3131  1.8043  2.5699
 1374SOL     OW15757   4.648   1.254   3.930  0.3535 -0.7436  0.2907
 1374SOL    HW115758   4.621   1.176   3.978 -1.1489  0.1822  0.9452
 1374SOL    HW215759   4.623   1.324   3.990  0.8538 -1.5397  1.4153
 1375SOL     OW15760   2.940   4.255   4.705 -0.1805  0.1750  0.8739
 1375SOL    HW115761   2.917   4.304   4.784 -1.5989  3.0414 -1.3366
 1375SOL    HW215762   3.032   4.279   4.691 -1.1589  1.4047 -3.3712
 1376SOL     OW15763   3.589   1.446   7.734  0.5038 -0.1530 -0.2683
 1376SOL    HW115764   3.541   1.409   7.808  0.3711 -1.4429 -1.0004
 1376SOL    HW215765   3.679   1.455   7.766 -0.5638  2.6953  2.0028
 1377SOL     OW15766   3.171   4.636   1.117  0.6335  0.2588 -0.9539
 1377SOL    HW115767   3.149   4.725   1.091  0.0353  1.2469  2.8882
 1377SOL    HW215768   3.259   4.632   1.079 -0.1778 -0.2597 -2.7449
 1378SOL     OW15769   3.051   1.957   3.500 -0.2404  0.2011  0.0716
 1378SOL    HW115770   3.041   1.883   3.440  0.1791  1.1770 -1.1859
 1378SOL    HW215771   3.059   2.029   3.438 -0.5780 -0.7946 -1.1128
 1379SOL     OW15772   3.476   3.303   1.886  0.2134 -0.3215  0.3714
 1379SOL    HW115773   3.423   3.282   1.962 -1.8200  1.1281 -0.6124
 1379SOL    HW215774   3.543   3.356   1.929  0.1728  0.2047 -0.2059
 1380SOL     OW15775   2.664   2.052  15.828 -0.0015 -0.8026 -0.5011
 1380SOL    HW115776   2.706   2.053  15.914  0.3060  1.0798 -0.6641
 1380SOL    HW215777   2.604   2.126  15.817  0.4542 -0.5621 -1.4083
 1381SOL     OW15778   4.547   0.122   4.135 -0.5143  0.3809 -1.0651
 1381SOL    HW115779   4.625   0.071   4.155  1.1619  2.8819 -1.3121
 1381SOL    HW215780   4.564   0.189   4.201  0.1804  0.2701 -1.1358
 1382SOL     OW15781   0.882   2.252   8.293  0.9200  0.2508 -0.0370
 1382SOL    HW115782   0.963   2.284   8.334 -0.0013  0.5759  1.5326
 1382SOL    HW215783   0.887   2.287   8.204 -0.7162 -0.5903 -0.4516
 1383SOL     OW15784   3.465   1.786  10.444 -0.2791 -0.0240 -0.2794
 1383SOL    HW115785   3.466   1.720  10.374 -1.8668  0.4216 -0.7162
 1383SOL    HW215786   3.390   1.835  10.413 -0.0300 -0.6395 -1.8823
 1384SOL     OW15787   1.661   0.207   7.432 -0.1315  0.4490 -0.5429
 1384SOL    HW115788   1.641   0.205   7.526 -1.1396  0.4060 -0.7548
 1384SOL    HW215789   1.711   0.126   7.427 -0.0243  0.4242  1.0146
 1385SOL     OW15790   1.198   1.745   5.627 -0.7172  0.3829 -0.7350
 1385SOL    HW115791   1.148   1.791   5.560  2.1035  3.3703 -0.7586
 1385SOL    HW215792   1.242   1.678   5.576  2.7925  0.8368  1.7226
 1386SOL     OW15793   1.508   0.386   3.419 -0.0710 -0.6183 -0.0457
 1386SOL    HW115794   1.536   0.417   3.506  1.7742  0.6887 -1.1105
 1386SOL    HW215795   1.413   0.399   3.429  0.0130 -0.1935  0.2058
 1387SOL     OW15796   1.565   2.348   8.518 -0.1434  0.3646 -0.0681
 1387SOL    HW115797   1.655   2.355   8.485  0.5875 -0.0594  1.8003
 1387SOL    HW215798   1.560   2.433   8.560  1.2598  0.6158 -0.4165
 1388SOL     OW15799   1.474   3.635   5.213  0.1920  0.0083 -0.3115
 1388SOL    HW115800   1.552   3.665   5.166  1.4843 -3.7927 -0.6551
 1388SOL    HW215801   1.511   3.585   5.286  1.7225 -0.8540 -1.6701
 1389SOL     OW15802   0.713   2.257   4.619  0.1655  0.0461 -0.2575
 1389SOL    HW115803   0.730   2.326   4.555 -0.0545  0.8339  0.5353
 1389SOL    HW215804   0.751   2.290   4.700 -1.4524  0.7114  0.2379
 1390SOL     OW15805   0.305   1.759   9.283 -0.1837 -0.3067  0.1804
 1390SOL    HW115806   0.217   1.723   9.288  0.4158 -1.5533  1.7665
 1390SOL    HW215807   0.344   1.692   9.340 -1.6616  0.2265  1.8010
 1391SOL     OW15808   1.332   4.679   4.057 -0.0182 -0.6868  0.7216
 1391SOL    HW115809   1.295   0.028   4.028 -2.0707 -1.0676  2.2503
 1391SOL    HW215810   1.405   4.674   3.995 -0.1346  0.3016  0.5187
 1392SOL     OW15811   1.559   0.086   4.953 -0.6106  0.1521  0.3529
 1392SOL    HW115812   1.541   0.064   4.862 -0.3783 -1.9466  0.8075
 1392SOL    HW215813   1.494   0.037   5.005  0.1211 -0.8701  0.3012
 1393SOL     OW15814   2.033   0.298   5.851 -0.3047  0.0082 -0.2111
 1393SOL    HW115815   1.944   0.334   5.849  0.6820  2.5943  2.4754
 1393SOL    HW215816   2.086   0.378   5.850 -1.1300  0.5213 -2.9041
 1394SOL     OW15817   1.156   2.230   5.130 -0.1727 -0.3208 -0.5093
 1394SOL    HW115818   1.095   2.301   5.150 -0.3536  0.0018 -2.1754
 1394SOL    HW215819   1.238   2.269   5.160  0.2924 -1.1407 -0.7002
 1395SOL     OW15820   2.263   0.872   7.875  0.2832  0.5516 -0.2332
 1395SOL    HW115821   2.315   0.907   7.803 -1.2363 -0.3804 -1.7969
 1395SOL    HW215822   2.212   0.802   7.834 -1.9945  1.0320  1.7374
 1396SOL     OW15823   2.682   1.971   6.237 -0.2159 -0.6731 -0.2256
 1396SOL    HW115824   2.625   2.048   6.236 -1.1942 -1.3673  2.6118
 1396SOL    HW215825   2.661   1.937   6.150  0.1581 -2.9169  0.5447
 1397SOL     OW15826   2.109   0.273   6.426  0.2670  0.3415 -0.2294
 1397SOL    HW115827   2.174   0.341   6.446  0.5166 -0.3982  1.4993
 1397SOL    HW215828   2.036   0.291   6.485 -1.0659 -1.8431 -1.2301
 1398SOL     OW15829   1.671   3.837  16.174 -0.6319  0.0476  0.3837
 1398SOL    HW115830   1.583   3.828  16.136 -0.4107  1.3169 -0.4419
 1398SOL    HW215831   1.726   3.770  16.134  1.6216  2.0468  0.1705
 1399SOL     OW15832   3.597   4.433   4.357 -0.5706  0.0656  0.1513
 1399SOL    HW115833   3.553   4.449   4.274 -0.9549  1.0808  0.5447
 1399SOL    HW215834   3.667   4.370   4.339 -2.3508 -0.5315 -4.5548
 1400SOL     OW15835   4.554   4.123  12.028 -0.1700 -0.2282 -0.0764
 1400SOL    HW115836   4.510   4.202  12.059 -0.1582 -0.1208 -0.3336
 1400SOL    HW215837   4.526   4.127  11.936 -0.3793 -0.7676 -0.0411
 1401SOL     OW15838   0.875   1.245   6.512 -0.2683 -0.0291  0.2996
 1401SOL    HW115839   0.828   1.206   6.585 -0.8586  0.2583  0.0725
 1401SOL    HW215840   0.810   1.306   6.476  1.5409  1.8191  0.1799
 1402SOL     OW15841   0.080   2.156   4.570  0.0976 -0.2462 -0.0749
 1402SOL    HW115842   0.150   2.195   4.621  1.5679  0.3029 -2.5325
 1402SOL    HW215843   0.110   2.187   4.485  1.8137 -1.5984  0.0261
 1403SOL     OW15844   3.530   4.443   4.982  0.1754  0.2296 -0.3589
 1403SOL    HW115845   3.530   4.507   5.054 -0.3237  1.6012 -1.5854
 1403SOL    HW215846   3.615   4.398   4.987  1.1811  2.1288 -0.4059
 1404SOL     OW15847   1.686   2.153  16.159 -0.2443  0.3060 -0.3753
 1404SOL    HW115848   1.635   2.234  16.167 -1.8954 -0.7205 -0.2911
 1404SOL    HW215849   1.760   2.170  16.216 -1.8209  0.7246  1.5696
 1405SOL     OW15850   3.102   3.118   1.235 -0.2250  0.0265  0.5094
 1405SOL    HW115851   3.173   3.148   1.291 -0.0726  1.2452 -0.3397
 1405SOL    HW215852   3.030   3.175   1.262  1.4752  2.4319 -0.0882
 1406SOL     OW15853   1.865   2.689  17.415  0.1459  0.0602 -0.0559
 1406SOL    HW115854   1.957   2.714  17.425 -0.7436  2.2763  2.6020
 1406SOL    HW215855   1.835   2.707  17.504  2.7540  1.5434  0.5425
 1407SOL     OW15856   3.162   2.477  10.199  0.1835 -0.3519  0.7236
 1407SOL    HW115857   3.194   2.454  10.111 -0.2300 -1.8776  0.9700
 1407SOL    HW215858   3.238   2.514  10.243 -0.6331 -1.7408  3.3021
 1408SOL     OW15859   4.574   1.000   6.845 -0.4858  0.2623  0.1644
 1408SOL    HW115860   4.655   1.039   6.812 -0.5003  0.3850  0.2751
 1408SOL    HW215861   4.512   1.021   6.775 -0.3580  0.1755  0.0233
 1409SOL     OW15862   0.788   1.550  12.668 -0.4660 -0.1921 -0.5146
 1409SOL    HW115863   0.881   1.549  12.692 -0.2156 -0.6814 -1.4864
 1409SOL    HW215864   0.758   1.553  12.758  1.1293 -1.5737  0.0734
 1410SOL     OW15865   0.074   4.313  16.401 -1.0984 -0.8941  0.1400
 1410SOL    HW115866   0.029   4.377  16.456  0.3884 -0.4221  0.8267
 1410SOL    HW215867   4.733   4.273  16.357 -2.1277  0.1444  0.9700
 1411SOL     OW15868   3.809   1.158   4.164 -0.1280 -0.4664 -0.2706
 1411SOL    HW115869   3.814   1.193   4.076 -0.4960  0.1468 -0.0498
 1411SOL    HW215870   3.898   1.125   4.173  0.0367  0.3243  1.0627
 1412SOL     OW15871   2.296   4.218   2.009 -0.8078  0.4441  0.4200
 1412SOL    HW115872   2.367   4.208   1.945 -2.3923 -3.2344 -0.7711
 1412SOL    HW215873   2.302   4.136   2.058  0.0499  0.9869  1.2248
 1413SOL     OW15874   0.545   2.248  13.520  0.0506 -0.2364 -0.2311
 1413SOL    HW115875   0.612   2.205  13.574  2.5340 -0.3654 -3.4535
 1413SOL    HW215876   0.517   2.321  13.574 -0.3041 -0.6427  0.1357
 1414SOL     OW15877   0.628   1.013  10.182  0.0596 -0.3988  0.2432
 1414SOL    HW115878   0.706   1.019  10.126  1.2048 -0.7598  1.7712
 1414SOL    HW215879   0.664   1.071  10.250 -1.3141  0.4954  0.1950
 1415SOL     OW15880   0.078   1.762  14.395  0.1907  0.2095 -0.7551
 1415SOL    HW115881   4.733   1.814  14.379 -0.8261 -1.5224 -1.4409
 1415SOL    HW215882   0.144   1.824  14.364  1.5853 -0.5177  0.7699
 1416SOL     OW15883   3.760   1.656  11.891  0.5016  0.4372 -0.1994
 1416SOL    HW115884   3.694   1.607  11.841  0.1465  0.1207  0.5798
 1416SOL    HW215885   3.731   1.747  11.896 -1.7868 -0.2832 -0.5883
 1417SOL     OW15886   4.456   1.277   3.748  0.2664  0.3146  0.3430
 1417SOL    HW115887   4.447   1.181   3.751 -0.0603  0.3663  1.0075
 1417SOL    HW215888   4.481   1.293   3.839 -1.6060 -0.2452  0.9595
 1418SOL     OW15889   1.297   0.955   2.748 -0.3189 -0.4362 -0.2063
 1418SOL    HW115890   1.328   1.029   2.696 -2.7016  0.6483 -0.0689
 1418SOL    HW215891   1.377   0.919   2.786 -0.5680  1.2864  1.9668
 1419SOL     OW15892   2.986   3.928   5.295  0.2006  0.1823  0.0024
 1419SOL    HW115893   2.962   4.020   5.308 -3.3548 -0.7177  0.0015
 1419SOL    HW215894   3.048   3.952   5.226  0.8402 -2.6249 -0.3812
 1420SOL     OW15895   4.117   3.976   6.455 -0.1858  0.7110  0.1647
 1420SOL    HW115896   4.161   4.044   6.506 -0.4386  0.6550  0.4593
 1420SOL    HW215897   4.094   3.898   6.506  1.3381 -0.9271 -1.6836
 1421SOL     OW15898   0.346   0.117  12.990  0.6220 -0.2474 -0.5986
 1421SOL    HW115899   0.352   0.114  13.085  0.0921  0.6783 -0.5427
 1421SOL    HW215900   0.270   0.166  12.960  0.4192 -0.0447  0.2571
 1422SOL     OW15901   0.794   2.796   9.172  0.1429  0.0040 -0.2038
 1422SOL    HW115902   0.816   2.708   9.203 -0.2388 -0.0013  0.0500
 1422SOL    HW215903   0.859   2.854   9.212 -0.5296 -0.9724  2.2684
 1423SOL     OW15904   3.437   1.333   7.548 -0.2160 -0.5611  0.2510
 1423SOL    HW115905   3.478   1.386   7.615 -1.7488  0.3687  0.4722
 1423SOL    HW215906   3.372   1.395   7.514  3.3276  1.4844 -2.7487
 1424SOL     OW15907   2.551   4.585   5.152  0.1833  0.0239 -0.2330
 1424SOL    HW115908   2.464   4.599   5.116 -0.1713 -1.4698  0.0675
 1424SOL    HW215909   2.568   4.492   5.165 -2.1931 -0.6615 -2.2428
 1425SOL     OW15910   4.528   4.152  14.587  0.0414 -0.0077  0.7361
 1425SOL    HW115911   4.526   4.135  14.681  0.2773 -0.4518  0.6585
 1425SOL    HW215912   4.470   4.085  14.550  1.6728 -0.6157 -0.6917
 1426SOL     OW15913   2.816   1.199   6.585  0.0767 -0.4198  0.1803
 1426SOL    HW115914   2.733   1.191   6.633 -2.5730  1.6387 -4.0707
 1426SOL    HW215915   2.797   1.264   6.517  2.5983 -0.4060 -0.5085
 1427SOL     OW15916   2.319   2.792   7.733  0.5662 -0.0893  0.0192
 1427SOL    HW115917   2.294   2.700   7.736 -0.8944  0.3583  1.7503
 1427SOL    HW215918   2.409   2.781   7.764  0.1500 -2.2261  0.4561
 1428SOL     OW15919   2.152   1.954   4.744 -0.2600 -0.2224 -0.0939
 1428SOL    HW115920   2.186   2.000   4.668 -0.3420  0.8573  0.5270
 1428SOL    HW215921   2.200   1.872   4.731  0.4175  0.4058 -1.5333
 1429SOL     OW15922   2.977   2.650   0.420  0.0602 -0.4744 -0.2275
 1429SOL    HW115923   2.902   2.624   0.474  0.3884 -1.1272 -0.0727
 1429SOL    HW215924   2.929   2.685   0.345 -1.2388 -2.4436 -0.3284
 1430SOL     OW15925   2.589   4.168   0.126  0.1492  0.2894  0.6546
 1430SOL    HW115926   2.644   4.099   0.164  0.2383  1.5624  2.8447
 1430SOL    HW215927   2.653   4.237   0.107  1.3489 -0.7582  0.8150
 1431SOL     OW15928   3.655   2.278  12.339  0.5395 -0.2526  0.5909
 1431SOL    HW115929   3.633   2.354  12.286  1.3857 -0.5908 -0.2326
 1431SOL    HW215930   3.748   2.291  12.360  0.8610  0.9867 -1.7387
 1432SOL     OW15931   1.393   0.386   2.798  0.1936 -0.1669  0.3273
 1432SOL    HW115932   1.473   0.414   2.841  0.1037 -0.4039  0.6498
 1432SOL    HW215933   1.377   0.304   2.844 -0.0362 -1.0004 -1.2057
 1433SOL     OW15934   0.819   2.152   4.327 -0.0579 -0.4819  0.5200
 1433SOL    HW115935   0.801   2.230   4.274 -0.6624 -2.8825 -2.7738
 1433SOL    HW215936   0.913   2.164   4.312  0.7866 -2.7458  4.1516
 1434SOL     OW15937   0.166   3.884   4.451 -0.2096  0.2465  0.1094
 1434SOL    HW115938   0.237   3.943   4.472  0.4789 -0.9834  1.2234
 1434SOL    HW215939   0.087   3.938   4.446  0.5475  1.5764  2.7129
 1435SOL     OW15940   1.222   4.450  14.858  0.0390 -0.0072  0.0110
 1435SOL    HW115941   1.189   4.496  14.936  2.5869  0.0426  1.0481
 1435SOL    HW215942   1.296   4.502  14.829  0.5743 -0.2324  0.9810
 1436SOL     OW15943   4.539   4.570   3.519  0.4694 -0.6546 -0.0273
 1436SOL    HW115944   4.630   4.559   3.546 -0.2414 -1.1134  2.1377
 1436SOL    HW215945   4.524   4.503   3.453  0.1385 -0.9698  0.3663
 1437SOL     OW15946   4.290   1.640   3.235 -0.2486  0.0391  0.4785
 1437SOL    HW115947   4.277   1.730   3.206 -1.5807 -0.6717 -1.1192
 1437SOL    HW215948   4.319   1.594   3.156 -0.0237 -0.1768  0.6894
 1438SOL     OW15949   0.746   4.407  17.357  0.0249 -0.1296 -0.1110
 1438SOL    HW115950   0.684   4.478  17.337 -0.0441  0.6588  2.8926
 1438SOL    HW215951   0.703   4.333  17.314 -2.3228 -0.6339  3.0934
 1439SOL     OW15952   2.378   2.990   3.994  0.2476  0.2029 -0.5162
 1439SOL    HW115953   2.397   3.084   4.004 -0.8714  0.2963  0.7876
 1439SOL    HW215954   2.448   2.945   4.040 -0.5620 -1.4755 -0.9201
 1440SOL     OW15955   0.267   3.686   8.074 -0.3268 -0.6742  0.3391
 1440SOL    HW115956   0.226   3.746   8.137  1.5577 -0.3840  1.3055
 1440SOL    HW215957   0.193   3.653   8.023  0.2428 -1.8689  0.2691
 1441SOL     OW15958   1.694   0.200   3.312  0.4174  0.4995  0.2663
 1441SOL    HW115959   1.672   0.113   3.346  1.1115 -0.3662 -1.4881
 1441SOL    HW215960   1.627   0.258   3.347  0.0468  0.6098 -0.6123
 1442SOL     OW15961   1.840   2.784  13.180  0.3277 -0.5413 -0.3916
 1442SOL    HW115962   1.921   2.833  13.194  0.1810 -0.9489  1.8739
 1442SOL    HW215963   1.796   2.828  13.107  2.8840  0.0451 -1.5688
 1443SOL     OW15964   3.862   0.066   2.349 -0.2619  0.5289  0.2769
 1443SOL    HW115965   3.946   0.079   2.393 -0.0987  1.0352 -0.1813
 1443SOL    HW215966   3.806   0.041   2.422  0.4032  0.0009  0.6128
 1444SOL     OW15967   4.286   1.664   6.685  0.0801  0.5924 -0.1572
 1444SOL    HW115968   4.267   1.714   6.764 -2.4605 -1.8415  0.7633
 1444SOL    HW215969   4.226   1.713   6.630 -2.7531 -1.2938  1.2506
 1445SOL     OW15970   2.668   2.068  16.276  0.3973  0.0226  0.2839
 1445SOL    HW115971   2.576   2.042  16.283  0.5628 -0.5930  0.1636
 1445SOL    HW215972   2.659   2.139  16.212 -1.7339 -1.1352 -0.7014
 1446SOL     OW15973   1.348   4.596   2.136  0.2631  0.1938 -0.0626
 1446SOL    HW115974   1.390   4.556   2.060 -0.5134 -0.0734 -0.3416
 1446SOL    HW215975   1.416   4.652   2.173  0.5537 -0.2534  0.0886
 1447SOL     OW15976   1.389   4.102  12.083  0.0710  0.0016 -0.8730
 1447SOL    HW115977   1.360   4.060  12.003  1.9140 -2.0921 -0.4215
 1447SOL    HW215978   1.349   4.188  12.068  0.4117  0.5177  1.0948
 1448SOL     OW15979   4.559   0.244  17.671 -0.1733  0.4357 -0.3100
 1448SOL    HW115980   4.641   0.196  17.667  0.7467  1.8389  1.7454
 1448SOL    HW215981   4.576   0.311   0.002 -0.0527 -0.1453  0.2410
 1449SOL     OW15982   4.262   0.597   3.511  0.3731 -0.5239  0.0860
 1449SOL    HW115983   4.284   0.507   3.489  2.8204  0.0444  0.1683
 1449SOL    HW215984   4.201   0.619   3.441 -1.3412  0.5769  1.9023
 1450SOL     OW15985   1.366   1.602   3.565 -0.0528 -0.7764 -0.1257
 1450SOL    HW115986   1.323   1.541   3.625  0.0271 -1.4889 -0.7966
 1450SOL    HW215987   1.424   1.639   3.632  1.1056 -2.7072 -0.0820
 1451SOL     OW15988   2.152   3.936   2.946  0.2172 -0.1765 -0.2680
 1451SOL    HW115989   2.178   3.967   2.859  1.3096  0.3217  0.2372
 1451SOL    HW215990   2.067   3.892   2.944  0.4627 -0.6303 -0.7159
 1452SOL     OW15991   3.871   1.273   3.927  0.1434 -0.8035  0.0703
 1452SOL    HW115992   3.858   1.197   3.869  1.5871 -1.4923  0.6468
 1452SOL    HW215993   3.841   1.344   3.870 -0.3539 -0.6968  0.4654
 1453SOL     OW15994   2.924   3.694   9.185 -0.3186  0.1031 -0.1701
 1453SOL    HW115995   2.962   3.672   9.270 -0.1015  0.5974 -0.1393
 1453SOL    HW215996   2.917   3.604   9.154 -2.2506 -0.1953  1.1470
 1454SOL     OW15997   0.051   0.530   5.490  0.0219 -0.5893  0.4611
 1454SOL    HW115998   4.710   0.590   5.493  1.7253  1.5967 -0.3903
 1454SOL    HW215999   0.007   0.450   5.518 -0.7271 -0.0709  0.7773
 1455SOL     OW16000   1.843   2.963   4.232  0.3375  0.5808  0.1446
 1455SOL    HW116001   1.913   3.023   4.207  0.0012  2.2987  3.3514
 1455SOL    HW216002   1.789   2.956   4.153  0.8283 -1.4438 -0.0128
 1456SOL     OW16003   4.514   0.632   3.283  0.1958 -0.3536 -0.3873
 1456SOL    HW116004   4.454   0.564   3.253 -1.6103  0.0317  2.3468
 1456SOL    HW216005   4.588   0.624   3.223  1.1248  0.3613  0.6818
 1457SOL     OW16006   3.451   3.581   2.081 -0.1732  0.2916  0.1558
 1457SOL    HW116007   3.455   3.534   2.164 -1.1768  0.6440  0.4108
 1457SOL    HW216008   3.467   3.674   2.095 -1.4871  0.9511 -2.6627
 1458SOL     OW16009   3.435   0.816   4.787  0.1128 -0.2610 -0.1240
 1458SOL    HW116010   3.413   0.723   4.792  2.2531 -0.7419  0.2677
 1458SOL    HW216011   3.416   0.846   4.876 -0.3927  1.2022 -0.7139
 1459SOL     OW16012   1.449   3.802   3.521 -0.4587  0.7510 -0.3438
 1459SOL    HW116013   1.369   3.750   3.528 -1.0231  1.8976  1.8281
 1459SOL    HW216014   1.464   3.803   3.427 -1.8205 -2.1830 -0.6069
 1460SOL     OW16015   1.380   1.192  11.374  0.3370 -0.4849  0.9541
 1460SOL    HW116016   1.452   1.199  11.311 -0.5702  0.8930  0.0793
 1460SOL    HW216017   1.416   1.235  11.451 -0.4709  0.3741  0.8548
 1461SOL     OW16018   0.139   1.887   8.187 -0.4350 -0.0454  0.6181
 1461SOL    HW116019   0.161   1.941   8.263  0.7409  1.4904 -0.8294
 1461SOL    HW216020   0.045   1.877   8.205 -1.0850  3.1841 -0.9563
 1462SOL     OW16021   1.309   0.995   5.658 -0.0620  0.2459 -0.1325
 1462SOL    HW116022   1.318   1.064   5.592  1.9265  1.6170  1.6037
 1462SOL    HW216023   1.241   1.040   5.710 -0.3180  2.2409 -2.1721
 1463SOL     OW16024   3.290   4.323   6.171 -0.0585 -0.2374 -0.1426
 1463SOL    HW116025   3.300   4.353   6.262  0.3148  0.2727 -0.3497
 1463SOL    HW216026   3.198   4.342   6.151  0.1899  0.6437 -0.4647
 1464SOL     OW16027   0.811   2.640   4.221 -0.2074  0.1456 -0.1123
 1464SOL    HW116028   0.758   2.712   4.186 -1.6586 -2.1779 -2.6655
 1464SOL    HW216029   0.894   2.686   4.232 -1.2157  2.1661 -0.9956
 1465SOL     OW16030   0.409   1.861   6.313 -0.0376  0.1918  0.1159
 1465SOL    HW116031   0.392   1.839   6.222  0.0297 -3.3102  0.9618
 1465SOL    HW216032   0.465   1.938   6.298  0.6973 -0.4082 -0.2127
 1466SOL     OW16033   3.695   1.567  12.887  0.5096  0.8394 -0.2787
 1466SOL    HW116034   3.742   1.543  12.807 -0.2410 -0.3185 -0.3779
 1466SOL    HW216035   3.693   1.662  12.889 -1.6394  0.8068 -1.7836
 1467SOL     OW16036   0.018   3.064   1.772  0.2440 -0.2851  0.0591
 1467SOL    HW116037   0.041   3.095   1.685 -0.0919 -1.7987 -0.5674
 1467SOL    HW216038   4.674   3.014   1.750  1.6606 -1.2575 -2.6847
 1468SOL     OW16039   0.267   0.108   5.940 -0.1004 -0.3928  0.2920
 1468SOL    HW116040   0.288   0.153   6.021 -2.4835  0.1553  0.5961
 1468SOL    HW216041   0.199   0.171   5.913 -0.8038 -1.3142 -0.0956
 1469SOL     OW16042   2.068   2.013   0.903  0.3058 -0.2080 -0.0660
 1469SOL    HW116043   2.161   2.030   0.891 -0.4821  1.6987 -3.4989
 1469SOL    HW216044   2.051   1.920   0.888  0.6755 -0.8452  3.4644
 1470SOL     OW16045   3.254   3.852   0.194  0.1665  0.1349 -0.5174
 1470SOL    HW116046   3.319   3.801   0.242  0.0610  0.4829 -0.0047
 1470SOL    HW216047   3.307   3.877   0.118  0.7548  1.6293  0.3656
 1471SOL     OW16048   2.011   0.112   1.142  0.1441 -0.1726 -0.1445
 1471SOL    HW116049   2.033   0.019   1.140  0.0928 -0.1836 -0.2028
 1471SOL    HW216050   1.994   0.120   1.048  1.5870  1.6476 -0.2485
 1472SOL     OW16051   0.790   2.590   3.384 -0.5482  0.0770  0.1393
 1472SOL    HW116052   0.839   2.585   3.465  0.3849  2.7009 -0.2520
 1472SOL    HW216053   0.733   2.665   3.403 -2.3005 -0.5913 -2.4398
 1473SOL     OW16054   1.956   4.383  14.473  0.0527  0.8060 -0.1534
 1473SOL    HW116055   1.972   4.470  14.511 -2.3337  1.5057 -0.7360
 1473SOL    HW216056   2.045   4.353  14.460 -0.3366  0.1212 -1.1965
 1474SOL     OW16057   3.006   4.652   4.792 -0.9751 -0.0868 -0.0015
 1474SOL    HW116058   3.025   4.565   4.826 -0.9623 -0.4849 -1.0278
 1474SOL    HW216059   3.000   4.705   4.872  1.4178  3.3097 -2.0730
 1475SOL     OW16060   2.004   3.680   5.825 -0.4251 -0.2331 -0.1505
 1475SOL    HW116061   2.034   3.752   5.769  0.6855 -2.0424 -1.9012
 1475SOL    HW216062   1.914   3.676   5.794 -1.2563 -0.5055  2.2924
 1476SOL     OW16063   4.284   1.099   7.664 -0.0950  0.1743 -0.7663
 1476SOL    HW116064   4.264   1.060   7.579  1.6946  1.3657 -1.7347
 1476SOL    HW216065   4.376   1.075   7.678 -0.0217  0.8408 -0.1104
 1477SOL     OW16066   4.125   4.490   3.696 -0.5655 -0.1173 -0.5393
 1477SOL    HW116067   4.208   4.443   3.685 -0.5133 -0.4485  1.2890
 1477SOL    HW216068   4.061   4.431   3.735  1.5061 -2.9456 -1.4415
 1478SOL     OW16069   1.979   2.867   6.396 -0.2534 -0.6522 -0.4923
 1478SOL    HW116070   1.930   2.925   6.454  0.7039  0.9628 -1.2904
 1478SOL    HW216071   2.067   2.860   6.432  0.0226  2.5504 -0.5971
 1479SOL     OW16072   2.430   0.412   8.000 -0.0612 -0.5731 -0.5865
 1479SOL    HW116073   2.471   0.464   7.931  0.9179 -1.4264 -0.6478
 1479SOL    HW216074   2.508   0.401   8.055 -0.9971 -1.3996  0.5735
 1480SOL     OW16075   2.494   4.105   6.365  0.0696 -0.1818 -0.5071
 1480SOL    HW116076   2.552   4.101   6.440  1.1353  1.1209 -1.2620
 1480SOL    HW216077   2.408   4.121   6.404 -1.3443 -0.8165 -3.3534
 1481SOL     OW16078   1.091   3.946   0.071  0.3160 -0.0863  0.7722
 1481SOL    HW116079   1.051   3.875   0.122  0.0272  0.1187  0.8322
 1481SOL    HW216080   1.036   3.945  17.729  0.1260 -0.1585  0.9083
 1482SOL     OW16081   1.483   1.879  11.095  0.2054 -0.5530  0.1746
 1482SOL    HW116082   1.426   1.956  11.104  0.8751 -0.0089 -0.2474
 1482SOL    HW216083   1.567   1.898  11.135  1.0982  0.1775 -2.0110
 1483SOL     OW16084   3.822   3.639   2.291  0.0921  0.5425  0.4495
 1483SOL    HW116085   3.774   3.679   2.363 -1.0546  1.4455 -0.8250
 1483SOL    HW216086   3.779   3.554   2.284  1.6492 -0.0292 -2.5348
 1484SOL     OW16087   1.143   4.613  16.761 -0.5974  0.3475 -0.1194
 1484SOL    HW116088   1.226   4.641  16.723 -0.8741 -0.4092 -1.2578
 1484SOL    HW216089   1.152   4.518  16.774  1.5339  0.5140 -0.4044
 1485SOL     OW16090   3.202   2.159   7.688 -0.1850  0.2944  0.6076
 1485SOL    HW116091   3.167   2.205   7.764  1.7137  0.7113  1.2458
 1485SOL    HW216092   3.152   2.078   7.698  1.0248 -0.4132  1.0921
 1486SOL     OW16093   2.346   0.678   6.681  0.3185 -0.0619 -0.3397
 1486SOL    HW116094   2.289   0.656   6.755  2.3903 -2.2631  0.5723
 1486SOL    HW216095   2.426   0.708   6.724 -1.1154  2.8702  0.2750
 1487SOL     OW16096   4.567   1.452  13.280  0.0481  0.4188 -0.1554
 1487SOL    HW116097   4.489   1.396  13.275  1.4269 -1.6582  1.6636
 1487SOL    HW216098   4.637   1.390  13.299 -1.0431 -1.5210 -2.3969
 1488SOL     OW16099   2.407   1.338  16.132 -0.6632  0.0423 -0.0520
 1488SOL    HW116100   2.366   1.410  16.085  0.0988  1.2536  1.1383
 1488SOL    HW216101   2.445   1.376  16.211  0.6717 -1.2552 -0.0769
 1489SOL     OW16102   0.595   2.201   3.749  0.0138  0.3298 -0.2501
 1489SOL    HW116103   0.540   2.129   3.779 -1.3490  2.1209  1.5319
 1489SOL    HW216104   0.531   2.272   3.748 -0.3970 -0.0139  1.5963
 1490SOL     OW16105   1.354   1.717  11.412 -0.1574 -0.2715  1.3039
 1490SOL    HW116106   1.415   1.664  11.361  0.2485 -0.6877  2.2318
 1490SOL    HW216107   1.275   1.664  11.419 -1.4780  1.4591 -0.2557
 1491SOL     OW16108   2.046   2.680   5.969  1.0112 -0.4750 -0.1029
 1491SOL    HW116109   2.040   2.707   5.877  0.1522 -1.8749 -0.4609
 1491SOL    HW216110   2.113   2.613   5.961  0.9772 -0.5115 -0.0788
 1492SOL     OW16111   3.326   2.568  16.935 -0.3894  0.0566  0.4408
 1492SOL    HW116112   3.396   2.574  16.869 -0.1636 -1.0422  0.5854
 1492SOL    HW216113   3.379   2.615  17.000 -0.4064  2.6249 -1.3725
 1493SOL     OW16114   1.242   3.787   7.275  0.0409 -0.3975 -0.0602
 1493SOL    HW116115   1.166   3.821   7.228 -0.5565  1.3379  2.1861
 1493SOL    HW216116   1.248   3.842   7.353  3.2085 -0.1409 -0.5067
 1494SOL     OW16117   3.194   1.631   9.855 -0.3221 -0.8504  0.5352
 1494SOL    HW116118   3.222   1.684   9.930 -1.8675  0.5607  0.1112
 1494SOL    HW216119   3.274   1.595   9.819 -0.3785 -0.9230  0.4828
 1495SOL     OW16120   0.305   1.041   6.755  0.6427  0.0816 -0.2724
 1495SOL    HW116121   0.353   1.074   6.830  0.1947  1.3146 -0.5240
 1495SOL    HW216122   0.269   1.120   6.715  1.3698 -0.2510 -1.5938
 1496SOL     OW16123   2.448   1.261   3.902 -0.4825 -0.3604 -0.3960
 1496SOL    HW116124   2.372   1.300   3.945 -0.6140 -0.1503 -0.8202
 1496SOL    HW216125   2.450   1.174   3.941  2.1719 -1.0681 -2.1114
 1497SOL     OW16126   0.418   4.457   8.139  0.0488  0.3666  0.2602
 1497SOL    HW116127   0.498   4.483   8.184  1.0817  0.2321 -1.4817
 1497SOL    HW216128   0.368   4.538   8.151  2.3030  1.5718  1.4907
 1498SOL     OW16129   3.819   0.793  12.588  0.2644  0.5150  0.2592
 1498SOL    HW116130   3.758   0.862  12.615  1.7853  1.3014  1.6844
 1498SOL    HW216131   3.868   0.822  12.511  0.7094 -1.3797 -0.1862
 1499SOL     OW16132   1.703   2.535   2.682  0.0089  0.2294 -0.2362
 1499SOL    HW116133   1.737   2.586   2.608 -1.6888  1.0373 -0.4488
 1499SOL    HW216134   1.664   2.605   2.733  2.0293 -1.0134  3.0295
 1500SOL     OW16135   4.033   2.609   7.807  0.0511  0.3909 -0.5869
 1500SOL    HW116136   4.093   2.595   7.881  1.2044 -2.5160 -2.0723
 1500SOL    HW216137   3.966   2.669   7.840 -0.7655 -0.1070 -1.3544
 1501SOL     OW16138   2.544   4.251   4.790  0.2325  0.5323  0.4303
 1501SOL    HW116139   2.572   4.162   4.768  0.3868  0.8096 -0.5061
 1501SOL    HW216140   2.622   4.281   4.836  1.1747  0.4322 -1.0952
 1502SOL     OW16141   0.140   1.146   8.046  0.0716 -0.8510 -0.2318
 1502SOL    HW116142   0.105   1.073   7.996 -0.3917 -1.8443  1.5362
 1502SOL    HW216143   0.110   1.124   8.134  0.1058 -0.6066 -0.1585
 1503SOL     OW16144   2.539   1.991   4.952 -0.3676 -0.3745 -0.0759
 1503SOL    HW116145   2.602   2.025   5.016 -1.8383  0.0745  1.1157
 1503SOL    HW216146   2.467   1.969   5.011 -1.5042  1.4994 -0.7691
 1504SOL     OW16147   0.496   0.483   7.635  0.2920  0.3077  0.1625
 1504SOL    HW116148   0.529   0.445   7.554  0.2654  1.1042 -0.2235
 1504SOL    HW216149   0.562   0.549   7.657  0.6703 -0.1688  0.4529
 1505SOL     OW16150   1.939   1.674   4.745  0.1990 -0.0863 -0.0923
 1505SOL    HW116151   2.008   1.733   4.774  1.2818 -0.7358 -1.3522
 1505SOL    HW216152   1.957   1.690   4.652  0.0833 -1.1137 -0.2883
 1506SOL     OW16153   1.455   0.335   5.609 -0.2379  0.2157 -0.3136
 1506SOL    HW116154   1.423   0.417   5.646  1.3668  2.1510 -3.1975
 1506SOL    HW216155   1.544   0.358   5.584 -0.9245  0.7558 -2.3113
 1507SOL     OW16156   0.377   0.242   3.599 -0.0875  0.1384 -0.2830
 1507SOL    HW116157   0.329   0.239   3.682 -1.3605 -1.1374 -1.0627
 1507SOL    HW216158   0.416   0.329   3.606  1.7939 -0.7631  0.5212
 1508SOL     OW16159   1.532   2.104   8.708 -0.5553  0.4636  0.1630
 1508SOL    HW116160   1.599   2.045   8.673 -0.5217 -0.4586  1.7691
 1508SOL    HW216161   1.514   2.168   8.639  1.5918  0.0113 -0.8143
 1509SOL     OW16162   1.891   1.143   2.446 -0.0194 -0.3107 -0.1691
 1509SOL    HW116163   1.951   1.103   2.382  1.1180  0.2546  0.5510
 1509SOL    HW216164   1.885   1.232   2.412  0.1168 -0.3039 -0.1749
 1510SOL     OW16165   1.204   0.410  14.828  0.2061 -0.5900 -0.3627
 1510SOL    HW116166   1.131   0.352  14.808  2.0503 -2.8715 -0.4077
 1510SOL    HW216167   1.226   0.384  14.918 -1.0468 -0.1057  0.0805
 1511SOL     OW16168   3.286   4.454   5.618  0.3488 -0.1439  0.0690
 1511SOL    HW116169   3.271   4.455   5.713  1.9716 -1.4330  0.3518
 1511SOL    HW216170   3.302   4.364   5.589  1.0581 -0.3702  1.1509
 1512SOL     OW16171   1.679   1.143  15.677 -0.4413  0.1998 -0.6728
 1512SOL    HW116172   1.773   1.159  15.678 -0.7344  1.7831  1.3459
 1512SOL    HW216173   1.652   1.234  15.684  0.4034  0.4355 -0.4877
 1513SOL     OW16174   4.708   2.374   2.593  0.4866  0.0611 -0.1855
 1513SOL    HW116175   0.013   2.430   2.526 -1.0310 -2.0064 -2.7737
 1513SOL    HW216176   4.652   2.438   2.637  1.0573 -2.6575  4.4672
 1514SOL     OW16177   2.070   1.260   7.958 -0.0286 -0.1639 -0.0432
 1514SOL    HW116178   2.036   1.291   8.042  1.3164 -2.9013  1.5118
 1514SOL    HW216179   2.089   1.335   7.901  1.9772 -0.0425  0.7905
 1515SOL     OW16180   3.628   3.691   7.044  0.0600  0.3520 -0.9529
 1515SOL    HW116181   3.598   3.613   6.999  2.2611 -0.3060 -1.2689
 1515SOL    HW216182   3.721   3.671   7.045  0.6502  3.0390 -1.9905
 1516SOL     OW16183   2.342   2.593   9.438 -0.1734 -0.1009  0.4276
 1516SOL    HW116184   2.255   2.588   9.400  0.2528  2.5167 -0.9151
 1516SOL    HW216185   2.366   2.501   9.426  1.1705  0.0752  1.8046
 1517SOL     OW16186   1.781   3.358   8.931  0.1490  0.9375 -0.2455
 1517SOL    HW116187   1.824   3.436   8.966  0.0332  1.1842 -0.6534
 1517SOL    HW216188   1.689   3.371   8.957  0.2149 -1.8211  1.3906
 1518SOL     OW16189   0.586   1.503   8.168 -0.3790  0.4930  0.2508
 1518SOL    HW116190   0.560   1.590   8.198 -2.2256 -0.4255  1.3262
 1518SOL    HW216191   0.511   1.453   8.200 -0.9032 -0.9690 -3.2292
 1519SOL     OW16192   1.432   0.496   6.711 -0.2045  0.2243  0.0684
 1519SOL    HW116193   1.442   0.586   6.682 -0.0627 -0.2082 -1.1967
 1519SOL    HW216194   1.380   0.461   6.639 -0.4802  1.1544 -0.1784
 1520SOL     OW16195   2.244   3.883   6.172  0.7299  0.4546 -0.1600
 1520SOL    HW116196   2.305   3.809   6.179 -1.1684 -1.2533 -1.8063
 1520SOL    HW216197   2.277   3.920   6.090  1.3985 -1.2059 -0.6445
 1521SOL     OW16198   3.850   1.554   2.042 -0.0790  0.0682  0.0603
 1521SOL    HW116199   3.789   1.527   1.974 -1.6708 -0.5509  1.7276
 1521SOL    HW216200   3.924   1.515   1.994 -2.3274  0.2902 -3.5366
 1522SOL     OW16201   4.545   3.985  17.008  0.2080  0.3665  0.9383
 1522SOL    HW116202   4.482   4.055  17.026 -1.2249 -0.7651  0.3147
 1522SOL    HW216203   4.487   3.915  17.040  1.0592 -1.1963 -0.9721
 1523SOL     OW16204   3.893   3.848   0.137  0.5741 -0.0725 -0.3369
 1523SOL    HW116205   3.909   3.754   0.131  1.3601  0.0760 -0.6575
 1523SOL    HW216206   3.966   3.877   0.082  0.5421  0.8839  0.1322
 1524SOL     OW16207   0.678   0.560   8.825 -0.3221  0.3125  0.1006
 1524SOL    HW116208   0.733   0.632   8.856 -0.3766  1.2329 -1.9223
 1524SOL    HW216209   0.599   0.604   8.856  0.3548  0.3615  1.7880
 1525SOL     OW16210   3.615   1.508  13.824  0.1901  0.0400  0.3250
 1525SOL    HW116211   3.592   1.415  13.828  0.0569  0.0454 -0.4399
 1525SOL    HW216212   3.547   1.544  13.767  0.4753 -0.2262 -0.1767
 1526SOL     OW16213   3.305   3.575   1.843  0.1729  0.1638 -0.2252
 1526SOL    HW116214   3.370   3.549   1.778 -0.1371  0.0358 -0.4846
 1526SOL    HW216215   3.366   3.590   1.916 -0.9784  2.2761  0.3076
 1527SOL     OW16216   0.733   1.609   4.408  0.3712  0.4455 -0.1519
 1527SOL    HW116217   0.810   1.579   4.360 -1.1212 -1.5950 -1.2309
 1527SOL    HW216218   0.676   1.537   4.383 -0.9958  1.7522 -0.8182
 1528SOL     OW16219   3.655   0.969   3.502  0.6028  0.0010  0.0117
 1528SOL    HW116220   3.576   0.927   3.468  0.8611 -0.1809 -0.3815
 1528SOL    HW216221   3.672   0.924   3.584  1.5422  0.0342 -0.1665
 1529SOL     OW16222   3.637   3.676   7.886  0.2060  0.0871 -0.2804
 1529SOL    HW116223   3.620   3.770   7.879 -3.4246 -0.3481  2.3516
 1529SOL    HW216224   3.731   3.671   7.905  0.5142 -1.1049 -2.2022
 1530SOL     OW16225   2.959   1.956   7.136 -0.6319 -0.0576  0.2433
 1530SOL    HW116226   2.956   2.036   7.084 -0.2909 -0.8890 -1.0734
 1530SOL    HW216227   2.956   1.891   7.065 -1.1429 -2.5725  2.5616
 1531SOL     OW16228   2.865   0.793  12.053 -0.3242  0.1089 -0.0440
 1531SOL    HW116229   2.890   0.866  11.996 -2.1710 -2.4341 -4.0769
 1531SOL    HW216230   2.932   0.797  12.121  1.3839  0.2822 -1.7238
 1532SOL     OW16231   1.745   0.445   6.387  0.3532  0.2301 -0.0852
 1532SOL    HW116232   1.777   0.492   6.464 -3.0669  0.6901  1.0776
 1532SOL    HW216233   1.763   0.357   6.421 -3.5374 -0.0959  1.2072
 1533SOL     OW16234   0.564   3.400   4.136 -0.3331 -0.5997  0.7000
 1533SOL    HW116235   0.563   3.458   4.060 -0.4912 -2.5797 -0.7968
 1533SOL    HW216236   0.498   3.427   4.200 -1.4768 -1.7355 -0.0121
 1534SOL     OW16237   0.196   0.172  15.850 -0.0730  0.4930 -0.5279
 1534SOL    HW116238   0.193   0.235  15.922 -0.9328  1.6048 -1.5371
 1534SOL    HW216239   0.266   0.205  15.793 -0.0130  0.6397 -0.3696
 1535SOL     OW16240   0.560   2.975   5.355  0.0782  0.1855 -0.3348
 1535SOL    HW116241   0.567   3.069   5.340  1.1442  0.0017 -0.9450
 1535SOL    HW216242   0.562   2.930   5.271  1.6624  2.6617 -1.5970
 1536SOL     OW16243   4.519   2.365   8.759  0.4077  0.0597 -0.3709
 1536SOL    HW116244   4.425   2.353   8.776  0.2649  0.1218 -1.1040
 1536SOL    HW216245   4.542   2.274   8.777  0.5348  0.3573  0.9509
 1537SOL     OW16246   0.154   0.042   7.202  0.0632  0.5087 -0.2975
 1537SOL    HW116247   0.202   0.101   7.144  0.3696  0.1581 -0.3961
 1537SOL    HW216248   0.088   0.008   7.141  0.4053 -0.0341 -0.3617
 1538SOL     OW16249   1.672   1.712   7.893 -0.5417 -0.6929  0.4693
 1538SOL    HW116250   1.745   1.653   7.878 -0.4030  0.1031 -1.9371
 1538SOL    HW216251   1.723   1.790   7.916 -0.1687 -1.4995  2.3896
 1539SOL     OW16252   1.521   3.959   7.620 -0.1103 -0.5532 -0.1746
 1539SOL    HW116253   1.434   3.994   7.638 -0.3291 -2.4377  2.4001
 1539SOL    HW216254   1.510   3.878   7.570  1.9505  0.0539 -1.6145
 1540SOL     OW16255   3.423   0.411   5.860  0.1907 -0.2807 -1.2222
 1540SOL    HW116256   3.423   0.333   5.806 -1.6138  0.3067 -2.0669
 1540SOL    HW216257   3.515   0.437   5.862  0.2225 -0.6013  1.6108
 1541SOL     OW16258   4.279   4.702   9.558  0.0806  0.2334  0.2485
 1541SOL    HW116259   4.359   4.696   9.610  0.3082  2.1758  0.1509
 1541SOL    HW216260   4.320   0.029   9.496  1.3344 -0.6517  0.1896
 1542SOL     OW16261   0.176   1.518   5.266  0.5078 -0.4466  0.0830
 1542SOL    HW116262   0.203   1.448   5.325  1.0711 -1.5539 -1.4846
 1542SOL    HW216263   0.250   1.517   5.205  0.1155 -0.4800 -0.3904
 1543SOL     OW16264   3.132   3.026  14.805 -0.4781  0.0770 -0.5097
 1543SOL    HW116265   3.152   2.937  14.835  1.6968  1.1532  1.2576
 1543SOL    HW216266   3.216   3.071  14.801 -0.2776 -0.2144  0.2735
 1544SOL     OW16267   3.783   2.821   3.136 -0.6066 -0.7228 -0.1343
 1544SOL    HW116268   3.724   2.809   3.210 -0.0132 -0.9843  0.2932
 1544SOL    HW216269   3.830   2.738   3.148  0.4698  0.0257  0.8506
 1545SOL     OW16270   1.365   1.970   3.630 -0.1654  0.0584  0.0213
 1545SOL    HW116271   1.428   1.897   3.631 -0.0793  0.1291 -0.2512
 1545SOL    HW216272   1.336   1.980   3.721 -1.4635  0.6172 -0.4614
 1546SOL     OW16273   3.711   2.536   2.923  0.1130  0.0792  0.0995
 1546SOL    HW116274   3.767   2.508   2.995  0.9264 -0.4448 -0.7415
 1546SOL    HW216275   3.679   2.453   2.888  2.1493  0.9712 -3.8694
 1547SOL     OW16276   3.281   0.350   6.569 -0.3782  0.6632 -0.2743
 1547SOL    HW116277   3.241   0.287   6.629  1.1432 -0.1304 -0.0869
 1547SOL    HW216278   3.211   0.411   6.548  0.2100  1.5201  0.2593
 1548SOL     OW16279   3.669   4.315   4.104  0.6331 -0.5301 -0.2920
 1548SOL    HW116280   3.760   4.311   4.075  0.5088 -2.6627 -0.4189
 1548SOL    HW216281   3.640   4.224   4.098 -1.1842 -0.0168  0.4004
 1549SOL     OW16282   4.050   0.028   2.940  0.1797 -0.7006 -0.1151
 1549SOL    HW116283   4.081   0.090   2.875 -1.6823  0.8008  0.4423
 1549SOL    HW216284   4.112   4.690   2.927 -0.2067 -0.9620 -0.4835
 1550SOL     OW16285   2.133   1.967   8.090 -0.5876  0.1402  0.0899
 1550SOL    HW116286   2.125   1.987   7.996 -1.1372 -1.4496 -0.2164
 1550SOL    HW216287   2.098   1.878   8.084 -0.7886  0.2583 -0.5286
 1551SOL     OW16288   0.043   4.060   4.818 -0.4048 -0.5763 -0.3925
 1551SOL    HW116289   0.134   4.079   4.796 -1.0794 -1.3473 -3.8643
 1551SOL    HW216290   4.733   4.143   4.834  1.2943  0.7316 -2.5321
 1552SOL     OW16291   3.575   3.457  16.820  0.4483  0.6696 -0.5546
 1552SOL    HW116292   3.529   3.442  16.903 -0.0610  0.7913 -0.8144
 1552SOL    HW216293   3.496   3.456  16.766 -1.2931 -1.2967  1.9836
 1553SOL     OW16294   0.653   1.379   3.365 -0.1452  0.1175 -0.1137
 1553SOL    HW116295   0.566   1.391   3.402 -0.3959  0.3833 -0.7915
 1553SOL    HW216296   0.634   1.395   3.272  0.4940  1.2176 -0.0604
 1554SOL     OW16297   4.641   3.715   2.687  0.2909  0.0890  0.1270
 1554SOL    HW116298   4.559   3.763   2.674 -0.5699 -1.6847 -1.0784
 1554SOL    HW216299   4.683   3.708   2.601 -1.2997  1.0542 -0.7336
 1555SOL     OW16300   0.581   3.133  12.587  0.4335 -0.1755 -0.3424
 1555SOL    HW116301   0.621   3.202  12.641  0.3318  0.5389 -1.1732
 1555SOL    HW216302   0.635   3.059  12.615  1.7828  0.8010 -0.3170
 1556SOL     OW16303   2.496   3.377   7.602  0.8210 -0.2654 -0.3327
 1556SOL    HW116304   2.453   3.295   7.576  0.2173  0.7764 -2.6697
 1556SOL    HW216305   2.427   3.426   7.646  0.9130  0.1975 -0.6921
 1557SOL     OW16306   4.046   0.143   4.621  0.0370  0.3811  0.3219
 1557SOL    HW116307   3.986   0.073   4.646 -0.4160 -0.3701 -2.8666
 1557SOL    HW216308   4.090   0.158   4.705  1.5767  0.6131 -0.5268
 1558SOL     OW16309   3.883   0.387  17.566 -0.2852 -0.3215  0.3593
 1558SOL    HW116310   3.868   0.301  17.526  1.1137 -1.8317  3.0659
 1558SOL    HW216311   3.950   0.371  17.632 -1.0981  1.8177  1.6748
 1559SOL     OW16312   1.166   1.974   6.824 -0.2916  0.8771  0.0288
 1559SOL    HW116313   1.094   2.025   6.861 -0.3926 -0.1385  1.2353
 1559SOL    HW216314   1.227   2.048   6.820  0.2562  0.3902 -0.4999
 1560SOL     OW16315   1.915   0.531   4.459 -0.1271  0.1763  0.4170
 1560SOL    HW116316   1.998   0.510   4.503 -0.3832 -0.5738  0.5347
 1560SOL    HW216317   1.955   0.532   4.372  1.2239  3.4174  1.0544
 1561SOL     OW16318   1.201   2.195   9.536  0.4686 -1.2157  0.0411
 1561SOL    HW116319   1.150   2.184   9.456 -0.2599  0.1213  0.3172
 1561SOL    HW216320   1.238   2.108   9.550  2.6194 -0.2449  0.3206
 1562SOL     OW16321   0.896   1.322   9.457 -0.4889 -0.5231 -0.2361
 1562SOL    HW116322   0.904   1.414   9.432  1.8529 -0.8451 -0.6362
 1562SOL    HW216323   0.945   1.275   9.390  1.0680  0.3361  0.3081
 1563SOL     OW16324   2.788   3.950  11.988 -0.5216  0.3543  0.1024
 1563SOL    HW116325   2.797   3.875  12.047  0.8210  1.9101  1.8508
 1563SOL    HW216326   2.875   3.984  12.009  0.0576 -1.1128  0.0834
 1564SOL     OW16327   1.781   1.448   6.498  0.2114  0.1359  0.3668
 1564SOL    HW116328   1.721   1.404   6.558 -1.8265  0.7486 -1.2134
 1564SOL    HW216329   1.843   1.486   6.560  1.8560 -3.9520  1.2694
 1565SOL     OW16330   4.456   2.375   0.256  0.3176 -0.2144  0.0029
 1565SOL    HW116331   4.540   2.407   0.222  1.0225 -1.9525  0.0923
 1565SOL    HW216332   4.489   2.326   0.332 -0.0915  0.3164  0.5201
 1566SOL     OW16333   1.933   0.508  11.658 -0.1346  0.0525 -0.6068
 1566SOL    HW116334   1.885   0.537  11.735  4.1051 -0.0546  2.0826
 1566SOL    HW216335   2.007   0.568  11.656  1.2879 -1.6256  1.6263
 1567SOL     OW16336   3.190   0.172   1.180  0.4053 -0.0916 -0.6476
 1567SOL    HW116337   3.200   0.176   1.276 -1.2942  3.5105 -0.5877
 1567SOL    HW216338   3.143   0.253   1.160  3.1041  1.2689 -1.4387
 1568SOL     OW16339   0.291   1.620   3.778  0.3830 -0.3500 -0.3903
 1568SOL    HW116340   0.278   1.549   3.841 -0.9972 -0.4942 -0.8370
 1568SOL    HW216341   0.258   1.699   3.821  2.0223  0.7383 -1.1424
 1569SOL     OW16342   2.322   1.781   8.181 -0.0589 -0.4226  0.0147
 1569SOL    HW116343   2.367   1.769   8.264  1.7134  1.5606 -0.6705
 1569SOL    HW216344   2.260   1.851   8.203  0.9006  0.2643  0.5216
 1570SOL     OW16345   1.958   3.692   9.693 -0.0716 -0.7619 -0.0229
 1570SOL    HW116346   2.006   3.660   9.770  0.3465 -1.2038 -0.4608
 1570SOL    HW216347   1.982   3.630   9.624 -1.7547 -1.0973 -0.2871
 1571SOL     OW16348   0.076   3.387   3.214  0.5173 -0.8461  0.1621
 1571SOL    HW116349   0.165   3.418   3.232 -0.9966  2.2784  2.1527
 1571SOL    HW216350   0.040   3.368   3.300 -0.3100 -1.3243 -0.2864
 1572SOL     OW16351   0.145   3.352  14.928  0.3504  0.4553 -0.0843
 1572SOL    HW116352   0.074   3.335  14.990 -1.7350 -1.2486 -2.9877
 1572SOL    HW216353   0.108   3.346  14.841  1.0341 -0.9771 -0.2811
 1573SOL     OW16354   1.546   2.319   1.277 -0.0173 -0.3161 -0.8284
 1573SOL    HW116355   1.631   2.338   1.236  0.0221 -1.5783 -1.3528
 1573SOL    HW216356   1.574   2.357   1.360  2.9962  0.2585 -2.0818
 1574SOL     OW16357   4.604   3.782   1.768 -0.1363 -0.0793  0.4004
 1574SOL    HW116358   4.537   3.848   1.785 -0.0135 -0.4772  2.3823
 1574SOL    HW216359   4.557   3.701   1.748 -1.9266  0.2462  3.2871
 1575SOL     OW16360   2.088   1.830   3.178 -0.1047 -0.3601  0.0792
 1575SOL    HW116361   2.023   1.774   3.135 -1.1072  2.2353 -1.7938
 1575SOL    HW216362   2.092   1.806   3.271 -1.0407 -1.5194 -0.1803
 1576SOL     OW16363   0.819   4.713   8.088  0.1334 -0.2916  0.7410
 1576SOL    HW116364   0.763   0.057   8.089  1.6512  0.8127  0.6350
 1576SOL    HW216365   0.860   4.727   8.003 -2.4176 -3.3340 -0.9651
 1577SOL     OW16366   0.531   3.851   2.243  0.4711  1.0251  0.2166
 1577SOL    HW116367   0.524   3.805   2.327 -0.2482 -1.3163 -1.1203
 1577SOL    HW216368   0.493   3.779   2.192  0.3259  0.0642  1.6671
 1578SOL     OW16369   2.447   0.671   4.647 -0.4519  0.1317 -0.1434
 1578SOL    HW116370   2.445   0.728   4.570 -1.0804 -0.5489 -0.6312
 1578SOL    HW216371   2.477   0.735   4.711 -1.4411 -0.5958  1.0388
 1579SOL     OW16372   4.325   0.197   7.019 -0.1131 -0.1720  0.0752
 1579SOL    HW116373   4.328   0.133   6.948 -0.2405  0.6673 -0.6883
 1579SOL    HW216374   4.417   0.204   7.046 -0.3579 -0.0860  0.8794
 1580SOL     OW16375   0.906   2.534  13.426  0.1583 -0.0481  0.3680
 1580SOL    HW116376   0.969   2.605  13.436 -0.2586  0.2155  1.1057
 1580SOL    HW216377   0.828   2.587  13.442  0.9918  0.4295  2.8678
 1581SOL     OW16378   1.021   0.560   7.779  0.6241 -0.5227 -0.3454
 1581SOL    HW116379   0.990   0.643   7.744  2.1582  0.3328  0.3219
 1581SOL    HW216380   1.062   0.524   7.701  1.3421  0.8639 -0.6116
 1582SOL     OW16381   1.868   4.292   1.983 -0.1651 -0.7726 -0.5210
 1582SOL    HW116382   1.783   4.328   1.958 -0.1674 -1.0096 -0.8616
 1582SOL    HW216383   1.920   4.370   1.963 -2.0150  0.2001 -1.5500
 1583SOL     OW16384   3.724   1.616   1.417  0.0453 -0.5950 -0.0388
 1583SOL    HW116385   3.715   1.531   1.461 -0.0818  0.5474  2.1385
 1583SOL    HW216386   3.689   1.672   1.485 -2.1224 -0.6056 -1.1561
 1584SOL     OW16387   3.054   2.450  14.393 -0.5679  0.2652  0.2481
 1584SOL    HW116388   3.111   2.416  14.324 -3.2161  1.9026 -2.7342
 1584SOL    HW216389   3.029   2.538  14.364 -2.5249  0.0880  1.4067
 1585SOL     OW16390   2.075   0.211   3.115  0.5935 -0.5778  0.8058
 1585SOL    HW116391   1.988   0.172   3.116 -0.1464  1.0560 -0.0641
 1585SOL    HW216392   2.106   0.191   3.027 -1.3264 -0.8447  0.1891
 1586SOL     OW16393   0.049   1.723   1.982  0.0807 -0.9475 -0.1410
 1586SOL    HW116394   0.004   1.710   1.898 -0.0741  2.5505 -0.6120
 1586SOL    HW216395   0.001   1.796   2.020 -0.1861 -1.8558  1.2646
 1587SOL     OW16396   2.982   2.605   6.707 -0.1194  0.2699 -0.0349
 1587SOL    HW116397   2.938   2.687   6.684  0.0419  0.6828  1.1421
 1587SOL    HW216398   3.075   2.625   6.704  0.4820 -2.4567  0.0199
 1588SOL     OW16399   1.659   4.196   7.213  0.0399 -0.0916 -0.1466
 1588SOL    HW116400   1.639   4.103   7.220  1.6423 -0.5155 -1.0526
 1588SOL    HW216401   1.608   4.233   7.285 -0.6353  0.4603 -0.9165
 1589SOL     OW16402   1.098   1.463   7.805 -0.3621 -0.3819  0.3437
 1589SOL    HW116403   1.036   1.506   7.746  0.0519  0.8947  0.8421
 1589SOL    HW216404   1.085   1.370   7.784 -0.4418 -0.6351  1.5199
 1590SOL     OW16405   3.022   0.450   6.168 -0.0055 -0.3284  0.0897
 1590SOL    HW116406   3.051   0.541   6.168 -0.7975 -0.0977 -3.3069
 1590SOL    HW216407   2.977   0.451   6.084  1.5200 -1.7296 -0.7439
 1591SOL     OW16408   3.391   0.719   7.033 -0.0553 -0.0388 -0.2086
 1591SOL    HW116409   3.379   0.802   6.987 -1.0392  0.3760  0.8039
 1591SOL    HW216410   3.418   0.663   6.960 -1.2548 -0.1604 -0.5598
 1592SOL     OW16411   4.384   0.783  12.346  0.4597 -0.3608 -0.3947
 1592SOL    HW116412   4.403   0.775  12.253 -0.8198 -0.5578 -0.6414
 1592SOL    HW216413   4.292   0.758  12.349 -0.1137  1.7085 -0.5036
 1593SOL     OW16414   3.704   0.488  15.986  0.1164 -0.7769  0.2650
 1593SOL    HW116415   3.738   0.552  15.924 -1.6150  0.7348  0.8953
 1593SOL    HW216416   3.660   0.423  15.930  1.5129  0.5641 -2.3829
 1594SOL     OW16417   3.027   2.643   7.962 -0.1718  0.0980  0.0715
 1594SOL    HW116418   2.953   2.696   7.934  0.8835  1.8724  0.6793
 1594SOL    HW216419   2.991   2.555   7.951  0.4860 -0.0937 -0.4960
 1595SOL     OW16420   1.905   3.000   4.966  0.0347 -0.3630 -0.2373
 1595SOL    HW116421   1.929   3.081   4.921 -0.8161 -0.7202 -1.3287
 1595SOL    HW216422   1.810   3.011   4.967  0.2542  1.3892  2.1904
 1596SOL     OW16423   4.369   4.153  11.352 -0.0718  0.2241  0.3785
 1596SOL    HW116424   4.387   4.225  11.412 -0.5172 -0.9145  1.8615
 1596SOL    HW216425   4.445   4.150  11.293  1.3205  0.3538  2.1750
 1597SOL     OW16426   2.597   3.713  11.975  0.1546  0.1716  0.1877
 1597SOL    HW116427   2.688   3.739  11.989  0.2416  0.1447 -0.3628
 1597SOL    HW216428   2.581   3.662  12.055  0.6847  0.4449  0.4707
 1598SOL     OW16429   1.209   0.319   7.272 -0.0352 -0.6313 -0.6230
 1598SOL    HW116430   1.304   0.317   7.268 -0.1273 -0.1800 -3.1204
 1598SOL    HW216431   1.196   0.398   7.323 -0.1623 -0.8550 -0.3127
 1599SOL     OW16432   4.631   1.039   4.079  0.0498  0.5840 -0.0430
 1599SOL    HW116433   4.561   0.977   4.059 -1.5986  1.2810  3.4376
 1599SOL    HW216434   4.634   1.038   4.175  3.3483  3.4357 -0.1270
 1600SOL     OW16435   4.721   0.924   7.942 -0.4223 -0.4368 -0.3142
 1600SOL    HW116436   0.056   0.861   7.924 -0.4348  0.1433 -2.3541
 1600SOL    HW216437   4.693   0.955   7.856  2.0148  1.3842 -0.4535
 1601SOL     OW16438   1.119   3.863   8.524 -0.2632 -0.4533  0.5448
 1601SOL    HW116439   1.036   3.876   8.477  0.0082  1.4143  0.5904
 1601SOL    HW216440   1.142   3.955   8.534 -1.4318 -0.3728  2.4500
 1602SOL     OW16441   2.809   2.560   5.411 -0.2632  0.9068  0.1909
 1602SOL    HW116442   2.889   2.510   5.426  1.5154  3.6607 -0.1184
 1602SOL    HW216443   2.771   2.528   5.493  0.3425  1.0138  0.5108
 1603SOL     OW16444   2.782   4.463   4.075  0.1028  0.4025 -0.5102
 1603SOL    HW116445   2.834   4.463   4.156  0.7627 -1.4258 -0.9297
 1603SOL    HW216446   2.691   4.453   4.104  0.6003 -1.9918  0.2381
 1604SOL     OW16447   2.492   2.446   5.859 -0.1131  0.2717 -0.1803
 1604SOL    HW116448   2.549   2.369   5.869  0.5745  0.8690  0.4433
 1604SOL    HW216449   2.481   2.459   5.953  0.7203 -0.0129 -0.0402
 1605SOL     OW16450   3.566   0.194   3.798 -0.8104  0.1288  0.2206
 1605SOL    HW116451   3.644   0.188   3.853 -1.2293 -0.5396  0.7371
 1605SOL    HW216452   3.612   0.212   3.716  1.9362 -1.3250  1.4428
 1606SOL     OW16453   2.907   4.165  14.674 -0.0359 -0.1222 -0.4038
 1606SOL    HW116454   2.857   4.245  14.655  2.4205  1.4735 -0.0734
 1606SOL    HW216455   2.988   4.214  14.686 -1.1002  1.0511  2.0118
 1607SOL     OW16456   4.465   1.459   4.348  0.8443  0.1932  0.2908
 1607SOL    HW116457   4.413   1.397   4.399 -0.2132  1.2053  0.4486
 1607SOL    HW216458   4.525   1.493   4.414  1.0301 -0.4502  0.4448
 1608SOL     OW16459   3.166   4.500  10.160  0.2642 -0.0541 -0.8837
 1608SOL    HW116460   3.117   4.554  10.098  0.3339  0.1313 -0.7760
 1608SOL    HW216461   3.159   4.564  10.231 -1.2873 -1.3391  0.1144
 1609SOL     OW16462   4.483   0.027  12.954  0.0542 -0.0358 -0.1799
 1609SOL    HW116463   4.443   4.728  13.034  0.5408 -0.7647 -0.2440
 1609SOL    HW216464   4.577   0.031  12.973 -0.1540 -0.0766  0.8549
 1610SOL     OW16465   2.213   2.916   9.457 -0.5692  0.1248 -0.1470
 1610SOL    HW116466   2.195   2.997   9.409 -0.7980 -0.7696 -1.5825
 1610SOL    HW216467   2.240   2.858   9.385  0.2469 -1.0427  1.1128
 1611SOL     OW16468   4.019   4.015  17.036 -0.3780  0.6271 -0.0576
 1611SOL    HW116469   4.042   3.976  17.121  0.4044  1.9024  0.3181
 1611SOL    HW216470   4.080   3.975  16.974 -0.5070  1.0869 -0.4780
 1612SOL     OW16471   1.719   2.233   7.359 -0.1653 -0.1830 -0.4099
 1612SOL    HW116472   1.674   2.158   7.319 -1.3265 -0.3747  1.2408
 1612SOL    HW216473   1.809   2.201   7.366 -0.6129 -0.9439  1.9441
 1613SOL     OW16474   3.515   4.109   4.822  0.5057  0.2861  0.6243
 1613SOL    HW116475   3.569   4.184   4.846 -1.6586  2.5686 -1.6426
 1613SOL    HW216476   3.556   4.078   4.741  0.1143 -1.6461  1.1700
 1614SOL     OW16477   1.173   4.302  17.145 -0.0027 -0.7572 -0.4390
 1614SOL    HW116478   1.203   4.390  17.167 -0.9999 -0.8027  1.1249
 1614SOL    HW216479   1.106   4.287  17.212  1.7906 -0.7453  1.3118
 1615SOL     OW16480   1.711   4.127  11.771 -0.0996 -0.0120 -0.0457
 1615SOL    HW116481   1.627   4.162  11.743  0.2872  0.6305 -0.4264
 1615SOL    HW216482   1.757   4.211  11.775  0.3958 -0.2515 -0.7069
 1616SOL     OW16483   4.408   2.170   7.603 -0.0719 -0.3504  0.0108
 1616SOL    HW116484   4.417   2.124   7.687 -1.0639  0.6293  0.6518
 1616SOL    HW216485   4.372   2.255   7.631  0.8608 -0.2355  0.8660
 1617SOL     OW16486   0.487   1.642  17.421  0.3073 -0.3145  0.1211
 1617SOL    HW116487   0.438   1.578  17.369  0.5807  0.0489 -0.5796
 1617SOL    HW216488   0.495   1.608  17.510  0.0513 -0.4149  0.1041
 1618SOL     OW16489   1.137   3.759   3.516 -0.1354  0.4906 -0.6455
 1618SOL    HW116490   1.134   3.823   3.445  1.4991  1.8914  0.5339
 1618SOL    HW216491   1.096   3.803   3.591  1.9923 -0.9342  1.3330
 1619SOL     OW16492   2.279   2.356   6.327  0.6774  0.4601  0.0068
 1619SOL    HW116493   2.214   2.323   6.266 -2.3702  1.3898  2.7704
 1619SOL    HW216494   2.225   2.368   6.405  1.9036  0.1546  0.9041
 1620SOL     OW16495   2.226   3.327  14.029  0.0937 -0.3487  0.0671
 1620SOL    HW116496   2.216   3.306  13.936  3.6315  0.6148 -0.5153
 1620SOL    HW216497   2.299   3.388  14.029 -0.5393  0.4387 -2.9861
 1621SOL     OW16498   0.488   1.205   6.927  0.3351 -0.6867 -0.2191
 1621SOL    HW116499   0.474   1.299   6.932  1.0604 -0.7018  2.2535
 1621SOL    HW216500   0.472   1.190   7.020  0.2692 -2.9555 -0.5994
 1622SOL     OW16501   0.958   1.389   9.769  0.1201  0.1031 -0.0806
 1622SOL    HW116502   0.979   1.459   9.708 -0.3188 -0.4830 -0.9122
 1622SOL    HW216503   0.908   1.321   9.723  0.9237  0.0689 -0.9049
 1623SOL     OW16504   1.667   3.608  10.038  0.1392  0.4080 -0.0766
 1623SOL    HW116505   1.616   3.542   9.990  0.6927  1.4363 -2.0997
 1623SOL    HW216506   1.688   3.665   9.964 -1.1959 -1.5355 -1.9653
 1624SOL     OW16507   0.290   2.394   8.520  0.0988  0.3919 -0.6523
 1624SOL    HW116508   0.359   2.353   8.573 -0.6550 -1.3548 -1.0216
 1624SOL    HW216509   0.305   2.488   8.528  0.9962  0.1652  0.3599
 1625SOL     OW16510   1.703   3.159   4.535 -0.1887 -0.0375  0.1620
 1625SOL    HW116511   1.672   3.156   4.626 -0.6373  2.0759  0.0918
 1625SOL    HW216512   1.625   3.116   4.502  0.2250 -1.2439  0.7463
 1626SOL     OW16513   4.373   0.331   5.691 -0.0966  0.3714  0.1258
 1626SOL    HW116514   4.323   0.349   5.771 -1.0565 -1.0740 -0.1548
 1626SOL    HW216515   4.342   0.242   5.676 -0.1099  0.2040  1.1303
 1627SOL     OW16516   0.230   0.212   8.315  0.6759  0.2829 -0.6112
 1627SOL    HW116517   0.314   0.258   8.308  1.3427 -0.7727  0.2966
 1627SOL    HW216518   0.223   0.226   8.409 -0.5307  0.1951 -0.6877
 1628SOL     OW16519   0.433   3.613   3.502 -0.4763  0.2614  0.0094
 1628SOL    HW116520   0.496   3.560   3.551  0.7227  2.6272  1.0382
 1628SOL    HW216521   0.467   3.699   3.527  0.4765 -0.7868  2.3025
 1629SOL     OW16522   0.507   3.363   0.036 -0.2394  0.2142 -0.6165
 1629SOL    HW116523   0.502   3.343   0.130 -1.9620 -0.9365 -0.9667
 1629SOL    HW216524   0.517   3.275  17.735 -1.5453  0.2750 -1.0931
 1630SOL     OW16525   2.691   3.723   6.240 -0.0979  0.5777  0.2294
 1630SOL    HW116526   2.743   3.742   6.162 -0.0342  0.6567  0.2911
 1630SOL    HW216527   2.666   3.634   6.216 -0.2813  1.3866 -2.5616
 1631SOL     OW16528   1.671   4.109   2.688 -0.5789  0.4104 -1.0700
 1631SOL    HW116529   1.666   4.204   2.696 -3.5277  0.2755 -1.1028
 1631SOL    HW216530   1.580   4.083   2.672 -1.4776  0.8486  3.2400
 1632SOL     OW16531   0.595   4.079   5.654 -0.0909 -0.0908  0.2886
 1632SOL    HW116532   0.583   4.140   5.581  3.3768  1.4584  1.0287
 1632SOL    HW216533   0.579   3.994   5.613  1.4824 -0.6668  0.8745
 1633SOL     OW16534   0.462   1.865   4.850 -0.8395 -0.5056  0.3411
 1633SOL    HW116535   0.493   1.950   4.880 -2.5979  0.1262  0.3250
 1633SOL    HW216536   0.527   1.849   4.781 -0.2530 -1.5059  1.1201
 1634SOL     OW16537   4.636   2.732   5.110  0.1650 -0.1422  0.7185
 1634SOL    HW116538   4.587   2.681   5.046  0.5394 -0.7263  0.9022
 1634SOL    HW216539   4.630   2.670   5.183 -0.9646 -0.7906  0.0675
 1635SOL     OW16540   3.153   2.042   9.774 -0.5039 -0.5250 -0.7073
 1635SOL    HW116541   3.128   1.949   9.781 -1.0118 -0.3302  0.1420
 1635SOL    HW216542   3.158   2.046   9.679  1.9564 -2.6360 -0.6575
 1636SOL     OW16543   0.956   4.395   3.386  0.1447 -0.0291  0.1469
 1636SOL    HW116544   0.914   4.481   3.380  0.0977 -0.0569  0.0744
 1636SOL    HW216545   1.048   4.420   3.391 -0.2608  1.5499 -0.3064
 1637SOL     OW16546   0.509   2.854  12.024 -0.1160  0.0951  0.6631
 1637SOL    HW116547   0.459   2.779  12.058 -2.1531  1.0780 -0.1244
 1637SOL    HW216548   0.498   2.911  12.100 -0.8962  0.9538 -0.0957
 1638SOL     OW16549   4.464   0.343   8.136 -0.3706  0.0427  0.0367
 1638SOL    HW116550   4.520   0.370   8.063  2.2262 -0.8411  1.7012
 1638SOL    HW216551   4.446   0.432   8.168  0.2583 -0.5855  2.1194
 1639SOL     OW16552   3.702   0.703  13.314  0.3194 -0.3110  0.1633
 1639SOL    HW116553   3.749   0.621  13.296 -0.2184 -0.7923  0.9619
 1639SOL    HW216554   3.619   0.674  13.352  0.5233  0.6024  1.2774
 1640SOL     OW16555   2.977   4.385   2.772  0.1770  0.1510 -0.2892
 1640SOL    HW116556   2.901   4.427   2.733  1.3527  0.6475 -2.0498
 1640SOL    HW216557   3.001   4.327   2.699  0.6507 -1.4249  1.1185
 1641SOL     OW16558   3.613   3.041  10.056 -0.1204 -0.7536  0.3387
 1641SOL    HW116559   3.519   3.022  10.058 -0.6861  1.5758 -3.2855
 1641SOL    HW216560   3.639   2.998  10.137 -0.8759 -0.0964  0.9270
 1642SOL     OW16561   2.759   3.467   6.675 -0.2422  0.5028  0.2370
 1642SOL    HW116562   2.765   3.516   6.758  1.2672  3.3669 -1.5653
 1642SOL    HW216563   2.726   3.538   6.620 -0.7795 -1.6149 -2.1318
 1643SOL     OW16564   4.480   4.184  14.239  0.0908 -0.1413 -0.3341
 1643SOL    HW116565   4.390   4.153  14.226 -0.5261  1.6030 -0.3086
 1643SOL    HW216566   4.523   4.177  14.154 -0.4665  0.8078 -0.7015
 1644SOL     OW16567   4.057   0.565   7.285 -0.3654  0.0242  0.4117
 1644SOL    HW116568   4.010   0.487   7.312  0.9251 -0.2323  1.8951
 1644SOL    HW216569   4.112   0.529   7.215 -3.2052  0.4262 -2.0475
 1645SOL     OW16570   3.497   3.391   2.383  0.5877  0.1241  0.1815
 1645SOL    HW116571   3.510   3.326   2.453  0.1686  0.2514  0.3778
 1645SOL    HW216572   3.468   3.469   2.431 -2.8676  0.1504 -1.9330
 1646SOL     OW16573   3.813   0.319   9.688 -0.2435 -0.1336 -0.4958
 1646SOL    HW116574   3.830   0.243   9.633 -0.9270 -0.1885 -0.6290
 1646SOL    HW216575   3.883   0.380   9.666  0.4099 -0.4633  0.6748
 1647SOL     OW16576   0.663   2.173   7.139  0.1116 -0.0171  0.4988
 1647SOL    HW116577   0.643   2.080   7.153  1.5042 -0.0844  2.0180
 1647SOL    HW216578   0.730   2.188   7.206 -0.7776 -1.9151  1.8345
 1648SOL     OW16579   2.611   4.604   5.574 -0.3108 -0.3899 -0.1137
 1648SOL    HW116580   2.614   4.545   5.650  3.8184  2.7461  2.0751
 1648SOL    HW216581   2.524   4.643   5.585 -0.2113 -0.6955  1.7166
 1649SOL     OW16582   4.009   4.089   2.097  0.0858 -0.0354  0.8151
 1649SOL    HW116583   4.069   4.096   2.172 -0.1232 -1.9668  1.1559
 1649SOL    HW216584   3.930   4.131   2.130 -1.4237 -0.4075 -2.3303
 1650SOL     OW16585   4.221   4.391   7.322  0.3448 -0.1610  0.0708
 1650SOL    HW116586   4.158   4.450   7.279 -0.3624 -0.9947 -0.0470
 1650SOL    HW216587   4.231   4.433   7.407  1.4180 -0.2309 -0.0176
 1651SOL     OW16588   3.200   1.496   7.497  0.8040  0.0411 -0.6864
 1651SOL    HW116589   3.182   1.468   7.407 -1.4777 -1.5996  0.2689
 1651SOL    HW216590   3.181   1.588   7.481 -0.0158  0.1568  0.9396
 1652SOL     OW16591   1.379   1.171  17.682 -0.3393  0.5761  0.1879
 1652SOL    HW116592   1.420   1.085  17.683 -2.4347 -0.3858  1.7372
 1652SOL    HW216593   1.297   1.134  17.713  0.1392  0.8688  1.7943
 1653SOL     OW16594   3.047   1.167  10.976  0.0121  0.3317  0.3545
 1653SOL    HW116595   3.016   1.225  11.046 -0.0324 -0.7344  1.2210
 1653SOL    HW216596   2.967   1.147  10.929 -0.0175  2.4157 -0.4586
 1654SOL     OW16597   2.502   4.699   3.118 -0.2213 -0.0332 -0.1526
 1654SOL    HW116598   2.523   4.705   3.211  0.1350 -0.0745 -0.2304
 1654SOL    HW216599   2.592   4.696   3.085  0.0754 -1.4998  0.7796
 1655SOL     OW16600   4.498   3.687  14.810  0.2874 -0.2294  0.1027
 1655SOL    HW116601   4.552   3.660  14.736  0.9134 -0.6668  0.7124
 1655SOL    HW216602   4.547   3.766  14.835 -1.8050  1.5179 -1.4409
 1656SOL     OW16603   1.638   4.046  11.230 -0.3381 -0.2236  0.2670
 1656SOL    HW116604   1.690   4.122  11.257  0.6500 -0.1749 -1.8016
 1656SOL    HW216605   1.624   4.011  11.318 -0.7688  0.8375  0.6203
 1657SOL     OW16606   0.467   0.838  16.225  0.5339  0.0298  0.0896
 1657SOL    HW116607   0.494   0.885  16.304  0.2720 -0.2871  0.3653
 1657SOL    HW216608   0.549   0.793  16.202  0.1035 -0.4822 -0.4380
 1658SOL     OW16609   2.395   4.011   3.055  0.4441  0.0777  0.0633
 1658SOL    HW116610   2.371   4.101   3.035  0.8003  0.4854  1.4656
 1658SOL    HW216611   2.307   3.973   3.055  0.5251 -0.1044 -2.6539
 1659SOL     OW16612   0.211   0.200  11.057 -0.8595  0.1126  0.2839
 1659SOL    HW116613   0.243   0.162  10.975  0.8595  5.0145 -1.2995
 1659SOL    HW216614   0.291   0.247  11.080 -0.7282  0.4305 -0.7893
 1660SOL     OW16615   2.952   2.100   4.015  0.1117 -0.6783 -0.2805
 1660SOL    HW116616   2.884   2.080   4.078  0.8293  0.9003  0.9887
 1660SOL    HW216617   2.950   2.196   4.008  0.9655 -0.6247  0.1391
 1661SOL     OW16618   1.585   1.094   7.686 -0.2327  0.2494 -0.0290
 1661SOL    HW116619   1.637   1.090   7.766 -1.3407  1.5171  0.7552
 1661SOL    HW216620   1.617   1.017   7.638  1.4885  1.1677 -0.3293
 1662SOL     OW16621   3.593   0.681  10.768  0.5093 -0.0953  0.0639
 1662SOL    HW116622   3.659   0.709  10.832  0.2988 -1.1380  0.7413
 1662SOL    HW216623   3.519   0.648  10.819  0.3690 -1.7889 -1.2451
 1663SOL     OW16624   0.618   3.424   9.050  0.3177  0.3006 -0.0928
 1663SOL    HW116625   0.692   3.473   9.015  1.1373  0.5082  1.9169
 1663SOL    HW216626   0.564   3.494   9.089 -0.6831 -1.5905  1.8977
 1664SOL     OW16627   2.548   3.961  14.681 -0.0325 -0.5561  0.1817
 1664SOL    HW116628   2.555   3.972  14.775  1.2811  0.1514  0.0061
 1664SOL    HW216629   2.471   4.013  14.658 -0.3866 -0.6804  1.1174
 1665SOL     OW16630   1.632   3.354   1.755  0.7555 -0.0593 -0.8388
 1665SOL    HW116631   1.659   3.431   1.704  1.5719 -1.3562 -2.3669
 1665SOL    HW216632   1.711   3.301   1.753  0.5627 -0.3622 -0.3240
 1666SOL     OW16633   3.417   4.727   4.321 -0.1741  0.0768  0.2686
 1666SOL    HW116634   3.347   0.055   4.301 -0.3480  0.6011  2.4240
 1666SOL    HW216635   3.385   4.645   4.283  0.1717 -1.6381  3.6247
 1667SOL     OW16636   2.058   4.557   2.908  0.6327 -0.1305  0.2880
 1667SOL    HW116637   2.138   4.560   2.854 -0.2557  2.2609 -0.8671
 1667SOL    HW216638   2.030   4.648   2.898  1.2124  0.0695  0.4296
 1668SOL     OW16639   1.202   3.333  16.302 -0.6037 -0.0665  0.3522
 1668SOL    HW116640   1.261   3.390  16.352  0.7117  0.1286 -1.4210
 1668SOL    HW216641   1.251   3.266  16.255 -0.8273 -0.0543  0.0989
 1669SOL     OW16642   4.594   3.423  14.881 -0.3858 -0.2443  0.1792
 1669SOL    HW116643   4.579   3.517  14.873 -0.8382 -0.1560  2.1611
 1669SOL    HW216644   4.527   3.387  14.823  0.0544 -0.9472  0.1067
 1670SOL     OW16645   2.556   1.004  15.996 -0.3696 -0.2073 -0.3979
 1670SOL    HW116646   2.597   1.066  16.057  1.2300  0.0263 -1.6853
 1670SOL    HW216647   2.463   1.001  16.018 -0.8318 -0.8824 -2.4585
 1671SOL     OW16648   2.375   3.656   7.326  0.4089 -0.7082 -0.5439
 1671SOL    HW116649   2.455   3.629   7.372 -0.3285  0.6914  1.5629
 1671SOL    HW216650   2.322   3.659   7.406  1.7162 -0.5321  0.3267
 1672SOL     OW16651   2.115   0.679   7.696  0.4232 -0.1344 -0.8878
 1672SOL    HW116652   2.034   0.683   7.746  1.4149  0.0033  0.7049
 1672SOL    HW216653   2.153   0.591   7.705 -0.0541 -0.4062 -1.5087
 1673SOL     OW16654   4.088   4.490   9.495 -0.2691  0.4831  0.2130
 1673SOL    HW116655   4.140   4.555   9.543 -1.4997  1.3244  0.4131
 1673SOL    HW216656   4.154   4.475   9.427 -0.3193  1.6302 -0.0826
 1674SOL     OW16657   3.833   0.359   2.298  0.0785 -0.0257 -0.5037
 1674SOL    HW116658   3.859   0.267   2.305 -2.3967 -0.5859  1.1100
 1674SOL    HW216659   3.771   0.365   2.371  1.7336  0.2967  0.8731
 1675SOL     OW16660   4.661   3.124   7.002  0.2123 -0.1457 -0.2561
 1675SOL    HW116661   4.620   3.039   7.015  1.6138 -1.0123 -1.4810
 1675SOL    HW216662   0.003   3.095   6.952  1.6892  1.8969  0.7925
 1676SOL     OW16663   1.147   1.534  11.374  0.2024  0.0792  0.0745
 1676SOL    HW116664   1.109   1.483  11.303  0.0929  1.0038 -0.5417
 1676SOL    HW216665   1.079   1.531  11.441 -0.5893  1.4677 -0.6587
 1677SOL     OW16666   2.411   4.583   8.257  0.2084  0.5489 -0.6048
 1677SOL    HW116667   2.399   4.654   8.320 -0.6960  0.4236 -0.6288
 1677SOL    HW216668   2.503   4.573   8.236  0.6578  0.3801  1.4298
 1678SOL     OW16669   4.377   1.560   6.969 -0.1278  0.2533  1.0285
 1678SOL    HW116670   4.430   1.572   6.890 -0.9442  0.3997  0.5083
 1678SOL    HW216671   4.329   1.641   6.955  1.3651  0.7941 -1.0695
 1679SOL     OW16672   3.199   2.400   5.248 -0.3204  0.0001  0.0943
 1679SOL    HW116673   3.270   2.354   5.293  1.1638  1.5175 -0.6976
 1679SOL    HW216674   3.159   2.429   5.330 -2.3935 -3.5706  0.3063
 1680SOL     OW16675   0.968   4.506   6.744 -0.0514 -0.0327 -0.4710
 1680SOL    HW116676   0.980   4.541   6.832  1.9287 -0.3733 -0.5951
 1680SOL    HW216677   0.980   4.593   6.706 -0.2650 -0.2363 -1.0096
 1681SOL     OW16678   0.128   3.777   1.639 -0.4163 -0.3671  0.3297
 1681SOL    HW116679   0.042   3.735   1.641 -0.8515  0.6264  2.4520
 1681SOL    HW216680   0.172   3.717   1.700  0.1530 -1.5270 -1.2092
 1682SOL     OW16681   2.355   3.022   0.065 -0.5548 -0.2444  0.6130
 1682SOL    HW116682   2.388   3.040   0.154  0.7213  2.5626 -0.4269
 1682SOL    HW216683   2.311   3.104   0.045  1.1202  0.9344  1.7423
 1683SOL     OW16684   3.349   2.686   4.677 -0.1230 -0.0853 -0.2022
 1683SOL    HW116685   3.378   2.720   4.762 -0.9325  0.2599 -0.0693
 1683SOL    HW216686   3.279   2.627   4.704  0.2831 -1.2181 -1.6232
 1684SOL     OW16687   4.187   3.214   3.061 -0.1792  0.0187 -0.3015
 1684SOL    HW116688   4.128   3.141   3.079 -0.1733  0.0464 -0.1660
 1684SOL    HW216689   4.227   3.179   2.981 -0.6711  1.6570 -1.2447
 1685SOL     OW16690   2.443   0.827  14.377  0.0089  0.6792 -0.0194
 1685SOL    HW116691   2.527   0.789  14.403  0.4867  0.6578 -1.6058
 1685SOL    HW216692   2.379   0.780  14.430 -0.2765  1.7327  0.5691
 1686SOL     OW16693   4.450   0.455   8.552  0.0965 -0.2553 -0.2594
 1686SOL    HW116694   4.381   0.485   8.492 -1.0581 -0.6688  0.8614
 1686SOL    HW216695   4.495   0.403   8.486  0.5801 -1.8206  1.3268
 1687SOL     OW16696   0.033   3.780   4.810 -0.0195  0.4397 -0.1413
 1687SOL    HW116697   0.044   3.870   4.841 -1.4381 -0.3019  2.5486
 1687SOL    HW216698   4.693   3.785   4.749 -0.9760  0.0337  0.9877
 1688SOL     OW16699   2.344   2.306   5.064 -0.5290 -0.5470 -0.0537
 1688SOL    HW116700   2.413   2.285   5.002 -0.0770  2.4787 -0.5717
 1688SOL    HW216701   2.269   2.267   5.018 -0.8615 -0.7148  0.6298
 1689SOL     OW16702   2.450   4.401   6.957  0.3059 -0.1074  0.5945
 1689SOL    HW116703   2.504   4.478   6.939 -1.4961  0.8877 -0.5264
 1689SOL    HW216704   2.467   4.387   7.050 -4.0803 -1.3919  1.1993
 1690SOL     OW16705   0.936   4.120   3.413 -0.4727 -0.4532 -0.1608
 1690SOL    HW116706   0.939   4.204   3.368  1.1189 -0.1848  0.4403
 1690SOL    HW216707   0.974   4.150   3.495  1.1259 -0.9235 -0.7194
 1691SOL     OW16708   3.383   3.712   2.799  0.0439 -0.6861 -0.3154
 1691SOL    HW116709   3.296   3.713   2.840  0.8383 -0.0584  1.3094
 1691SOL    HW216710   3.392   3.796   2.755 -1.2382  0.3155  1.3420
 1692SOL     OW16711   1.186   2.062   8.601  0.3833  0.0026  0.3178
 1692SOL    HW116712   1.144   2.141   8.636  0.6643  0.0285  0.5972
 1692SOL    HW216713   1.237   2.098   8.529  0.2972  1.3951  0.9563
 1693SOL     OW16714   0.408   2.159   4.175  0.3482  0.0852 -0.2108
 1693SOL    HW116715   0.438   2.069   4.183  1.2395  0.2356 -1.8189
 1693SOL    HW216716   0.443   2.183   4.261  1.6380  0.7636 -0.9157
 1694SOL     OW16717   4.490   2.771   1.409 -0.1793  0.1474 -0.4342
 1694SOL    HW116718   4.572   2.762   1.360 -1.7690 -0.9853 -2.9140
 1694SOL    HW216719   4.522   2.802   1.493 -2.8313 -0.3581  0.7747
 1695SOL     OW16720   1.494   4.150  16.188 -0.2360 -0.5322  0.5309
 1695SOL    HW116721   1.492   4.075  16.128  2.1305  2.1661 -2.9425
 1695SOL    HW216722   1.411   4.133  16.232 -0.1737 -2.5324 -0.1302
 1696SOL     OW16723   4.499   4.050  10.204  0.0981 -0.1865 -0.0289
 1696SOL    HW116724   4.411   4.080  10.226 -0.2696  0.3234 -2.1584
 1696SOL    HW216725   4.480   3.972  10.151 -0.0008 -0.3354  0.2260
 1697SOL     OW16726   0.752   0.318   4.818 -0.1214 -0.8677 -0.1451
 1697SOL    HW116727   0.787   0.298   4.905  1.4749 -0.3127 -0.6671
 1697SOL    HW216728   0.727   0.229   4.792  1.6001 -0.6946 -2.3625
 1698SOL     OW16729   2.778   0.627   7.996 -0.2611  0.2406  0.1429
 1698SOL    HW116730   2.696   0.668   8.022 -1.9057 -1.5212 -2.2673
 1698SOL    HW216731   2.818   0.701   7.950  1.2133 -0.7348 -0.1349
 1699SOL     OW16732   1.284   4.233  15.617  1.1098 -0.0226  0.0397
 1699SOL    HW116733   1.357   4.198  15.566 -0.8593 -2.4097 -1.0807
 1699SOL    HW216734   1.332   4.297  15.670  2.0779 -0.0045 -0.8634
 1700SOL     OW16735   4.271   3.008  14.854 -0.1401 -0.0264 -0.1992
 1700SOL    HW116736   4.242   3.047  14.772  1.3393  2.8573  0.6739
 1700SOL    HW216737   4.305   2.925  14.820  1.1392  0.3163  0.2583
 1701SOL     OW16738   3.185   1.137   1.461  0.6740  0.0024  0.0060
 1701SOL    HW116739   3.260   1.081   1.441  0.5922 -0.9716  2.5190
 1701SOL    HW216740   3.172   1.188   1.381 -1.5319  2.2294  1.7686
 1702SOL     OW16741   3.348   1.111   4.878 -0.2901 -0.3841 -0.2204
 1702SOL    HW116742   3.399   1.177   4.832 -1.2306 -0.0444 -0.7831
 1702SOL    HW216743   3.383   1.110   4.967 -0.1729 -0.5012 -0.2680
 1703SOL     OW16744   4.276   0.632   8.795  0.5307  0.5054 -0.3381
 1703SOL    HW116745   4.235   0.625   8.709  0.6190 -1.3338 -0.2300
 1703SOL    HW216746   4.370   0.642   8.783  0.7875 -1.6883 -0.2805
 1704SOL     OW16747   0.453   2.852  12.859 -0.1179  0.4162 -0.0835
 1704SOL    HW116748   0.465   2.789  12.787 -1.3279  2.4907 -2.1021
 1704SOL    HW216749   0.375   2.895  12.826 -3.2465 -2.2231  3.8100
 1705SOL     OW16750   0.483   2.268  12.383 -0.5548  0.2085 -0.6035
 1705SOL    HW116751   0.565   2.258  12.335 -0.5071  1.3284 -0.7554
 1705SOL    HW216752   0.503   2.222  12.464 -0.9393 -1.3181 -1.3591
 1706SOL     OW16753   0.050   4.216  11.015  0.4759  0.5288  0.2607
 1706SOL    HW116754   0.057   4.187  11.106 -0.1581  1.1208  0.4993
 1706SOL    HW216755   4.690   4.205  11.016  0.7215 -1.4188  0.9496
 1707SOL     OW16756   2.277   0.276  10.408 -0.3420  0.3461  0.3001
 1707SOL    HW116757   2.248   0.358  10.369  1.1014 -0.3736 -2.2354
 1707SOL    HW216758   2.192   0.235  10.425 -1.1476  1.9825  0.2789
 1708SOL     OW16759   1.859   0.483   5.206 -0.2357  0.4308 -0.0556
 1708SOL    HW116760   1.948   0.460   5.179  0.1117  0.1335  1.3728
 1708SOL    HW216761   1.830   0.526   5.126  1.8978  4.1661  1.2151
 1709SOL     OW16762   4.695   1.956   7.820 -0.5702 -0.0233 -0.0053
 1709SOL    HW116763   4.600   1.968   7.816 -0.1691  2.5619 -2.2521
 1709SOL    HW216764   4.688   1.867   7.855 -2.8070  0.7795  1.5656
 1710SOL     OW16765   2.350   0.834   3.214  0.3250 -0.3737 -0.2046
 1710SOL    HW116766   2.293   0.797   3.146 -1.5545  2.9955 -0.4318
 1710SOL    HW216767   2.423   0.772   3.208 -0.3817 -1.2602  0.3154
 1711SOL     OW16768   3.171   4.599   0.692  0.2241 -0.0454 -0.0257
 1711SOL    HW116769   3.255   4.645   0.686 -0.4109  1.0325 -0.7184
 1711SOL    HW216770   3.130   4.655   0.758 -1.2724  0.5426 -1.4868
 1712SOL     OW16771   1.833   1.139   4.048 -0.3897  0.4738  0.7365
 1712SOL    HW116772   1.823   1.076   3.977 -1.1376  1.8319 -0.3630
 1712SOL    HW216773   1.740   1.152   4.066 -0.1842  1.6082  1.0068
 1713SOL     OW16774   3.896   0.115   4.902 -0.3302  0.0039  0.1417
 1713SOL    HW116775   3.913   0.207   4.883  2.2727 -0.5549 -0.3072
 1713SOL    HW216776   3.854   0.088   4.821  3.6868 -4.1241 -0.6120
 1714SOL     OW16777   2.959   1.434   1.757  1.4616  0.2607 -0.2755
 1714SOL    HW116778   2.882   1.377   1.761  0.3323  1.8444  0.8180
 1714SOL    HW216779   2.949   1.468   1.668  2.6873  0.3529 -0.3757
 1715SOL     OW16780   3.739   0.137   8.353 -0.3139  0.3687  0.1272
 1715SOL    HW116781   3.782   0.168   8.433  0.7457  0.1253 -0.3590
 1715SOL    HW216782   3.820   0.107   8.312  0.1668  0.2510  1.1474
 1716SOL     OW16783   1.255   2.485   3.130 -0.1675  0.5526  0.1295
 1716SOL    HW116784   1.303   2.485   3.047 -1.7860  1.6086 -0.8242
 1716SOL    HW216785   1.255   2.393   3.156  0.4601  0.8110  1.0258
 1717SOL     OW16786   0.972   3.852  16.148 -0.1684  0.5125 -0.2274
 1717SOL    HW116787   1.006   3.769  16.114 -3.3424 -0.5597 -0.7426
 1717SOL    HW216788   0.878   3.844  16.135 -0.0841 -0.1526 -0.4411
 1718SOL     OW16789   1.103   1.125   4.049 -0.0893  0.2315 -0.2906
 1718SOL    HW116790   1.183   1.172   4.074  0.4973 -0.8396 -0.1840
 1718SOL    HW216791   1.098   1.086   4.137  2.1127 -0.0005 -0.2897
 1719SOL     OW16792   2.034   2.618   1.759  0.3629 -0.2679  0.0629
 1719SOL    HW116793   1.987   2.535   1.770  2.2313 -1.6764 -2.7372
 1719SOL    HW216794   2.009   2.652   1.674  1.9322 -0.1124 -0.3280
 1720SOL     OW16795   0.751   2.532   8.686  0.5130 -0.0604  0.1708
 1720SOL    HW116796   0.777   2.440   8.684  0.3634 -0.0397 -2.9414
 1720SOL    HW216797   0.682   2.531   8.753  0.9367 -1.3130  0.5942
 1721SOL     OW16798   2.355   1.569   1.931  0.3714 -0.2849  0.1408
 1721SOL    HW116799   2.274   1.620   1.930  1.0411  0.7907  1.1958
 1721SOL    HW216800   2.381   1.569   1.838 -0.6824  0.0542 -0.1508
 1722SOL     OW16801   4.282   2.461   2.866  0.2395  0.9659 -0.1365
 1722SOL    HW116802   4.203   2.510   2.888  0.4462  0.9747  0.5880
 1722SOL    HW216803   4.336   2.459   2.946  1.2176  3.1216 -0.7599
 1723SOL     OW16804   1.190   3.529  13.281 -0.8017 -0.0911  0.4293
 1723SOL    HW116805   1.275   3.515  13.240 -1.1266 -0.3134 -0.1609
 1723SOL    HW216806   1.152   3.591  13.219 -2.9396 -4.8395 -3.0048
 1724SOL     OW16807   3.710   1.164   0.528  0.5079 -0.5326 -0.8744
 1724SOL    HW116808   3.709   1.244   0.474 -0.8750  0.1207  0.1015
 1724SOL    HW216809   3.761   1.187   0.606 -0.7374  0.5657 -0.3815
 1725SOL     OW16810   2.523   2.659  14.320  0.2739  0.1590  0.0954
 1725SOL    HW116811   2.579   2.734  14.340  0.4189  0.0286  0.1772
 1725SOL    HW216812   2.575   2.610  14.256 -2.2755 -0.8352 -1.2365
 1726SOL     OW16813   1.315   0.930  11.223  0.1661  0.2788 -0.1752
 1726SOL    HW116814   1.286   0.964  11.138 -0.2849 -1.5397 -0.7369
 1726SOL    HW216815   1.333   1.015  11.264  0.0354  0.9675 -1.5086
 1727SOL     OW16816   2.726   2.570   8.014  0.0044 -0.5818  0.1630
 1727SOL    HW116817   2.676   2.501   8.058 -0.2571  0.5517  1.6365
 1727SOL    HW216818   2.773   2.516   7.949  1.7500 -0.1766  1.1014
 1728SOL     OW16819   1.299   2.412  10.787 -0.3279 -0.1940  0.0308
 1728SOL    HW116820   1.348   2.370  10.716 -0.9284 -0.3928 -0.2666
 1728SOL    HW216821   1.370   2.472  10.811  0.3995 -0.4609 -1.4601
 1729SOL     OW16822   3.024   0.542   2.868  0.0925  0.2410 -0.0867
 1729SOL    HW116823   3.028   0.555   2.962  0.2627 -0.3226 -0.0171
 1729SOL    HW216824   3.103   0.591   2.843  0.8527 -1.9804 -2.1334
 1730SOL     OW16825   3.278   0.325   7.863  0.1360  0.2886  0.3163
 1730SOL    HW116826   3.328   0.268   7.804  0.4265 -0.2860  1.1205
 1730SOL    HW216827   3.254   0.396   7.803 -0.5832 -1.7712 -1.8368
 1731SOL     OW16828   4.658   2.090  14.159  0.4924 -0.3101 -0.3045
 1731SOL    HW116829   4.599   2.164  14.144 -1.8524 -1.9381  1.0488
 1731SOL    HW216830   4.693   2.084  14.070  0.5228  3.3790 -0.5396
 1732SOL     OW16831   0.975   4.055  17.322 -0.4674 -0.0584  0.7762
 1732SOL    HW116832   0.948   4.036  17.233 -0.4203 -2.4668  1.2896
 1732SOL    HW216833   1.068   4.059  17.300 -0.8277 -0.0621 -0.7180
 1733SOL     OW16834   3.196   3.830  11.461 -0.4305  0.0723 -0.1101
 1733SOL    HW116835   3.148   3.913  11.467 -0.2379  0.1984 -0.2953
 1733SOL    HW216836   3.194   3.789  11.548  0.7678  2.2116  0.9334
 1734SOL     OW16837   0.526   1.241   1.987 -0.5078 -0.1138  0.0839
 1734SOL    HW116838   0.545   1.150   2.012 -1.3747 -1.5130 -4.2160
 1734SOL    HW216839   0.440   1.223   1.948  0.8026 -2.5878 -1.7204
 1735SOL     OW16840   3.247   1.493  16.565 -0.6214 -0.4138 -0.0205
 1735SOL    HW116841   3.310   1.545  16.515  0.0104  0.3974  1.6057
 1735SOL    HW216842   3.219   1.544  16.641 -1.5165 -1.4566  0.3550
 1736SOL     OW16843   1.880   4.197  15.032  0.2359 -0.0565 -0.0774
 1736SOL    HW116844   1.872   4.122  14.973 -2.9270 -0.4254  0.7940
 1736SOL    HW216845   1.821   4.176  15.104 -0.4951 -2.7709 -1.4695
 1737SOL     OW16846   4.311   2.468   6.650 -0.2881 -0.7017  0.1627
 1737SOL    HW116847   4.221   2.436   6.643 -0.7523  0.8521 -0.9858
 1737SOL    HW216848   4.296   2.549   6.699  2.6185 -1.2479  2.0040
 1738SOL     OW16849   0.347   4.156  16.102  0.3826 -0.1508  0.7154
 1738SOL    HW116850   0.287   4.114  16.040  1.3618 -0.3918 -0.0653
 1738SOL    HW216851   0.360   4.085  16.165 -0.1791 -0.7226  0.1956
 1739SOL     OW16852   1.930   0.857  14.389 -0.2921 -0.0284  0.6617
 1739SOL    HW116853   1.840   0.858  14.420 -0.7674 -1.8969 -0.6263
 1739SOL    HW216854   1.913   0.845  14.295  0.8327 -2.7654  0.8130
 1740SOL     OW16855   1.150   2.189   2.478 -0.5489  0.2650 -0.0548
 1740SOL    HW116856   1.088   2.262   2.467  0.8670  1.2399 -1.6321
 1740SOL    HW216857   1.093   2.124   2.437 -1.0202  0.7784 -0.2143
 1741SOL     OW16858   3.002   1.828   4.141  0.3559  0.2300  0.6775
 1741SOL    HW116859   3.002   1.866   4.053 -0.6554 -0.5388  0.3519
 1741SOL    HW216860   2.968   1.741   4.120 -1.2955  1.3004 -1.1403
 1742SOL     OW16861   3.961   1.731   4.909 -0.0406 -0.1157  0.6255
 1742SOL    HW116862   4.038   1.763   4.863  0.3082  0.4968  1.6468
 1742SOL    HW216863   3.991   1.722   4.999  1.5877  1.4076  0.2157
 1743SOL     OW16864   1.447   1.701   0.194  0.2616 -0.0192 -0.9829
 1743SOL    HW116865   1.372   1.658   0.236  0.1623 -0.8284 -1.9885
 1743SOL    HW216866   1.523   1.684   0.251 -0.5365 -2.1810 -0.5575
 1744SOL     OW16867   2.503   3.243  16.486  0.3228 -0.4676  0.3256
 1744SOL    HW116868   2.551   3.289  16.556 -0.1153  0.2940  0.1338
 1744SOL    HW216869   2.471   3.319  16.438 -0.8026 -0.6801  0.7352
 1745SOL     OW16870   1.023   2.563  10.699  0.4832 -0.0075  0.3420
 1745SOL    HW116871   0.993   2.512  10.774 -1.7076  0.5212 -0.1848
 1745SOL    HW216872   1.116   2.577  10.718  0.0973 -1.5417  3.5227
 1746SOL     OW16873   3.724   1.491   5.833  0.5957  0.2206 -0.1141
 1746SOL    HW116874   3.820   1.490   5.833  0.6250  3.8691  2.1035
 1746SOL    HW216875   3.718   1.459   5.923 -2.1017  1.6514  0.2044
 1747SOL     OW16876   2.615   3.801   5.112  0.3166 -0.3290 -0.3112
 1747SOL    HW116877   2.589   3.770   5.025 -0.9637  0.0016 -0.0575
 1747SOL    HW216878   2.598   3.728   5.172  1.7563 -0.0446  0.4491
 1748SOL     OW16879   2.855   3.285   1.579 -0.0008  0.5162  0.2342
 1748SOL    HW116880   2.936   3.287   1.528  0.0890 -1.5006  0.2910
 1748SOL    HW216881   2.810   3.347   1.522 -2.3719  0.3614  1.9203
 1749SOL     OW16882   2.968   0.242   7.358 -0.3563  0.0332 -0.4963
 1749SOL    HW116883   3.033   0.247   7.428  0.5391  2.1499 -1.5127
 1749SOL    HW216884   2.992   0.317   7.304  1.4529 -0.1863  0.0203
 1750SOL     OW16885   0.082   1.000   4.664 -0.2692 -0.1951  0.4022
 1750SOL    HW116886   0.116   0.937   4.601 -1.6788 -0.0074 -0.5518
 1750SOL    HW216887   0.105   0.959   4.747 -0.6755  0.6406  0.9294
 1751SOL     OW16888   0.782   2.567   7.845 -0.2139  0.3411  0.1999
 1751SOL    HW116889   0.702   2.573   7.897  1.2160 -2.0546  2.6723
 1751SOL    HW216890   0.815   2.652   7.874 -1.1930  1.0620 -0.8132
 1752SOL     OW16891   3.399   1.639   3.856 -0.2075 -0.2198 -0.6692
 1752SOL    HW116892   3.313   1.633   3.898  1.0522  0.6086  1.9973
 1752SOL    HW216893   3.454   1.678   3.924 -0.7959 -0.7647  0.1168
 1753SOL     OW16894   1.205   1.023   8.635  0.6715  0.4940 -0.0910
 1753SOL    HW116895   1.216   1.016   8.540  0.2519 -1.2389 -0.0124
 1753SOL    HW216896   1.196   0.931   8.660  0.4665  0.4418 -0.3600
 1754SOL     OW16897   1.685   2.656   3.688  0.3568  0.3863 -0.3282
 1754SOL    HW116898   1.614   2.592   3.686 -0.4790  1.2735  2.2481
 1754SOL    HW216899   1.650   2.744   3.672  1.1357  0.8069  0.2498
 1755SOL     OW16900   3.520   3.614   3.154  0.2098  0.2348  0.3026
 1755SOL    HW116901   3.589   3.576   3.101 -0.6248 -1.1169  0.1805
 1755SOL    HW216902   3.461   3.632   3.080 -2.1663 -1.9826  1.6638
 1756SOL     OW16903   0.781   0.325   2.648  0.3574 -0.2852 -0.1897
 1756SOL    HW116904   0.756   0.373   2.727 -0.6160  1.2766 -1.4548
 1756SOL    HW216905   0.704   0.336   2.593  0.9976  0.2192 -0.9993
 1757SOL     OW16906   4.200   0.804  11.015 -0.4459 -0.0663  0.1037
 1757SOL    HW116907   4.184   0.710  11.010  0.7567 -0.4239  2.9544
 1757SOL    HW216908   4.112   0.840  11.027 -0.0836  0.9048 -0.1790
 1758SOL     OW16909   2.566   0.895   0.642 -0.2187  0.1030  0.1658
 1758SOL    HW116910   2.488   0.946   0.619 -0.7085 -0.1245  1.3506
 1758SOL    HW216911   2.582   0.917   0.733 -1.1436 -1.5777  0.7261
 1759SOL     OW16912   3.581   3.461  17.692  0.0796  0.6441 -0.4143
 1759SOL    HW116913   3.519   3.390  17.679 -0.8264  1.2294  0.6866
 1759SOL    HW216914   3.665   3.415  17.699  0.2768  1.0492 -0.0225
 1760SOL     OW16915   3.305   3.666   6.667  0.1586  0.0226  0.1640
 1760SOL    HW116916   3.302   3.726   6.593 -1.3091  1.0370  1.0352
 1760SOL    HW216917   3.372   3.609   6.631  0.3013 -0.2580  0.8686
 1761SOL     OW16918   4.403   4.085   0.432 -0.4860  0.4385  0.3575
 1761SOL    HW116919   4.395   3.991   0.415 -1.5741  0.2637  1.8388
 1761SOL    HW216920   4.406   4.100   0.527  0.0203  1.9989  0.0789
 1762SOL     OW16921   0.454   2.083   2.498  0.0208 -0.2443  0.4211
 1762SOL    HW116922   0.498   2.168   2.495  0.1408 -0.3903 -2.4656
 1762SOL    HW216923   0.363   2.109   2.491 -0.4192 -1.3125  2.2773
 1763SOL     OW16924   3.019   0.005   7.730 -0.2340  0.1895 -0.0217
 1763SOL    HW116925   2.930   4.704   7.719  0.5464 -2.2811  1.5978
 1763SOL    HW216926   3.004   0.087   7.778  0.2463 -0.7525  1.7271
 1764SOL     OW16927   4.570   0.353   6.837  0.1288 -0.1323  0.2376
 1764SOL    HW116928   4.543   0.395   6.919  1.8322  0.8029  0.3192
 1764SOL    HW216929   4.629   0.417   6.797  0.0241  2.1201  3.6923
 1765SOL     OW16930   3.891   1.616   2.764  0.9603 -0.1356  0.1017
 1765SOL    HW116931   3.822   1.682   2.763  1.2479  0.1827  0.9466
 1765SOL    HW216932   3.869   1.566   2.843 -0.3499 -0.8609 -0.7362
 1766SOL     OW16933   1.525   2.834   8.782 -0.0845  0.6554  0.5590
 1766SOL    HW116934   1.434   2.804   8.785  0.6679 -1.7486 -1.2449
 1766SOL    HW216935   1.545   2.858   8.872 -1.2577  0.0211  0.9799
 1767SOL     OW16936   0.860   0.983   4.314 -0.1844 -0.2051 -0.5152
 1767SOL    HW116937   0.814   0.972   4.398  2.3277  0.1981  0.9273
 1767SOL    HW216938   0.792   0.997   4.248 -1.2072  1.2327  0.8424
 1768SOL     OW16939   4.593   3.166   7.844 -0.3677  0.2702  0.4311
 1768SOL    HW116940   4.659   3.100   7.827 -2.8779 -1.8172 -1.1601
 1768SOL    HW216941   4.642   3.248   7.854  0.3335 -0.0539 -0.3466
 1769SOL     OW16942   2.910   0.355   6.441 -0.5228  0.5021  0.2128
 1769SOL    HW116943   2.968   0.369   6.366  1.5302  0.8926  1.8671
 1769SOL    HW216944   2.948   0.420   6.501  0.6396 -0.9358  1.0335
 1770SOL     OW16945   3.063   4.726   7.416 -0.4409  0.0359  0.1262
 1770SOL    HW116946   2.999   0.030   7.477  0.1936 -2.5427  2.4399
 1770SOL    HW216947   3.041   0.057   7.351 -0.2583  1.8099  1.8334
 1771SOL     OW16948   1.128   0.567   1.447 -0.5437  0.2159 -0.6285
 1771SOL    HW116949   1.059   0.523   1.395 -2.0404  1.2002  0.5232
 1771SOL    HW216950   1.207   0.524   1.416 -2.4624 -2.2758 -2.1157
 1772SOL     OW16951   1.819   2.026   2.895 -0.8755  0.3269  0.3594
 1772SOL    HW116952   1.876   2.100   2.874 -1.2792  0.3725 -0.6192
 1772SOL    HW216953   1.773   2.027   2.810  2.1643  1.1343 -1.2648
 1773SOL     OW16954   3.264   1.955  10.421  0.2870 -0.9435 -0.2637
 1773SOL    HW116955   3.229   1.986  10.338  2.5824  1.5547 -0.3087
 1773SOL    HW216956   3.190   1.918  10.468 -0.3438  1.5922  0.7777
 1774SOL     OW16957   1.930   3.812   4.046  0.2370 -0.0541  0.6889
 1774SOL    HW116958   2.018   3.809   4.085  0.2391  1.2029  0.7745
 1774SOL    HW216959   1.930   3.725   4.004  1.8725  0.2663  0.0163
 1775SOL     OW16960   4.131   0.421   1.292  0.6492  0.5182 -0.0957
 1775SOL    HW116961   4.188   0.353   1.327 -1.5454 -0.6240  1.2572
 1775SOL    HW216962   4.085   0.380   1.219 -3.1399 -0.4929  2.8485
 1776SOL     OW16963   1.015   0.052   7.655 -0.3967 -0.7046  0.1550
 1776SOL    HW116964   0.947   0.117   7.638 -1.3586 -1.0222  2.8220
 1776SOL    HW216965   0.972   4.701   7.647 -0.8119 -0.7279  2.9933
 1777SOL     OW16966   2.823   0.309  17.226  0.0187 -0.0114  0.2060
 1777SOL    HW116967   2.776   0.375  17.175  0.6153  1.4466  1.5236
 1777SOL    HW216968   2.906   0.355  17.239 -0.8832  1.5608  0.4208
 1778SOL     OW16969   4.182   1.029   7.416 -0.4397 -0.3122 -0.1690
 1778SOL    HW116970   4.125   0.976   7.361 -2.4190 -0.1605  1.7533
 1778SOL    HW216971   4.198   1.096   7.348  0.4180  1.2717  1.5974
 1779SOL     OW16972   4.024   0.293  14.271  0.9616  0.3552  0.1276
 1779SOL    HW116973   4.079   0.218  14.248 -0.8154 -0.7628 -0.5341
 1779SOL    HW216974   3.944   0.256  14.233 -0.0112 -1.9355  4.3058
 1780SOL     OW16975   0.068   3.063   9.242  0.5843 -0.7380  0.1796
 1780SOL    HW116976   0.081   3.158   9.247  0.2729 -0.6705 -0.3592
 1780SOL    HW216977   0.162   3.048   9.231  0.5455  0.3040 -1.5240
 1781SOL     OW16978   0.431   4.011   7.465 -0.3233  0.2014 -0.1838
 1781SOL    HW116979   0.519   4.049   7.456 -0.7313  1.5364  1.3499
 1781SOL    HW216980   0.417   3.951   7.392 -0.7314 -0.3908  0.3789
 1782SOL     OW16981   2.843   0.922  16.890 -0.6895  0.0570  0.0504
 1782SOL    HW116982   2.860   0.842  16.939 -1.3788  1.0271  1.8531
 1782SOL    HW216983   2.912   0.977  16.926  1.1172 -2.0813 -0.1423
 1783SOL     OW16984   2.895   2.446  15.457  0.0489  0.6293  0.5774
 1783SOL    HW116985   2.975   2.398  15.436 -0.9912 -0.1345 -1.6055
 1783SOL    HW216986   2.881   2.429  15.551  0.3526 -1.6681  0.2041
 1784SOL     OW16987   2.746   4.312   7.733 -0.0510  0.0938  0.2110
 1784SOL    HW116988   2.809   4.249   7.769 -1.1648 -2.0015 -1.4570
 1784SOL    HW216989   2.809   4.383   7.741 -0.0396  0.3208 -1.9637
 1785SOL     OW16990   3.898   1.689   3.071  0.4077 -0.6715 -0.2766
 1785SOL    HW116991   3.934   1.742   3.000 -0.0909  2.2214  1.6120
 1785SOL    HW216992   3.963   1.623   3.093 -1.6322 -2.3652  0.6609
 1786SOL     OW16993   0.054   3.373   4.738  0.4509  0.2352 -0.0670
 1786SOL    HW116994   0.082   3.444   4.680 -1.5231 -0.1000 -1.4427
 1786SOL    HW216995   0.021   3.307   4.678  1.6742  0.6373 -1.1800
 1787SOL     OW16996   2.630   2.193   5.898 -0.2106 -0.3065 -0.1843
 1787SOL    HW116997   2.583   2.116   5.867  2.4686 -1.1169 -2.3393
 1787SOL    HW216998   2.722   2.166   5.894 -0.2850 -0.6312  0.4458
 1788SOL     OW16999   4.345   3.227   1.349 -0.0589  0.5988 -0.1121
 1788SOL    HW117000   4.379   3.166   1.415 -0.0073  1.2851  0.4956
 1788SOL    HW217001   4.412   3.208   1.283 -2.1078 -1.1054 -1.7069
 1789SOL     OW17002   3.339   4.382   7.806 -0.1677 -0.1227 -0.3406
 1789SOL    HW117003   3.345   4.475   7.784 -0.0393 -0.4024 -1.4433
 1789SOL    HW217004   3.398   4.345   7.741 -2.9324 -1.2581 -2.2012
 1790SOL     OW17005   2.662   1.105   0.373 -0.1824 -0.6153  0.5754
 1790SOL    HW117006   2.647   1.094   0.279  0.6340  0.2854  0.3436
 1790SOL    HW217007   2.624   1.191   0.388  2.9891  0.6456  1.4686
 1791SOL     OW17008   2.163   1.074  11.845  0.2062 -0.1861 -0.4636
 1791SOL    HW117009   2.223   1.025  11.900 -0.8134 -1.6193 -0.6416
 1791SOL    HW217010   2.165   1.154  11.898  1.8731  0.2518 -1.1748
 1792SOL     OW17011   2.143   0.412   5.104  0.3716 -0.2271 -0.1703
 1792SOL    HW117012   2.169   0.504   5.111 -1.9586  0.4460 -0.2783
 1792SOL    HW217013   2.158   0.377   5.192 -0.8114  0.7101  0.4005
 1793SOL     OW17014   3.605   1.885  14.333  0.1206 -0.1932  0.2622
 1793SOL    HW117015   3.620   1.867  14.240 -0.6003  1.9365 -0.2632
 1793SOL    HW217016   3.547   1.960  14.329 -0.0671 -0.3018  0.9822
 1794SOL     OW17017   2.815   1.379   6.364 -0.4419 -0.0148  0.8923
 1794SOL    HW117018   2.822   1.353   6.272  0.1018  1.2721  0.5623
 1794SOL    HW217019   2.759   1.457   6.365 -1.3357 -0.6182 -2.1648
 1795SOL     OW17020   4.642   3.631  16.026  0.5893  0.6551 -0.3939
 1795SOL    HW117021   4.726   3.651  16.068  0.4370 -1.1139  0.7403
 1795SOL    HW217022   4.663   3.661  15.938  2.4391  0.4805 -0.0069
 1796SOL     OW17023   2.814   3.569   0.614 -0.3910 -0.1187 -0.0579
 1796SOL    HW117024   2.820   3.482   0.574  1.5124  1.0068 -2.2669
 1796SOL    HW217025   2.804   3.632   0.542 -1.2597  0.1950  0.3395
 1797SOL     OW17026   0.017   0.896   6.572 -0.2985 -0.3096  0.0848
 1797SOL    HW117027   0.088   0.949   6.534  0.3927 -1.5526 -0.3522
 1797SOL    HW217028   4.677   0.907   6.512 -1.3649 -0.1384  1.4425
 1798SOL     OW17029   2.227   2.886   1.230  0.2645 -0.6073 -0.3943
 1798SOL    HW117030   2.176   2.814   1.267 -4.4825  3.4243  0.8290
 1798SOL    HW217031   2.314   2.869   1.267  0.8352  0.1181 -1.3783
 1799SOL     OW17032   3.458   2.324   7.927  0.3239 -0.1164  0.9104
 1799SOL    HW117033   3.428   2.409   7.960  2.6283  0.9262  0.2889
 1799SOL    HW217034   3.460   2.329   7.832 -1.1356 -4.3106  0.6721
 1800SOL     OW17035   0.800   0.790  13.570 -0.1534  0.2528  0.4513
 1800SOL    HW117036   0.816   0.846  13.646 -0.2300  0.2767  0.4500
 1800SOL    HW217037   0.704   0.798  13.568 -0.0014  2.0076  0.5110
 1801SOL     OW17038   4.594   1.728   2.321 -0.7484 -0.0377 -0.7940
 1801SOL    HW117039   4.568   1.804   2.374 -1.4006 -1.7229  1.2762
 1801SOL    HW217040   4.533   1.732   2.247 -0.8381 -0.2152 -0.7286
 1802SOL     OW17041   0.341   3.255   8.120 -0.1961 -0.0051 -0.8411
 1802SOL    HW117042   0.364   3.162   8.119 -1.7679 -0.3801 -1.2426
 1802SOL    HW217043   0.364   3.275   8.210  1.2412  0.8038 -1.3813
 1803SOL     OW17044   3.389   4.235   0.064 -0.1998  0.1562 -0.3248
 1803SOL    HW117045   3.371   4.249   0.157  0.6190 -1.1511  0.0236
 1803SOL    HW217046   3.419   4.145   0.062 -0.4219  0.1082 -1.4894
 1804SOL     OW17047   2.559   3.860   3.908 -0.1218  0.4978 -0.6259
 1804SOL    HW117048   2.610   3.927   3.954 -2.2741  1.0825  0.9188
 1804SOL    HW217049   2.469   3.864   3.941  0.1084  0.6129 -0.0152
 1805SOL     OW17050   2.207   2.159   8.625  0.3883 -0.3915 -0.1930
 1805SOL    HW117051   2.197   2.066   8.604  1.4987 -0.5972  0.1874
 1805SOL    HW217052   2.273   2.185   8.562  0.6115 -0.6067 -0.0479
 1806SOL     OW17053   3.329   1.099   3.363  0.3840 -0.3763  0.1014
 1806SOL    HW117054   3.407   1.054   3.331  1.2343  0.7867  0.5495
 1806SOL    HW217055   3.374   1.175   3.399  0.1900  0.2179 -0.9351
 1807SOL     OW17056   3.247   4.627   8.509  0.2666 -0.5266 -0.2944
 1807SOL    HW117057   3.341   4.609   8.498  0.0321 -1.1548 -1.2932
 1807SOL    HW217058   3.255   4.711   8.554  1.2022 -1.1533  0.7187
 1808SOL     OW17059   2.177   3.009  12.532  0.3135  0.1536 -0.6829
 1808SOL    HW117060   2.271   3.020  12.546  0.0907 -0.0915  1.0112
 1808SOL    HW217061   2.136   3.015  12.618  0.1931 -0.4408 -0.7034
 1809SOL     OW17062   2.439   0.488  16.842 -0.2463 -0.3291  0.0059
 1809SOL    HW117063   2.389   0.440  16.909 -0.9167  1.0414  0.5054
 1809SOL    HW217064   2.367   0.525  16.790  0.6365 -0.8074 -1.5337
 1810SOL     OW17065   4.208   1.000  12.142 -0.1249 -0.1963 -0.4474
 1810SOL    HW117066   4.124   0.968  12.108 -0.6705  0.0393  0.7186
 1810SOL    HW217067   4.270   0.933  12.110 -1.2830 -2.0421  1.1488
 1811SOL     OW17068   1.958   2.624   1.500  0.6286 -0.2506  0.1526
 1811SOL    HW117069   1.926   2.670   1.423 -2.9069 -1.0527  1.1393
 1811SOL    HW217070   1.978   2.536   1.469 -3.3281 -2.0349  2.6587
 1812SOL     OW17071   1.308   1.686  10.988 -0.5941 -0.0148 -0.0366
 1812SOL    HW117072   1.224   1.732  10.985 -0.4784  0.2577  1.0170
 1812SOL    HW217073   1.351   1.746  11.049 -0.7286 -0.7790  0.8056
 1813SOL     OW17074   2.818   2.761   0.228  0.2119  0.1651  0.2333
 1813SOL    HW117075   2.810   2.776   0.134  0.1691 -2.6068 -0.2032
 1813SOL    HW217076   2.781   2.843   0.262 -4.4416 -1.5536 -0.6285
 1814SOL     OW17077   0.812   0.207   5.773 -0.3377 -0.6283  0.5811
 1814SOL    HW117078   0.738   0.156   5.804  0.8602 -2.1133  1.0100
 1814SOL    HW217079   0.829   0.265   5.847  0.9004 -2.5168  1.7820
 1815SOL     OW17080   2.553   2.393  11.915  0.2866 -0.0091  0.4041
 1815SOL    HW117081   2.605   2.331  11.864 -0.3301 -0.2571  0.0835
 1815SOL    HW217082   2.509   2.322  11.961 -1.9671  0.1070 -1.5675
 1816SOL     OW17083   1.387   2.215  14.202  0.0210 -0.0415  0.1195
 1816SOL    HW117084   1.477   2.226  14.234 -0.6650  1.1912  1.5692
 1816SOL    HW217085   1.405   2.238  14.110 -0.5130  1.5516  0.4152
 1817SOL     OW17086   4.445   2.684  11.297 -0.0710 -0.0183 -0.3246
 1817SOL    HW117087   4.503   2.608  11.304  0.9176  1.1135  3.7946
 1817SOL    HW217088   4.487   2.746  11.356  0.2201 -0.6459  0.1298
 1818SOL     OW17089   4.634   1.064   5.096  0.0167  0.3436  0.0647
 1818SOL    HW117090   4.566   0.999   5.114  1.5082 -0.9334  1.2005
 1818SOL    HW217091   4.692   1.058   5.172  0.0495 -2.9497 -0.2163
 1819SOL     OW17092   1.313   4.544  13.680  0.2499  1.0579 -0.0037
 1819SOL    HW117093   1.389   4.599  13.666  2.6705 -2.0593  0.9172
 1819SOL    HW217094   1.241   4.603  13.657 -0.6147  0.9712  2.4502
 1820SOL     OW17095   1.611   2.736   9.653 -0.2306  0.5644  0.6289
 1820SOL    HW117096   1.661   2.770   9.579 -1.3117 -2.1750 -1.3611
 1820SOL    HW217097   1.528   2.715   9.610  0.8535  2.6355 -2.3828
 1821SOL     OW17098   3.471   3.689  13.246  0.0298  0.3658 -0.1672
 1821SOL    HW117099   3.559   3.717  13.273  0.0712  0.3899 -0.3241
 1821SOL    HW217100   3.492   3.621  13.181  0.5016  0.9269 -0.6032
 1822SOL     OW17101   2.835   3.114  13.921 -0.1237  0.5075 -0.2366
 1822SOL    HW117102   2.769   3.148  13.981 -2.2921 -1.2139 -1.6423
 1822SOL    HW217103   2.782   3.043  13.885  2.1267 -1.1699 -0.1821
 1823SOL     OW17104   1.823   1.502  17.540  0.3231  0.8628 -0.0584
 1823SOL    HW117105   1.776   1.492  17.458 -1.2370 -2.1708  1.2040
 1823SOL    HW217106   1.901   1.449  17.525 -0.3327  0.1901 -1.1300
 1824SOL     OW17107   2.314   2.215  13.241 -0.0412  0.7944  0.1028
 1824SOL    HW117108   2.222   2.208  13.265  0.0288  1.7431  0.6594
 1824SOL    HW217109   2.340   2.298  13.281 -0.7397 -0.0496  2.3065
 1825SOL     OW17110   4.725   2.147   9.924  0.2341  0.2280 -0.4179
 1825SOL    HW117111   0.080   2.179   9.942  0.0407  0.8275 -0.5349
 1825SOL    HW217112   0.016   2.057   9.903 -1.7462 -0.2820 -0.5970
 1826SOL     OW17113   3.226   2.692  15.759  0.0112  0.0641 -0.1750
 1826SOL    HW117114   3.206   2.598  15.758  2.6589 -0.5012  0.1215
 1826SOL    HW217115   3.208   2.719  15.669  1.9778 -1.2359 -0.9459
 1827SOL     OW17116   3.194   4.280  12.449  0.1871 -0.5054  1.6046
 1827SOL    HW117117   3.225   4.193  12.423 -0.6545 -0.0762 -0.8231
 1827SOL    HW217118   3.224   4.296  12.538  1.7012 -2.5056  1.4383
 1828SOL     OW17119   3.386   1.706  13.006 -0.0553 -0.0681 -0.4363
 1828SOL    HW117120   3.339   1.647  13.065 -1.6549 -0.7042 -2.3738
 1828SOL    HW217121   3.377   1.789  13.053 -0.6700 -0.6547  0.4854
 1829SOL     OW17122   2.484   0.529   7.748  0.2960 -0.2509 -0.3941
 1829SOL    HW117123   2.486   0.525   7.652  0.7162  1.6036 -0.4641
 1829SOL    HW217124   2.497   0.623   7.759 -2.4022  0.1742 -0.9335
 1830SOL     OW17125   3.023   0.938   7.946  0.1104  0.4426  0.4187
 1830SOL    HW117126   3.023   0.891   8.029 -1.2258  2.5560  1.6150
 1830SOL    HW217127   3.115   0.953   7.923 -0.6914  4.3943 -0.2473
 1831SOL     OW17128   2.142   0.054   7.774  0.2037 -0.0634 -0.2425
 1831SOL    HW117129   2.212   0.109   7.809 -0.5381  2.1320 -2.2027
 1831SOL    HW217130   2.184   4.703   7.776  1.4759  0.6016  0.6508
 1832SOL     OW17131   3.448   2.108   2.320  0.1212  0.3267 -0.2639
 1832SOL    HW117132   3.523   2.062   2.283 -0.4155  1.6499 -3.0029
 1832SOL    HW217133   3.374   2.047   2.311  1.6234 -1.5256 -0.1083
 1833SOL     OW17134   2.542   2.484  16.726 -0.3731 -0.2097 -0.2380
 1833SOL    HW117135   2.482   2.434  16.671 -1.0937  1.7779 -1.2762
 1833SOL    HW217136   2.494   2.566  16.743 -0.2371  0.0938 -1.2799
 1834SOL     OW17137   3.035   4.560   6.559 -0.4104  0.1379  0.2326
 1834SOL    HW117138   3.021   4.625   6.629 -0.1984 -0.2270  0.6154
 1834SOL    HW217139   3.116   4.596   6.524 -0.9457  0.8562 -0.2848
 1835SOL     OW17140   2.997   2.017   4.657 -0.4319  0.1347  0.4724
 1835SOL    HW117141   2.969   1.966   4.732  1.7314  0.0177  1.1903
 1835SOL    HW217142   3.046   1.949   4.610  0.1592  2.0959 -1.7669
 1836SOL     OW17143   1.383   3.393   1.836 -0.4696  0.8384 -0.3760
 1836SOL    HW117144   1.364   3.485   1.855 -0.7533  0.6582  0.1986
 1836SOL    HW217145   1.470   3.397   1.795 -0.3081 -1.6755 -0.2399
 1837SOL     OW17146   0.972   3.174   5.413 -0.3949 -0.5172 -0.4393
 1837SOL    HW117147   1.012   3.249   5.370 -3.8368  1.1178 -0.7136
 1837SOL    HW217148   0.886   3.200   5.445  1.0293  1.4700  1.8187
 1838SOL     OW17149   3.686   2.967   6.009  0.1082 -0.2722  0.4243
 1838SOL    HW117150   3.769   3.007   6.037  0.0395 -1.9946  3.0615
 1838SOL    HW217151   3.715   2.951   5.919 -0.5251 -2.6320  0.6369
 1839SOL     OW17152   2.278   2.810   5.241 -0.1691 -0.4483  0.5464
 1839SOL    HW117153   2.279   2.724   5.198  0.5149 -1.6389  2.9973
 1839SOL    HW217154   2.188   2.844   5.238 -0.3384 -0.9069  0.3252
 1840SOL     OW17155   2.591   3.205  14.724  0.5826  0.0673  0.1397
 1840SOL    HW117156   2.589   3.200  14.819 -1.2087 -0.2149  0.0877
 1840SOL    HW217157   2.515   3.262  14.713 -1.4397 -2.3282  1.8401
 1841SOL     OW17158   0.249   0.934   5.143 -0.1627  0.2478  0.0073
 1841SOL    HW117159   0.225   0.865   5.206 -1.0348  0.7404  0.2088
 1841SOL    HW217160   0.241   1.015   5.194 -0.5910  0.6676 -0.7390
 1842SOL     OW17161   0.075   1.457   6.354  0.5459  0.1758 -0.0357
 1842SOL    HW117162   0.162   1.466   6.393  0.2058  1.0009  0.5176
 1842SOL    HW217163   0.103   1.428   6.267 -1.1672  1.2629 -0.9456
 1843SOL     OW17164   0.521   3.194   0.594 -0.0650  0.7205  0.1629
 1843SOL    HW117165   0.576   3.119   0.613  0.2396  0.3980 -1.9449
 1843SOL    HW217166   0.558   3.240   0.518  1.0198 -0.9813 -0.3399
 1844SOL     OW17167   0.925   2.057   9.769 -0.2658  0.1948  0.3046
 1844SOL    HW117168   0.855   1.992   9.760  1.1906 -1.4900  1.2677
 1844SOL    HW217169   0.920   2.084   9.861  2.2446 -2.0459  1.0960
 1845SOL     OW17170   0.760   3.947   3.544 -0.2495  0.0543 -0.0953
 1845SOL    HW117171   0.818   4.010   3.503 -0.7130  1.6749  1.7564
 1845SOL    HW217172   0.823   3.916   3.609  1.0556 -0.4187 -1.5936
 1846SOL     OW17173   0.001   0.077  10.599 -0.0885 -0.3521  0.1259
 1846SOL    HW117174   0.050   0.001  10.566  0.8794  0.0273  0.6781
 1846SOL    HW217175   4.692   0.044  10.677 -1.0586 -0.9637 -0.6739
 1847SOL     OW17176   0.245   0.275  13.531 -0.2759  0.0658  0.3576
 1847SOL    HW117177   0.182   0.303  13.597  1.1563 -0.3926  1.9091
 1847SOL    HW217178   0.229   0.181  13.526  0.2626  0.0596 -1.4167
 1848SOL     OW17179   1.650   1.316  14.590 -0.6185 -0.6390  0.5298
 1848SOL    HW117180   1.669   1.254  14.660  0.6498 -0.8531 -0.0110
 1848SOL    HW217181   1.560   1.294  14.567 -0.5166 -1.4245  0.9043
 1849SOL     OW17182   0.150   0.895  12.533  0.2804 -0.7008 -0.0554
 1849SOL    HW117183   0.200   0.906  12.613  1.2742  1.2514 -0.9230
 1849SOL    HW217184   0.071   0.861  12.573  1.0567 -2.4752 -0.0513
 1850SOL     OW17185   4.045   3.356   7.344  0.2402  0.3057  0.4372
 1850SOL    HW117186   4.053   3.451   7.348 -1.2812  0.3966  1.4678
 1850SOL    HW217187   4.137   3.330   7.349  0.6284  1.8749  1.4251
 1851SOL     OW17188   4.015   2.939   7.082  0.1471 -0.0620  0.1035
 1851SOL    HW117189   3.979   2.931   7.170  1.6684 -0.3040  0.6943
 1851SOL    HW217190   4.103   2.907   7.099  0.7452  1.1869 -0.6297
 1852SOL     OW17191   4.318   2.584  15.202 -0.1573 -0.6168 -0.0474
 1852SOL    HW117192   4.410   2.593  15.179  0.1697 -1.8127  0.8139
 1852SOL    HW217193   4.316   2.494  15.235  3.3116 -0.5481  0.3381
 1853SOL     OW17194   1.795   1.577   0.115  0.2625 -0.0499 -0.3117
 1853SOL    HW117195   1.822   1.561   0.206  0.6197 -3.3315 -0.9951
 1853SOL    HW217196   1.716   1.524   0.102 -0.2562  0.7468 -0.3775
 1854SOL     OW17197   0.474   0.286   6.063  0.7048  0.0275 -0.2330
 1854SOL    HW117198   0.516   0.364   6.099  0.1312 -0.0211  0.5265
 1854SOL    HW217199   0.540   0.217   6.072 -0.0566 -0.5890  0.6519
 1855SOL     OW17200   2.070   3.834   6.664 -0.5696 -0.4151  0.1591
 1855SOL    HW117201   2.121   3.888   6.603 -0.0498  0.4412  1.3589
 1855SOL    HW217202   2.039   3.913   6.708 -0.9023  0.2589 -1.2673
 1856SOL     OW17203   1.507   4.199  14.950  0.2352 -0.2436  0.2631
 1856SOL    HW117204   1.539   4.288  14.938  0.0699 -0.2078  0.0945
 1856SOL    HW217205   1.558   4.165  15.023 -1.8497 -2.6836  0.6084
 1857SOL     OW17206   4.067   2.513  11.732 -0.1710 -0.2549  0.1622
 1857SOL    HW117207   4.060   2.595  11.683 -0.1086 -1.7891 -2.4356
 1857SOL    HW217208   4.132   2.535  11.799  1.1201 -2.5259 -0.3637
 1858SOL     OW17209   1.898   2.707   5.292  0.2671 -0.1488  0.0818
 1858SOL    HW117210   1.874   2.731   5.382 -1.1072 -0.3065 -0.2408
 1858SOL    HW217211   1.939   2.790   5.269 -0.1130  0.1647  0.5394
 1859SOL     OW17212   2.284   1.871   8.665  0.5011  0.0672  0.9598
 1859SOL    HW117213   2.358   1.931   8.656  1.9022 -1.9562 -0.7566
 1859SOL    HW217214   2.328   1.800   8.619  0.7463 -0.2438  1.6917
 1860SOL     OW17215   4.637   1.686   5.907  0.2252  0.0329 -0.9063
 1860SOL    HW117216   4.604   1.740   5.978 -1.5521 -1.0241 -0.9314
 1860SOL    HW217217   4.556   1.653   5.869  0.7882 -3.9343  1.3442
 1861SOL     OW17218   3.484   3.275  17.487 -0.1240 -0.1764  0.3414
 1861SOL    HW117219   3.413   3.213  17.470 -0.1592  0.4086 -1.7285
 1861SOL    HW217220   3.510   3.257  17.577  1.2008 -2.2398 -0.4523
 1862SOL     OW17221   1.130   1.184  11.571 -0.0164  0.4594 -0.6630
 1862SOL    HW117222   1.213   1.185  11.523 -0.2290 -0.0858 -1.0405
 1862SOL    HW217223   1.112   1.278  11.573 -1.7690  0.0628  1.0346
 1863SOL     OW17224   1.244   1.473  10.197  0.1091  0.4663 -0.4040
 1863SOL    HW117225   1.263   1.464  10.290  0.7497  2.1382 -0.3682
 1863SOL    HW217226   1.298   1.409  10.149  0.0189 -0.4244  0.6734
 1864SOL     OW17227   3.454   2.870   7.173  0.3110 -0.0437  0.6824
 1864SOL    HW117228   3.432   2.806   7.241 -1.4221  0.8764  0.9925
 1864SOL    HW217229   3.541   2.899   7.198 -0.8734  2.6899  1.5346
 1865SOL     OW17230   4.356   2.867   2.076 -0.5218  0.3107 -0.4378
 1865SOL    HW117231   4.430   2.890   2.020  0.9160 -1.4571  0.7621
 1865SOL    HW217232   4.382   2.901   2.162 -0.7016 -0.3829 -0.1087
 1866SOL     OW17233   1.995   3.732   3.174  0.0531 -0.0496 -0.4300
 1866SOL    HW117234   2.051   3.683   3.114  1.5731 -0.7739  1.5632
 1866SOL    HW217235   2.048   3.811   3.186 -0.3813  0.0678  0.7167
 1867SOL     OW17236   2.309   2.672   1.557 -0.5448 -0.4057 -0.4194
 1867SOL    HW117237   2.282   2.633   1.474 -2.0290  0.0431 -0.1374
 1867SOL    HW217238   2.237   2.734   1.564  1.0796  1.5070 -0.5907
 1868SOL     OW17239   2.752   2.868   4.825 -0.3698  0.0472 -1.2722
 1868SOL    HW117240   2.741   2.867   4.920 -0.6593 -0.9960 -1.3111
 1868SOL    HW217241   2.701   2.792   4.796  0.0121 -1.0750  0.9729
 1869SOL     OW17242   3.972   3.495  17.486  0.7452  0.4272  0.0285
 1869SOL    HW117243   3.972   3.539  17.571  0.0883  1.3461 -0.4359
 1869SOL    HW217244   4.062   3.510  17.456  0.4141  1.1347 -0.6273
 1870SOL     OW17245   3.773   2.161   4.308  0.1815  0.2090  0.1694
 1870SOL    HW117246   3.786   2.090   4.371  0.5599 -0.0217 -0.1696
 1870SOL    HW217247   3.844   2.142   4.246  0.4551 -0.3350  0.6510
 1871SOL     OW17248   4.064   0.142   9.530 -0.3526 -0.0674 -0.2920
 1871SOL    HW117249   3.979   0.102   9.547 -0.7148  0.4170 -0.9465
 1871SOL    HW217250   4.133   0.080   9.554 -1.3241 -0.0773  2.4841
 1872SOL     OW17251   1.563   3.497   4.049  0.3328 -0.2788 -0.1016
 1872SOL    HW117252   1.566   3.576   3.994 -0.9891 -0.5670 -0.5993
 1872SOL    HW217253   1.604   3.540   4.124 -0.8729  0.8483 -0.0975
 1873SOL     OW17254   2.216   2.972   4.862 -0.0552  0.0852  0.1233
 1873SOL    HW117255   2.140   2.929   4.899  0.6638 -1.5905 -0.3662
 1873SOL    HW217256   2.200   2.935   4.775  0.1974 -0.5665  0.3595
 1874SOL     OW17257   0.565   4.570  17.249  0.1606  0.0382 -0.0368
 1874SOL    HW117258   0.514   4.646  17.277  2.1659  1.4431 -0.2026
 1874SOL    HW217259   0.500   4.505  17.224  0.0118  0.1225  0.1374
 1875SOL     OW17260   0.822   0.252   5.088 -0.2680 -0.1485  0.2375
 1875SOL    HW117261   0.858   0.325   5.138 -0.8612  0.3995 -0.1380
 1875SOL    HW217262   0.747   0.228   5.143  1.0008 -1.6289  1.3146
 1876SOL     OW17263   2.477   4.525   1.232 -0.0024 -0.4186  0.3657
 1876SOL    HW117264   2.520   4.574   1.301  2.2718 -2.4487  0.3679
 1876SOL    HW217265   2.541   4.462   1.198 -1.1049 -0.0017 -2.5397
 1877SOL     OW17266   3.819   2.992   3.730  0.0584 -0.5120  0.4435
 1877SOL    HW117267   3.828   2.899   3.752  0.6770 -1.0286 -1.9450
 1877SOL    HW217268   3.727   3.014   3.747 -0.2159 -1.9540  0.8409
 1878SOL     OW17269   4.545   3.646   2.118 -0.1851 -0.4426 -0.1667
 1878SOL    HW117270   4.454   3.617   2.128  0.6803 -3.3249 -0.6795
 1878SOL    HW217271   4.573   3.589   2.047 -0.8838  1.3796 -1.9295
 1879SOL     OW17272   0.069   4.154   2.704  0.8315  0.3087  0.4242
 1879SOL    HW117273   0.061   4.219   2.634 -0.7665 -4.0815 -3.4865
 1879SOL    HW217274   0.027   4.198   2.777  1.3871  1.5447  0.0014
 1880SOL     OW17275   2.299   0.896  17.606 -0.1713  0.6214  0.2106
 1880SOL    HW117276   2.287   0.986  17.575 -0.8251  0.2291 -0.6728
 1880SOL    HW217277   2.218   0.877  17.655  0.0360  1.0844  0.7368
 1881SOL     OW17278   1.812   4.693  10.166 -0.3448  0.2845  0.6139
 1881SOL    HW117279   1.903   4.665  10.178  0.4718  2.2514 -0.9122
 1881SOL    HW217280   1.757   4.665  10.239 -1.3555 -0.7514 -0.5567
 1882SOL     OW17281   1.449   2.697  16.918  0.7764 -0.1932 -0.5229
 1882SOL    HW117282   1.416   2.644  16.991  3.2535 -0.9553  0.0751
 1882SOL    HW217283   1.377   2.688  16.856  0.5817  1.4002 -0.5267
 1883SOL     OW17284   4.251   0.663   6.011 -0.0692 -0.2864 -0.5724
 1883SOL    HW117285   4.276   0.682   5.921  2.9092 -2.9782 -0.3152
 1883SOL    HW217286   4.226   0.752   6.036 -1.8578 -0.2561 -2.5235
 1884SOL     OW17287   0.222   4.490   9.271 -0.6485 -0.3245  0.2856
 1884SOL    HW117288   0.192   4.528   9.189 -1.3346 -2.1734 -0.3214
 1884SOL    HW217289   0.313   4.522   9.272 -0.1649 -1.7080  0.6289
 1885SOL     OW17290   2.986   4.661  10.023 -0.5864 -0.0683  0.3692
 1885SOL    HW117291   2.959   4.677   9.933 -0.1337  0.6198  0.3570
 1885SOL    HW217292   2.978   0.015  10.060 -1.7241 -0.0966  0.2002
 1886SOL     OW17293   4.034   0.883   6.760  0.1810  0.2771  0.0654
 1886SOL    HW117294   4.086   0.962   6.774 -0.2324  0.3148  1.3560
 1886SOL    HW217295   4.097   0.812   6.767  0.1767  0.2096 -0.5864
 1887SOL     OW17296   4.649   3.795   6.916  0.7880  0.4945  0.7126
 1887SOL    HW117297   4.582   3.733   6.945  1.0032 -0.3039 -0.4813
 1887SOL    HW217298   4.729   3.755   6.946  0.2214 -1.4344 -0.3615
 1888SOL     OW17299   0.023   0.660   3.148  0.5080  0.0335  0.4990
 1888SOL    HW117300   0.032   0.753   3.127 -1.9678  0.2804  0.6110
 1888SOL    HW217301   4.713   0.628   3.069  1.8708 -1.0691  0.1725
 1889SOL     OW17302   3.672   0.247   4.552 -0.4899 -0.6185 -0.2663
 1889SOL    HW117303   3.696   0.236   4.460  2.3389 -0.7326  0.5013
 1889SOL    HW217304   3.716   0.171   4.591  1.5671  1.1576  0.8764
 1890SOL     OW17305   4.003   2.608  14.901 -0.3530 -0.0238  0.0823
 1890SOL    HW117306   4.023   2.673  14.834  1.0406  0.0625  0.5795
 1890SOL    HW217307   3.909   2.607  14.886 -0.9304  2.2391  3.5800
 1891SOL     OW17308   2.155   2.868   3.374  0.0669 -0.0259  0.6561
 1891SOL    HW117309   2.204   2.817   3.310  0.1628  0.2999  0.4716
 1891SOL    HW217310   2.064   2.839   3.370  0.1817 -0.2229 -0.5564
 1892SOL     OW17311   3.672   1.172   6.173 -0.5778 -0.4248 -0.1223
 1892SOL    HW117312   3.697   1.264   6.179  0.0008 -0.7138  1.8735
 1892SOL    HW217313   3.685   1.148   6.081  2.2476  0.0778  0.1296
 1893SOL     OW17314   4.343   2.276   3.852 -0.7048 -0.2231  0.1213
 1893SOL    HW117315   4.408   2.217   3.890 -0.1910 -0.5043 -1.1857
 1893SOL    HW217316   4.389   2.342   3.799  1.7257 -1.0092  1.2231
 1894SOL     OW17317   3.984   4.557   6.444  0.1066 -0.2097  0.3825
 1894SOL    HW117318   3.942   4.471   6.435  0.7005 -0.3393 -1.2410
 1894SOL    HW217319   4.026   4.586   6.363  0.0726  1.2570  0.8914
 1895SOL     OW17320   0.319   2.153  10.282  0.6331  0.0804 -0.4566
 1895SOL    HW117321   0.310   2.199  10.366 -1.1613 -0.7918 -0.1720
 1895SOL    HW217322   0.348   2.069  10.319  2.6958  0.0681 -2.0872
 1896SOL     OW17323   0.923   2.699   2.695 -0.4893  0.4216 -0.2166
 1896SOL    HW117324   0.999   2.734   2.649 -1.0873  1.5353 -0.3768
 1896SOL    HW217325   0.932   2.604   2.695  1.2928  0.5908  0.6109
 1897SOL     OW17326   2.181   4.124   3.477  0.6104 -0.5024 -0.7242
 1897SOL    HW117327   2.252   4.103   3.537  0.6273 -0.6914 -0.8109
 1897SOL    HW217328   2.124   4.051   3.500 -0.0771  1.2569  3.1668
 1898SOL     OW17329   1.311   1.606   4.780 -0.6697 -0.4924 -0.2849
 1898SOL    HW117330   1.306   1.698   4.756  0.9892  0.0375  1.4340
 1898SOL    HW217331   1.331   1.605   4.874 -1.5779  2.7768 -0.0696
 1899SOL     OW17332   0.011   2.049  13.883 -0.0122  0.2187 -0.1584
 1899SOL    HW117333   0.044   2.132  13.850 -2.1585  0.8778 -0.6397
 1899SOL    HW217334   4.693   2.025  13.807  0.3535 -1.4365  0.1065
 1900SOL     OW17335   1.742   1.603  11.342  0.1402  0.3411 -0.2411
 1900SOL    HW117336   1.820   1.548  11.347 -0.0926 -0.0524 -0.9316
 1900SOL    HW217337   1.776   1.684  11.380  0.4380  0.3705 -0.5606
 1901SOL     OW17338   1.425   2.088   9.846 -0.5312 -0.4967 -0.3927
 1901SOL    HW117339   1.408   2.044   9.762 -0.8132 -0.2028 -0.4917
 1901SOL    HW217340   1.398   2.179   9.830 -3.0018 -1.2036 -0.2594
 1902SOL     OW17341   4.590   4.320   2.455 -0.0559 -0.1524 -0.0382
 1902SOL    HW117342   4.579   4.260   2.381 -1.9020 -0.4256  0.4621
 1902SOL    HW217343   4.685   4.308   2.466 -0.1352  1.7236  2.5831
 1903SOL     OW17344   1.884   2.914   4.534 -0.0512  0.0937  0.3456
 1903SOL    HW117345   1.868   2.941   4.443  0.5370 -2.0018 -0.3893
 1903SOL    HW217346   1.931   2.990   4.567 -0.5051  0.4579  0.1486
 1904SOL     OW17347   1.784   2.771   2.832  0.6975  0.5644  0.3614
 1904SOL    HW117348   1.760   2.765   2.739 -1.0206 -0.3599  0.8667
 1904SOL    HW217349   1.723   2.834   2.870 -0.0266  0.5744 -0.8254
 1905SOL     OW17350   0.230   0.693   1.617  0.1270 -0.5347  0.1758
 1905SOL    HW117351   0.186   0.611   1.598  0.1132 -0.0215 -1.9975
 1905SOL    HW217352   0.193   0.719   1.701 -1.2120  1.3538 -1.0042
 1906SOL     OW17353   1.659   1.554   5.111 -0.4269 -0.0884  0.7076
 1906SOL    HW117354   1.732   1.499   5.084 -0.0630  0.1377  1.2393
 1906SOL    HW217355   1.590   1.489   5.098  0.4328 -0.7839 -0.3974
 1907SOL     OW17356   0.666   2.378   7.691 -0.5415  0.2949  0.0922
 1907SOL    HW117357   0.698   2.458   7.733 -0.0325  0.3066 -0.3197
 1907SOL    HW217358   0.575   2.401   7.674 -1.3410 -1.5760  1.8711
 1908SOL     OW17359   2.573   1.734   7.663 -0.4690  0.2164  0.2154
 1908SOL    HW117360   2.612   1.795   7.600 -0.5466 -0.4223 -0.4532
 1908SOL    HW217361   2.658   1.710   7.701  0.0349  0.7816 -0.5377
 1909SOL     OW17362   2.617   1.025   7.926  0.1251  0.5005  0.0217
 1909SOL    HW117363   2.582   1.061   7.844 -1.0836 -1.4877 -0.3190
 1909SOL    HW217364   2.680   0.963   7.890 -1.0838  0.0131 -1.2169
 1910SOL     OW17365   2.318   0.230   1.199 -0.0108 -0.3469 -0.1596
 1910SOL    HW117366   2.222   0.231   1.197 -0.0037 -0.8984 -1.0869
 1910SOL    HW217367   2.345   0.175   1.125  1.1226 -0.9251  0.6918
 1911SOL     OW17368   3.580   3.708  15.824 -0.3534  0.1807  0.2138
 1911SOL    HW117369   3.638   3.783  15.809 -0.5605  0.6202  1.6306
 1911SOL    HW217370   3.591   3.706  15.919  1.8927 -0.8895 -0.0762
 1912SOL     OW17371   3.838   0.624   7.042  0.1237  0.6000  0.1824
 1912SOL    HW117372   3.866   0.564   6.972 -1.2625 -2.4329  2.2073
 1912SOL    HW217373   3.825   0.707   6.997 -0.8932  0.0782 -0.4878
 1913SOL     OW17374   3.045   4.568  15.206 -0.0239  0.1358 -0.2428
 1913SOL    HW117375   2.995   4.649  15.205 -1.2793 -0.6344  0.1762
 1913SOL    HW217376   3.128   4.589  15.163  0.2536 -0.4116  0.0197
 1914SOL     OW17377   2.455   3.066   4.957  0.2407  0.9660 -0.0858
 1914SOL    HW117378   2.487   2.982   4.989 -0.8779  0.8332  0.6846
 1914SOL    HW217379   2.380   3.038   4.905 -0.1344  1.8834 -0.0420
 1915SOL     OW17380   3.573   3.725  17.696 -0.4112 -0.1313 -0.1581
 1915SOL    HW117381   3.532   3.749  17.613 -2.0298 -2.6936 -0.1281
 1915SOL    HW217382   3.571   3.630  17.684 -0.1998  0.1221 -2.0949
 1916SOL     OW17383   3.654   1.310   7.209 -0.2667 -0.1746 -0.1411
 1916SOL    HW117384   3.699   1.258   7.142 -1.1817 -1.2521  0.0830
 1916SOL    HW217385   3.565   1.286   7.184 -0.4316 -0.6223  0.8891
 1917SOL     OW17386   0.190   1.382   2.839 -0.2977  0.3803  0.4436
 1917SOL    HW117387   0.264   1.387   2.779 -1.3185  1.3303 -0.7470
 1917SOL    HW217388   0.124   1.431   2.790 -2.0602 -1.2817  1.1116
 1918SOL     OW17389   3.072   2.214   7.931  0.1215  0.4103 -0.0581
 1918SOL    HW117390   3.136   2.274   7.970 -1.1068  1.1434  0.8194
 1918SOL    HW217391   3.055   2.154   8.003 -0.0888  1.1862  0.5382
 1919SOL     OW17392   4.476   4.081  15.552  0.1381 -0.4764 -0.2707
 1919SOL    HW117393   4.558   4.128  15.566  0.8469 -2.1314  1.1607
 1919SOL    HW217394   4.488   3.996  15.594  1.7475  0.1110  0.4587
 1920SOL     OW17395   4.280   1.250  12.236 -0.3831 -0.5026  0.4478
 1920SOL    HW117396   4.356   1.211  12.280 -0.5217 -0.7933  0.4334
 1920SOL    HW217397   4.239   1.180  12.184 -0.4014  0.4088 -0.7587
 1921SOL     OW17398   3.802   3.321   7.704  0.0784 -0.4174 -0.6428
 1921SOL    HW117399   3.847   3.274   7.634  2.9807 -1.3491  1.8859
 1921SOL    HW217400   3.712   3.291   7.687  0.3259 -1.7891  0.5311
 1922SOL     OW17401   3.193   3.938   2.080 -0.6393 -0.6234  0.1327
 1922SOL    HW117402   3.171   3.986   2.000  0.5504 -0.2403  0.0340
 1922SOL    HW217403   3.148   3.856   2.061 -1.1676 -0.3875  0.3703
 1923SOL     OW17404   1.794   3.371   9.531 -0.0570  0.4291  0.3591
 1923SOL    HW117405   1.867   3.338   9.583  0.4293  2.1478  0.7705
 1923SOL    HW217406   1.719   3.328   9.571  1.5873 -2.2398  0.6168
 1924SOL     OW17407   4.128   2.871   1.506 -0.6313 -0.4396  0.0490
 1924SOL    HW117408   4.046   2.915   1.486 -0.2245  1.2570  2.1247
 1924SOL    HW217409   4.190   2.943   1.516 -2.0355  0.7888 -0.1596
 1925SOL     OW17410   0.871   3.274   8.770  0.3109  0.5676 -0.3132
 1925SOL    HW117411   0.814   3.309   8.701 -1.8931  0.5372  1.4833
 1925SOL    HW217412   0.943   3.337   8.781  0.7127 -0.1339  1.0857
 1926SOL     OW17413   4.070   2.701  15.154  0.1546  0.4291  0.0012
 1926SOL    HW117414   4.164   2.683  15.159 -0.3863 -2.6582 -0.7337
 1926SOL    HW217415   4.046   2.657  15.073  0.2614  1.4251 -0.5650
 1927SOL     OW17416   3.612   2.641  12.477 -0.0506  0.2550 -0.1427
 1927SOL    HW117417   3.679   2.709  12.464  1.3070 -0.6697  2.1234
 1927SOL    HW217418   3.650   2.557  12.502  2.5610  0.6097 -2.8491
 1928SOL     OW17419   4.373   3.243   0.876 -0.1285 -0.1171 -0.0262
 1928SOL    HW117420   4.367   3.220   0.783 -0.7815  1.3731 -0.3461
 1928SOL    HW217421   4.302   3.306   0.887  0.3083  0.0907  1.5137
 1929SOL     OW17422   3.594   0.635  15.369  0.0800 -0.2045  0.1247
 1929SOL    HW117423   3.605   0.724  15.337 -0.0840 -0.1286  0.2798
 1929SOL    HW217424   3.648   0.637  15.448 -0.2502 -1.6743  0.3907
 1930SOL     OW17425   1.140   0.462   2.476 -0.0321  0.0874 -0.3977
 1930SOL    HW117426   1.203   0.527   2.508 -1.7796  1.0896  1.0632
 1930SOL    HW217427   1.108   0.421   2.557  0.5929  3.9389  1.8063
 1931SOL     OW17428   3.622   3.662   8.180  0.1728 -0.1215 -0.4948
 1931SOL    HW117429   3.590   3.586   8.228 -0.3029  0.1537 -0.3750
 1931SOL    HW217430   3.673   3.616   8.113  1.1773 -1.0237  0.8978
 1932SOL     OW17431   2.778   4.366   1.780 -0.3801  0.2888 -0.7535
 1932SOL    HW117432   2.782   4.273   1.760 -0.7070  0.5997 -2.2549
 1932SOL    HW217433   2.712   4.382   1.713  1.2314  0.1186 -2.3597
 1933SOL     OW17434   4.276   1.764  12.661  0.2815  0.1897  0.0979
 1933SOL    HW117435   4.296   1.742  12.752  0.4352  0.2253  0.0725
 1933SOL    HW217436   4.342   1.710  12.617 -0.2447  0.5463 -1.1418
 1934SOL     OW17437   3.381   4.107   5.220  0.1202  0.0467 -0.5674
 1934SOL    HW117438   3.416   4.196   5.220  0.2470 -0.0023 -0.0377
 1934SOL    HW217439   3.413   4.080   5.134  1.5365 -1.8366  0.5660
 1935SOL     OW17440   0.251   0.839   8.975  0.6950 -0.5063  0.4026
 1935SOL    HW117441   0.213   0.870   9.057 -1.1065 -1.2115 -0.1582
 1935SOL    HW217442   0.240   0.913   8.915 -0.7455  0.5980  1.9975
 1936SOL     OW17443   1.817   4.488   0.492  0.4476  0.0539 -0.4855
 1936SOL    HW117444   1.859   4.523   0.570 -1.3622 -2.7726  1.7609
 1936SOL    HW217445   1.891   4.475   0.433  0.6060 -0.3623 -0.1978
 1937SOL     OW17446   0.965   0.844   7.795 -0.1123 -0.3869 -0.4320
 1937SOL    HW117447   0.894   0.872   7.853  1.1138 -2.8449  2.2382
 1937SOL    HW217448   1.038   0.900   7.822  1.2634 -1.2837 -2.2825
 1938SOL     OW17449   4.051   1.896   9.242 -0.0568 -0.0638  0.0388
 1938SOL    HW117450   4.028   1.983   9.277  1.9621  0.3707  0.2818
 1938SOL    HW217451   4.126   1.924   9.189 -1.4566 -0.4258 -2.1382
 1939SOL     OW17452   1.871   3.871   7.702 -0.5302  0.0411 -0.0563
 1939SOL    HW117453   1.848   3.779   7.692  1.0208 -0.1930 -1.5110
 1939SOL    HW217454   1.838   3.889   7.790 -0.4238  1.3754 -0.2895
 1940SOL     OW17455   3.086   0.969  13.642  0.2559 -0.4360 -0.7317
 1940SOL    HW117456   3.065   0.918  13.720  2.0876 -1.1170 -0.6753
 1940SOL    HW217457   3.072   1.059  13.669  2.8689  0.3118 -1.8402
 1941SOL     OW17458   4.543   0.676  17.729  0.5465  0.0496  0.2903
 1941SOL    HW117459   4.591   0.632  17.659  2.0441  0.5268  1.0186
 1941SOL    HW217460   4.497   0.737  17.672  0.2944  0.4599  0.9293
 1942SOL     OW17461   4.562   2.928   6.787 -0.4087 -0.2427 -0.7550
 1942SOL    HW117462   4.532   2.840   6.765 -0.8679  0.0474 -1.2978
 1942SOL    HW217463   4.613   2.962   6.714  0.3401  0.2282 -0.0096
 1943SOL     OW17464   3.645   1.458  16.581  0.0456 -0.1058 -0.2825
 1943SOL    HW117465   3.730   1.502  16.576 -0.1432  0.0896 -1.8101
 1943SOL    HW217466   3.602   1.511  16.648  0.4724 -1.4208  1.0373
 1944SOL     OW17467   3.407   4.466   7.096 -0.1631  0.3476 -0.1031
 1944SOL    HW117468   3.388   4.529   7.164 -2.6094 -1.8157  1.2261
 1944SOL    HW217469   3.420   4.388   7.150  0.9179 -0.7172 -1.8844
 1945SOL     OW17470   0.990   2.642  11.565 -0.0746  0.0824  0.0577
 1945SOL    HW117471   0.943   2.617  11.486  0.6925 -0.5159 -0.2098
 1945SOL    HW217472   1.030   2.557  11.586  0.4723  0.7147  1.5969
 1946SOL     OW17473   0.988   3.987  16.371  0.1862 -0.0590 -0.1091
 1946SOL    HW117474   1.046   3.934  16.427  0.2093  0.8926  0.7697
 1946SOL    HW217475   0.976   3.930  16.295 -2.2291 -2.3923  2.0117
 1947SOL     OW17476   2.314   2.669  13.428  0.4054 -0.3121  0.1039
 1947SOL    HW117477   2.308   2.616  13.349 -1.8458  1.8706 -1.1766
 1947SOL    HW217478   2.227   2.686  13.462  1.1572  0.3654  1.7061
 1948SOL     OW17479   2.909   0.807  15.563  0.0448 -0.2445  0.1962
 1948SOL    HW117480   2.972   0.864  15.519 -1.2145  1.0429  0.0467
 1948SOL    HW217481   2.895   0.859  15.643  1.3227 -1.1399  1.0056
 1949SOL     OW17482   2.474   1.524   6.663 -0.1638  0.0208  0.1015
 1949SOL    HW117483   2.393   1.482   6.634 -0.5039  1.1886 -0.6073
 1949SOL    HW217484   2.458   1.605   6.616  0.4613 -0.0930 -0.3131
 1950SOL     OW17485   2.258   0.222  13.779 -0.9178  0.3207 -0.5372
 1950SOL    HW117486   2.228   0.155  13.718 -1.0223 -0.4909  0.4203
 1950SOL    HW217487   2.326   0.271  13.732  0.1518  0.3206  1.0338
 1951SOL     OW17488   3.572   3.753   1.137 -0.6219  0.4446 -0.9921
 1951SOL    HW117489   3.569   3.773   1.043 -2.4645 -0.0222 -1.0450
 1951SOL    HW217490   3.542   3.836   1.175 -0.0920 -0.8900  2.2799
 1952SOL     OW17491   2.697   2.474   5.042 -0.3650 -0.1520 -0.0048
 1952SOL    HW117492   2.715   2.396   4.989  0.0422 -1.3109  1.8449
 1952SOL    HW217493   2.772   2.489   5.099 -0.4915  0.1366  0.0875
 1953SOL     OW17494   0.172   4.218   0.110 -0.2814  0.3825 -0.4702
 1953SOL    HW117495   0.138   4.302   0.080  1.2374  1.2059  0.0896
 1953SOL    HW217496   0.098   4.190   0.164 -0.2135 -0.5073 -0.8386
 1954SOL     OW17497   0.222   0.863   8.401  0.3965  0.2102  0.5853
 1954SOL    HW117498   0.301   0.812   8.415 -1.2597 -1.9632  1.9055
 1954SOL    HW217499   0.192   0.874   8.492  0.9276 -1.9899  1.0080
 1955SOL     OW17500   0.676   2.654   6.660  0.0720  0.0210  0.4285
 1955SOL    HW117501   0.744   2.632   6.724 -1.1995 -1.3003  1.3286
 1955SOL    HW217502   0.729   2.697   6.592 -0.8907  0.2163 -0.1954
 1956SOL     OW17503   4.418   1.002   0.691 -0.4574 -0.3441  0.2278
 1956SOL    HW117504   4.378   1.045   0.766 -1.7556 -1.9240  0.4640
 1956SOL    HW217505   4.341   0.973   0.640  0.9636 -0.6751 -1.7343
 1957SOL     OW17506   4.126   2.399   5.479  0.1929  0.1317 -0.0114
 1957SOL    HW117507   4.198   2.411   5.541 -0.2303  0.2065  0.4651
 1957SOL    HW217508   4.097   2.310   5.498 -0.4032  0.0934 -1.0907
 1958SOL     OW17509   2.433   3.437  11.839  0.1390  0.1364 -0.7132
 1958SOL    HW117510   2.339   3.419  11.838 -0.0798  1.2094  0.3053
 1958SOL    HW217511   2.455   3.365  11.898 -1.1337  1.2098  1.0795
 1959SOL     OW17512   4.292   2.875   5.681  0.6314  0.4998 -0.7661
 1959SOL    HW117513   4.370   2.914   5.720  0.0148  0.2043  0.7639
 1959SOL    HW217514   4.328   2.836   5.602  0.1916  1.3233 -1.3743
 1960SOL     OW17515   0.591   1.497   9.354  0.1277 -0.4369  0.0435
 1960SOL    HW117516   0.664   1.531   9.407 -1.1432  2.3722 -0.0234
 1960SOL    HW217517   0.642   1.520   9.276 -2.4273 -1.3622 -1.8557
 1961SOL     OW17518   4.401   3.063   4.002 -0.0603  0.3450  0.3073
 1961SOL    HW117519   4.495   3.042   3.998 -0.2159 -0.0646 -1.6070
 1961SOL    HW217520   4.392   3.104   3.916 -0.1197 -1.0503 -0.3678
 1962SOL     OW17521   1.723   0.215   2.462  1.0501 -0.4916  0.0759
 1962SOL    HW117522   1.671   0.286   2.425  2.6982  0.4248 -0.5017
 1962SOL    HW217523   1.664   0.140   2.463  1.4720 -0.8171  0.9086
 1963SOL     OW17524   0.635   4.280   7.859  0.5472  0.3021  1.3201
 1963SOL    HW117525   0.615   4.251   7.948  2.8926 -3.0369  0.7803
 1963SOL    HW217526   0.641   4.192   7.822  0.5831  0.0096  2.0234
 1964SOL     OW17527   4.371   2.906   8.145  0.0939 -0.4315  0.0462
 1964SOL    HW117528   4.303   2.847   8.176 -1.0809  0.8654 -0.0282
 1964SOL    HW217529   4.315   2.978   8.117  2.7309  1.4809 -0.3282
 1965SOL     OW17530   1.716   3.933   6.011  0.0332  0.7853  0.0777
 1965SOL    HW117531   1.742   4.017   6.048  2.2931  0.2160 -0.2152
 1965SOL    HW217532   1.799   3.918   5.966 -0.3019 -0.9887  0.0634
 1966SOL     OW17533   1.670   3.620   3.646 -0.3396 -0.1277 -0.9341
 1966SOL    HW117534   1.738   3.570   3.600 -1.5579 -0.2381 -2.5962
 1966SOL    HW217535   1.609   3.641   3.576 -1.0698 -0.7325 -0.4773
 1967SOL     OW17536   1.315   1.376   9.722  0.6096  0.3713 -0.3504
 1967SOL    HW117537   1.315   1.357   9.628  3.0800  0.8836 -0.4664
 1967SOL    HW217538   1.368   1.455   9.713 -0.4891  1.1711  0.2542
 1968SOL     OW17539   2.034   2.798   9.189 -0.4872  0.2155  0.2900
 1968SOL    HW117540   1.940   2.814   9.175 -0.0494  3.0680  0.4674
 1968SOL    HW217541   2.075   2.836   9.111 -0.0917  0.2391  0.5119
 1969SOL     OW17542   2.849   0.739   0.026  0.5516  0.1058  0.1532
 1969SOL    HW117543   2.936   0.717   0.060 -0.0268  1.2761  2.3812
 1969SOL    HW217544   2.823   0.664  17.709  1.7177  0.3443 -0.7600
 1970SOL     OW17545   3.881   3.614   7.988 -0.2121 -0.4404 -0.0218
 1970SOL    HW117546   3.921   3.528   7.984 -0.2345 -0.5051  1.1582
 1970SOL    HW217547   3.953   3.672   8.014 -1.7019  1.0032  0.8718
 1971SOL     OW17548   3.684   2.742   4.345 -0.4687 -0.2262 -0.4988
 1971SOL    HW117549   3.640   2.738   4.260 -0.6411 -0.0266 -0.4189
 1971SOL    HW217550   3.636   2.676   4.394  0.2722 -1.3314 -1.2448
 1972SOL     OW17551   0.953   0.024   2.349 -0.1863  0.1487 -0.2070
 1972SOL    HW117552   0.969   4.716   2.434  1.6850  1.3167  0.0324
 1972SOL    HW217553   1.003   0.105   2.359  1.7783 -1.0876 -0.0631
 1973SOL     OW17554   2.797   3.523   8.254  0.2780  0.1675 -0.0641
 1973SOL    HW117555   2.855   3.598   8.265 -0.4132  0.4671  1.5283
 1973SOL    HW217556   2.720   3.559   8.297 -0.0460  0.7010 -1.0735
 1974SOL     OW17557   1.531   1.250   4.831 -1.1719 -0.2200 -0.0342
 1974SOL    HW117558   1.568   1.171   4.870  1.5048 -0.1454 -2.4251
 1974SOL    HW217559   1.604   1.271   4.772 -0.2974  1.2833  1.5979
 1975SOL     OW17560   3.102   3.888  14.820  0.0899 -0.1403 -0.4093
 1975SOL    HW117561   3.103   3.984  14.830 -1.6074 -0.2487  0.7851
 1975SOL    HW217562   3.029   3.871  14.761 -1.0564  1.1633  0.6205
 1976SOL     OW17563   3.043   1.070   2.180  0.6180  0.1790 -0.4538
 1976SOL    HW117564   3.015   1.069   2.089 -0.1395 -1.0775 -0.2191
 1976SOL    HW217565   3.125   1.021   2.171  1.2920  1.5468 -1.7573
 1977SOL     OW17566   4.546   4.522   4.251  0.5314 -0.1016 -0.2535
 1977SOL    HW117567   4.607   4.503   4.180  0.2880 -0.1612 -0.4452
 1977SOL    HW217568   4.487   4.451   4.226  1.4200 -1.6880  2.2637
 1978SOL     OW17569   3.972   2.604   2.003 -0.3413  0.4176 -0.0012
 1978SOL    HW117570   3.980   2.521   1.954  2.4534 -0.9645  2.8157
 1978SOL    HW217571   4.032   2.604   2.077 -1.4747 -0.2028  0.9308
 1979SOL     OW17572   3.326   3.907  14.986 -0.4290  0.3996  0.9640
 1979SOL    HW117573   3.350   3.821  14.950 -1.9681 -0.0886  1.1000
 1979SOL    HW217574   3.250   3.921  14.930  0.9695 -0.7120 -1.2361
 1980SOL     OW17575   0.121   0.808   4.257 -0.2502  0.6418 -0.9775
 1980SOL    HW117576   0.198   0.811   4.199  0.4783  1.5455  0.0452
 1980SOL    HW217577   0.082   0.724   4.232 -1.2164  1.0113 -0.7027
 1981SOL     OW17578   1.977   1.624   1.828 -0.0940 -0.1560 -0.5886
 1981SOL    HW117579   1.886   1.651   1.825  0.0271  0.4120  1.2851
 1981SOL    HW217580   2.012   1.685   1.893  0.1237 -0.3288 -0.5422
 1982SOL     OW17581   4.499   1.698  12.254 -0.7172  0.6855 -0.2276
 1982SOL    HW117582   4.452   1.763  12.306  0.0245  0.2139  1.0080
 1982SOL    HW217583   4.441   1.621  12.255 -1.2332  1.0825  0.1375
 1983SOL     OW17584   4.389   4.273  16.847 -0.3858  0.1790 -0.0481
 1983SOL    HW117585   4.473   4.309  16.817 -0.0229  0.1792  0.9832
 1983SOL    HW217586   4.322   4.311  16.789 -2.3511 -2.7794  0.2940
 1984SOL     OW17587   0.643   1.689   6.298  0.2458 -0.0772 -0.3866
 1984SOL    HW117588   0.583   1.738   6.355 -0.2039  0.4600 -1.3238
 1984SOL    HW217589   0.678   1.767   6.256  2.2478 -1.6446 -1.6100
 1985SOL     OW17590   2.071   0.299   6.850 -0.0836  0.0944 -0.2090
 1985SOL    HW117591   2.096   0.207   6.847 -1.1399 -0.1343 -1.5058
 1985SOL    HW217592   2.124   0.327   6.925 -0.6651 -1.1051  0.6495
 1986SOL     OW17593   2.925   2.883  12.215 -0.3699  0.3771 -0.3117
 1986SOL    HW117594   2.940   2.976  12.198  1.0482  0.7241  2.8812
 1986SOL    HW217595   2.957   2.871  12.305  1.0140 -0.9429 -0.9901
 1987SOL     OW17596   1.005   2.185   4.793 -0.7267  0.0844  0.6363
 1987SOL    HW117597   0.918   2.167   4.828 -0.1229 -1.3710  1.3653
 1987SOL    HW217598   1.007   2.112   4.732 -0.3524  0.3153  0.3684
 1988SOL     OW17599   4.298   2.590   4.670 -0.0510  0.4504 -0.3489
 1988SOL    HW117600   4.232   2.637   4.619  1.5344  1.4167 -1.5153
 1988SOL    HW217601   4.263   2.503   4.649 -0.0671 -0.3094  2.8722
 1989SOL     OW17602   0.356   3.412   0.824 -0.0424 -0.3910  0.2214
 1989SOL    HW117603   0.287   3.474   0.849 -1.9683 -2.6667  0.5397
 1989SOL    HW217604   0.421   3.427   0.892 -1.0267 -0.7537  1.2455
 1990SOL     OW17605   4.275   0.512   8.333 -0.4962 -0.6217  0.3743
 1990SOL    HW117606   4.223   0.465   8.267  0.1735  2.5380 -2.4108
 1990SOL    HW217607   4.249   0.602   8.311 -1.1634 -1.1433 -0.9792
 1991SOL     OW17608   1.280   0.164   5.438  0.6367 -0.1320  0.6578
 1991SOL    HW117609   1.334   0.156   5.360 -0.1883 -0.8513  0.1566
 1991SOL    HW217610   1.341   0.210   5.496  0.7422  0.7276 -0.1401
 1992SOL     OW17611   2.789   2.905  17.687  0.3331 -0.0280 -0.6457
 1992SOL    HW117612   2.753   2.986  17.723 -1.9959 -1.3030 -0.1064
 1992SOL    HW217613   2.878   2.938  17.678  1.3144 -2.7951 -1.2375
 1993SOL     OW17614   4.267   3.810   2.240  0.0583 -1.0549 -0.2714
 1993SOL    HW117615   4.358   3.834   2.221 -0.3576  2.2615  2.0791
 1993SOL    HW217616   4.230   3.895   2.264 -0.0273 -0.6186 -1.9522
 1994SOL     OW17617   2.249   2.309   5.754 -0.0672 -0.2365  0.7560
 1994SOL    HW117618   2.336   2.348   5.753 -1.3883  2.6893 -2.3830
 1994SOL    HW217619   2.198   2.384   5.725  0.8230  0.1743  0.2786
 1995SOL     OW17620   1.994   1.301   5.692  0.0023  0.2947  0.5909
 1995SOL    HW117621   2.009   1.258   5.776 -0.4694 -1.7142 -0.3488
 1995SOL    HW217622   1.900   1.285   5.683  0.4579 -2.0642  0.0098
 1996SOL     OW17623   1.036   1.154   1.855  0.2150  0.2865  0.8043
 1996SOL    HW117624   0.979   1.190   1.787  1.4819  0.3550 -0.2285
 1996SOL    HW217625   0.987   1.072   1.864  0.1388  0.4978  2.2231
 1997SOL     OW17626   4.385   2.014   1.638  0.3628 -0.2179 -0.5070
 1997SOL    HW117627   4.296   1.982   1.651 -0.0985  1.1424 -0.2996
 1997SOL    HW217628   4.365   2.105   1.661  0.1426 -0.1742 -0.8721
 1998SOL     OW17629   1.893   2.952   3.903  0.1909 -0.3899 -0.2037
 1998SOL    HW117630   1.976   2.950   3.951  0.7162  3.6679 -0.9693
 1998SOL    HW217631   1.911   2.943   3.810 -1.1796 -0.8400 -0.4281
 1999SOL     OW17632   3.300   3.659   1.241  0.1305 -0.2213  0.5010
 1999SOL    HW117633   3.350   3.625   1.315 -0.9864 -0.6147  1.0667
 1999SOL    HW217634   3.366   3.709   1.192 -0.4662 -1.4112 -1.4879
 2000SOL     OW17635   0.731   2.504   4.465  0.6773  0.4021  0.5088
 2000SOL    HW117636   0.755   2.547   4.383  0.8599 -2.9718 -1.2120
 2000SOL    HW217637   0.741   2.575   4.529  0.6541 -0.8236  1.8557
 2001SOL     OW17638   1.886   3.835   6.394  0.1327 -0.2722 -0.0719
 2001SOL    HW117639   1.870   3.758   6.340 -3.0382  0.2082  0.1888
 2001SOL    HW217640   1.964   3.808   6.444  0.3589 -0.2026 -0.3865
 2002SOL     OW17641   4.525   2.323   0.780 -0.2132  0.1808  0.2084
 2002SOL    HW117642   4.597   2.294   0.725  1.6388 -1.8967  3.7435
 2002SOL    HW217643   4.475   2.371   0.714 -0.2950 -0.0021  0.1361
 2003SOL     OW17644   2.944   0.707  17.327 -0.2537 -0.2527  0.0843
 2003SOL    HW117645   3.034   0.712  17.297 -0.2433  0.7115  0.2718
 2003SOL    HW217646   2.924   0.614  17.327  3.1519 -0.9836 -0.5148
 2004SOL     OW17647   1.813   3.354   3.532  0.3625  0.0614  0.1044
 2004SOL    HW117648   1.801   3.411   3.455 -0.2010  0.9507  0.8463
 2004SOL    HW217649   1.867   3.288   3.489 -2.1404 -0.6489 -1.9742
 2005SOL     OW17650   0.592   2.347  17.433  0.1601  0.2232  0.2367
 2005SOL    HW117651   0.534   2.406  17.481 -0.7818  0.0877 -0.7115
 2005SOL    HW217652   0.637   2.309  17.507  0.9266  2.5517  0.9771
 2006SOL     OW17653   4.403   0.718  12.599 -0.5734  0.1330  0.1863
 2006SOL    HW117654   4.401   0.739  12.506  3.2894  0.8872  0.2731
 2006SOL    HW217655   4.472   0.769  12.641 -1.5388  0.7238  1.0447
 2007SOL     OW17656   0.100   1.560   6.057 -0.0854 -0.4830 -0.3666
 2007SOL    HW117657   0.022   1.505   6.065 -0.8248  0.4719 -0.9072
 2007SOL    HW217658   0.061   1.625   5.998 -0.0676 -0.5219 -0.4207
 2008SOL     OW17659   3.627   3.038   7.457 -0.2874  0.2128 -0.3775
 2008SOL    HW117660   3.636   3.133   7.463 -1.4685  0.1680  2.1004
 2008SOL    HW217661   3.588   3.011   7.540 -0.4024  1.5154 -0.0075
 2009SOL     OW17662   0.512   3.537   1.251 -0.5176  0.1416  0.1802
 2009SOL    HW117663   0.480   3.586   1.175  0.9935 -0.0165 -0.5649
 2009SOL    HW217664   0.570   3.605   1.285  0.0654 -0.3373  0.1501
 2010SOL     OW17665   2.487   1.874   1.096  0.4079 -0.4683 -0.5640
 2010SOL    HW117666   2.464   1.874   1.003 -0.7433  0.6728 -0.2867
 2010SOL    HW217667   2.511   1.966   1.112  0.8470 -1.1566  2.7091
 2011SOL     OW17668   3.866   2.448   3.456 -0.2025 -0.3043  0.2745
 2011SOL    HW117669   3.895   2.413   3.540 -0.2497  1.4729  1.0441
 2011SOL    HW217670   3.879   2.365   3.410 -1.4686  0.8386 -2.1626
 2012SOL     OW17671   1.224   3.249   9.326  0.2415  0.4934  0.5459
 2012SOL    HW117672   1.225   3.343   9.306 -0.8137  0.7772  1.8374
 2012SOL    HW217673   1.175   3.228   9.406  3.2321 -1.9214  1.7465
 2013SOL     OW17674   3.558   3.868   3.706  0.2548 -0.0276  0.1211
 2013SOL    HW117675   3.583   3.885   3.797  0.2005 -1.3850  0.3815
 2013SOL    HW217676   3.469   3.902   3.692  0.0346 -0.8998 -0.5696
 2014SOL     OW17677   2.717   1.804   8.714  0.0466 -0.0059 -0.9621
 2014SOL    HW117678   2.674   1.759   8.642 -1.0377 -0.1806 -0.2011
 2014SOL    HW217679   2.761   1.734   8.763 -0.2114  1.9504  2.0517
 2015SOL     OW17680   0.474   2.377   7.128 -0.1012 -0.3939 -0.4572
 2015SOL    HW117681   0.532   2.306   7.157  0.3927  0.7653  1.3612
 2015SOL    HW217682   0.394   2.327   7.111 -1.3769  0.9398  1.6280
 2016SOL     OW17683   4.620   1.280   0.096  0.2390 -0.5037 -0.2563
 2016SOL    HW117684   4.544   1.319   0.053  1.9590  0.6539 -2.2428
 2016SOL    HW217685   4.601   1.316   0.183 -0.3990 -0.0389 -0.5918
 2017SOL     OW17686   0.698   2.225   2.383  0.1946 -0.2953 -0.0454
 2017SOL    HW117687   0.717   2.215   2.477 -0.6466 -2.3459 -0.0775
 2017SOL    HW217688   0.665   2.315   2.381  2.5091  0.5293 -0.6991
 2018SOL     OW17689   0.635   3.145   8.246  0.2750  0.1485  0.9616
 2018SOL    HW117690   0.701   3.165   8.312  0.3796  0.5229  0.7480
 2018SOL    HW217691   0.558   3.146   8.303 -0.4208 -0.6115  0.0415
 2019SOL     OW17692   3.039   2.303   3.428 -0.0273  0.5331  0.4883
 2019SOL    HW117693   2.970   2.367   3.409 -1.3587 -0.8339  0.7543
 2019SOL    HW217694   3.037   2.267   3.339 -0.5992 -0.5099  0.9241
 2020SOL     OW17695   2.520   3.837   2.584  0.5684  0.2241  0.1579
 2020SOL    HW117696   2.488   3.915   2.629 -2.0285 -0.7991  0.0783
 2020SOL    HW217697   2.475   3.771   2.637  0.4851  1.3205  1.4491
 2021SOL     OW17698   4.212   2.897   9.057 -0.2985 -0.4064 -0.0114
 2021SOL    HW117699   4.161   2.933   8.984 -2.6908 -2.0525  0.8395
 2021SOL    HW217700   4.215   2.803   9.037 -4.2468 -0.5329 -0.0220
 2022SOL     OW17701   3.919   2.812  14.756 -0.4483 -0.0601 -0.2450
 2022SOL    HW117702   3.860   2.886  14.769 -2.6650 -2.2063  1.7124
 2022SOL    HW217703   3.956   2.836  14.671  0.1119  0.7006  0.2154
 2023SOL     OW17704   2.520   2.149  12.061 -0.1832 -0.2960 -0.1797
 2023SOL    HW117705   2.508   2.155  12.155  0.2855  1.2657 -0.2164
 2023SOL    HW217706   2.614   2.132  12.066  0.0808  1.5288  0.8115
 2024SOL     OW17707   4.282   1.870   7.237  0.2990  0.0660  0.2997
 2024SOL    HW117708   4.274   1.784   7.277  0.6070  0.4068  1.0933
 2024SOL    HW217709   4.206   1.880   7.179  0.7697  0.4980 -0.2555
 2025SOL     OW17710   0.591   4.453  16.685 -0.4820 -0.1934 -0.0191
 2025SOL    HW117711   0.548   4.491  16.608 -2.7502  2.0129  2.3174
 2025SOL    HW217712   0.653   4.521  16.712 -0.1816 -0.9884  1.2949
 2026SOL     OW17713   2.485   3.984   5.265  0.4150 -0.6436  0.0919
 2026SOL    HW117714   2.529   3.945   5.189  0.7021  2.9576 -1.5707
 2026SOL    HW217715   2.557   3.978   5.327  1.6225 -0.7346 -1.3123
 2027SOL     OW17716   1.177   2.265   3.280  0.2834  0.3991  0.5434
 2027SOL    HW117717   1.180   2.190   3.339 -2.6009 -1.1142 -1.2646
 2027SOL    HW217718   1.084   2.270   3.258  0.4973 -2.1690 -0.9558
 2028SOL     OW17719   2.431   0.758  12.780 -0.1329 -0.8286  0.1081
 2028SOL    HW117720   2.501   0.792  12.836  1.8291 -1.2218 -2.1038
 2028SOL    HW217721   2.427   0.829  12.716  1.6113 -1.2053 -0.4274
 2029SOL     OW17722   3.803   1.927   3.600  0.0194  0.1143 -0.0804
 2029SOL    HW117723   3.783   1.973   3.518  0.5529 -0.6158 -0.6210
 2029SOL    HW217724   3.788   1.996   3.665  0.3693  2.9427 -2.9794
 2030SOL     OW17725   2.669   4.378  12.091  0.2509  0.1116  0.2226
 2030SOL    HW117726   2.614   4.456  12.089  0.4495  0.1845 -2.2288
 2030SOL    HW217727   2.716   4.378  12.174 -1.5301  3.3776  1.2097
 2031SOL     OW17728   3.695   0.806   2.931  0.2809  0.3456 -0.3774
 2031SOL    HW117729   3.783   0.777   2.910 -0.5399 -3.0294  0.8460
 2031SOL    HW217730   3.710   0.898   2.908 -0.1067  0.0913 -1.6502
 2032SOL     OW17731   3.545   1.528   7.303  1.0272  0.2630  0.4341
 2032SOL    HW117732   3.591   1.451   7.267 -0.6334 -0.8535  0.7243
 2032SOL    HW217733   3.603   1.551   7.375  0.5631  1.7392  0.3385
 2033SOL     OW17734   3.831   1.726   9.171  0.2379 -0.0185  0.2007
 2033SOL    HW117735   3.921   1.756   9.180  1.1759 -2.3365 -1.2322
 2033SOL    HW217736   3.833   1.690   9.082 -2.6521 -0.5844  0.3755
 2034SOL     OW17737   3.044   2.079   6.928  0.1433 -0.1816  0.1715
 2034SOL    HW117738   3.113   2.135   6.893 -1.4772  1.5563 -0.2885
 2034SOL    HW217739   3.082   1.993   6.946  0.6767 -0.1046 -0.5542
 2035SOL     OW17740   3.387   2.326   6.595 -0.1985  0.0618  0.0174
 2035SOL    HW117741   3.478   2.354   6.583  0.0520 -0.9076 -0.3387
 2035SOL    HW217742   3.371   2.281   6.513  0.6094 -3.1980  1.6703
 2036SOL     OW17743   0.722   2.384   3.201 -0.4552  0.3108 -0.3922
 2036SOL    HW117744   0.758   2.411   3.286 -0.4350 -0.6306 -0.1116
 2036SOL    HW217745   0.762   2.297   3.196 -1.4401 -0.1370 -0.4044
 2037SOL     OW17746   3.372   2.859   5.055  0.7970  0.1177  0.0167
 2037SOL    HW117747   3.383   2.859   5.150  0.4192  1.2853  0.0585
 2037SOL    HW217748   3.339   2.772   5.033 -1.4039  0.3967  2.2403
 2038SOL     OW17749   1.300   0.753   4.949 -0.0669  0.0002  0.5249
 2038SOL    HW117750   1.385   0.763   4.991 -0.3819  0.7162  0.9962
 2038SOL    HW217751   1.285   0.659   4.953 -0.9793  0.1425  0.4811
 2039SOL     OW17752   3.353   3.767   7.534 -0.1261 -0.1136 -0.1727
 2039SOL    HW117753   3.342   3.727   7.448 -1.7974  4.7233 -2.2159
 2039SOL    HW217754   3.445   3.747   7.549 -0.2389  1.1570  2.1938
 2040SOL     OW17755   2.425   3.729   2.331 -0.9295  0.0382  0.1196
 2040SOL    HW117756   2.379   3.681   2.399 -0.8742 -0.4645 -0.1957
 2040SOL    HW217757   2.428   3.816   2.371 -1.5984  0.6693 -1.2019
 2041SOL     OW17758   3.893   0.245  14.514 -0.5974  0.2609 -0.4266
 2041SOL    HW117759   3.882   0.329  14.558  0.0549 -0.5139  1.2140
 2041SOL    HW217760   3.932   0.273  14.431 -2.5227  0.2330 -1.3359
 2042SOL     OW17761   3.798   1.833   1.825 -0.0650  0.2765  0.5063
 2042SOL    HW117762   3.789   1.919   1.784 -1.1391  0.9759  2.1985
 2042SOL    HW217763   3.765   1.781   1.751 -2.6081  0.8346  1.2333
 2043SOL     OW17764   0.484   2.914   8.916 -0.6806  0.3003 -1.0882
 2043SOL    HW117765   0.536   2.868   8.850  0.1906  0.7125 -0.6874
 2043SOL    HW217766   0.408   2.944   8.866 -0.9705  2.6963  0.8011
 2044SOL     OW17767   4.074   3.127  10.388  1.0515 -0.5942 -0.0529
 2044SOL    HW117768   4.052   3.099  10.299 -0.4091 -1.0134  0.4443
 2044SOL    HW217769   4.046   3.219  10.391  2.6072 -0.1076 -0.4764
 2045SOL     OW17770   2.477   0.864   0.966  0.5716 -0.4431  0.8699
 2045SOL    HW117771   2.468   0.836   1.057 -0.5321 -0.4334  0.7617
 2045SOL    HW217772   2.398   0.918   0.960  1.3500  0.5176 -0.6486
 2046SOL     OW17773   3.507   3.298   7.436 -0.9065  0.3607 -0.2773
 2046SOL    HW117774   3.467   3.244   7.368 -1.4233  0.4479 -0.0429
 2046SOL    HW217775   3.559   3.358   7.383  0.2434  0.8224  1.3648
 2047SOL     OW17776   3.588   2.120   7.703  0.2056  0.4283 -0.2379
 2047SOL    HW117777   3.563   2.208   7.674  1.5926 -0.1417 -3.1561
 2047SOL    HW217778   3.513   2.092   7.756 -0.6921 -0.1458 -1.8251
 2048SOL     OW17779   1.554   3.765   2.748 -0.3704 -0.2089 -0.3129
 2048SOL    HW117780   1.508   3.715   2.815  1.3877 -2.0185 -0.4718
 2048SOL    HW217781   1.484   3.825   2.722  0.2388 -0.7907 -3.2632
 2049SOL     OW17782   0.067   4.292   7.654  0.0644  0.2674  0.3424
 2049SOL    HW117783   0.154   4.270   7.621 -0.0133  0.7413 -0.1893
 2049SOL    HW217784   0.042   4.366   7.598 -1.5898  0.1548  0.9206
 2050SOL     OW17785   4.536   0.713   6.745  0.3090 -0.1029 -0.0575
 2050SOL    HW117786   4.614   0.658   6.749  0.9417  0.8508  0.8610
 2050SOL    HW217787   4.577   0.796   6.770  1.5706 -0.5166 -0.7900
 2051SOL     OW17788   2.834   4.004   9.301 -0.2205  0.1864 -0.2182
 2051SOL    HW117789   2.800   3.937   9.359 -0.1804 -1.6886 -2.3385
 2051SOL    HW217790   2.832   4.081   9.358  1.7222  1.3277 -1.6723
 2052SOL     OW17791   4.033   2.763  10.131  0.5934 -0.0467 -0.0568
 2052SOL    HW117792   4.026   2.858  10.139 -0.1000 -0.1153  0.1174
 2052SOL    HW217793   3.993   2.742  10.046 -0.3559  0.7957  0.1813
 2053SOL     OW17794   2.565   1.463   2.430 -0.3843  0.5625  0.8114
 2053SOL    HW117795   2.528   1.546   2.459  0.5581  0.8271  1.2599
 2053SOL    HW217796   2.654   1.463   2.465  0.8027  0.5306 -2.1356
 2054SOL     OW17797   4.014   1.051   2.088 -0.1363  0.1892  0.1513
 2054SOL    HW117798   4.011   1.134   2.039  0.0912 -0.5307 -1.0786
 2054SOL    HW217799   3.988   0.992   2.018  0.3636  0.1506  0.0016
 2055SOL     OW17800   0.296   2.539   8.890  0.4097  0.1916  0.0714
 2055SOL    HW117801   0.238   2.562   8.817  1.6403 -0.5268 -1.1343
 2055SOL    HW217802   0.266   2.580   8.971  0.0954  0.9406 -0.4174
 2056SOL     OW17803   1.997   3.389   5.683 -0.3619 -0.1538 -0.1808
 2056SOL    HW117804   2.031   3.299   5.681  1.2655  0.5170 -2.5535
 2056SOL    HW217805   2.042   3.416   5.763  0.7555  0.6111 -1.0694
 2057SOL     OW17806   0.288   0.239   7.686  0.1972  0.5836  0.1715
 2057SOL    HW117807   0.194   0.255   7.689 -0.1456 -0.6162 -3.9285
 2057SOL    HW217808   0.305   0.232   7.592 -0.6642 -0.8959  0.1182
 2058SOL     OW17809   3.601   4.659   4.509  0.1694 -0.0275  0.2338
 2058SOL    HW117810   3.539   4.710   4.459 -0.7370  0.4335  1.8227
 2058SOL    HW217811   3.573   4.573   4.477 -2.7820  0.5710  1.2608
 2059SOL     OW17812   1.807   1.007  15.201 -0.1996  0.0332  0.0404
 2059SOL    HW117813   1.841   1.033  15.287  0.0127 -3.4599  1.0414
 2059SOL    HW217814   1.869   1.055  15.147  0.7950 -1.0647  0.2138
 2060SOL     OW17815   2.759   0.109   5.865  0.2865 -0.0577 -0.1767
 2060SOL    HW117816   2.780   0.068   5.949 -1.1636  0.0473  0.2504
 2060SOL    HW217817   2.809   0.057   5.802  1.6633  0.7357  0.2827
 2061SOL     OW17818   2.597   1.692   1.946 -0.0608  0.1827  0.1524
 2061SOL    HW117819   2.571   1.783   1.932  0.6662  0.1617 -1.3418
 2061SOL    HW217820   2.511   1.650   1.949  0.3027 -0.6612 -1.3032
 2062SOL     OW17821   1.689   0.047   7.971 -0.2592 -0.1108  0.7960
 2062SOL    HW117822   1.775   0.086   7.955  0.4593 -2.0167 -0.0168
 2062SOL    HW217823   1.706   4.708   8.030  2.4037 -0.5967 -0.5778
 2063SOL     OW17824   0.611   0.715   4.572  0.2779  0.2936 -0.4449
 2063SOL    HW117825   0.594   0.706   4.665 -0.4569  3.4214 -0.2637
 2063SOL    HW217826   0.692   0.666   4.561  0.2643 -0.2574  1.8835
 2064SOL     OW17827   3.689   2.084   1.702 -0.5305 -0.0914 -0.1747
 2064SOL    HW117828   3.634   2.086   1.623  1.0833 -1.5244 -1.3344
 2064SOL    HW217829   3.722   2.174   1.692  0.8805 -0.7604 -1.4872
 2065SOL     OW17830   0.670   4.589  14.819  0.1415 -0.1207  0.2110
 2065SOL    HW117831   0.631   4.539  14.891  2.7329 -2.1849  0.1723
 2065SOL    HW217832   0.712   4.522  14.766  3.5228 -0.0732  2.8427
 2066SOL     OW17833   2.593   3.826   8.801  0.6718 -0.1092  0.3227
 2066SOL    HW117834   2.609   3.900   8.743 -3.2780  1.3493  1.0808
 2066SOL    HW217835   2.644   3.857   8.876 -1.2275 -0.1398  1.6282
 2067SOL     OW17836   0.846   0.405   5.957  0.0844  0.2942 -0.2265
 2067SOL    HW117837   0.860   0.482   5.903 -0.8249  0.6223  0.0127
 2067SOL    HW217838   0.791   0.432   6.031 -1.8073  0.9552 -1.8866
 2068SOL     OW17839   1.758   3.108   7.929 -0.1508  0.0165 -0.1004
 2068SOL    HW117840   1.816   3.179   7.901  1.0071  0.0989  2.5059
 2068SOL    HW217841   1.759   3.047   7.856  0.3784 -0.9741  0.7331
 2069SOL     OW17842   1.340   4.587  13.941  0.1206  0.2828  0.3893
 2069SOL    HW117843   1.390   4.669  13.947 -2.0982  1.6558  0.3316
 2069SOL    HW217844   1.347   4.547  13.855 -2.0480  0.3426  0.1799
 2070SOL     OW17845   2.961   4.676   0.001 -0.0287  0.3983  0.0931
 2070SOL    HW117846   2.961   4.611   0.072  0.1710  1.0384  0.6730
 2070SOL    HW217847   2.958   0.023   0.051 -1.6440 -0.3284  1.2077
 2071SOL     OW17848   1.659   3.157   6.375 -0.2162  0.2350 -0.6816
 2071SOL    HW117849   1.745   3.192   6.398 -0.9456  1.3260  0.4283
 2071SOL    HW217850   1.684   3.084   6.318 -1.3974 -0.0528 -0.8255
 2072SOL     OW17851   4.445   4.407   2.667 -0.1865 -0.4198  0.1385
 2072SOL    HW117852   4.511   4.463   2.708  0.7159 -2.1638  1.0655
 2072SOL    HW217853   4.487   4.384   2.584  1.2187 -1.5376  1.1659
 2073SOL     OW17854   0.162   2.074   9.620 -0.1399 -0.5924 -0.1179
 2073SOL    HW117855   0.123   2.003   9.672 -0.6736 -0.7504 -0.7248
 2073SOL    HW217856   0.250   2.089   9.653 -0.8104  0.9354  0.9866
 2074SOL     OW17857   2.090   2.933  15.395 -0.1381 -0.3617 -0.3082
 2074SOL    HW117858   2.086   2.841  15.421 -0.2617 -0.5022 -0.8236
 2074SOL    HW217859   1.999   2.957  15.413  0.4287 -0.0042  2.1335
 2075SOL     OW17860   2.567   4.327  12.917 -0.1311 -0.2724  0.0661
 2075SOL    HW117861   2.517   4.304  12.995 -2.6972  0.9689 -1.2192
 2075SOL    HW217862   2.648   4.277  12.925 -0.4505 -0.4574  2.1383
 2076SOL     OW17863   2.982   2.940   2.704  0.2349  0.0381  0.1623
 2076SOL    HW117864   3.041   2.866   2.693 -0.1218 -0.5887  2.5380
 2076SOL    HW217865   2.961   2.931   2.797 -4.7218  0.9729 -0.8740
 2077SOL     OW17866   4.712   0.088  17.044 -0.3559  0.2087 -0.0748
 2077SOL    HW117867   0.057   0.066  17.093 -1.0020 -0.8780  0.4495
 2077SOL    HW217868   4.711   0.184  17.053  0.9656  0.3926 -1.7431
 2078SOL     OW17869   2.905   0.171   0.136  0.2501 -0.1095 -0.4567
 2078SOL    HW117870   2.905   0.266   0.141 -0.0644 -0.2082  1.7218
 2078SOL    HW217871   2.812   0.156   0.118  0.4367 -0.4567 -1.1348
 2079SOL     OW17872   2.123   0.796   4.356 -0.0600 -0.1866 -0.2047
 2079SOL    HW117873   2.192   0.802   4.290  0.8691  0.4241  0.7974
 2079SOL    HW217874   2.058   0.855   4.318 -0.5761 -0.9366 -0.4851
 2080SOL     OW17875   2.757   0.957   7.248 -0.2504  0.1865  0.3895
 2080SOL    HW117876   2.664   0.947   7.226 -0.8377 -0.5321  3.1102
 2080SOL    HW217877   2.796   0.988   7.167  0.4033  2.3117  1.5030
 2081SOL     OW17878   4.052   4.176  10.642  0.3914  0.1885  0.0166
 2081SOL    HW117879   4.035   4.226  10.722 -0.2678 -0.6476  0.4000
 2081SOL    HW217880   4.029   4.242  10.577  4.8297 -0.4119 -2.2012
 2082SOL     OW17881   2.097   2.292   5.994  0.0685 -0.7047 -0.2725
 2082SOL    HW117882   2.006   2.319   6.005  1.3667  3.5722  0.1590
 2082SOL    HW217883   2.118   2.315   5.903 -1.8684  0.2515 -0.4676
 2083SOL     OW17884   4.703   3.095   4.721 -0.0855 -0.2558 -0.4709
 2083SOL    HW117885   0.030   3.024   4.702  0.5725  0.3944 -0.8195
 2083SOL    HW217886   4.630   3.047   4.759 -1.2067  1.0051 -1.0145
 2084SOL     OW17887   3.074   0.930   4.740 -0.6003  0.2528  0.4966
 2084SOL    HW117888   3.153   0.932   4.793 -1.6236 -1.7698  2.0876
 2084SOL    HW217889   3.023   0.871   4.794 -2.2858  1.3387  0.1141
 2085SOL     OW17890   3.884   4.610   7.379 -0.0656  0.2297  0.0696
 2085SOL    HW117891   3.949   4.619   7.309 -1.4790  0.3773 -1.2315
 2085SOL    HW217892   3.900   4.693   7.423  0.8434 -0.7243  1.5526
 2086SOL     OW17893   3.840   1.866  14.033 -0.3486 -0.1260 -0.2690
 2086SOL    HW117894   3.922   1.818  14.025 -0.0621  0.2312  0.5638
 2086SOL    HW217895   3.785   1.797  14.070  1.1232 -0.5786  1.0465
 2087SOL     OW17896   0.896   0.342   1.041 -0.0922 -0.6047 -0.2843
 2087SOL    HW117897   0.842   0.290   0.982 -0.7068 -0.3903  0.0990
 2087SOL    HW217898   0.981   0.309   1.012  0.1150 -1.4558  1.3115
 2088SOL     OW17899   0.356   1.762   8.067 -0.3780 -0.2285  1.0932
 2088SOL    HW117900   0.401   1.744   8.149 -0.7121 -0.6540  1.1871
 2088SOL    HW217901   0.277   1.808   8.098  0.0994  1.1949  0.1951
 2089SOL     OW17902   3.334   0.915   8.881 -0.1202  0.1891  0.2499
 2089SOL    HW117903   3.301   0.835   8.924 -0.0646 -0.6662 -1.2835
 2089SOL    HW217904   3.337   0.986   8.945 -0.9648  0.0747  0.4119
 2090SOL     OW17905   4.494   2.564   3.301  0.0109 -0.2772  0.1193
 2090SOL    HW117906   4.581   2.549   3.339  1.3886  0.6213 -2.6412
 2090SOL    HW217907   4.443   2.514   3.364 -0.2161  0.5868  0.6228
 2091SOL     OW17908   1.209   0.100   7.835  0.1277 -0.3411 -0.0421
 2091SOL    HW117909   1.168   0.165   7.892  1.4875  1.4082 -1.0625
 2091SOL    HW217910   1.141   0.090   7.768 -0.5250  0.7323  0.4586
 2092SOL     OW17911   1.556   1.127   4.150  0.3540 -0.5508 -0.5042
 2092SOL    HW117912   1.526   1.138   4.240  1.3995 -1.2754 -0.0685
 2092SOL    HW217913   1.474   1.085   4.123  0.1293 -0.2777 -0.2516
 2093SOL     OW17914   3.446   0.271   7.643 -0.6376  0.3836 -0.3118
 2093SOL    HW117915   3.475   0.201   7.585  0.0946 -1.2669  2.0219
 2093SOL    HW217916   3.533   0.307   7.659 -1.2938  2.5305 -1.5625
 2094SOL     OW17917   2.415   0.845   1.710  0.3860 -0.1816 -0.1041
 2094SOL    HW117918   2.351   0.825   1.641  0.8577  0.8576 -0.8470
 2094SOL    HW217919   2.363   0.895   1.773  1.6451  0.1521  0.6782
 2095SOL     OW17920   0.869   0.531   3.986  0.4934  0.2222 -0.2426
 2095SOL    HW117921   0.961   0.514   3.966  0.0290  0.6709 -2.8504
 2095SOL    HW217922   0.875   0.595   4.057  1.3188  2.9932 -2.8260
 2096SOL     OW17923   3.245   2.356   6.054  0.3957  0.1634 -0.4885
 2096SOL    HW117924   3.324   2.372   6.106  1.4013  1.0241 -2.2830
 2096SOL    HW217925   3.285   2.367   5.967  0.3587  0.9361 -0.4126
 2097SOL     OW17926   2.845   2.097   8.294  0.7921  0.4888  0.3221
 2097SOL    HW117927   2.770   2.155   8.308  1.8385  1.3734  2.1593
 2097SOL    HW217928   2.902   2.130   8.363  0.9750 -0.0897  0.4485
 2098SOL     OW17929   3.566   2.140   1.947  0.0779 -0.3033  0.1445
 2098SOL    HW117930   3.514   2.063   1.968  0.4381 -0.6689 -0.3224
 2098SOL    HW217931   3.609   2.119   1.865  0.4011  0.8065  0.0247
 2099SOL     OW17932   3.845   0.461   6.824  0.6963 -0.3027  0.1994
 2099SOL    HW117933   3.809   0.491   6.741  1.8962 -1.7276 -0.8160
 2099SOL    HW217934   3.896   0.385   6.797  0.0473  0.0700 -2.0389
 2100SOL     OW17935   3.336   2.567   7.989 -0.8156 -0.0946  0.1271
 2100SOL    HW117936   3.392   2.584   8.064 -0.0424 -1.7362 -0.0758
 2100SOL    HW217937   3.257   2.600   8.032 -0.7800  2.0766 -1.4755
 2101SOL     OW17938   3.033   1.267   4.959 -0.8783 -0.3793 -0.4460
 2101SOL    HW117939   3.123   1.270   4.927 -0.5141 -1.7492  0.4589
 2101SOL    HW217940   3.043   1.209   5.035  0.2039 -0.2290 -0.4775
 2102SOL     OW17941   0.943   3.096  15.609  0.3701 -0.2121  0.3359
 2102SOL    HW117942   0.994   3.146  15.545  0.1989  0.1283  0.4633
 2102SOL    HW217943   1.004   3.029  15.637 -0.2645 -1.4315 -1.1703
 2103SOL     OW17944   0.363   2.144  14.453 -0.5399 -0.0527 -0.0913
 2103SOL    HW117945   0.438   2.183  14.407 -0.7700  0.5172  0.0216
 2103SOL    HW217946   0.387   2.149  14.545 -0.4939 -1.3644 -0.0297
 2104SOL     OW17947   4.110   3.855   7.161  0.3668 -0.1383 -0.2764
 2104SOL    HW117948   4.157   3.904   7.094  0.1494  0.5140  0.0478
 2104SOL    HW217949   4.073   3.925   7.215 -0.6475  1.0199 -2.5231
 2105SOL     OW17950   0.831   0.789   1.310  0.2445  0.0697 -0.6695
 2105SOL    HW117951   0.811   0.720   1.373 -0.6553  2.2062  1.3656
 2105SOL    HW217952   0.850   0.736   1.232  1.1089 -2.0419  0.9822
 2106SOL     OW17953   4.170   4.553   3.974 -0.3488  0.2865  0.0093
 2106SOL    HW117954   4.225   4.519   3.903 -2.0103 -1.2907 -0.5452
 2106SOL    HW217955   4.218   4.632   4.000 -0.2371  0.8413 -1.8815
 2107SOL     OW17956   4.238   1.473  17.525  0.7395  0.1091  0.4270
 2107SOL    HW117957   4.267   1.446  17.438  1.5777  2.5334 -0.0455
 2107SOL    HW217958   4.158   1.422  17.541 -0.0134  0.8268 -1.0029
 2108SOL     OW17959   1.349   3.350  17.015 -0.1536  0.4798 -0.1089
 2108SOL    HW117960   1.397   3.430  17.040 -1.7595  1.3339  0.1938
 2108SOL    HW217961   1.367   3.299  17.094  2.7792 -2.2389 -2.5177
 2109SOL     OW17962   1.732   4.186   4.318 -0.9878 -0.1668 -0.1394
 2109SOL    HW117963   1.788   4.218   4.247 -0.3837 -1.0184 -0.0423
 2109SOL    HW217964   1.717   4.094   4.296 -2.8640  0.2408 -0.5111
 2110SOL     OW17965   4.171   2.975   8.423 -0.0570 -0.6118  0.1926
 2110SOL    HW117966   4.236   2.994   8.491  0.6650  0.6116 -0.8419
 2110SOL    HW217967   4.097   2.972   8.483  0.3246 -0.7219  0.6616
 2111SOL     OW17968   3.581   0.403  14.656 -0.1612  0.2847  0.2443
 2111SOL    HW117969   3.579   0.318  14.699  0.3906 -0.5200 -1.3332
 2111SOL    HW217970   3.549   0.452  14.732  1.0711  2.5076 -0.6641
 2112SOL     OW17971   4.720   3.624   3.993  0.2333 -0.5030 -0.0925
 2112SOL    HW117972   4.726   3.615   4.088 -0.1428  1.8360  0.1398
 2112SOL    HW217973   0.074   3.660   3.985  0.5342 -1.2666 -0.2478
 2113SOL     OW17974   1.926   1.177   4.482 -0.0050  0.1663 -0.3975
 2113SOL    HW117975   1.986   1.246   4.452 -0.4282 -0.3178 -2.3770
 2113SOL    HW217976   1.936   1.116   4.408  2.4847 -1.2592  1.1359
 2114SOL     OW17977   3.820   4.693  11.979 -0.1773  0.1274 -0.2503
 2114SOL    HW117978   3.844   0.042  12.020  1.3004 -0.5131  0.1778
 2114SOL    HW217979   3.785   4.646  12.055 -1.1271 -0.3431 -0.9864
 2115SOL     OW17980   1.517   2.559   4.921  0.1497  0.0526  0.1270
 2115SOL    HW117981   1.588   2.496   4.913 -0.6894 -0.4848 -2.8327
 2115SOL    HW217982   1.558   2.612   4.990  2.5908 -0.2578 -1.0676
 2116SOL     OW17983   1.599   0.997   3.134  0.5195  0.8652 -0.5366
 2116SOL    HW117984   1.543   0.958   3.066  1.1233 -0.2047 -0.4191
 2116SOL    HW217985   1.687   0.998   3.097  0.7799 -1.8432  0.0099
 2117SOL     OW17986   4.214   1.623   7.365  0.3780  0.2003  0.4452
 2117SOL    HW117987   4.212   1.547   7.424  0.7529 -2.0307 -2.4009
 2117SOL    HW217988   4.155   1.583   7.301 -0.1236 -1.1526  1.7443
 2118SOL     OW17989   4.144   0.783   7.575  0.1227  0.1218  0.6626
 2118SOL    HW117990   4.072   0.822   7.526  1.4279 -0.0966 -1.4312
 2118SOL    HW217991   4.141   0.854   7.639 -0.4407  1.1882 -0.5513
 2119SOL     OW17992   2.643   0.924   4.694 -0.2175 -0.0106 -0.0132
 2119SOL    HW117993   2.725   0.926   4.743  0.6682 -0.3895 -1.4909
 2119SOL    HW217994   2.655   0.847   4.638  0.7848 -0.4331  0.7681
 2120SOL     OW17995   3.133   0.609   8.740 -0.0832  0.4083  0.2451
 2120SOL    HW117996   3.183   0.680   8.700  0.0246  0.6500  0.7965
 2120SOL    HW217997   3.124   0.646   8.828  0.1603  1.5880 -0.2315
 2121SOL     OW17998   0.699   0.345   3.435 -0.1125  0.2241  0.4183
 2121SOL    HW117999   0.652   0.342   3.352 -0.6568 -0.8002  0.7688
 2121SOL    HW218000   0.789   0.352   3.403  0.1801 -2.6938  0.6052
 2122SOL     OW18001   0.249   2.474   2.745  0.1816 -0.1233  0.1344
 2122SOL    HW118002   0.185   2.490   2.814  0.5216 -1.8115  0.8235
 2122SOL    HW218003   0.328   2.447   2.792 -0.0878  1.2193  1.3485
 2123SOL     OW18004   4.718   3.337   6.512 -0.5655 -0.3690  0.5033
 2123SOL    HW118005   0.017   3.423   6.486 -2.3217  0.8166  2.2004
 2123SOL    HW218006   0.057   3.279   6.491  0.8269  1.2437  0.8381
 2124SOL     OW18007   1.946   4.246   3.407  0.1153 -0.1001 -0.6677
 2124SOL    HW118008   2.032   4.208   3.426 -0.2637 -1.2470 -1.2509
 2124SOL    HW218009   1.888   4.170   3.399  0.5443 -0.6185  0.9918
 2125SOL     OW18010   3.569   3.909   5.017  0.3089  0.1922 -0.1076
 2125SOL    HW118011   3.639   3.945   5.070  1.3924  0.5708 -1.8099
 2125SOL    HW218012   3.571   3.971   4.945 -0.4257 -0.3175 -0.5698
 2126SOL     OW18013   2.013   2.107   9.228 -0.0708  0.9095 -0.0610
 2126SOL    HW118014   2.019   2.060   9.311 -0.2990  1.1291  0.0819
 2126SOL    HW218015   1.929   2.069   9.203  1.5816 -1.9974 -1.1404
 2127SOL     OW18016   1.516   0.566   8.077  0.0890  0.2361 -0.5542
 2127SOL    HW118017   1.478   0.516   8.005  0.9920 -1.0379 -0.1502
 2127SOL    HW218018   1.544   0.499   8.139 -1.6055 -0.9875 -1.0971
 2128SOL     OW18019   1.668   1.434   2.909  0.6330 -0.0509  0.6300
 2128SOL    HW118020   1.692   1.471   2.824 -1.9045  3.1065  1.2534
 2128SOL    HW218021   1.745   1.381   2.926  0.1930 -0.0571  2.6175
 2129SOL     OW18022   0.150   1.480  13.333 -0.6393  0.1625 -0.0589
 2129SOL    HW118023   0.176   1.478  13.241  2.2921 -0.0923  0.7671
 2129SOL    HW218024   0.141   1.386  13.353  0.4897  0.0706  0.0086
 2130SOL     OW18025   3.744   1.678   6.229  0.9425  0.3584  0.1454
 2130SOL    HW118026   3.685   1.723   6.168  0.3354  0.0093  0.4745
 2130SOL    HW218027   3.747   1.735   6.306  0.7625 -2.0480  1.9002
 2131SOL     OW18028   3.260   0.160  14.481  0.3800  0.1125  0.4800
 2131SOL    HW118029   3.229   0.232  14.426 -0.5466 -0.7267 -0.0938
 2131SOL    HW218030   3.319   0.209  14.538  0.2021  0.6283  0.2223
 2132SOL     OW18031   1.091   3.328  13.427 -0.3792  0.1486 -0.5620
 2132SOL    HW118032   1.102   3.405  13.372  0.5959 -0.7411 -1.6000
 2132SOL    HW218033   1.175   3.327  13.473 -0.2798 -0.5056 -0.7476
 2133SOL     OW18034   4.713   4.210  11.279 -0.3742  0.0774  0.2722
 2133SOL    HW118035   0.033   4.249  11.348 -1.1242 -2.0960  2.0922
 2133SOL    HW218036   0.001   4.118  11.294 -1.0044  0.0167  0.7999
 2134SOL     OW18037   2.824   2.297  11.001 -0.3513  0.8610  0.3000
 2134SOL    HW118038   2.894   2.323  11.061 -0.7118  0.4707  0.8901
 2134SOL    HW218039   2.789   2.214  11.033  0.9236 -0.1682 -0.9608
 2135SOL     OW18040   0.082   2.411   3.788  0.7247  0.2691  0.1421
 2135SOL    HW118041   0.051   2.477   3.726 -0.1904  2.0144  2.4606
 2135SOL    HW218042   0.055   2.446   3.872  0.2697  1.6889 -0.5974
 2136SOL     OW18043   0.453   3.257   7.406 -0.1308 -0.2165  0.1977
 2136SOL    HW118044   0.439   3.173   7.363 -2.5435 -0.4316  1.4296
 2136SOL    HW218045   0.488   3.221   7.487 -0.4188  1.7915  1.2254
 2137SOL     OW18046   1.220   1.852   4.705 -0.2554  0.8770  0.3840
 2137SOL    HW118047   1.131   1.889   4.707 -0.9113 -0.6307 -1.9010
 2137SOL    HW218048   1.252   1.865   4.616 -1.2924  2.0064  0.1694
 2138SOL     OW18049   3.680   4.192   3.072 -0.3041  0.5086 -0.4110
 2138SOL    HW118050   3.774   4.200   3.088 -0.2107  1.3914 -1.4035
 2138SOL    HW218051   3.665   4.112   3.121  3.1475  0.7283  1.0072
 2139SOL     OW18052   3.830   3.800   6.540 -0.0372  0.1401  0.8050
 2139SOL    HW118053   3.794   3.741   6.473 -0.4354 -0.9451  1.9857
 2139SOL    HW218054   3.889   3.747   6.592  1.4619  1.3580  0.3312
 2140SOL     OW18055   0.355   3.493   8.876 -0.7365  0.2118  0.6035
 2140SOL    HW118056   0.394   3.413   8.910 -2.1654 -0.2919  1.0258
 2140SOL    HW218057   0.270   3.488   8.919 -0.9610  0.3330  0.1807
 2141SOL     OW18058   0.245   1.287   6.637  0.1448  0.2457 -0.7975
 2141SOL    HW118059   0.235   1.375   6.674  0.0744  0.6848 -1.8391
 2141SOL    HW218060   0.294   1.303   6.556  0.4770 -0.6901 -0.7783
 2142SOL     OW18061   3.146   2.363   3.118 -0.1032 -0.1400  0.0810
 2142SOL    HW118062   3.227   2.315   3.102 -0.9582 -1.2826 -0.7694
 2142SOL    HW218063   3.082   2.305   3.078  0.4429 -0.8606  0.2526
 2143SOL     OW18064   3.483   1.641  16.417  0.5832  0.0561  0.1327
 2143SOL    HW118065   3.449   1.640  16.327  1.0174 -2.2016  0.0019
 2143SOL    HW218066   3.539   1.564  16.422 -0.9051 -1.1291 -1.5365
 2144SOL     OW18067   0.773   0.578   1.479 -0.3772 -0.0653 -0.8494
 2144SOL    HW118068   0.682   0.549   1.484  0.4511 -2.7824 -1.7042
 2144SOL    HW218069   0.822   0.501   1.450 -0.8618 -1.5882  2.3223
 2145SOL     OW18070   0.521   4.502   4.224  0.1546  0.1452 -0.3090
 2145SOL    HW118071   0.577   4.504   4.302 -0.5770 -0.8439  0.2276
 2145SOL    HW218072   0.479   4.417   4.221  0.9048 -0.1991 -1.0347
 2146SOL     OW18073   1.659   0.596   1.776  0.0943 -0.1550 -0.1277
 2146SOL    HW118074   1.686   0.683   1.748 -2.2007  0.4528 -0.4606
 2146SOL    HW218075   1.731   0.539   1.749 -0.4221 -0.7748 -0.1938
 2147SOL     OW18076   1.303   1.642   7.902 -0.8512  0.3996  0.9772
 2147SOL    HW118077   1.224   1.595   7.877 -0.9540  2.6073 -2.9107
 2147SOL    HW218078   1.278   1.734   7.911 -0.2681  0.4367  2.1937
 2148SOL     OW18079   0.304   0.464   8.841  0.5968  0.0659 -0.1488
 2148SOL    HW118080   0.359   0.397   8.880 -0.6413 -1.8287 -1.6224
 2148SOL    HW218081   0.226   0.441   8.891  0.2999 -0.6629 -0.9506
 2149SOL     OW18082   3.587   2.782  11.131  0.3243 -0.1139 -0.6260
 2149SOL    HW118083   3.642   2.839  11.184  0.3521  0.5072 -1.3268
 2149SOL    HW218084   3.652   2.721  11.098  1.6732  1.6087 -1.1613
 2150SOL     OW18085   4.636   1.923  17.424 -0.2580 -0.5499  0.0001
 2150SOL    HW118086   4.726   1.906  17.397 -0.5067 -0.8238 -0.6514
 2150SOL    HW218087   4.631   2.012  17.390 -0.7732 -0.7104 -0.3328
 2151SOL     OW18088   2.061   4.124   0.260 -0.5270 -0.3484 -0.2641
 2151SOL    HW118089   2.128   4.071   0.216 -1.0988 -3.0068  2.0196
 2151SOL    HW218090   2.088   4.107   0.351  2.7360  1.6107 -0.8533
 2152SOL     OW18091   4.185   1.762   4.735 -0.2117 -1.0035  0.2734
 2152SOL    HW118092   4.157   1.816   4.660  1.2948 -1.6760 -0.7743
 2152SOL    HW218093   4.271   1.803   4.740 -1.7296  2.2119 -0.0156
 2153SOL     OW18094   2.420   3.715   6.922 -0.2421  0.0851 -0.2397
 2153SOL    HW118095   2.468   3.634   6.936  1.1566  0.7128 -1.4418
 2153SOL    HW218096   2.361   3.694   6.849 -1.1890  1.6141  0.1030
 2154SOL     OW18097   1.959   1.814   7.325 -0.1143 -0.2447  0.1873
 2154SOL    HW118098   2.039   1.766   7.348  0.1141  0.8293  1.6069
 2154SOL    HW218099   1.904   1.751   7.279  0.8030 -1.0861  0.2391
 2155SOL     OW18100   3.396   3.048   0.558  0.5381  0.0860  0.2042
 2155SOL    HW118101   3.375   3.089   0.642  0.7612 -0.2039  0.3992
 2155SOL    HW218102   3.311   3.021   0.523  0.2759  2.0851 -0.6724
 2156SOL     OW18103   1.948   0.678   2.020 -0.2113  0.0447  0.5692
 2156SOL    HW118104   1.910   0.743   1.961 -0.1647  0.6151  1.1630
 2156SOL    HW218105   1.920   0.596   1.980  0.5683  0.7775 -1.5213
 2157SOL     OW18106   4.659   0.744  12.238  0.7429 -0.3137 -0.0768
 2157SOL    HW118107   4.703   0.694  12.306  0.8365  0.8011  0.6754
 2157SOL    HW218108   4.573   0.740  12.280 -0.4695 -1.4250 -2.6232
 2158SOL     OW18109   1.243   3.277   7.303  0.3183  0.6959  0.0474
 2158SOL    HW118110   1.280   3.333   7.372 -2.8551  1.5968  1.0195
 2158SOL    HW218111   1.281   3.194   7.335 -1.3979 -0.1783 -0.1982
 2159SOL     OW18112   1.321   4.135   6.333 -0.1282  0.0758 -0.3640
 2159SOL    HW118113   1.381   4.062   6.326 -1.5106 -1.2837  2.1847
 2159SOL    HW218114   1.243   4.083   6.352  0.4632 -0.0482  1.7167
 2160SOL     OW18115   1.199   0.644   7.968 -0.1926  0.2799  0.2781
 2160SOL    HW118116   1.138   0.608   7.903  0.0941 -0.4674  0.4213
 2160SOL    HW218117   1.250   0.705   7.915  0.1369  0.8378  1.2415
 2161SOL     OW18118   0.232   3.594   5.759  0.4114 -0.1041 -0.2093
 2161SOL    HW118119   0.206   3.674   5.714 -0.4454  0.0909  0.6292
 2161SOL    HW218120   0.243   3.623   5.850 -1.4690  0.3419 -0.1340
 2162SOL     OW18121   4.721   3.380   7.057 -0.0672  0.0774 -0.2550
 2162SOL    HW118122   4.700   3.290   7.031 -0.2881 -0.2863  1.1993
 2162SOL    HW218123   0.042   3.406   6.984  2.8423 -1.9055  1.2058
 2163SOL     OW18124   0.095   2.514   2.967 -0.0756 -0.2523 -0.0303
 2163SOL    HW118125   0.006   2.542   2.988 -0.0141  0.2145 -0.3920
 2163SOL    HW218126   0.141   2.567   3.032 -0.2959  0.2529 -0.2825
 2164SOL     OW18127   1.582   4.439   5.797  0.0345  0.3452 -0.0685
 2164SOL    HW118128   1.645   4.445   5.869  1.2366 -2.2803 -0.9099
 2164SOL    HW218129   1.627   4.482   5.725 -1.6749 -1.2034 -2.0449
 2165SOL     OW18130   2.118   2.676  15.403  0.0081  0.3711 -0.1783
 2165SOL    HW118131   2.038   2.644  15.361 -0.1622  1.5634 -0.7574
 2165SOL    HW218132   2.155   2.600  15.447 -0.4669 -0.2489 -0.8436
 2166SOL     OW18133   1.490   3.845   8.670  0.1355  0.8264 -0.5343
 2166SOL    HW118134   1.469   3.935   8.696  0.6970  1.1272 -1.1183
 2166SOL    HW218135   1.569   3.841   8.724  0.2067 -1.0879 -0.8037
 2167SOL     OW18136   2.886   1.237  15.183 -0.4197 -0.0747 -0.5988
 2167SOL    HW118137   2.841   1.267  15.103  0.2180  1.5447 -0.3594
 2167SOL    HW218138   2.846   1.293  15.250 -2.0061 -0.3617 -1.3077
 2168SOL     OW18139   1.173   1.868   3.167 -0.6055 -0.7217  0.3649
 2168SOL    HW118140   1.248   1.809   3.162 -0.7924 -0.8626 -1.0204
 2168SOL    HW218141   1.180   1.900   3.257 -1.8122  0.6337 -0.0176
 2169SOL     OW18142   4.432   2.549  16.303  0.1064  0.1852  0.0343
 2169SOL    HW118143   4.484   2.562  16.382 -0.5347 -1.0338  0.6464
 2169SOL    HW218144   4.371   2.482  16.333  0.9263 -1.4630 -2.0155
 2170SOL     OW18145   0.133   0.970   3.973 -0.0650 -0.2515 -0.4887
 2170SOL    HW118146   0.043   0.988   3.998  0.4651 -1.8495  2.5603
 2170SOL    HW218147   0.112   0.908   3.903  1.0018  1.3336 -2.2270
 2171SOL     OW18148   4.353   1.646  13.715  0.0200  0.0524 -0.6917
 2171SOL    HW118149   4.431   1.698  13.734  0.7925 -1.3681  0.0461
 2171SOL    HW218150   4.339   1.676  13.626  0.7358  0.4764 -0.6581
 2172SOL     OW18151   2.345   2.232   1.163  0.1346 -0.1184  0.2412
 2172SOL    HW118152   2.369   2.311   1.212  1.6936 -0.3490 -0.1228
 2172SOL    HW218153   2.429   2.223   1.117  0.7634 -2.0668  1.7702
 2173SOL     OW18154   3.245   1.932   2.254 -0.3801 -0.1046 -0.3275
 2173SOL    HW118155   3.184   1.993   2.296 -2.2549 -0.6245 -2.2956
 2173SOL    HW218156   3.179   1.885   2.204 -0.7078 -1.0904  1.0107
 2174SOL     OW18157   3.048   4.270   2.537 -0.3398  0.3333 -0.2457
 2174SOL    HW118158   3.083   4.348   2.493  1.8155 -0.7369 -0.3779
 2174SOL    HW218159   2.987   4.262   2.463  0.8069 -0.4042 -1.1090
 2175SOL     OW18160   3.018   0.068   0.847  0.4407 -0.5988  0.4963
 2175SOL    HW118161   2.953   0.001   0.871 -3.4211  2.9199 -0.0533
 2175SOL    HW218162   2.959   0.141   0.827  0.6927 -0.6689 -0.5121
 2176SOL     OW18163   1.054   3.245   2.139 -0.7388 -0.7555  0.2461
 2176SOL    HW118164   1.013   3.203   2.215 -2.8471  0.2469 -0.3585
 2176SOL    HW218165   1.013   3.192   2.071  0.1848 -2.9493  1.3659
 2177SOL     OW18166   2.065   0.279   3.577  0.1566  0.4495  0.5573
 2177SOL    HW118167   2.096   0.220   3.646 -1.7443 -0.2779  0.8006
 2177SOL    HW218168   2.122   0.254   3.504  1.3928  2.4828  0.8124
 2178SOL     OW18169   4.026   4.230   6.838 -1.0076 -0.1287  1.2557
 2178SOL    HW118170   4.010   4.307   6.892  0.7823  3.1141 -2.7797
 2178SOL    HW218171   3.973   4.164   6.883 -0.4731 -1.5940 -0.2404
 2179SOL     OW18172   2.879   4.281   9.721  0.0734 -0.6050 -0.6860
 2179SOL    HW118173   2.848   4.355   9.772 -1.9837 -1.5802 -0.5164
 2179SOL    HW218174   2.847   4.214   9.781  1.1043  0.1724  0.7117
 2180SOL     OW18175   2.161   1.041   3.897  0.2128  0.3595 -0.1644
 2180SOL    HW118176   2.188   0.952   3.874 -0.3301  0.0946  0.2156
 2180SOL    HW218177   2.127   1.066   3.812  3.0214 -2.0223 -1.9849
 2181SOL     OW18178   2.398   2.990   6.609 -0.4713  0.1944  0.1827
 2181SOL    HW118179   2.398   2.944   6.692  0.2244 -0.2118 -0.0460
 2181SOL    HW218180   2.424   3.080   6.629 -0.9692  0.5345 -0.6735
 2182SOL     OW18181   0.194   1.297  13.613  0.0751 -0.3232 -0.0415
 2182SOL    HW118182   0.132   1.349  13.562 -0.7453 -4.1868 -3.0621
 2182SOL    HW218183   0.257   1.267  13.548  0.3573 -2.7804  1.3411
 2183SOL     OW18184   1.453   2.015   3.251 -0.4000 -0.0226 -0.4309
 2183SOL    HW118185   1.433   2.072   3.326 -0.2163  0.5819 -0.8383
 2183SOL    HW218186   1.459   1.930   3.293 -0.7281 -0.8538 -2.0658
 2184SOL     OW18187   0.715   1.436   6.413  0.3822 -0.5058  0.0983
 2184SOL    HW118188   0.683   1.521   6.382  2.2880  0.9425  2.0325
 2184SOL    HW218189   0.677   1.440   6.500  2.0024 -2.3719  0.8848
 2185SOL     OW18190   3.469   2.474   3.131  0.1877  0.4549 -0.2205
 2185SOL    HW118191   3.465   2.489   3.226  0.1973 -1.6220  0.1130
 2185SOL    HW218192   3.457   2.379   3.125 -0.1661  0.6496 -2.5076
 2186SOL     OW18193   4.427   1.043   6.631  0.0832 -0.1083 -0.1172
 2186SOL    HW118194   4.456   0.990   6.557 -1.4127  1.0640 -1.5407
 2186SOL    HW218195   4.421   1.130   6.593  1.4035  0.2893  0.5785
 2187SOL     OW18196   2.318   0.712  13.165  0.0313  0.1060 -0.0535
 2187SOL    HW118197   2.269   0.785  13.202 -1.2401 -0.8529  0.1879
 2187SOL    HW218198   2.250   0.686  13.102  1.1802  0.8278 -1.5875
 2188SOL     OW18199   4.386   2.905  12.090  0.2861  0.0771  0.0239
 2188SOL    HW118200   4.330   2.959  12.034  0.3529 -0.7253 -0.8080
 2188SOL    HW218201   4.452   2.878  12.026 -1.7089 -2.3113 -1.0289
 2189SOL     OW18202   2.132   1.380   3.527 -0.7145  0.1725 -0.1882
 2189SOL    HW118203   2.102   1.462   3.490  0.9442  1.5204  1.4848
 2189SOL    HW218204   2.134   1.318   3.454 -0.5207 -1.0565  0.8612
 2190SOL     OW18205   2.949   3.005  17.407 -0.0093  0.0552  0.2325
 2190SOL    HW118206   2.956   3.097  17.433  0.5503 -0.1527  0.8220
 2190SOL    HW218207   2.972   3.007  17.314 -2.1969 -0.3205 -0.3162
 2191SOL     OW18208   3.182   4.035  13.345 -0.1104 -0.0499 -0.7299
 2191SOL    HW118209   3.109   3.989  13.304 -1.6420  1.9257 -0.1722
 2191SOL    HW218210   3.210   3.971  13.410  2.0771  1.6030 -0.0422
 2192SOL     OW18211   1.483   3.670  11.135 -0.0134 -0.4654 -0.0142
 2192SOL    HW118212   1.418   3.718  11.187  1.6075  0.8634  0.7584
 2192SOL    HW218213   1.542   3.637  11.202  0.9563 -1.6577 -1.4790
 2193SOL     OW18214   4.286   3.852   4.879  0.4228 -0.1330 -0.4920
 2193SOL    HW118215   4.247   3.848   4.966  1.3188 -0.1961 -0.0988
 2193SOL    HW218216   4.337   3.933   4.887  1.1815 -0.6366 -0.2869
 2194SOL     OW18217   1.099   1.433  17.622 -0.3551  0.0995 -0.0202
 2194SOL    HW118218   1.160   1.392  17.561 -1.1397 -1.7181  0.4190
 2194SOL    HW218219   1.065   1.505  17.569 -0.0399 -0.3839 -0.8762
 2195SOL     OW18220   1.017   3.620  16.001 -0.2443  0.6083  0.1596
 2195SOL    HW118221   0.964   3.615  15.921 -0.0104  1.4149 -0.0435
 2195SOL    HW218222   1.058   3.534  16.006 -1.7716  0.0594  2.8891
 2196SOL     OW18223   1.793   3.843   5.711  0.6317  0.3588 -0.5770
 2196SOL    HW118224   1.797   3.931   5.749  1.5375 -0.5595  1.4480
 2196SOL    HW218225   1.827   3.855   5.622 -0.3198 -0.7788 -1.1002
 2197SOL     OW18226   2.025   3.889   3.509 -0.5772 -0.5187 -0.5018
 2197SOL    HW118227   2.099   3.867   3.453 -1.3099 -3.9079 -0.1465
 2197SOL    HW218228   2.039   3.848   3.594 -1.3816 -1.0657 -0.6276
 2198SOL     OW18229   2.609   2.855   3.990  0.5012 -0.7018  0.1040
 2198SOL    HW118230   2.663   2.891   4.061 -0.7050 -0.0458  0.6951
 2198SOL    HW218231   2.646   2.898   3.913 -0.2512 -0.3745 -0.0709
 2199SOL     OW18232   2.385   0.241   6.716  0.6384  0.1687 -0.2080
 2199SOL    HW118233   2.326   0.302   6.670 -1.4437 -1.6250  0.0824
 2199SOL    HW218234   2.322   0.183   6.759  0.4085  2.4190  2.5599
 2200SOL     OW18235   3.886   1.766   1.246 -0.0075 -0.5391  0.2377
 2200SOL    HW118236   3.814   1.716   1.283 -1.0652 -0.2332 -1.4032
 2200SOL    HW218237   3.862   1.756   1.154 -1.0347  0.1597  0.4283
 2201SOL     OW18238   4.514   3.514  15.646  0.2946  0.0008  0.2321
 2201SOL    HW118239   4.565   3.585  15.685  0.3565 -0.9822  1.9407
 2201SOL    HW218240   4.537   3.444  15.707 -1.5566 -1.4889 -0.7944
 2202SOL     OW18241   0.394   1.994   6.620  0.0868 -0.3227 -0.5258
 2202SOL    HW118242   0.363   2.072   6.667 -1.6654  0.0532 -2.3060
 2202SOL    HW218243   0.422   2.023   6.533  0.7504 -1.7221 -0.7699
 2203SOL     OW18244   0.186   0.423   1.247  0.2987  0.5011  0.8395
 2203SOL    HW118245   0.157   0.498   1.194  1.1993 -0.8733 -1.6075
 2203SOL    HW218246   0.183   0.354   1.181  0.8618  1.2089  0.0742
 2204SOL     OW18247   0.385   2.141   9.778 -0.2210  0.1169  0.0103
 2204SOL    HW118248   0.360   2.058   9.819  0.5878  0.1659  0.6034
 2204SOL    HW218249   0.452   2.100   9.723 -0.5627 -0.0725 -0.2685
 2205SOL     OW18250   3.133   1.062  16.487 -0.6562  0.1480  0.0042
 2205SOL    HW118251   3.132   1.147  16.444 -1.0819  0.0884 -0.1011
 2205SOL    HW218252   3.098   1.090  16.571 -1.2725 -0.1268 -0.1627
 2206SOL     OW18253   2.462   1.530   7.000  0.0111  0.1822 -0.0293
 2206SOL    HW118254   2.405   1.472   6.949 -0.6111  0.8465 -0.0895
 2206SOL    HW218255   2.409   1.607   6.980 -1.4838 -0.2962  2.0251
 2207SOL     OW18256   1.550   0.544  17.331 -0.0144  0.1209 -0.0516
 2207SOL    HW118257   1.548   0.522  17.238  2.3976 -0.4425  0.0532
 2207SOL    HW218258   1.483   0.484  17.363 -0.2804  1.1608  1.3632
 2208SOL     OW18259   2.385   0.250   2.429 -0.6427 -0.1391  0.3066
 2208SOL    HW118260   2.366   0.233   2.336 -2.3139  0.2615  0.5640
 2208SOL    HW218261   2.427   0.336   2.429 -0.5089 -0.1994 -0.5588
 2209SOL     OW18262   4.302   4.129  10.765 -0.1787  0.5341 -0.2478
 2209SOL    HW118263   4.238   4.070  10.804  0.2455  0.7800  0.8286
 2209SOL    HW218264   4.250   4.159  10.691  0.4865 -2.1735 -1.8045
 2210SOL     OW18265   1.680   3.721   0.527  0.6122 -0.5709 -0.2747
 2210SOL    HW118266   1.638   3.663   0.590 -0.7012  0.5422 -0.1292
 2210SOL    HW218267   1.734   3.779   0.581 -1.4139 -1.1694  2.3533
 2211SOL     OW18268   3.324   2.581   3.770  0.0209 -0.3613  0.3674
 2211SOL    HW118269   3.256   2.618   3.826  0.7611  0.5909  0.6246
 2211SOL    HW218270   3.263   2.518   3.730  0.9791 -1.1214  0.1152
 2212SOL     OW18271   0.020   4.007   5.370  0.0953  0.2727  0.2818
 2212SOL    HW118272   4.731   3.968   5.454 -1.2261 -1.8207 -1.0495
 2212SOL    HW218273   0.020   3.936   5.306  0.1356  0.1779  0.3885
 2213SOL     OW18274   2.285   3.974   5.890 -0.1657  0.3400 -0.3103
 2213SOL    HW118275   2.236   3.935   5.817 -0.3884 -2.0189  1.1063
 2213SOL    HW218276   2.346   4.036   5.848 -0.4135  0.1574 -0.9444
 2214SOL     OW18277   3.824   2.552   3.186 -0.0067  0.2190  0.0525
 2214SOL    HW118278   3.895   2.504   3.228  0.1074 -0.0057 -0.3901
 2214SOL    HW218279   3.752   2.553   3.249 -1.6641 -0.5289 -1.8347
 2215SOL     OW18280   0.971   0.309   6.233  0.2480 -0.6960 -0.0787
 2215SOL    HW118281   1.061   0.336   6.213  0.1667 -0.2915  0.1084
 2215SOL    HW218282   0.929   0.357   6.162  0.5248  0.3335  0.4548
 2216SOL     OW18283   4.253   3.844  12.679  0.3951  0.4563 -0.3507
 2216SOL    HW118284   4.265   3.907  12.608  3.0549  0.9906  0.5688
 2216SOL    HW218285   4.180   3.884  12.726 -0.5262  0.3809 -1.7060
 2217SOL     OW18286   2.185   0.246   8.987 -0.3084 -0.4029 -0.0285
 2217SOL    HW118287   2.183   0.233   9.082 -0.1960 -0.4525 -0.0336
 2217SOL    HW218288   2.192   0.341   8.979 -0.2424 -0.4636 -0.7211
 2218SOL     OW18289   0.440   1.053   0.219  0.3497  0.6693  0.1533
 2218SOL    HW118290   0.381   1.111   0.268 -1.3613 -2.0018  1.2273
 2218SOL    HW218291   0.388   1.042   0.139 -0.1192  4.1252 -0.0345
 2219SOL     OW18292   1.281   4.574  17.510 -0.5027  0.1707 -0.3328
 2219SOL    HW118293   1.232   4.516  17.568  1.3177  0.6078  1.6289
 2219SOL    HW218294   1.367   4.548  17.544 -1.3911 -0.6139  1.3267
 2220SOL     OW18295   2.411   0.101   6.062  0.5657  0.1435  0.2684
 2220SOL    HW118296   2.320   0.123   6.083  0.7508 -0.7425  2.0079
 2220SOL    HW218297   2.433   0.033   6.125 -0.9183 -0.6081 -0.0340
 2221SOL     OW18298   2.864   2.380   0.895  0.2513 -0.0164  0.4941
 2221SOL    HW118299   2.825   2.428   0.822  1.5516  0.3232  0.0148
 2221SOL    HW218300   2.893   2.302   0.848 -0.6624 -0.3048  0.4060
 2222SOL     OW18301   3.437   3.849   8.193 -0.1748 -0.0332  0.0635
 2222SOL    HW118302   3.500   3.777   8.193  2.4116  2.2368 -2.0689
 2222SOL    HW218303   3.451   3.887   8.106 -2.3642  1.2539  0.2578
 2223SOL     OW18304   4.116   3.748   2.778  0.0327 -0.2256  0.1127
 2223SOL    HW118305   4.062   3.729   2.701 -0.7325  1.0182  0.3438
 2223SOL    HW218306   4.070   3.715   2.855 -0.6131 -0.4869 -0.3894
 2224SOL     OW18307   1.893   2.552   9.036 -0.5100  0.0703  0.4781
 2224SOL    HW118308   1.860   2.507   8.958  0.7638  0.6209 -0.3661
 2224SOL    HW218309   1.927   2.476   9.083  1.7235  1.0078  0.3520
 2225SOL     OW18310   3.953   3.589   3.556 -0.5137 -0.1959  1.1211
 2225SOL    HW118311   3.980   3.598   3.647  1.3880 -2.2639  0.7533
 2225SOL    HW218312   3.862   3.621   3.556 -0.5860 -0.4097 -0.9654
 2226SOL     OW18313   4.597   2.795  11.502  0.3693  0.1013 -0.1562
 2226SOL    HW118314   4.687   2.766  11.513  0.1433 -0.3468  0.4740
 2226SOL    HW218315   4.609   2.887  11.524  0.8058 -0.7230  3.0277
 2227SOL     OW18316   3.413   2.871   1.283 -0.4359 -0.5686 -0.1176
 2227SOL    HW118317   3.443   2.955   1.317  0.4446 -0.5907 -0.8576
 2227SOL    HW218318   3.338   2.840   1.334  1.5841  0.0382  3.2596
 2228SOL     OW18319   4.257   2.613   4.313  0.2818 -0.4265  0.4698
 2228SOL    HW118320   4.246   2.693   4.262 -0.0662 -0.3733  0.6291
 2228SOL    HW218321   4.184   2.560   4.282 -2.3914  1.5441  3.3943
 2229SOL     OW18322   3.816   2.355   8.808 -0.3334 -0.4482 -0.0266
 2229SOL    HW118323   3.755   2.415   8.851 -0.8951 -3.2463  3.0551
 2229SOL    HW218324   3.855   2.406   8.737  0.0340 -0.1525  0.3869
 2230SOL     OW18325   2.112   0.108   0.159  0.0334 -0.4616  0.0183
 2230SOL    HW118326   2.155   0.179   0.206 -1.7822 -0.3595  1.5570
 2230SOL    HW218327   2.186   0.051   0.136  0.3183  0.1113 -0.4813
 2231SOL     OW18328   3.399   0.763  16.802  0.5744 -0.1422  0.0121
 2231SOL    HW118329   3.439   0.825  16.742  3.0503 -0.5489  1.2529
 2231SOL    HW218330   3.377   0.694  16.740 -0.7634 -1.2796  1.7205
 2232SOL     OW18331   0.179   2.265   6.192  0.6265 -0.3397 -0.0794
 2232SOL    HW118332   0.098   2.231   6.155  0.8156  0.6632 -1.4250
 2232SOL    HW218333   0.177   2.242   6.284  3.6154 -0.6219 -0.0718
 2233SOL     OW18334   3.400   3.198   7.211 -0.2496 -0.0159  0.0924
 2233SOL    HW118335   3.463   3.135   7.175 -1.5016 -0.6931 -0.9092
 2233SOL    HW218336   3.383   3.259   7.139 -0.5782 -0.3930 -0.1512
 2234SOL     OW18337   1.408   1.897  14.544 -0.3452 -0.2429  0.0825
 2234SOL    HW118338   1.341   1.955  14.507 -1.6404 -1.0609  1.1431
 2234SOL    HW218339   1.377   1.811  14.516 -3.1344  1.2728 -1.4570
 2235SOL     OW18340   0.145   2.638   4.921  0.4994  0.0417  0.3687
 2235SOL    HW118341   0.087   2.641   4.997 -0.2868  0.4159 -0.2393
 2235SOL    HW218342   0.151   2.730   4.898  0.3273  0.6984  3.0161
 2236SOL     OW18343   4.269   3.100   4.233  0.4155 -0.2669 -0.4489
 2236SOL    HW118344   4.270   3.195   4.223 -1.2494 -0.0398  1.4234
 2236SOL    HW218345   4.319   3.068   4.157  4.2745  3.4652  0.5623
 2237SOL     OW18346   0.614   0.972   2.029 -0.1114  0.4871  0.2008
 2237SOL    HW118347   0.608   0.987   2.124  0.9705  0.9156  0.2032
 2237SOL    HW218348   0.698   1.004   1.995  0.9310 -1.0445  1.3061
 2238SOL     OW18349   3.383   2.007  10.670 -0.2082 -0.5871 -0.1871
 2238SOL    HW118350   3.375   2.094  10.710  0.9798  1.2986 -4.0608
 2238SOL    HW218351   3.355   2.034  10.582  1.2462 -2.4470 -1.2281
 2239SOL     OW18352   4.150   1.294   5.664 -0.5191 -0.4769  0.1725
 2239SOL    HW118353   4.129   1.383   5.692 -0.8024 -0.5769  0.2850
 2239SOL    HW218354   4.176   1.251   5.746  1.7785  0.2580 -0.1701
 2240SOL     OW18355   4.146   1.385  14.215 -0.1965 -0.4652  0.2961
 2240SOL    HW118356   4.236   1.409  14.233 -0.3930  1.1109 -0.8129
 2240SOL    HW218357   4.153   1.354  14.125 -0.3894 -0.9603  0.4545
 2241SOL     OW18358   1.883   3.519  10.391  0.5662 -0.1851  0.4512
 2241SOL    HW118359   1.805   3.493  10.440  0.7037  1.6132  1.5792
 2241SOL    HW218360   1.849   3.594  10.343 -3.0538 -1.7177  0.5587
 2242SOL     OW18361   1.599   0.984   8.680 -0.2821 -0.2931  0.1795
 2242SOL    HW118362   1.572   1.020   8.596  0.3505  1.8777  0.9030
 2242SOL    HW218363   1.662   1.051   8.708  0.3825 -0.5658 -0.6657
 2243SOL     OW18364   2.406   0.554   1.898  0.6361  0.2370 -0.4698
 2243SOL    HW118365   2.359   0.537   1.980  1.2652 -0.2284 -0.2097
 2243SOL    HW218366   2.476   0.609   1.931  0.0218  0.2774  0.7850
 2244SOL     OW18367   1.608   1.976   1.709  0.0894  0.2121 -0.3030
 2244SOL    HW118368   1.582   2.065   1.736 -0.7871  0.2018 -1.1036
 2244SOL    HW218369   1.686   1.957   1.760 -0.7254 -0.7584  0.5845
 2245SOL     OW18370   0.919   0.910   5.820  0.1431  0.4014 -0.3069
 2245SOL    HW118371   0.966   0.988   5.790 -0.2362  1.1509  1.1034
 2245SOL    HW218372   0.837   0.933   5.863  0.0223 -2.8338  1.1621
 2246SOL     OW18373   0.141   1.370  16.013  0.1878  0.1998 -0.2361
 2246SOL    HW118374   0.200   1.426  15.964 -1.4787  0.0750 -2.3941
 2246SOL    HW218375   0.191   1.360  16.094 -1.5609  2.4220  1.1308
 2247SOL     OW18376   1.973   0.045   6.676 -0.2478 -0.2819 -0.5995
 2247SOL    HW118377   1.953   0.124   6.626  0.1089  0.0619 -0.1958
 2247SOL    HW218378   1.884   0.022   6.702 -0.4002  0.8650 -0.1231
 2248SOL     OW18379   3.021   2.137   2.189 -0.2940  0.9644 -0.0446
 2248SOL    HW118380   3.031   2.131   2.284  0.5049 -1.7313 -0.3078
 2248SOL    HW218381   2.933   2.103   2.171 -0.0981 -0.0781  0.9493
 2249SOL     OW18382   3.287   4.256   3.862 -0.7119  0.4207 -0.7520
 2249SOL    HW118383   3.275   4.301   3.778  2.3040  0.4111 -1.2044
 2249SOL    HW218384   3.241   4.320   3.916 -0.7821 -0.9017  0.7235
 2250SOL     OW18385   4.197   4.491   7.593 -0.3179 -0.1434 -0.5228
 2250SOL    HW118386   4.122   4.534   7.633 -0.7830 -0.2691 -1.2551
 2250SOL    HW218387   4.222   4.423   7.656 -1.6097  0.3173  0.4711
 2251SOL     OW18388   4.638   3.964   7.742  0.3043  0.1552 -0.1303
 2251SOL    HW118389   4.636   3.882   7.792  0.1953  1.9902  2.9236
 2251SOL    HW218390   4.578   4.022   7.790  2.5844  2.9581 -0.6678
 2252SOL     OW18391   4.636   2.538  17.369 -0.4915  0.3435 -0.0047
 2252SOL    HW118392   4.574   2.609  17.352 -0.6549 -0.4789 -2.8995
 2252SOL    HW218393   4.720   2.579  17.352  0.3312 -0.6570  1.7632
 2253SOL     OW18394   2.395   3.490   9.014  0.4641  0.4650 -0.5690
 2253SOL    HW118395   2.327   3.555   9.029  1.5982  1.8764 -1.5397
 2253SOL    HW218396   2.375   3.415   9.069 -1.8730  2.1905  0.9185
 2254SOL     OW18397   3.219   4.074   2.907 -0.4241  0.2103 -0.4266
 2254SOL    HW118398   3.209   3.984   2.876  3.0525 -0.0716 -0.7662
 2254SOL    HW218399   3.305   4.097   2.870 -1.1524  1.2931 -1.4600
 2255SOL     OW18400   4.123   1.380  16.797 -0.3231  0.5997  0.2465
 2255SOL    HW118401   4.120   1.291  16.762 -0.1790  0.0789  1.5459
 2255SOL    HW218402   4.127   1.429  16.715  0.3529  1.4496  0.7844
 2256SOL     OW18403   2.134   2.810  11.093 -0.1885  0.4420  0.6328
 2256SOL    HW118404   2.068   2.742  11.093 -0.7827  1.0239  0.4812
 2256SOL    HW218405   2.122   2.863  11.014  1.4730 -2.0118 -1.2532
 2257SOL     OW18406   4.365   0.912   5.529 -0.5855  0.3837  0.4323
 2257SOL    HW118407   4.278   0.926   5.491 -0.4080  3.9239  1.3639
 2257SOL    HW218408   4.409   0.992   5.502  0.3510 -0.8325 -1.7013
 2258SOL     OW18409   0.299   1.965  10.689 -0.8648 -0.4090  0.0962
 2258SOL    HW118410   0.368   1.933  10.747 -0.2540  0.3103 -0.2246
 2258SOL    HW218411   0.310   2.060  10.696 -0.2923 -0.3455 -1.6160
 2259SOL     OW18412   3.969   3.057   8.014  0.1826 -0.7410  0.1456
 2259SOL    HW118413   3.934   3.145   7.997  0.7454 -1.0372 -2.6422
 2259SOL    HW218414   4.037   3.070   8.079 -1.1402  0.3502  1.3056
 2260SOL     OW18415   1.511   2.671   5.317  0.4223 -0.3984  0.2868
 2260SOL    HW118416   1.565   2.651   5.240  1.6258  0.0284  1.0238
 2260SOL    HW218417   1.546   2.615   5.386 -0.2955 -0.8255  0.3055
 2261SOL     OW18418   3.424   3.624   3.413  0.1634  0.3687 -0.0866
 2261SOL    HW118419   3.460   3.631   3.324 -1.3053  0.2045 -0.6967
 2261SOL    HW218420   3.334   3.603   3.388  0.6087 -2.4523  0.6788
 2262SOL     OW18421   2.215   2.608   1.311  0.3883 -0.6089 -0.6120
 2262SOL    HW118422   2.146   2.543   1.328 -0.1567 -0.1000 -0.8806
 2262SOL    HW218423   2.287   2.546   1.301 -0.1132 -1.0644 -1.3870
 2263SOL     OW18424   2.954   0.248  12.380  0.1188 -0.2679 -0.4157
 2263SOL    HW118425   3.030   0.196  12.353  0.6574  1.2498 -1.7941
 2263SOL    HW218426   2.920   0.210  12.461 -0.9008 -0.0822 -0.7612
 2264SOL     OW18427   1.093   4.282   8.082 -0.1490 -0.8076 -0.2961
 2264SOL    HW118428   1.141   4.360   8.052 -1.0397 -0.1780 -0.0876
 2264SOL    HW218429   0.999   4.302   8.078  0.0774 -0.0206 -1.9017
 2265SOL     OW18430   0.387   3.434   4.343  0.3992 -0.0168 -0.0511
 2265SOL    HW118431   0.331   3.509   4.361  1.7975  0.9194  0.3333
 2265SOL    HW218432   0.318   3.369   4.327  1.5976 -0.8489 -1.8279
 2266SOL     OW18433   3.084   0.862   4.151 -0.2277 -0.1410 -0.1408
 2266SOL    HW118434   3.171   0.830   4.176 -0.8374  0.8693  3.1938
 2266SOL    HW218435   3.028   0.858   4.228  1.6125  0.7956  1.2499
 2267SOL     OW18436   3.485   2.758   2.190 -0.4759  0.4276  0.4424
 2267SOL    HW118437   3.515   2.703   2.117 -0.4884  1.6524 -0.4891
 2267SOL    HW218438   3.394   2.734   2.205 -0.3912 -0.6380 -0.7567
 2268SOL     OW18439   3.055   0.251   4.405 -0.2440 -0.0931  0.2173
 2268SOL    HW118440   3.069   0.316   4.474 -0.2900 -0.5137  0.6253
 2268SOL    HW218441   3.029   0.178   4.462  0.4484  1.0697  2.0228
 2269SOL     OW18442   0.309   3.179  14.804 -0.1489 -0.0595  0.6192
 2269SOL    HW118443   0.291   3.092  14.839  0.0907 -1.1702 -1.9758
 2269SOL    HW218444   0.247   3.227  14.860 -1.3078  1.0348 -1.5904
 2270SOL     OW18445   2.143   4.275   5.446 -0.4468 -0.4820  0.1872
 2270SOL    HW118446   2.145   4.364   5.411 -3.6841 -0.0306  1.1109
 2270SOL    HW218447   2.223   4.271   5.497 -0.0704 -2.5314 -0.5558
 2271SOL     OW18448   1.365   1.002   6.168  0.2762  0.1344 -0.4442
 2271SOL    HW118449   1.438   0.983   6.228 -0.1712 -2.4005 -0.6921
 2271SOL    HW218450   1.330   1.083   6.205 -0.0878 -0.1339 -0.1892
 2272SOL     OW18451   4.155   1.399   7.493  0.4021 -0.0224  0.3525
 2272SOL    HW118452   4.064   1.395   7.465  0.7679 -0.7546 -0.7512
 2272SOL    HW218453   4.183   1.308   7.480 -2.1846 -0.7187 -0.3664
 2273SOL     OW18454   3.599   0.582  17.522  0.5735  0.3212 -0.1203
 2273SOL    HW118455   3.670   0.527  17.556 -0.1824 -1.1185 -0.8718
 2273SOL    HW218456   3.552   0.607  17.601  0.0946  1.0807 -0.6389
 2274SOL     OW18457   0.333   0.890   9.349  0.1309 -0.0009 -0.4716
 2274SOL    HW118458   0.366   0.944   9.421  0.0099  0.2796 -0.6254
 2274SOL    HW218459   0.245   0.875   9.382  0.6690 -1.6377  0.2300
 2275SOL     OW18460   3.645   4.010   2.464  0.0447 -0.5877 -0.2999
 2275SOL    HW118461   3.703   4.057   2.524 -1.9649  0.4068  0.8671
 2275SOL    HW218462   3.677   3.922   2.483  0.1946 -0.2101  1.1777
 2276SOL     OW18463   4.267   4.143   4.433 -0.1778  0.2354 -0.3849
 2276SOL    HW118464   4.230   4.071   4.382 -0.3191 -0.6501  0.9570
 2276SOL    HW218465   4.298   4.096   4.511  2.6939  1.0459 -1.0353
 2277SOL     OW18466   0.363   2.925  11.185 -0.3545  0.0237  0.4842
 2277SOL    HW118467   0.393   3.003  11.233 -0.1269 -0.7099  1.5432
 2277SOL    HW218468   0.311   2.967  11.117  1.3305 -2.7544 -2.5056
 2278SOL     OW18469   0.718   4.460   8.130  0.3062  0.3070  0.2211
 2278SOL    HW118470   0.761   4.545   8.140  0.3617  0.2897  0.1258
 2278SOL    HW218471   0.705   4.450   8.036 -1.8658  3.4985  0.1939
 2279SOL     OW18472   1.381   2.595   4.667 -0.1800 -0.4367  0.5084
 2279SOL    HW118473   1.413   2.597   4.757 -0.6091 -2.6294  0.7258
 2279SOL    HW218474   1.388   2.689   4.649 -0.0783 -0.6234 -0.4527
 2280SOL     OW18475   3.629   3.451  15.795 -0.3702 -0.0500 -0.0420
 2280SOL    HW118476   3.626   3.420  15.885 -1.6745 -1.0042 -0.4177
 2280SOL    HW218477   3.611   3.545  15.798 -0.8921 -0.2354  2.4489
 2281SOL     OW18478   2.648   1.430   1.597  0.1794 -0.3760  0.2541
 2281SOL    HW118479   2.720   1.460   1.541  0.1938 -1.7860 -0.4826
 2281SOL    HW218480   2.640   1.338   1.575  0.4067  0.0086 -1.4337
 2282SOL     OW18481   3.135   3.185  16.265  0.4338 -0.3442 -0.8115
 2282SOL    HW118482   3.094   3.177  16.178 -0.0217  0.9220 -0.7236
 2282SOL    HW218483   3.068   3.144  16.319  0.1749  2.4364  0.9561
 2283SOL     OW18484   0.603   4.243  16.068 -0.1852  0.1204  0.0705
 2283SOL    HW118485   0.600   4.180  16.140 -0.5053 -2.6752 -2.3604
 2283SOL    HW218486   0.511   4.260  16.052 -0.1770  1.9346  2.0568
 2284SOL     OW18487   3.006   0.100  17.443 -0.5024  0.0359 -0.3499
 2284SOL    HW118488   2.939   0.160  17.474  0.8320  1.8520 -1.0302
 2284SOL    HW218489   3.016   0.037  17.514 -2.0880  0.7054  0.4715
 2285SOL     OW18490   3.731   2.583  15.461 -0.3889 -1.0872  0.7865
 2285SOL    HW118491   3.803   2.587  15.398  0.9671 -1.2297  2.3386
 2285SOL    HW218492   3.710   2.676  15.463  1.1248 -0.7864  2.4814
 2286SOL     OW18493   3.572   0.738   3.156 -0.4062  0.5862 -0.3197
 2286SOL    HW118494   3.621   0.780   3.085  1.5175 -1.6683 -0.3031
 2286SOL    HW218495   3.602   0.651   3.130  0.0746  1.0854 -1.4558
 2287SOL     OW18496   1.574   0.751   9.017  0.0353  0.0227 -0.7912
 2287SOL    HW118497   1.633   0.702   8.959 -0.2912  1.9523 -2.7403
 2287SOL    HW218498   1.494   0.699   9.008  0.0540 -0.2162  0.3439
 2288SOL     OW18499   2.088   0.939   6.119  0.2115 -0.0963  0.2491
 2288SOL    HW118500   2.039   1.021   6.123 -1.5611 -1.1236 -0.0334
 2288SOL    HW218501   2.171   0.973   6.151  0.8968  0.4058 -2.1232
 2289SOL     OW18502   2.532   3.145   7.838  0.2888  0.5989  0.1262
 2289SOL    HW118503   2.619   3.111   7.820 -0.4132 -1.0265 -0.1749
 2289SOL    HW218504   2.558   3.222   7.889  1.9450  2.0961 -3.0065
 2290SOL     OW18505   2.071   0.432   2.391 -0.3078 -0.1285  0.1456
 2290SOL    HW118506   2.117   0.472   2.464  0.1615 -1.6905  0.7071
 2290SOL    HW218507   2.023   0.505   2.352 -1.3036 -0.3009  1.0729
 2291SOL     OW18508   4.268   0.783   8.538 -0.3501  0.1215  0.1021
 2291SOL    HW118509   4.276   0.759   8.446  0.0132  2.7190 -0.5402
 2291SOL    HW218510   4.357   0.812   8.557 -0.2134 -1.1160  1.4174
 2292SOL     OW18511   3.135   3.522   5.823 -0.2052  0.3317  0.2623
 2292SOL    HW118512   3.176   3.458   5.765 -0.8209 -1.6470  2.0116
 2292SOL    HW218513   3.042   3.498   5.814 -0.2652  0.7038 -0.0829
 2293SOL     OW18514   1.874   3.025   1.486 -0.6064 -0.1890 -0.1824
 2293SOL    HW118515   1.839   3.090   1.426 -1.1154  0.2840  0.6285
 2293SOL    HW218516   1.843   3.048   1.573  1.1900 -3.2609  1.2828
 2294SOL     OW18517   0.817   0.086   6.512  0.1087 -0.1561  0.1412
 2294SOL    HW118518   0.774   0.169   6.491  0.7289 -0.0900 -0.8548
 2294SOL    HW218519   0.747   0.036   6.554 -1.9402  0.4689 -2.5726
 2295SOL     OW18520   1.570   3.892   4.563 -0.4634 -0.4654 -0.3591
 2295SOL    HW118521   1.614   3.878   4.479  1.0331 -0.2793  0.3955
 2295SOL    HW218522   1.536   3.805   4.583 -1.7916 -0.0161 -0.6839
 2296SOL     OW18523   3.225   0.853  16.985 -0.5003  0.4132 -0.2305
 2296SOL    HW118524   3.303   0.848  16.930 -1.1927  0.9594 -1.2607
 2296SOL    HW218525   3.175   0.929  16.954 -1.4727 -1.0246 -2.2030
 2297SOL     OW18526   0.735   3.932  16.894 -0.7617  0.0737 -0.1895
 2297SOL    HW118527   0.760   3.884  16.815 -2.5955  1.2954 -1.5093
 2297SOL    HW218528   0.704   3.861  16.951 -1.4356 -0.0938 -0.7659
 2298SOL     OW18529   4.235   4.555  12.643  0.3034  0.2307 -0.1424
 2298SOL    HW118530   4.253   4.626  12.705 -0.6868 -0.2256  0.6660
 2298SOL    HW218531   4.307   4.495  12.663  1.6563  1.9748  0.2667
 2299SOL     OW18532   1.817   3.925  10.833  0.1703 -0.0371 -0.2734
 2299SOL    HW118533   1.785   3.845  10.791 -0.7153  1.6930 -2.8936
 2299SOL    HW218534   1.763   3.916  10.912  0.8799  1.0778  0.3389
 2300SOL     OW18535   0.106   2.834   8.878 -0.1983 -0.1926  0.1120
 2300SOL    HW118536   0.049   2.763   8.848 -1.0270  0.0084  1.1979
 2300SOL    HW218537   0.127   2.791   8.961  1.2987 -0.1625 -0.2664
 2301SOL     OW18538   2.420   4.456   9.777  0.7122 -0.0793 -0.3510
 2301SOL    HW118539   2.458   4.451   9.865  0.7162  1.9342 -0.2260
 2301SOL    HW218540   2.334   4.494   9.796  0.6866 -1.2120  1.8454
 2302SOL     OW18541   3.328   2.519   8.318 -0.8832  0.8187 -0.5467
 2302SOL    HW118542   3.411   2.516   8.271  0.6836 -0.3820  2.3010
 2302SOL    HW218543   3.313   2.614   8.322 -1.4124  0.8059 -2.4522
 2303SOL     OW18544   3.680   3.443   1.998  0.3315 -1.2280 -0.3502
 2303SOL    HW118545   3.636   3.500   2.061  0.8376 -0.1699 -0.9504
 2303SOL    HW218546   3.690   3.514   1.933 -0.0801  0.2651  1.2185
 2304SOL     OW18547   2.928   0.139   1.834 -0.3104  0.0423 -0.2767
 2304SOL    HW118548   2.911   0.208   1.770  3.9206  1.5973  0.3409
 2304SOL    HW218549   2.892   0.062   1.789  1.9446 -0.6357 -0.8893
 2305SOL     OW18550   4.571   4.307   6.868 -0.4965 -0.2290 -0.2760
 2305SOL    HW118551   4.661   4.276   6.876 -0.0185  0.5721 -2.7681
 2305SOL    HW218552   4.543   4.298   6.960 -0.1244 -0.1506 -0.1545
 2306SOL     OW18553   2.722   2.449   5.640  0.1302 -0.2735  0.0923
 2306SOL    HW118554   2.704   2.356   5.629 -1.0593 -0.3825  2.9789
 2306SOL    HW218555   2.701   2.466   5.732  1.8275 -0.9608  0.6150
 2307SOL     OW18556   1.959   0.104   9.143  0.3504  0.1832 -0.7297
 2307SOL    HW118557   2.052   0.085   9.153  0.1881 -0.0743  0.3354
 2307SOL    HW218558   1.952   0.155   9.224 -1.6839 -0.3233 -0.5742
 2308SOL     OW18559   1.554   2.913  10.080 -0.3335  0.5009 -0.3641
 2308SOL    HW118560   1.555   2.965  10.161  2.9073  0.3378 -0.3013
 2308SOL    HW218561   1.609   2.840  10.110 -2.4361 -0.7849  0.3886
 2309SOL     OW18562   0.468   3.585   1.765 -0.2490 -0.5999 -0.0861
 2309SOL    HW118563   0.393   3.637   1.796  1.2754  0.3757  1.9841
 2309SOL    HW218564   0.501   3.552   1.849 -0.2305  0.8946  0.4991
 2310SOL     OW18565   2.849   0.887  12.785  0.5816  0.1321  0.4626
 2310SOL    HW118566   2.881   0.847  12.704 -1.5630  1.5531 -1.0893
 2310SOL    HW218567   2.908   0.847  12.848 -1.1983 -1.3316  1.2090
 2311SOL     OW18568   0.803   4.332   2.472  0.0302 -0.5671 -0.3968
 2311SOL    HW118569   0.773   4.241   2.477 -0.1211 -0.4722  0.3176
 2311SOL    HW218570   0.879   4.329   2.413  0.0957 -0.0527 -0.3357
 2312SOL     OW18571   0.368   3.671   6.734 -0.2997  0.1576  0.2325
 2312SOL    HW118572   0.460   3.686   6.755 -0.7182  0.7926  1.5934
 2312SOL    HW218573   0.355   3.706   6.646 -0.0602 -0.8199 -0.1903
 2313SOL     OW18574   1.574   2.063   5.160 -0.0496  0.5702  0.0579
 2313SOL    HW118575   1.624   1.983   5.144  0.7334  1.0259  0.2632
 2313SOL    HW218576   1.552   2.084   5.069 -1.2304 -1.0997 -0.0407
 2314SOL     OW18577   2.724   2.417  10.762  0.2098  0.1300 -0.1650
 2314SOL    HW118578   2.788   2.488  10.773  1.4246 -1.0078  0.1695
 2314SOL    HW218579   2.749   2.364  10.838  1.5683  1.7483  0.5269
 2315SOL     OW18580   2.370   1.457   5.626  0.0043 -0.4153 -0.5788
 2315SOL    HW118581   2.423   1.536   5.617  1.1525 -0.9267  1.7819
 2315SOL    HW218582   2.389   1.453   5.719  1.0405 -0.9664 -0.8103
 2316SOL     OW18583   0.152   1.476  13.070 -0.1246 -0.4519  0.4715
 2316SOL    HW118584   0.189   1.521  12.994  2.5083 -1.3048  1.2350
 2316SOL    HW218585   0.058   1.489  13.056  0.0124 -0.7303 -0.6887
 2317SOL     OW18586   0.896   0.242   2.974  0.4455  0.6501 -0.3452
 2317SOL    HW118587   0.865   0.303   2.907 -0.2878 -1.6275 -2.0644
 2317SOL    HW218588   0.936   0.181   2.913  0.2983 -1.3362  1.5429
 2318SOL     OW18589   2.907   1.032   1.941  0.1515  0.2452 -0.0680
 2318SOL    HW118590   2.944   0.957   1.896  1.1086  0.6013  0.1290
 2318SOL    HW218591   2.818   1.002   1.962 -0.8870  1.1904 -3.2112
 2319SOL     OW18592   0.872   0.630   8.566  0.3045 -0.1365  0.2285
 2319SOL    HW118593   0.961   0.628   8.603 -0.2660  0.4587  1.6357
 2319SOL    HW218594   0.827   0.562   8.617  1.2945  0.1151  1.4423
 2320SOL     OW18595   0.540   2.557   3.622  0.2993 -0.6749 -0.1664
 2320SOL    HW118596   0.450   2.528   3.605 -0.3155  0.1959  1.5841
 2320SOL    HW218597   0.582   2.490   3.568 -1.0780 -1.4318 -0.2885
 2321SOL     OW18598   3.816   3.353  15.272  0.3789  0.0928 -0.7289
 2321SOL    HW118599   3.774   3.421  15.219  0.5184 -0.5932 -1.7200
 2321SOL    HW218600   3.836   3.408  15.348 -5.1151  0.0770  0.6633
 2322SOL     OW18601   3.597   0.444   6.983  0.4194 -0.0472 -0.1400
 2322SOL    HW118602   3.676   0.486   6.950 -0.7126 -0.3376 -3.2883
 2322SOL    HW218603   3.612   0.468   7.074  1.2700  0.2483 -0.3605
 2323SOL     OW18604   0.111   0.068   3.062  0.4477  0.1791 -0.2373
 2323SOL    HW118605   0.095   0.151   3.017 -2.1606 -0.0974  0.1682
 2323SOL    HW218606   0.091   0.091   3.153  1.9064 -2.1198  0.6601
 2324SOL     OW18607   1.573   3.680   4.272 -0.2765 -0.1467  0.0402
 2324SOL    HW118608   1.629   3.758   4.263 -1.8781  1.0770  0.6797
 2324SOL    HW218609   1.490   3.708   4.233 -0.3519 -1.7285 -0.9276
 2325SOL     OW18610   3.881   2.027   2.436  0.2371  0.3977  0.2009
 2325SOL    HW118611   3.902   2.078   2.357  1.3418 -0.0780  0.1955
 2325SOL    HW218612   3.804   1.980   2.403  1.2103  0.7499 -2.5604
 2326SOL     OW18613   3.779   4.418  10.796 -0.4769 -0.1781 -0.0959
 2326SOL    HW118614   3.769   4.377  10.710  0.0265 -0.1433 -0.1727
 2326SOL    HW218615   3.798   4.344  10.854 -0.1994 -1.5119 -1.8882
 2327SOL     OW18616   0.206   1.201   3.313  0.3998  0.4499 -0.1913
 2327SOL    HW118617   0.120   1.200   3.272  1.6240  0.2912 -2.7277
 2327SOL    HW218618   0.243   1.285   3.287  1.7098 -0.0855 -0.0355
 2328SOL     OW18619   1.187   1.041  17.326  0.1092 -0.3938  0.5351
 2328SOL    HW118620   1.134   1.030  17.405 -0.5646 -0.5634  0.0586
 2328SOL    HW218621   1.192   0.947  17.306  0.7351 -0.6208  1.7082
 2329SOL     OW18622   1.281   1.848   0.760 -0.2838 -0.1496  0.4843
 2329SOL    HW118623   1.334   1.769   0.769  1.0574  0.7372  0.2657
 2329SOL    HW218624   1.221   1.820   0.691  0.7544 -1.6423  0.1892
 2330SOL     OW18625   3.746   2.982   8.718  0.3631  0.3987  0.2166
 2330SOL    HW118626   3.713   3.062   8.759  2.0372  1.6423 -0.8535
 2330SOL    HW218627   3.710   2.933   8.791  2.2751 -0.6190  0.4669
 2331SOL     OW18628   0.047   0.439   3.455 -0.1449 -0.1945  0.2033
 2331SOL    HW118629   0.034   0.384   3.378  1.1982 -1.6791  1.0263
 2331SOL    HW218630   0.119   0.492   3.420 -1.6824  0.8285 -1.3513
 2332SOL     OW18631   3.122   0.677   2.330  0.6055  0.7967 -0.0247
 2332SOL    HW118632   3.187   0.648   2.395  1.7401 -0.0162 -1.5187
 2332SOL    HW218633   3.050   0.620   2.357  1.6257  0.5884  2.2847
 2333SOL     OW18634   1.426   4.362   6.100 -0.0021 -0.3830 -0.0664
 2333SOL    HW118635   1.454   4.361   6.191 -0.1577  0.0328 -0.0153
 2333SOL    HW218636   1.350   4.420   6.110 -0.0703 -0.2715 -1.2045
 2334SOL     OW18637   0.902   3.090   6.983 -0.0165 -0.0967 -0.8911
 2334SOL    HW118638   0.927   3.138   7.063  1.2532  0.0986 -1.4117
 2334SOL    HW218639   0.961   3.016   6.998 -0.8262 -0.0657  2.5051
 2335SOL     OW18640   3.900   0.571   2.109  0.4565  0.1156 -0.6079
 2335SOL    HW118641   3.877   0.486   2.147  0.3211  0.3459 -0.1692
 2335SOL    HW218642   3.812   0.609   2.111  0.7961  0.9673 -2.4985
 2336SOL     OW18643   2.484   3.172   5.928  0.2068 -0.3565 -0.2159
 2336SOL    HW118644   2.474   3.122   6.009 -0.1918 -0.3676 -0.2712
 2336SOL    HW218645   2.476   3.106   5.859 -0.8656  0.6352 -1.0469
 2337SOL     OW18646   3.501   2.301  11.191 -0.1959 -0.7091  0.2447
 2337SOL    HW118647   3.435   2.304  11.260  0.6657 -0.2512  1.0509
 2337SOL    HW218648   3.539   2.214  11.202  0.3170 -0.6088 -0.6699
 2338SOL     OW18649   0.116   1.072   2.367  0.6943 -0.3751 -0.2387
 2338SOL    HW118650   0.088   1.031   2.449  0.8889  0.9784  0.5023
 2338SOL    HW218651   0.148   1.153   2.407  1.4321 -1.1279  0.7015
 2339SOL     OW18652   0.615   2.534  11.285  0.1144 -0.1982 -0.0938
 2339SOL    HW118653   0.608   2.609  11.226 -2.8823 -1.3512 -1.1587
 2339SOL    HW218654   0.558   2.556  11.358  0.6154  1.1183 -0.0979
 2340SOL     OW18655   2.660   4.275   3.498  0.1225 -0.4118  0.4967
 2340SOL    HW118656   2.727   4.234   3.444  1.3760 -0.7050  2.2735
 2340SOL    HW218657   2.622   4.335   3.433 -0.3615 -1.2823 -0.0245
 2341SOL     OW18658   0.497   3.577  11.912  0.7881 -0.4058  0.9189
 2341SOL    HW118659   0.416   3.582  11.962  0.4019  2.1539  0.0388
 2341SOL    HW218660   0.548   3.649  11.948  1.9118 -2.6390  3.7087
 2342SOL     OW18661   0.573   1.290  17.638  0.7904  0.2208  0.0895
 2342SOL    HW118662   0.628   1.368  17.645 -0.1163  0.7451  1.1985
 2342SOL    HW218663   0.484   1.327  17.639  0.9670  0.6140  1.2115
 2343SOL     OW18664   2.600   2.109  15.559  0.1209 -0.0379  0.4470
 2343SOL    HW118665   2.642   2.046  15.500  0.9320  0.4350  0.5200
 2343SOL    HW218666   2.556   2.042  15.612 -1.1866  1.0274  0.7004
 2344SOL     OW18667   4.555   2.014  15.311 -0.6403 -0.2759 -0.3722
 2344SOL    HW118668   4.601   1.946  15.261 -1.3629  0.6578 -2.3057
 2344SOL    HW218669   4.532   2.083  15.249  0.8718  1.3743  0.9318
 2345SOL     OW18670   1.539   0.293   8.928  0.8091 -0.4968  0.4061
 2345SOL    HW118671   1.552   0.306   8.834  3.0408  0.4123  0.8199
 2345SOL    HW218672   1.629   0.266   8.945  0.4889 -1.4432  0.5830
 2346SOL     OW18673   3.965   3.888   1.919  0.4788  0.3250 -0.2868
 2346SOL    HW118674   3.982   3.815   1.978 -0.7977 -0.2602 -0.6470
 2346SOL    HW218675   3.963   3.961   1.981 -2.3610  0.3335 -0.3785
 2347SOL     OW18676   2.098   2.927   7.751 -0.3848 -0.5454  0.0699
 2347SOL    HW118677   2.177   2.873   7.742 -0.9721 -1.5432  0.9571
 2347SOL    HW218678   2.082   2.944   7.659 -0.9461 -1.4283  0.0123
 2348SOL     OW18679   2.345   3.444   8.152  0.1146  0.1585 -0.4407
 2348SOL    HW118680   2.402   3.432   8.228 -1.4294 -2.5016  0.2806
 2348SOL    HW218681   2.311   3.356   8.137  1.1519 -0.2083 -0.6335
 2349SOL     OW18682   0.809   3.110   3.867 -0.0821 -0.1666 -0.3684
 2349SOL    HW118683   0.844   3.022   3.856  0.4943  0.2224 -1.7303
 2349SOL    HW218684   0.770   3.120   3.780 -1.1308 -1.5573 -0.0422
 2350SOL     OW18685   1.656   2.212   6.066  0.0480  0.2503  0.7593
 2350SOL    HW118686   1.611   2.192   6.147 -3.2853  0.6497 -1.0040
 2350SOL    HW218687   1.625   2.301   6.045  0.2618  0.5526  1.7540
 2351SOL     OW18688   2.096   3.122  16.440 -0.2263 -0.7263  0.3002
 2351SOL    HW118689   2.185   3.097  16.466 -1.6021 -2.7007  3.1862
 2351SOL    HW218690   2.054   3.114  16.525  3.5450 -1.0312  2.1624
 2352SOL     OW18691   4.434   0.860  13.264  0.5610  0.0164 -0.1945
 2352SOL    HW118692   4.438   0.874  13.169 -0.5337  2.0009  0.0576
 2352SOL    HW218693   4.360   0.912  13.297  1.3410  1.9183 -1.4328
 2353SOL     OW18694   0.684   3.375  16.084  0.0315 -0.2836 -0.2086
 2353SOL    HW118695   0.742   3.380  16.008 -0.3630 -2.1452 -0.6142
 2353SOL    HW218696   0.597   3.390  16.048  1.0361 -0.4065 -2.6547
 2354SOL     OW18697   1.818   1.608   3.557  0.2296 -0.1867  0.1021
 2354SOL    HW118698   1.802   1.652   3.474  0.7841 -0.6984 -0.2760
 2354SOL    HW218699   1.912   1.623   3.561  0.1939 -0.0347  0.3863
 2355SOL     OW18700   3.625   1.735  11.585 -0.1758  0.0787 -0.0917
 2355SOL    HW118701   3.607   1.651  11.627  1.0047 -0.9121 -1.5425
 2355SOL    HW218702   3.574   1.805  11.625  0.0839  0.8169 -1.0546
 2356SOL     OW18703   3.984   4.152   5.929 -0.1521 -0.2291  0.2608
 2356SOL    HW118704   4.051   4.147   5.861 -0.7185  2.2214 -0.4846
 2356SOL    HW218705   4.021   4.096   5.998 -1.1097 -1.0414  0.1138
 2357SOL     OW18706   0.127   1.945   2.602  0.2863  0.0046  0.3656
 2357SOL    HW118707   0.111   1.900   2.520  0.5301  2.5614 -1.0737
 2357SOL    HW218708   0.148   2.033   2.572 -2.2552  0.2086 -0.7541
 2358SOL     OW18709   1.305   4.619   8.166 -0.1615  0.2559  0.3264
 2358SOL    HW118710   1.373   4.555   8.184  0.8100  1.3629  0.6261
 2358SOL    HW218711   1.357   4.698   8.153 -0.6711  0.5967  0.3245
 2359SOL     OW18712   3.779   3.659  11.571 -0.0382  0.4084 -0.4860
 2359SOL    HW118713   3.705   3.619  11.523 -0.4961 -0.5913  1.0414
 2359SOL    HW218714   3.807   3.733  11.517  1.4409  1.6596  2.0547
 2360SOL     OW18715   1.764   4.555   1.723 -0.6215  0.1495  0.8212
 2360SOL    HW118716   1.778   4.487   1.656  0.5673 -0.1628  1.3909
 2360SOL    HW218717   1.830   4.623   1.709 -0.6190  0.2262  1.2144
 2361SOL     OW18718   3.586   2.090   3.990  0.3573 -0.2383  0.3269
 2361SOL    HW118719   3.678   2.094   3.964  0.4968  0.4572  0.9373
 2361SOL    HW218720   3.542   2.143   3.924  0.4322 -0.2404  0.2750
 2362SOL     OW18721   0.213   2.784   5.488  0.1671  0.2911  0.0712
 2362SOL    HW118722   0.264   2.848   5.537  0.1874 -1.4312  2.2684
 2362SOL    HW218723   0.248   2.784   5.399  1.1637 -3.1216  0.4668
 2363SOL     OW18724   4.240   3.193   5.188 -0.2671  0.4756  0.0147
 2363SOL    HW118725   4.170   3.258   5.181  0.4025  0.9812 -2.2409
 2363SOL    HW218726   4.309   3.226   5.129 -1.2615 -0.2517 -1.5621
 2364SOL     OW18727   0.762   2.502   5.017 -0.1045 -0.7720  0.4010
 2364SOL    HW118728   0.767   2.598   5.020  1.0106 -0.8401  0.9749
 2364SOL    HW218729   0.807   2.466   4.941 -0.5440 -2.9881  1.2038
 2365SOL     OW18730   0.574   3.678   9.283  0.0005 -0.2685  0.0160
 2365SOL    HW118731   0.567   3.769   9.252  2.2180 -0.6240 -1.5005
 2365SOL    HW218732   0.483   3.650   9.278  0.3663 -1.3759 -0.3620
 2366SOL     OW18733   0.285   1.303  16.254 -0.0532  0.0642 -0.2141
 2366SOL    HW118734   0.275   1.376  16.314  2.7972  0.9046 -0.7786
 2366SOL    HW218735   0.378   1.281  16.252  0.2290  1.1094  1.8659
 2367SOL     OW18736   2.627   0.672   8.993 -0.3824  0.0961  0.5363
 2367SOL    HW118737   2.718   0.675   8.963 -1.1146  2.0459 -1.5369
 2367SOL    HW218738   2.619   0.754   9.042  0.0014  1.0065 -0.9293
 2368SOL     OW18739   4.706   4.623  13.538 -0.0553 -0.8001 -0.1728
 2368SOL    HW118740   4.676   4.713  13.523 -0.5611 -1.4448 -2.9858
 2368SOL    HW218741   0.040   4.616  13.472  0.4077  3.1729 -0.1087
 2369SOL     OW18742   4.213   4.248  14.632 -0.4547 -0.0558  0.0851
 2369SOL    HW118743   4.216   4.152  14.638 -1.1127 -0.0453  0.5554
 2369SOL    HW218744   4.287   4.270  14.688 -0.5234  0.7171 -0.1374
 2370SOL     OW18745   1.932   4.527   0.723 -0.0620  0.4413 -0.2608
 2370SOL    HW118746   1.875   4.503   0.797 -1.3177 -0.6572 -1.5689
 2370SOL    HW218747   2.014   4.534   0.772 -0.7795  2.0040  0.7209
 2371SOL     OW18748   1.929   4.154   7.070  0.5783 -1.3780 -0.0210
 2371SOL    HW118749   1.996   4.161   7.138 -1.8482 -0.7162  2.2656
 2371SOL    HW218750   1.850   4.183   7.116  0.3461 -0.5964 -0.9126
 2372SOL     OW18751   2.343   1.218   7.933  0.4366  0.2474 -0.0157
 2372SOL    HW118752   2.253   1.216   7.967  0.9471  0.6330  1.3415
 2372SOL    HW218753   2.385   1.297   7.967  1.0063  0.1733 -0.5442
 2373SOL     OW18754   2.236   2.618   8.049  0.2623 -0.4554  0.6461
 2373SOL    HW118755   2.192   2.534   8.063  1.4821 -1.3508 -0.9625
 2373SOL    HW218756   2.160   2.677   8.050  0.0038 -0.7797  0.0750
 2374SOL     OW18757   1.713   2.879   8.594 -0.1985 -0.1491 -0.3654
 2374SOL    HW118758   1.642   2.878   8.659 -0.0390 -0.3731 -0.1943
 2374SOL    HW218759   1.738   2.971   8.590 -3.6259  0.7999 -0.2408
 2375SOL     OW18760   1.927   0.214   8.385  0.1819 -0.2422  0.1316
 2375SOL    HW118761   1.928   0.134   8.332 -0.1679 -0.9620  1.2170
 2375SOL    HW218762   1.937   0.285   8.322 -1.3860  0.4505  0.6774
 2376SOL     OW18763   3.037   3.975   1.833 -0.0925 -0.0111  0.3536
 2376SOL    HW118764   2.953   3.933   1.853  0.3649 -0.0114  2.2947
 2376SOL    HW218765   3.030   3.992   1.739  0.4567 -0.3427  0.2534
 2377SOL     OW18766   4.688   3.498   0.367  0.9896  0.0200  0.2826
 2377SOL    HW118767   4.687   3.456   0.281 -0.4772  0.0436  0.2936
 2377SOL    HW218768   0.040   3.540   0.367  1.6118 -1.2563 -1.5257
 2378SOL     OW18769   2.760   3.147   2.027  0.2625 -0.9209 -0.1941
 2378SOL    HW118770   2.809   3.080   2.075  1.4791 -0.2464 -0.4986
 2378SOL    HW218771   2.822   3.191   1.969 -0.3618  1.5060  0.9907
 2379SOL     OW18772   2.559   1.170   1.603  0.1267 -0.0196 -0.4173
 2379SOL    HW118773   2.510   1.189   1.523  1.2334  1.2881 -0.7763
 2379SOL    HW218774   2.487   1.180   1.665  1.2544 -3.3307  1.4753
 2380SOL     OW18775   3.237   3.627   4.976 -0.1263  0.3043 -0.2212
 2380SOL    HW118776   3.213   3.536   4.992  0.4339  0.3770  1.0529
 2380SOL    HW218777   3.200   3.662   5.056  3.0094 -2.7643  2.5773
 2381SOL     OW18778   3.662   3.018   1.088  0.1943 -0.0945 -0.2880
 2381SOL    HW118779   3.754   3.034   1.109  1.3126 -4.9554 -1.5271
 2381SOL    HW218780   3.665   2.980   1.000 -1.3435 -1.2894  0.1690
 2382SOL     OW18781   1.750   0.779   4.188  0.4199 -0.5593 -0.0842
 2382SOL    HW118782   1.708   0.785   4.274  0.7577 -0.5457  0.0808
 2382SOL    HW218783   1.672   0.766   4.135  0.0062 -0.3847  0.4763
 2383SOL     OW18784   4.329   4.125  17.133  0.2961 -0.4860  0.2566
 2383SOL    HW118785   4.265   4.164  17.073 -0.8160 -1.5464  0.7655
 2383SOL    HW218786   4.287   4.060  17.189  0.4059 -0.3479  0.5004
 2384SOL     OW18787   0.453   0.128   4.021  0.7057  0.8591 -0.5304
 2384SOL    HW118788   0.481   0.149   4.110 -0.7964  0.3994  0.0486
 2384SOL    HW218789   0.445   0.219   3.991  1.6662  1.4402  0.9865
 2385SOL     OW18790   3.921   0.101  16.394  0.3936  0.0897  0.4912
 2385SOL    HW118791   3.961   0.020  16.365  1.1284 -0.3772  2.8402
 2385SOL    HW218792   3.987   0.168  16.412 -0.3527  1.4122 -1.6453
 2386SOL     OW18793   2.996   3.762   3.366  0.0382  0.4898 -0.8597
 2386SOL    HW118794   3.025   3.679   3.403 -0.3713  0.1240 -1.3565
 2386SOL    HW218795   2.970   3.805   3.448  1.0117  2.3865 -1.5288
 2387SOL     OW18796   2.557   3.951   6.159 -0.4326 -0.2797 -0.6277
 2387SOL    HW118797   2.512   3.998   6.229  1.7251 -1.1919  1.3540
 2387SOL    HW218798   2.608   3.887   6.207 -0.2138 -0.3915 -1.0070
 2388SOL     OW18799   0.045   2.721  14.087 -0.4851  0.3797  0.7345
 2388SOL    HW118800   0.063   2.690  13.998  1.3901 -3.2145  2.3544
 2388SOL    HW218801   0.057   2.816  14.084  0.6472  0.2233  0.2659
 2389SOL     OW18802   0.469   3.087  11.835  0.2551 -0.0615  0.0104
 2389SOL    HW118803   0.521   3.086  11.915  0.2143 -3.4184  0.0029
 2389SOL    HW218804   0.453   2.993  11.829  0.8695 -0.2149  0.9786
 2390SOL     OW18805   2.921   3.945   6.666 -0.0658  0.2254  0.2878
 2390SOL    HW118806   2.973   3.940   6.746 -0.1187  0.6874  0.3482
 2390SOL    HW218807   2.886   3.856   6.661 -3.0953  1.5358 -2.0092
 2391SOL     OW18808   3.297   0.585  16.994  0.1152 -0.4072 -0.2286
 2391SOL    HW118809   3.256   0.666  17.025 -1.4190 -1.3260  0.1828
 2391SOL    HW218810   3.346   0.626  16.923 -2.6014  0.2664 -1.7253
 2392SOL     OW18811   0.959   4.491  16.155  0.1605 -0.1044  0.1764
 2392SOL    HW118812   0.965   4.413  16.210 -3.9104  0.1168  0.8999
 2392SOL    HW218813   0.971   4.455  16.067 -1.1304  1.0519 -0.4612
 2393SOL     OW18814   0.324   0.935  17.552 -0.0082  0.2983  0.1175
 2393SOL    HW118815   0.383   1.005  17.526  0.2048  0.0833  0.0213
 2393SOL    HW218816   0.252   0.973  17.603  0.1586  1.7749 -0.7698
 2394SOL     OW18817   2.906   0.121  10.186 -0.5981  0.1523 -0.1355
 2394SOL    HW118818   2.870   0.164  10.264 -2.1159 -0.6111 -0.4106
 2394SOL    HW218819   2.870   0.185  10.125 -0.9645  0.1548  0.0801
 2395SOL     OW18820   3.395   0.697  17.393 -0.2528 -0.4175 -0.1736
 2395SOL    HW118821   3.477   0.654  17.418 -0.7986 -1.7369 -0.6391
 2395SOL    HW218822   3.330   0.648  17.443 -1.1273  0.5330 -0.3778
 2396SOL     OW18823   1.133   3.332   6.414  0.2259  0.0520  0.0627
 2396SOL    HW118824   1.107   3.388   6.487  1.6186  0.6211  0.1215
 2396SOL    HW218825   1.228   3.332   6.402  0.4099 -2.3982  1.4608
 2397SOL     OW18826   3.156   2.572   3.281 -0.6261 -0.5119  0.1041
 2397SOL    HW118827   3.069   2.592   3.315  0.2270  3.0139  0.2034
 2397SOL    HW218828   3.133   2.493   3.232 -0.3096  0.1928 -1.1582
 2398SOL     OW18829   3.498   3.093   6.701  0.4082  0.3580 -0.4962
 2398SOL    HW118830   3.593   3.100   6.692  0.1941 -0.4987 -3.3905
 2398SOL    HW218831   3.495   3.030   6.773  0.7000 -0.7443 -1.4579
 2399SOL     OW18832   3.887   0.709   1.453 -0.1351  0.7743  0.0357
 2399SOL    HW118833   3.806   0.699   1.403 -1.4612  0.4041  2.2556
 2399SOL    HW218834   3.862   0.782   1.509 -1.0687  1.0951 -0.7985
 2400SOL     OW18835   0.215   2.515   7.227 -0.1041 -0.3346 -0.5581
 2400SOL    HW118836   0.174   2.432   7.202 -1.9779  0.5456 -0.3853
 2400SOL    HW218837   0.167   2.578   7.174 -1.0570 -0.4739  0.1441
 2401SOL     OW18838   0.553   2.377   3.997 -0.3533 -0.0045 -0.3302
 2401SOL    HW118839   0.490   2.410   3.932 -0.2847 -1.1315 -0.9561
 2401SOL    HW218840   0.507   2.305   4.040 -0.7945 -1.0014 -2.5243
 2402SOL     OW18841   0.764   1.609   9.520 -0.1545  0.5771 -0.2022
 2402SOL    HW118842   0.846   1.584   9.562 -2.1362 -1.0893  2.6800
 2402SOL    HW218843   0.760   1.702   9.543 -2.3550  0.6121 -0.7056
 2403SOL     OW18844   2.830   4.015   7.073  0.1553  0.2212 -0.5226
 2403SOL    HW118845   2.749   4.016   7.124 -0.3806 -0.3931 -1.3710
 2403SOL    HW218846   2.823   4.090   7.015  0.6388  0.3654 -0.4008
 2404SOL     OW18847   3.108   0.252   6.793  0.2027 -0.3393  0.0497
 2404SOL    HW118848   3.171   0.289   6.855 -1.1261  1.9896 -0.0122
 2404SOL    HW218849   3.045   0.323   6.784  2.9122  2.1301  0.7472
 2405SOL     OW18850   1.480   3.997   5.702 -0.1021  0.1096 -0.4887
 2405SOL    HW118851   1.512   4.063   5.764 -0.6546  0.1941 -0.2985
 2405SOL    HW218852   1.407   3.967   5.756 -0.3601  0.4366 -0.6626
 2406SOL     OW18853   1.039   1.684   0.241  0.0607 -0.3693  1.0538
 2406SOL    HW118854   1.100   1.619   0.208  0.7502  0.7217  0.1711
 2406SOL    HW218855   1.017   1.660   0.331  0.8112  2.4497  1.9890
 2407SOL     OW18856   4.309   2.535   5.631 -0.3765 -0.1407 -0.5216
 2407SOL    HW118857   4.401   2.510   5.640 -0.6676 -0.6221  1.1896
 2407SOL    HW218858   4.289   2.551   5.724 -1.2916 -2.4664 -0.3114
 2408SOL     OW18859   3.060   0.686   5.708  0.1705  0.5874 -0.2866
 2408SOL    HW118860   3.078   0.595   5.732  0.6667  0.7945  0.1163
 2408SOL    HW218861   3.063   0.684   5.612  0.0989  0.2755 -0.2825
 2409SOL     OW18862   2.101   3.337   2.753 -0.6261  0.7159 -0.2302
 2409SOL    HW118863   2.165   3.384   2.701 -0.4276  0.6068 -0.0872
 2409SOL    HW218864   2.020   3.387   2.763  0.9860  3.0393  1.2012
 2410SOL     OW18865   2.365   1.994   2.706 -0.0244 -0.3867  0.2777
 2410SOL    HW118866   2.359   1.950   2.621  1.3258  0.8982 -0.4922
 2410SOL    HW218867   2.304   1.956   2.768 -1.6995  1.2821 -0.3521
 2411SOL     OW18868   4.686   0.225   0.283 -0.4524 -0.4202 -0.0695
 2411SOL    HW118869   0.043   0.200   0.264 -0.0443  0.3315  0.8998
 2411SOL    HW218870   4.668   0.297   0.223  1.0924 -0.2942 -0.4006
 2412SOL     OW18871   2.962   2.859   1.792  0.6303 -0.0686 -0.0256
 2412SOL    HW118872   2.993   2.770   1.805  0.0144 -0.1117  1.1056
 2412SOL    HW218873   2.870   2.845   1.771  0.5713  2.5334 -1.5765
 2413SOL     OW18874   0.914   1.420   6.131 -0.0636  0.2674  0.6536
 2413SOL    HW118875   0.935   1.503   6.089  1.1102 -0.2181  0.2635
 2413SOL    HW218876   0.823   1.440   6.149 -0.1496 -0.7444  1.3240
 2414SOL     OW18877   3.379   0.558   4.854 -0.3433 -0.4862 -0.0528
 2414SOL    HW118878   3.296   0.535   4.896 -0.3145 -1.7029 -0.6329
 2414SOL    HW218879   3.412   0.475   4.819  0.8947  0.8561 -2.0702
 2415SOL     OW18880   1.038   1.737   6.109 -0.0603  0.1841  0.5949
 2415SOL    HW118881   1.131   1.754   6.124 -0.3629  1.2041  1.2822
 2415SOL    HW218882   1.017   1.705   6.197 -0.5034 -0.4465  0.2613
 2416SOL     OW18883   2.021   3.024   2.408 -0.7616 -0.0168 -0.5541
 2416SOL    HW118884   1.959   3.019   2.336 -1.5751 -2.5860  0.3382
 2416SOL    HW218885   1.975   2.979   2.479  1.7573 -0.9417  0.4954
 2417SOL     OW18886   1.333   4.097   7.236  0.5204 -0.9321 -0.3236
 2417SOL    HW118887   1.329   4.144   7.153  0.5987 -1.5922 -0.6968
 2417SOL    HW218888   1.241   4.110   7.258  0.5550 -0.5264 -0.4015
 2418SOL     OW18889   0.608   3.041   4.697  0.2592 -0.0974 -0.2336
 2418SOL    HW118890   0.576   3.056   4.608 -0.2625 -0.9022 -0.1821
 2418SOL    HW218891   0.542   3.094   4.741  0.6958  0.0591  0.2298
 2419SOL     OW18892   3.356   0.164  11.867 -0.6008 -0.3808  0.3964
 2419SOL    HW118893   3.319   0.124  11.788  0.9248 -2.2879  0.6511
 2419SOL    HW218894   3.291   0.232  11.885  0.6574  0.3489  2.0984
 2420SOL     OW18895   3.847   4.232   8.307  0.4307  0.6018  0.3775
 2420SOL    HW118896   3.862   4.260   8.397  1.0229  0.8864  0.1921
 2420SOL    HW218897   3.782   4.163   8.319 -0.0298  1.3762  2.3403
 2421SOL     OW18898   4.708   2.704   2.179 -0.2296  0.2861 -0.4662
 2421SOL    HW118899   4.630   2.662   2.216  0.4943 -0.1088  0.5979
 2421SOL    HW218900   4.674   2.789   2.149 -0.2790  0.1399 -0.8139
 2422SOL     OW18901   2.267   3.001  14.631  0.0722 -0.0352 -0.1658
 2422SOL    HW118902   2.261   2.972  14.722  2.7242  0.4794  0.1853
 2422SOL    HW218903   2.291   2.919  14.588 -0.1035 -0.1410 -0.0576
 2423SOL     OW18904   0.433   4.181   8.628  0.4072  0.3511 -0.2667
 2423SOL    HW118905   0.518   4.199   8.588  0.4698 -0.6089 -0.5796
 2423SOL    HW218906   0.430   4.257   8.685  2.5833  1.0856 -1.1228
 2424SOL     OW18907   4.680   3.675   3.097  0.3792  0.3950  0.1102
 2424SOL    HW118908   0.027   3.717   3.124 -0.1719  0.2532  2.0403
 2424SOL    HW218909   4.688   3.595   3.149 -1.3862  0.7241  0.9111
 2425SOL     OW18910   4.540   0.640   8.120 -0.2053 -0.3162 -0.2812
 2425SOL    HW118911   4.594   0.706   8.076 -1.9599 -0.1108 -2.1592
 2425SOL    HW218912   4.554   0.674   8.208 -0.8348 -1.1398  0.1406
 2426SOL     OW18913   3.206   0.734  15.232 -0.1903  0.3756  0.4054
 2426SOL    HW118914   3.232   0.826  15.224 -0.6816  0.3749 -1.0945
 2426SOL    HW218915   3.225   0.698  15.146  0.7570 -1.0635  1.2080
 2427SOL     OW18916   3.513   1.591  15.696 -0.1540  0.4870  0.0733
 2427SOL    HW118917   3.599   1.586  15.654 -0.4367 -1.5950 -0.2684
 2427SOL    HW218918   3.542   1.647  15.768  0.6387 -1.6812  1.4553
 2428SOL     OW18919   0.216   0.322   6.503  0.3760  0.1982 -0.0181
 2428SOL    HW118920   0.271   0.327   6.424  0.2443  3.2071  0.0795
 2428SOL    HW218921   0.168   0.404   6.489  0.7578  0.4977  0.4118
 2429SOL     OW18922   1.480   4.717   1.611 -0.0037 -1.0111  0.0082
 2429SOL    HW118923   1.445   4.628   1.608 -0.1424 -0.9331 -0.6205
 2429SOL    HW218924   1.405   0.037   1.586  1.1147 -0.1456 -1.4751
 2430SOL     OW18925   4.444   0.903  17.585  0.6828  0.4491  0.1404
 2430SOL    HW118926   4.539   0.902  17.599  0.6621  0.4122  0.2821
 2430SOL    HW218927   4.420   0.991  17.556 -1.4939  0.0714  0.8029
 2431SOL     OW18928   3.335   3.008   5.724  0.5748  0.1549  0.1619
 2431SOL    HW118929   3.362   3.017   5.815  0.9000 -1.0197  0.1737
 2431SOL    HW218930   3.245   3.025   5.750 -0.1884 -2.5514 -0.7577
 2432SOL     OW18931   3.774   2.274   5.671 -0.3268 -0.0678 -0.7433
 2432SOL    HW118932   3.707   2.207   5.659  1.0676 -1.5410 -0.3565
 2432SOL    HW218933   3.789   2.309   5.584 -1.4031  0.8919 -0.5432
 2433SOL     OW18934   4.496   2.668   7.302 -0.5508 -0.2356 -0.3456
 2433SOL    HW118935   4.413   2.704   7.273  0.0247 -0.2518 -1.9784
 2433SOL    HW218936   4.508   2.727   7.377  0.6486  0.9768 -1.4952
 2434SOL     OW18937   4.368   1.071   8.881  0.0433  0.7139  0.4461
 2434SOL    HW118938   4.408   1.036   8.961  1.6244 -0.2634 -0.7683
 2434SOL    HW218939   4.359   1.161   8.912 -2.7103 -0.5744  3.4267
 2435SOL     OW18940   2.602   1.945  12.969  0.0047 -0.6336 -0.1204
 2435SOL    HW118941   2.581   2.022  13.023 -0.7887 -1.4985  0.8057
 2435SOL    HW218942   2.641   1.898  13.042 -1.9486 -1.5275  0.3479
 2436SOL     OW18943   2.054   3.435   0.468  0.4650 -0.1059 -0.4215
 2436SOL    HW118944   1.962   3.457   0.479 -0.1179 -2.3756 -0.7863
 2436SOL    HW218945   2.040   3.381   0.391 -0.7390 -0.5370  0.0973
 2437SOL     OW18946   0.380   4.628   9.628 -0.3229  0.0296 -0.5886
 2437SOL    HW118947   0.287   4.648   9.641 -0.5383 -1.3295 -0.0181
 2437SOL    HW218948   0.421   4.674   9.702  0.1395  0.7316 -1.2775
 2438SOL     OW18949   1.481   0.124   5.840 -0.3617  0.1331  0.5311
 2438SOL    HW118950   1.561   0.176   5.844 -0.0040 -0.2961 -1.0086
 2438SOL    HW218951   1.481   0.086   5.752 -0.2048  0.4169  0.4085
 2439SOL     OW18952   1.173   2.303   9.151  0.0608 -0.8983  0.3997
 2439SOL    HW118953   1.245   2.365   9.136  2.6571 -3.4714  2.2535
 2439SOL    HW218954   1.105   2.349   9.101  0.0415 -1.8333 -0.4365
 2440SOL     OW18955   0.130   3.418   6.825  0.2576 -0.3960 -0.6170
 2440SOL    HW118956   0.156   3.509   6.809 -0.0601  0.1613  1.8971
 2440SOL    HW218957   0.182   3.374   6.757  1.8934  0.1015  0.3036
 2441SOL     OW18958   1.348   4.668   0.577  0.7089  0.1522  0.5211
 2441SOL    HW118959   1.375   4.718   0.500 -0.0676  0.2346  0.3004
 2441SOL    HW218960   1.409   4.595   0.574  3.0139  2.0042  2.4937
 2442SOL     OW18961   1.040   0.309   2.683  0.2271  0.2749 -0.5091
 2442SOL    HW118962   1.077   0.224   2.659 -0.1260  0.4793 -1.7979
 2442SOL    HW218963   0.954   0.288   2.647  0.9408 -0.4203 -1.8019
 2443SOL     OW18964   2.989   1.406  13.574 -0.4324  0.4716  0.5423
 2443SOL    HW118965   2.990   1.318  13.611  1.9666 -0.2545 -1.2684
 2443SOL    HW218966   3.000   1.465  13.648  1.2021  0.8134  0.0131
 2444SOL     OW18967   0.876   2.732  12.017 -0.1629  0.1938  0.4986
 2444SOL    HW118968   0.970   2.739  12.036 -0.2074 -0.8219  1.1235
 2444SOL    HW218969   0.851   2.691  12.100  2.1685 -0.4271  0.9115
 2445SOL     OW18970   3.150   3.812   3.110  0.1384  0.1980 -0.4436
 2445SOL    HW118971   3.099   3.810   3.191  0.5411  0.4047 -0.1879
 2445SOL    HW218972   3.140   3.726   3.070 -0.0919 -0.2614  0.6142
 2446SOL     OW18973   1.996   2.052  16.226  0.0482 -0.6425 -0.5320
 2446SOL    HW118974   1.965   1.965  16.253  2.1097 -0.9982  0.6985
 2446SOL    HW218975   2.066   2.064  16.289  0.6537  0.1135 -1.3574
 2447SOL     OW18976   1.290   4.086   4.725  0.3271  0.3559  0.2774
 2447SOL    HW118977   1.308   3.993   4.736  0.0730  0.2433 -0.2456
 2447SOL    HW218978   1.378   4.124   4.730  0.0250  0.9428  1.1286
 2448SOL     OW18979   0.941   1.295   3.141  0.1442 -0.0419  0.1747
 2448SOL    HW118980   0.941   1.299   3.237 -0.1790  1.2980  0.1155
 2448SOL    HW218981   1.035   1.300   3.122  0.0655  0.9041  0.0573
 2449SOL     OW18982   1.751   1.442   5.772  0.0862 -0.3149 -0.0155
 2449SOL    HW118983   1.696   1.374   5.810  0.2158  0.4120  1.4544
 2449SOL    HW218984   1.782   1.490   5.849 -0.0036 -0.2668 -0.0089
 2450SOL     OW18985   3.610   3.713  16.102  0.6591 -0.7077 -0.2206
 2450SOL    HW118986   3.560   3.662  16.166  1.3225 -1.4222 -0.2769
 2450SOL    HW218987   3.671   3.766  16.153  1.0572 -0.1401 -1.2808
 2451SOL     OW18988   3.918   0.451   5.109 -0.7082  0.3008 -0.0535
 2451SOL    HW118989   3.860   0.377   5.128  2.2066 -1.3889  2.4207
 2451SOL    HW218990   3.951   0.435   5.021 -0.6911 -2.1365  0.3924
 2452SOL     OW18991   0.694   3.129   3.631  0.0325  0.2969  0.2018
 2452SOL    HW118992   0.749   3.099   3.559  2.3943 -0.1536  2.1965
 2452SOL    HW218993   0.609   3.100   3.600 -0.0560  2.1330 -1.2437
 2453SOL     OW18994   2.955   3.681   5.214  0.1684 -0.6538 -0.6764
 2453SOL    HW118995   2.953   3.770   5.249  0.2448 -2.0335  2.8127
 2453SOL    HW218996   2.933   3.624   5.287 -2.6929 -0.1944 -1.1807
 2454SOL     OW18997   1.078   0.851  12.098  0.1747  0.2877  0.1011
 2454SOL    HW118998   1.014   0.782  12.116  0.9054 -0.2838  0.4791
 2454SOL    HW218999   1.026   0.931  12.111 -1.2468 -0.4731 -0.9750
 2455SOL     OW19000   1.520   0.726   6.503 -0.0422 -0.7397  0.0289
 2455SOL    HW119001   1.599   0.680   6.533  0.6551  0.5928  0.2074
 2455SOL    HW219002   1.573   0.763   6.432 -0.3256  1.5163  0.9884
 2456SOL     OW19003   0.524   2.861  12.327 -0.1504  0.8602 -0.1524
 2456SOL    HW119004   0.525   2.765  12.328  1.7564  0.8925  0.4273
 2456SOL    HW219005   0.602   2.882  12.378  0.4800 -0.9558 -0.3718
 2457SOL     OW19006   3.081   0.892   7.115 -0.5515  0.5767  0.0800
 2457SOL    HW119007   3.136   0.880   7.193  0.4121  1.8979 -0.3986
 2457SOL    HW219008   3.058   0.984   7.124  3.1367  1.7287 -2.2760
 2458SOL     OW19009   0.990   2.639   5.962  0.0795 -0.3141 -0.0777
 2458SOL    HW119010   1.080   2.648   5.994 -0.6946  0.0025  2.0329
 2458SOL    HW219011   0.988   2.725   5.919  0.8426 -0.1534  0.2077
 2459SOL     OW19012   0.682   0.080   2.354  0.1803 -0.0124 -0.1744
 2459SOL    HW119013   0.658   0.173   2.361 -0.2275 -0.0296 -1.3552
 2459SOL    HW219014   0.777   0.079   2.347  0.3727  2.9628  1.9055
 2460SOL     OW19015   0.778   1.004  15.549  0.0573 -0.0217 -0.2969
 2460SOL    HW119016   0.774   0.939  15.478  1.3288 -0.2323 -0.1770
 2460SOL    HW219017   0.746   1.082  15.503 -0.0346  0.2749  0.2787
 2461SOL     OW19018   1.878   2.524  13.266  0.2799  0.2919  0.0140
 2461SOL    HW119019   1.866   2.612  13.229 -0.5924  0.5985  1.0299
 2461SOL    HW219020   1.798   2.482  13.235  1.4201 -1.5327 -0.4599
 2462SOL     OW19021   2.484   0.832   3.906  0.4071  0.3005 -0.4822
 2462SOL    HW119022   2.422   0.854   3.837 -0.7300 -1.0364  0.1306
 2462SOL    HW219023   2.538   0.762   3.870  0.9291 -0.1100  1.0702
 2463SOL     OW19024   1.176   0.728   9.690  0.7883  0.2833  0.4703
 2463SOL    HW119025   1.112   0.659   9.671  2.5252 -1.2787  0.3626
 2463SOL    HW219026   1.250   0.705   9.634 -0.7281 -0.3522 -1.2867
 2464SOL     OW19027   4.478   4.440   5.370  0.2815  0.1153 -0.4699
 2464SOL    HW119028   4.483   4.423   5.276 -1.4579 -0.5575 -0.4250
 2464SOL    HW219029   4.573   4.434   5.383  0.2602 -0.9287 -0.7991
 2465SOL     OW19030   3.023   2.414   2.274  0.2638 -0.1897  0.1087
 2465SOL    HW119031   3.062   2.347   2.217 -2.4532  0.6752 -2.7526
 2465SOL    HW219032   2.932   2.385   2.276  0.6067 -1.2587  0.2895
 2466SOL     OW19033   3.935   1.806   3.910 -0.0250  0.0825  0.3535
 2466SOL    HW119034   3.886   1.888   3.918  1.9561  1.3368 -0.3068
 2466SOL    HW219035   3.883   1.743   3.959 -1.4721  2.0111  1.3019
 2467SOL     OW19036   4.061   2.166   5.573  0.3940  0.5119 -0.4248
 2467SOL    HW119037   4.031   2.185   5.662 -0.0213  1.3833 -0.7525
 2467SOL    HW219038   4.096   2.078   5.587 -1.0241  0.1208  0.7077
 2468SOL     OW19039   2.175   2.510   7.403  0.3413 -0.1323 -0.2212
 2468SOL    HW119040   2.238   2.519   7.475 -0.0537  1.4672 -0.0732
 2468SOL    HW219041   2.208   2.428   7.367  0.3520  0.5452 -1.7665
 2469SOL     OW19042   4.148   1.189   3.183  0.1954  0.3181 -0.3320
 2469SOL    HW119043   4.069   1.139   3.205  1.3585 -1.1527  0.4238
 2469SOL    HW219044   4.221   1.130   3.171  1.3240  1.2772  1.7915
 2470SOL     OW19045   4.065   1.933   6.839 -0.2964 -0.3470 -0.2531
 2470SOL    HW119046   4.007   1.995   6.884  0.0404  0.5316 -1.0374
 2470SOL    HW219047   3.999   1.872   6.805  1.0917 -0.9937 -1.7683
 2471SOL     OW19048   3.328   2.070   8.710 -0.5505  0.2491 -0.4872
 2471SOL    HW119049   3.372   1.996   8.668  0.5001  0.4109  0.3273
 2471SOL    HW219050   3.255   2.022   8.750 -0.0935  2.6123  3.1558
 2472SOL     OW19051   4.056   4.569  12.990 -0.2227  0.1821  0.8401
 2472SOL    HW119052   4.142   4.599  12.960 -0.4728 -0.0565 -0.0984
 2472SOL    HW219053   3.992   4.585  12.922  1.7884  0.8263 -0.8877
 2473SOL     OW19054   2.928   0.699  17.040 -0.4913 -0.1319  0.2092
 2473SOL    HW119055   2.957   0.670  17.127  0.1822  0.8389  0.3110
 2473SOL    HW219056   3.000   0.678  16.981 -3.5734 -0.0144 -3.5937
 2474SOL     OW19057   2.467   2.549  15.395 -0.4147 -0.3592 -0.3107
 2474SOL    HW119058   2.407   2.577  15.325  0.9778  0.8333 -1.0263
 2474SOL    HW219059   2.509   2.468  15.365  0.8065 -0.0363  0.5256
 2475SOL     OW19060   1.143   3.292   2.472  0.6112 -0.3736  0.2998
 2475SOL    HW119061   1.182   3.269   2.389  1.0434  0.6490  0.2169
 2475SOL    HW219062   1.050   3.299   2.450 -0.0966 -1.7788  2.7939
 2476SOL     OW19063   1.615   1.583   7.208 -0.0753 -0.0138 -0.7319
 2476SOL    HW119064   1.569   1.664   7.231 -0.1423 -0.5540  1.0104
 2476SOL    HW219065   1.556   1.544   7.143  0.9421 -2.0647 -0.4242
 2477SOL     OW19066   1.547   4.674  13.710 -0.4797  0.0782 -0.3750
 2477SOL    HW119067   1.625   4.697  13.761  0.5299  2.5359 -3.0534
 2477SOL    HW219068   1.503   0.024  13.719  0.5789  0.5903  0.0425
 2478SOL     OW19069   2.385   2.916  10.251 -0.1332 -0.2095  0.8717
 2478SOL    HW119070   2.433   2.833  10.247 -0.8390 -0.5997  0.6035
 2478SOL    HW219071   2.388   2.940  10.344 -0.5349 -0.9897  1.0869
 2479SOL     OW19072   0.294   2.356   9.063  0.5502 -0.1083 -0.2204
 2479SOL    HW119073   0.201   2.335   9.054  0.2260  0.4540  1.7962
 2479SOL    HW219074   0.306   2.423   8.995  0.0763  0.3252  0.1271
 2480SOL     OW19075   2.915   4.469   5.162 -0.2106 -0.4093 -0.3773
 2480SOL    HW119076   2.897   4.558   5.131 -1.3179 -0.3412  0.4374
 2480SOL    HW219077   2.895   4.487   5.254  1.9068 -0.7483  0.1528
 2481SOL     OW19078   2.829   0.386   2.121 -0.1515 -0.2206  0.2790
 2481SOL    HW119079   2.910   0.338   2.140  0.0413  0.9236  2.3805
 2481SOL    HW219080   2.867   0.474   2.119 -2.0833  0.5564 -2.0786
 2482SOL     OW19081   1.675   2.119   3.788 -0.0093  0.7063  0.2853
 2482SOL    HW119082   1.656   2.210   3.810 -4.4892  0.0036 -0.5227
 2482SOL    HW219083   1.602   2.071   3.828  0.1159 -0.0763 -0.4278
 2483SOL     OW19084   1.147   3.520   2.233  0.0207 -0.0421  0.2211
 2483SOL    HW119085   1.126   3.521   2.140 -1.5598  1.2166  0.5925
 2483SOL    HW219086   1.086   3.455   2.268  0.7905 -0.8466  0.0851
 2484SOL     OW19087   4.282   3.030   6.505  0.2111  0.0064 -0.0476
 2484SOL    HW119088   4.198   3.074   6.493  2.0320  3.1624 -1.1986
 2484SOL    HW219089   4.318   3.096   6.564 -0.4162  1.2265 -1.0250
 2485SOL     OW19090   3.453   3.997   7.954  0.2449 -0.0913 -0.1986
 2485SOL    HW119091   3.512   3.974   7.882  2.4422  1.1723  1.2117
 2485SOL    HW219092   3.368   3.990   7.912 -0.4043  1.8689  0.7994
 2486SOL     OW19093   1.193   2.331   2.093 -0.0854 -0.0868 -0.0931
 2486SOL    HW119094   1.217   2.249   2.051 -0.0358 -0.5529  0.8392
 2486SOL    HW219095   1.107   2.317   2.132  0.7612  1.4592  2.3521
 2487SOL     OW19096   0.473   0.326   0.658  0.2217  1.0709  0.1367
 2487SOL    HW119097   0.423   0.308   0.737 -0.4619  1.6517 -0.1622
 2487SOL    HW219098   0.502   0.238   0.636  0.3283  1.1016  0.1503
 2488SOL     OW19099   3.233   3.459  10.576 -0.1248 -0.1079 -0.1392
 2488SOL    HW119100   3.243   3.379  10.628 -0.7173  0.2477  0.5140
 2488SOL    HW219101   3.157   3.437  10.522  0.1605  1.9576 -1.3889
 2489SOL     OW19102   4.152   3.364   8.098  0.2156 -0.0835  0.0645
 2489SOL    HW119103   4.220   3.349   8.032  0.8666  1.1090  0.4806
 2489SOL    HW219104   4.076   3.385   8.044  1.7877  3.1864 -0.8884
 2490SOL     OW19105   0.447   2.581   6.512 -0.0375  0.9993 -0.1340
 2490SOL    HW119106   0.518   2.588   6.576  1.3788 -1.3906 -1.4358
 2490SOL    HW219107   0.500   2.553   6.437 -1.7753  2.3077 -1.8409
 2491SOL     OW19108   0.905   3.577   8.538  0.3822  0.1051 -0.0444
 2491SOL    HW119109   0.993   3.572   8.499  0.3383 -0.5513 -0.0629
 2491SOL    HW219110   0.863   3.634   8.473  0.1233  2.3012  2.0447
 2492SOL     OW19111   2.688   0.123  15.558  0.5581  0.1586 -0.1100
 2492SOL    HW119112   2.632   0.179  15.612 -2.6821 -2.6547 -0.5628
 2492SOL    HW219113   2.770   0.171  15.553  1.9873 -2.6216 -3.3661
 2493SOL     OW19114   3.644   4.074   6.684 -0.0770  0.3677 -0.0728
 2493SOL    HW119115   3.593   4.059   6.763  0.2790 -1.0555 -0.1087
 2493SOL    HW219116   3.586   4.028   6.622 -0.5061  1.2194 -0.2989
 2494SOL     OW19117   0.099   2.480   2.348 -0.6467  0.0516  0.0314
 2494SOL    HW119118   0.106   2.400   2.297 -0.9914 -1.6585  2.6705
 2494SOL    HW219119   0.067   2.546   2.286 -0.3837  0.5795  0.4561
 2495SOL     OW19120   0.362   3.697   8.495  0.2473  0.8076  0.1130
 2495SOL    HW119121   0.419   3.774   8.502  0.8003  0.3740  0.3867
 2495SOL    HW219122   0.287   3.728   8.444  0.5303 -1.8686 -1.9498
 2496SOL     OW19123   1.934   0.748  14.133 -0.0809  0.3551  0.1607
 2496SOL    HW119124   1.956   0.663  14.170 -2.1931 -0.5126 -0.5385
 2496SOL    HW219125   1.930   0.737  14.039 -1.0990  2.1282 -0.0150
 2497SOL     OW19126   3.398   2.216   3.024  0.0384  0.1929 -0.5328
 2497SOL    HW119127   3.431   2.135   3.064 -1.7143 -0.4752 -0.4262
 2497SOL    HW219128   3.344   2.185   2.951 -3.0029  0.1488  1.7541
 2498SOL     OW19129   1.967   2.282   0.804  0.5542 -0.0900 -0.4541
 2498SOL    HW119130   1.903   2.339   0.847  2.6440  2.8845 -1.2863
 2498SOL    HW219131   2.009   2.276   0.890  1.1696  0.2280 -0.7334
 2499SOL     OW19132   0.442   1.711   3.306 -0.5326  0.0069  0.0963
 2499SOL    HW119133   0.478   1.660   3.378 -0.7589 -1.6338 -0.9462
 2499SOL    HW219134   0.364   1.662   3.281 -3.4452  3.0145  3.2749
 2500SOL     OW19135   3.590   3.506   4.245 -0.0177  0.4245  0.4099
 2500SOL    HW119136   3.649   3.480   4.175  1.0919 -0.2777  1.6345
 2500SOL    HW219137   3.514   3.452   4.223  1.3276 -1.3551  0.1683
 2501SOL     OW19138   0.653   2.999   5.981 -0.8047 -0.2154  0.5513
 2501SOL    HW119139   0.694   3.067   6.035  0.6989 -0.6043 -0.1019
 2501SOL    HW219140   0.564   2.997   6.016 -0.4482 -1.2420  1.3838
 2502SOL     OW19141   0.171   2.899   4.868  0.0292  0.0551 -0.2692
 2502SOL    HW119142   0.219   2.981   4.861  0.0242  0.2734  2.0776
 2502SOL    HW219143   0.122   2.919   4.948  1.2237 -1.1173  0.7771
 2503SOL     OW19144   1.411   3.951   4.048 -0.3531  0.6537 -0.2822
 2503SOL    HW119145   1.395   3.858   4.033  1.4945  0.0751  1.2831
 2503SOL    HW219146   1.425   3.951   4.143  1.2021  0.5948 -0.5023
 2504SOL     OW19147   4.062   0.494   2.894  0.3881  0.0059 -0.1540
 2504SOL    HW119148   4.022   0.579   2.911  0.0489  0.1246 -1.5630
 2504SOL    HW219149   3.990   0.449   2.850 -1.5833  2.3498  0.6989
 2505SOL     OW19150   0.224   3.246   6.400 -0.5908  0.1277 -0.2043
 2505SOL    HW119151   0.264   3.308   6.339 -2.0007  2.3099  1.0677
 2505SOL    HW219152   0.231   3.156   6.367 -0.8241 -0.7383  2.1103
 2506SOL     OW19153   0.500   0.359   9.278  0.3822 -0.3415 -0.1506
 2506SOL    HW119154   0.421   0.412   9.266 -0.0443 -0.5169  1.8549
 2506SOL    HW219155   0.500   0.317   9.191  0.5713 -1.2296  0.2750
 2507SOL     OW19156   2.156   1.750   4.978 -0.1311 -0.0197  0.1422
 2507SOL    HW119157   2.223   1.782   5.037 -1.8147  0.4206  1.8125
 2507SOL    HW219158   2.202   1.725   4.898  0.9285 -0.1106  0.7830
 2508SOL     OW19159   2.073   3.284   0.264 -0.4352  0.1047  0.0476
 2508SOL    HW119160   2.150   3.234   0.238  0.0976  0.7074  0.4668
 2508SOL    HW219161   2.042   3.325   0.183 -2.7089 -0.5556  0.5617
 2509SOL     OW19162   4.015   0.939   3.209  0.4856 -0.1754 -0.2018
 2509SOL    HW119163   4.009   0.860   3.263 -0.9211 -0.9331 -1.4477
 2509SOL    HW219164   3.934   0.983   3.236  1.4503  1.3614  0.1998
 2510SOL     OW19165   4.409   1.393  14.288  0.2693 -0.0630 -0.8963
 2510SOL    HW119166   4.410   1.486  14.310 -0.0330  0.3305 -2.4808
 2510SOL    HW219167   4.503   1.376  14.283  0.1927 -0.7441 -0.0827
 2511SOL     OW19168   3.227   2.999   7.073 -0.0452  0.3929  0.1191
 2511SOL    HW119169   3.273   2.924   7.111  0.4706  1.2250  1.1355
 2511SOL    HW219170   3.260   3.067   7.132 -2.9578 -0.6937  2.9930
 2512SOL     OW19171   1.476   2.292  14.576 -0.4021  0.5129  0.2033
 2512SOL    HW119172   1.503   2.272  14.486 -0.7757  0.6587  0.0574
 2512SOL    HW219173   1.554   2.333  14.613 -0.1062  0.2204 -0.1023
 2513SOL     OW19174   2.820   1.236   9.791  0.1705  0.5172  0.2673
 2513SOL    HW119175   2.815   1.203   9.701  1.4329 -0.3884  0.5165
 2513SOL    HW219176   2.879   1.311   9.789 -0.7311  1.2211  0.1402
 2514SOL     OW19177   4.567   3.352  14.529  0.6153  0.2234 -0.5137
 2514SOL    HW119178   4.561   3.259  14.509  0.5770  0.4959 -1.7643
 2514SOL    HW219179   4.476   3.382  14.535  0.7477  0.7610 -1.1778
 2515SOL     OW19180   2.796   0.149   1.133  0.0720  0.0678  0.3004
 2515SOL    HW119181   2.856   0.147   1.207  1.1756 -1.8096 -0.6271
 2515SOL    HW219182   2.712   0.149   1.179  0.1449  1.1538  0.4306
 2516SOL     OW19183   1.628   3.571   0.297 -0.3091 -0.1931 -0.2962
 2516SOL    HW119184   1.628   3.477   0.316 -0.5412 -0.0261  0.5275
 2516SOL    HW219185   1.644   3.608   0.384 -0.7698  0.0840 -0.3272
 2517SOL     OW19186   1.331   2.960  15.067 -0.1018 -0.1046 -0.1672
 2517SOL    HW119187   1.394   3.024  15.031 -1.5506  1.1590 -0.4414
 2517SOL    HW219188   1.343   2.891  15.002  2.2989 -2.0753  2.3367
 2518SOL     OW19189   1.079   2.909   9.999 -0.2123 -0.1270 -0.0333
 2518SOL    HW119190   1.170   2.878   9.993  0.4609  1.7832  0.2985
 2518SOL    HW219191   1.090   2.987  10.054  2.3561  1.2216 -2.4313
 2519SOL     OW19192   1.813   1.934   3.147 -0.2541 -0.2238  0.1044
 2519SOL    HW119193   1.851   1.851   3.120 -1.2963 -1.2638  1.7918
 2519SOL    HW219194   1.820   1.974   3.061 -0.4892 -0.0690  0.1551
 2520SOL     OW19195   1.704   4.586   7.117  0.1808  0.1033  0.0794
 2520SOL    HW119196   1.720   4.612   7.208  0.9976 -1.8957  0.4974
 2520SOL    HW219197   1.643   4.654   7.089 -0.8740 -0.3456  1.2987
 2521SOL     OW19198   0.458   0.363   9.672 -0.2399  0.0507 -0.1119
 2521SOL    HW119199   0.428   0.418   9.745 -0.5682 -0.9200  0.4752
 2521SOL    HW219200   0.381   0.312   9.644 -0.9457  1.2946 -0.4686
 2522SOL     OW19201   1.303   4.384   4.566  0.0851  0.1997 -0.2130
 2522SOL    HW119202   1.314   4.435   4.486  0.8344  1.5014  0.7267
 2522SOL    HW219203   1.247   4.311   4.538 -0.4654  0.5436 -0.0203
 2523SOL     OW19204   1.522   4.483   2.906  0.4270  0.2812 -0.0937
 2523SOL    HW119205   1.501   4.428   2.831 -0.3135  1.2357 -0.5759
 2523SOL    HW219206   1.618   4.482   2.911  0.4156  0.8427  0.2766
 2524SOL     OW19207   2.214   0.052   2.533  0.0606  0.1257 -0.3184
 2524SOL    HW119208   2.215   4.729   2.456 -1.0554  1.6301 -1.4376
 2524SOL    HW219209   2.278   0.118   2.508 -0.3034  0.7733  0.4591
 2525SOL     OW19210   0.529   1.037   9.837  0.0796 -0.3313  0.4284
 2525SOL    HW119211   0.513   0.953   9.880 -0.6721 -0.3018  0.2084
 2525SOL    HW219212   0.600   1.072   9.890  0.0230 -0.4147  0.5602
 2526SOL     OW19213   3.089   4.618   3.159 -0.4725  0.2735 -0.1606
 2526SOL    HW119214   3.072   4.592   3.250 -1.6832  1.1050 -0.1414
 2526SOL    HW219215   3.182   4.596   3.162 -0.1649  1.7263  1.2322
 2527SOL     OW19216   1.434   2.458   1.894  0.0370 -0.0719  0.1433
 2527SOL    HW119217   1.436   2.549   1.923  1.3025 -0.1412  0.2723
 2527SOL    HW219218   1.346   2.427   1.913  0.4800 -0.6645  1.2949
 2528SOL     OW19219   2.022   2.580   2.399  0.0788  0.2326  0.6900
 2528SOL    HW119220   1.975   2.500   2.376 -2.6643  1.9423  0.3462
 2528SOL    HW219221   1.998   2.640   2.328  0.6312 -2.6069 -1.8990
 2529SOL     OW19222   1.490   4.482   0.828 -0.2959 -0.1118 -0.1756
 2529SOL    HW119223   1.396   4.496   0.843  0.0160  0.6514  1.0451
 2529SOL    HW219224   1.511   4.473   0.735 -0.1182  1.4509 -0.2826
 2530SOL     OW19225   4.032   4.575  11.785  0.1586 -0.2028 -0.3404
 2530SOL    HW119226   4.028   4.507  11.718  0.9440 -1.5282  0.9699
 2530SOL    HW219227   3.958   4.555  11.841  0.0303 -1.1094 -0.8345
 2531SOL     OW19228   2.387   4.008   9.471 -0.0933  0.1965  0.5131
 2531SOL    HW119229   2.443   3.998   9.394 -0.2531 -1.0333  0.5583
 2531SOL    HW219230   2.417   3.933   9.522  1.5930  0.8264  0.4546
 2532SOL     OW19231   3.839   3.568   5.341  0.2995  0.1119  1.1613
 2532SOL    HW119232   3.778   3.571   5.415 -0.4740 -3.0030  0.6545
 2532SOL    HW219233   3.770   3.558   5.276 -0.1564  1.0271  1.5121
 2533SOL     OW19234   3.303   3.211   1.048 -0.4658 -0.0118 -0.0834
 2533SOL    HW119235   3.261   3.145   1.102  0.3493 -1.2585 -0.9634
 2533SOL    HW219236   3.293   3.293   1.096 -1.0087 -1.1307  1.6926
 2534SOL     OW19237   1.356   1.767   2.271 -0.0051  0.2231 -0.4883
 2534SOL    HW119238   1.339   1.861   2.265  0.7879  0.2192 -2.7820
 2534SOL    HW219239   1.312   1.745   2.353  0.5666 -0.2300 -0.3015
 2535SOL     OW19240   0.843   2.317   3.862 -0.1240 -0.3242 -0.1816
 2535SOL    HW119241   0.775   2.251   3.853 -0.5289 -0.0164  0.5904
 2535SOL    HW219242   0.784   2.392   3.868  1.2523  0.7642 -0.0969
 2536SOL     OW19243   0.436   1.412   7.223  1.0420 -0.6222  0.3482
 2536SOL    HW119244   0.368   1.471   7.254  0.4930 -1.1080  0.0791
 2536SOL    HW219245   0.437   1.435   7.130 -1.3867  1.8764  0.9705
 2537SOL     OW19246   0.893   2.860   3.862 -0.2834  0.0292  0.5141
 2537SOL    HW119247   0.962   2.812   3.906 -1.4902 -1.5770  0.6385
 2537SOL    HW219248   0.834   2.790   3.834  0.1068  0.3214 -1.0468
 2538SOL     OW19249   2.143   0.622   1.722  0.0069  0.1113  0.2340
 2538SOL    HW119250   2.173   0.590   1.637 -2.1663 -0.2856 -0.3837
 2538SOL    HW219251   2.227   0.633   1.767  0.1895 -0.3880  0.0076
 2539SOL     OW19252   1.357   2.035  16.278  0.0106 -0.0253  0.5776
 2539SOL    HW119253   1.440   2.068  16.312  1.1193 -0.8239 -1.3651
 2539SOL    HW219254   1.298   2.099  16.317  0.5452  1.3488 -0.8812
 2540SOL     OW19255   4.253   2.378   5.950 -0.4968 -0.0573  0.1559
 2540SOL    HW119256   4.266   2.466   5.913 -2.7946  0.6965  1.1446
 2540SOL    HW219257   4.162   2.387   5.976 -0.1993 -0.0615  1.2370
 2541SOL     OW19258   3.041   1.539   3.786  0.2738 -0.7689 -0.4419
 2541SOL    HW119259   3.007   1.627   3.795  0.3815 -1.0473  2.8112
 2541SOL    HW219260   2.972   1.502   3.732 -0.7432 -0.8882  0.9490
 2542SOL     OW19261   4.270   1.520   0.936 -0.0475  0.0982 -0.3757
 2542SOL    HW119262   4.236   1.438   0.973 -0.5253  1.7329  2.8012
 2542SOL    HW219263   4.274   1.566   1.020 -2.1119 -0.4970  0.0459
 2543SOL     OW19264   1.012   1.597  10.107 -0.0225 -0.0019 -0.7743
 2543SOL    HW119265   0.985   1.580  10.197  0.4949 -0.7461 -0.7627
 2543SOL    HW219266   1.099   1.557  10.111 -0.3369 -0.7934 -1.8144
 2544SOL     OW19267   3.443   4.705   5.565  0.0686 -0.3630  0.2652
 2544SOL    HW119268   3.405   4.719   5.479  0.8977 -0.5896 -0.1377
 2544SOL    HW219269   3.461   4.611   5.556 -5.7400 -1.2035 -2.3815
 2545SOL     OW19270   3.450   3.926  14.310  0.2760  0.3870  0.3893
 2545SOL    HW119271   3.371   3.907  14.361  0.4840  0.1315  0.6167
 2545SOL    HW219272   3.513   3.919  14.381 -2.3227 -0.7837  2.5964
 2546SOL     OW19273   1.210   0.207  10.988 -0.1616 -0.1481  0.4629
 2546SOL    HW119274   1.237   0.294  11.018 -0.9623  1.0139 -2.2169
 2546SOL    HW219275   1.262   0.188  10.910 -0.7046 -1.2938  0.3851
 2547SOL     OW19276   0.501   3.300   2.937 -0.2963  0.1735 -0.0549
 2547SOL    HW119277   0.407   3.297   2.953 -0.3879 -2.3670 -1.1820
 2547SOL    HW219278   0.512   3.392   2.960 -0.9716  0.0135  0.8838
 2548SOL     OW19279   1.202   3.429   5.355 -0.1681 -0.1013 -0.1701
 2548SOL    HW119280   1.272   3.456   5.295  0.5887 -0.6982  0.4647
 2548SOL    HW219281   1.204   3.337   5.329 -0.2774  0.1123 -0.9388
 2549SOL     OW19282   4.487   3.103   3.514 -0.9325  0.2244 -0.1052
 2549SOL    HW119283   4.443   3.139   3.591  0.6855 -0.9045  1.3469
 2549SOL    HW219284   4.437   3.151   3.448  0.7578  0.1200 -1.4502
 2550SOL     OW19285   1.023   0.287   1.693 -0.2336  0.1212 -0.0352
 2550SOL    HW119286   0.977   0.208   1.723  0.0598 -0.8296 -2.0818
 2550SOL    HW219287   1.028   0.338   1.774  1.5395  0.0631 -0.1028
 2551SOL     OW19288   3.472   1.650  10.208 -0.0967 -0.0212  0.1295
 2551SOL    HW119289   3.459   1.573  10.154 -2.6144 -0.5973  1.5397
 2551SOL    HW219290   3.532   1.700  10.153 -0.0052  0.1191  0.3564
 2552SOL     OW19291   0.294   3.272   6.068  0.1496  0.2531 -0.2041
 2552SOL    HW119292   0.341   3.220   6.002  0.5530 -1.6001  1.5447
 2552SOL    HW219293   0.218   3.215   6.081  1.1755 -0.5934  2.0026
 2553SOL     OW19294   2.558   1.906   3.219  0.4524 -0.5621 -0.0153
 2553SOL    HW119295   2.529   1.977   3.162  0.7471  0.4950  1.1581
 2553SOL    HW219296   2.495   1.834   3.212 -1.6256  1.6673 -3.8359
 2554SOL     OW19297   1.993   0.030   7.112  0.4828  0.1179  0.2046
 2554SOL    HW119298   2.055   4.702   7.074  1.6462  1.3056  0.1521
 2554SOL    HW219299   1.916   0.016   7.058  2.9914 -1.7770 -2.8590
 2555SOL     OW19300   2.299   0.299  10.813 -0.0204  0.3298  0.1362
 2555SOL    HW119301   2.281   0.393  10.812 -0.3663  0.2954  2.4481
 2555SOL    HW219302   2.360   0.292  10.740  0.4712 -1.7958  0.7519
 2556SOL     OW19303   1.202   3.754   9.469  0.5076 -0.2027 -0.2754
 2556SOL    HW119304   1.247   3.818   9.524 -0.6044  0.2007  0.1625
 2556SOL    HW219305   1.282   3.704   9.454  0.1271 -0.4440 -1.5199
 2557SOL     OW19306   4.652   0.468   2.082  0.1366  0.0570 -0.2095
 2557SOL    HW119307   4.611   0.393   2.039  2.3398  0.1156 -2.4328
 2557SOL    HW219308   4.648   0.446   2.175  0.1425  0.4090 -0.1253
 2558SOL     OW19309   2.587   4.172   1.462  0.1696 -0.2593  0.0227
 2558SOL    HW119310   2.508   4.174   1.409 -0.1489 -1.6252  0.4468
 2558SOL    HW219311   2.643   4.197   1.388  0.4579 -0.4793  0.1669
 2559SOL     OW19312   4.324   4.329  14.865 -0.2801  0.0305  0.1489
 2559SOL    HW119313   4.279   4.360  14.944 -0.6591 -0.5810  0.1748
 2559SOL    HW219314   4.350   4.244  14.902 -1.0772 -0.0382  0.5519
 2560SOL     OW19315   2.394   2.049   7.203  0.0995  0.5526  0.2592
 2560SOL    HW119316   2.420   1.962   7.233 -2.8467 -0.6923 -0.8610
 2560SOL    HW219317   2.349   2.025   7.123  2.0517 -0.3121 -0.5776
 2561SOL     OW19318   1.765   3.507   2.206  0.2124 -0.1007 -0.3955
 2561SOL    HW119319   1.825   3.526   2.278  1.4809 -0.1765 -1.4337
 2561SOL    HW219320   1.813   3.546   2.133  0.0072 -0.9255 -0.9717
 2562SOL     OW19321   4.502   2.574  11.840 -0.4026 -0.0752 -0.2583
 2562SOL    HW119322   4.533   2.655  11.880  0.6587  1.0210 -3.3545
 2562SOL    HW219323   4.436   2.605  11.777  0.1909 -0.2063 -0.9410
 2563SOL     OW19324   1.362   4.050  11.220 -0.2882  0.0992 -0.5803
 2563SOL    HW119325   1.351   4.104  11.298  0.6509 -1.7634  0.8301
 2563SOL    HW219326   1.456   4.054  11.203 -0.0738 -0.1944  0.5504
 2564SOL     OW19327   1.967   3.258   4.833 -0.1848  0.5477  0.1718
 2564SOL    HW119328   1.951   3.260   4.927  0.5570  1.1512  0.2783
 2564SOL    HW219329   1.931   3.341   4.802  1.7039  0.9116 -1.0102
 2565SOL     OW19330   4.158   3.558   7.854  0.0651 -0.3467  0.6206
 2565SOL    HW119331   4.210   3.478   7.859  1.4275  0.6239  1.7830
 2565SOL    HW219332   4.218   3.631   7.838 -0.6790 -0.1348 -1.2405
 2566SOL     OW19333   1.267   4.119  16.295  0.3261 -0.3739 -0.3483
 2566SOL    HW119334   1.191   4.161  16.335 -1.2243 -1.5766 -2.0802
 2566SOL    HW219335   1.266   4.038  16.347  0.3025 -1.4456 -2.0211
 2567SOL     OW19336   0.708   1.776  14.077  0.8534  0.2789  0.4547
 2567SOL    HW119337   0.795   1.812  14.096 -0.6490  3.3020  1.4838
 2567SOL    HW219338   0.640   1.839  14.100 -0.5985 -1.8869  2.1153
 2568SOL     OW19339   4.249   3.659  10.020 -0.2615 -0.3255  0.1340
 2568SOL    HW119340   4.286   3.629   9.937 -0.0630 -0.2878  0.2095
 2568SOL    HW219341   4.157   3.664   9.995 -0.5752  1.2110  1.6114
 2569SOL     OW19342   3.755   2.432   7.578 -0.7118 -0.1164  0.6737
 2569SOL    HW119343   3.665   2.408   7.597 -0.5350 -1.3127 -0.0453
 2569SOL    HW219344   3.736   2.467   7.491  3.3521  0.3403 -0.0620
 2570SOL     OW19345   3.007   3.693   2.500  0.3270  0.4802  0.5437
 2570SOL    HW119346   2.990   3.653   2.585 -1.4275  0.6521  0.2609
 2570SOL    HW219347   2.941   3.762   2.506 -0.9547 -0.7920  0.8450
 2571SOL     OW19348   1.945   1.300   4.223 -0.1353 -0.0176 -0.4511
 2571SOL    HW119349   1.882   1.251   4.169  0.6884 -1.6250  0.0359
 2571SOL    HW219350   1.922   1.388   4.192 -0.0163 -0.5404 -2.0706
 2572SOL     OW19351   0.598   3.712   2.469  0.1766 -0.0647 -0.6431
 2572SOL    HW119352   0.593   3.797   2.514  0.2685  0.2217 -1.1800
 2572SOL    HW219353   0.587   3.643   2.534  0.8155  2.6564  2.3765
 2573SOL     OW19354   1.808   0.952   1.879 -0.3595  0.4397 -0.0972
 2573SOL    HW119355   1.774   0.896   1.809  0.7196 -0.5918  0.2075
 2573SOL    HW219356   1.816   1.037   1.835 -1.0859  0.5855  0.0458
 2574SOL     OW19357   0.683   1.905   3.686  0.2997  0.3442 -0.0826
 2574SOL    HW119358   0.611   1.966   3.667 -0.3853 -0.1723  0.8584
 2574SOL    HW219359   0.635   1.829   3.719  0.4410  0.4804  0.4410
 2575SOL     OW19360   4.398   0.929   4.041  0.0151 -0.0081 -0.5496
 2575SOL    HW119361   4.320   0.965   4.000 -0.0406 -1.3481 -1.6408
 2575SOL    HW219362   4.390   0.836   4.018 -0.1056 -0.2525  0.4681
 2576SOL     OW19363   3.798   2.018   8.727  0.2909  0.4482 -0.2433
 2576SOL    HW119364   3.785   2.104   8.767 -0.7164 -0.6338  1.7317
 2576SOL    HW219365   3.887   2.029   8.693  2.0200 -0.8956  3.8036
 2577SOL     OW19366   2.824   3.221   3.622 -0.1787  0.2599 -0.3224
 2577SOL    HW119367   2.818   3.227   3.718 -2.4552  1.2462 -0.5190
 2577SOL    HW219368   2.908   3.176   3.625 -1.0489 -1.4453 -2.1842
 2578SOL     OW19369   0.148   4.004   8.791 -0.0271 -0.4305 -0.1662
 2578SOL    HW119370   0.126   3.943   8.720  0.1794  0.9155 -1.3956
 2578SOL    HW219371   0.118   4.084   8.747 -1.6105  0.5973  2.7935
 2579SOL     OW19372   1.220   1.286   0.442 -0.5113  0.2129  0.0120
 2579SOL    HW119373   1.203   1.198   0.475 -0.3958 -0.5017 -1.8464
 2579SOL    HW219374   1.138   1.306   0.396  0.0402  0.8008 -0.7317
 2580SOL     OW19375   1.341   0.257   8.362  0.0640  0.2403  0.2219
 2580SOL    HW119376   1.371   0.219   8.279  0.6197 -1.8591  1.3953
 2580SOL    HW219377   1.397   0.334   8.373 -3.1259  2.7179 -0.8880
 2581SOL     OW19378   0.628   3.258  17.142  0.2011  0.6375 -0.4129
 2581SOL    HW119379   0.536   3.232  17.136  0.5129  0.6424 -5.2790
 2581SOL    HW219380   0.611   3.338  17.191 -0.5295  0.5563 -0.5381
 2582SOL     OW19381   0.641   0.995   7.567 -0.3177  0.0443  0.4357
 2582SOL    HW119382   0.625   1.048   7.645 -0.1773  1.9973 -0.8513
 2582SOL    HW219383   0.730   1.024   7.546  0.0875  0.1696  2.3773
 2583SOL     OW19384   0.583   4.578   6.150  0.3277  0.2910  0.0703
 2583SOL    HW119385   0.519   4.613   6.212 -0.6440 -1.6227  0.1472
 2583SOL    HW219386   0.552   4.487   6.155 -1.9064  0.9641 -1.8340
 2584SOL     OW19387   0.313   1.489   2.127  0.2594 -0.1734  0.3578
 2584SOL    HW119388   0.302   1.546   2.203 -2.2272  1.9002 -1.5817
 2584SOL    HW219389   0.222   1.491   2.098  1.0536 -0.6967 -2.1302
 2585SOL     OW19390   1.892   0.976   3.015 -0.1727 -0.3036 -0.7579
 2585SOL    HW119391   1.966   1.017   2.971 -0.4596  0.3957 -0.5893
 2585SOL    HW219392   1.904   0.882   2.999  1.9521 -0.3031  0.8815
 2586SOL     OW19393   2.669   1.729   2.416  0.5835 -0.1579  0.1547
 2586SOL    HW119394   2.663   1.755   2.324  2.4236 -0.2898 -0.0017
 2586SOL    HW219395   2.762   1.739   2.439  0.7365  2.1933 -1.3789
 2587SOL     OW19396   2.603   2.448  13.913 -0.3032  0.2100  0.0585
 2587SOL    HW119397   2.568   2.512  13.850  1.1704  2.2368  1.3251
 2587SOL    HW219398   2.526   2.449  13.970 -0.8159 -0.0286 -0.6136
 2588SOL     OW19399   2.231   0.128   4.756  0.3941 -0.2893 -0.1285
 2588SOL    HW119400   2.137   0.145   4.769  0.0946 -0.0661 -2.5241
 2588SOL    HW219401   2.247   0.183   4.680 -0.3880  1.0957  0.7096
 2589SOL     OW19402   3.259   0.177   4.228  0.6092 -0.2153  0.3256
 2589SOL    HW119403   3.220   0.182   4.315  1.5228 -0.7006  0.7619
 2589SOL    HW219404   3.256   0.273   4.220 -0.6385 -0.2973 -0.1476
 2590SOL     OW19405   0.557   2.777  11.769 -0.2767  0.2190  0.1928
 2590SOL    HW119406   0.650   2.791  11.750 -0.1435 -0.4154  0.3912
 2590SOL    HW219407   0.565   2.820  11.854  2.3225  0.0111  0.0689
 2591SOL     OW19408   3.463   1.598   2.091 -0.2780  0.3362 -0.0469
 2591SOL    HW119409   3.509   1.641   2.164 -0.2988 -1.2087  0.8655
 2591SOL    HW219410   3.400   1.546   2.141  1.9446 -2.3841 -0.0798
 2592SOL     OW19411   0.503   3.160   0.879 -0.2071  0.0886 -0.0787
 2592SOL    HW119412   0.564   3.142   0.951  0.1210  1.3870 -0.0212
 2592SOL    HW219413   0.544   3.234   0.834 -1.2566 -1.0011 -2.8212
 2593SOL     OW19414   0.603   0.643   7.997 -0.1299 -0.5088  0.2506
 2593SOL    HW119415   0.644   0.719   7.957  1.7113 -2.3917 -1.4153
 2593SOL    HW219416   0.546   0.701   8.049 -0.6475 -1.4018  0.6830
 2594SOL     OW19417   3.329   3.181   1.373  0.1777  0.1964 -0.4299
 2594SOL    HW119418   3.421   3.158   1.365  0.2524 -0.4260  2.1414
 2594SOL    HW219419   3.297   3.116   1.437 -1.0339  0.9654 -0.2535
 2595SOL     OW19420   4.695   4.172   6.508 -0.4496 -0.0833 -0.0970
 2595SOL    HW119421   4.649   4.090   6.527  1.9728 -1.0938  1.3958
 2595SOL    HW219422   0.047   4.133   6.495  0.0455 -0.6225  4.8743
 2596SOL     OW19423   3.273   3.803   5.794  0.2996  0.2772  0.1805
 2596SOL    HW119424   3.243   3.715   5.775 -1.6800  0.9613  0.1039
 2596SOL    HW219425   3.361   3.793   5.829 -0.4030  0.3097  1.9802
 2597SOL     OW19426   4.586   0.476   6.063 -0.2658 -0.1586  0.5394
 2597SOL    HW119427   4.576   0.520   5.979 -0.2528  0.9796  1.1174
 2597SOL    HW219428   4.538   0.535   6.122  2.0379  2.0454  0.2419
 2598SOL     OW19429   3.865   0.526   0.169  0.3412  0.0059  0.2247
 2598SOL    HW119430   3.945   0.474   0.160 -0.2132 -0.2972 -2.9700
 2598SOL    HW219431   3.859   0.572   0.085 -1.4462  2.6240  1.7763
 2599SOL     OW19432   3.131   4.669   4.153  0.2752 -0.1241  0.2088
 2599SOL    HW119433   3.160   0.024   4.172 -2.5302  0.1828  3.0750
 2599SOL    HW219434   3.043   4.669   4.116  0.3247 -1.2980  0.0844
 2600SOL     OW19435   3.395   0.001   3.834  0.2435  0.0754 -0.3616
 2600SOL    HW119436   3.458   4.676   3.875  0.0349  0.3462  0.3493
 2600SOL    HW219437   3.454   0.072   3.811  2.4191 -1.7870 -0.5336
 2601SOL     OW19438   1.928   0.470   8.801 -0.8397 -0.6103 -0.0193
 2601SOL    HW119439   1.914   0.544   8.742  1.7340  0.5276  0.7801
 2601SOL    HW219440   1.973   0.404   8.747  2.4730 -0.0479  2.0243
 2602SOL     OW19441   3.625   2.399   5.870 -0.1171  0.1888 -0.0216
 2602SOL    HW119442   3.641   2.473   5.929 -1.4271 -0.2025  0.8184
 2602SOL    HW219443   3.703   2.398   5.814  1.6438 -1.2563  2.4031
 2603SOL     OW19444   2.769   4.350   6.269  0.5080 -0.3428 -0.2258
 2603SOL    HW119445   2.778   4.399   6.351  1.0056 -0.2640 -0.3244
 2603SOL    HW219446   2.678   4.363   6.246  0.1089  1.0413  2.0583
 2604SOL     OW19447   0.181   1.450   3.946  0.2097 -0.5464 -0.1233
 2604SOL    HW119448   0.086   1.450   3.932 -0.3355 -1.1249  3.3647
 2604SOL    HW219449   0.180   1.361   3.982 -1.9682 -0.7870 -0.7768
 2605SOL     OW19450   1.341   0.955  12.208 -0.1159  0.1632  0.2178
 2605SOL    HW119451   1.300   0.997  12.283 -1.1429 -1.0109  0.3264
 2605SOL    HW219452   1.269   0.906  12.167 -1.4970  3.2719 -1.0733
 2606SOL     OW19453   3.002   1.452   8.454  0.3148  0.5840  0.4502
 2606SOL    HW119454   2.961   1.485   8.374  2.7950  1.2747 -0.5317
 2606SOL    HW219455   3.009   1.534   8.503 -3.2972  0.9861  0.3042
 2607SOL     OW19456   3.292   3.762  16.821 -0.1686 -0.3179  0.6368
 2607SOL    HW119457   3.368   3.772  16.877  1.0367  0.0213 -1.0716
 2607SOL    HW219458   3.318   3.708  16.746  0.4525 -0.5076  0.9955
 2608SOL     OW19459   1.035   0.639   2.296  0.0156  0.0990  0.3970
 2608SOL    HW119460   1.093   0.624   2.222 -0.6103 -0.4372  0.0215
 2608SOL    HW219461   1.057   0.571   2.360 -0.5830 -0.2685  0.2032
 2609SOL     OW19462   3.729   1.083   6.731  0.8240 -0.7313 -0.2404
 2609SOL    HW119463   3.699   1.167   6.697  3.2842 -0.0036 -0.6475
 2609SOL    HW219464   3.695   1.026   6.662 -0.0997  0.4561 -0.7565
 2610SOL     OW19465   4.571   2.590   5.655  0.4353  0.4163  0.1488
 2610SOL    HW119466   4.613   2.507   5.630  1.0907  0.3582  1.4544
 2610SOL    HW219467   4.606   2.649   5.588  0.6174  0.2534  0.0979
 2611SOL     OW19468   1.201   0.209   5.111  0.6991 -0.2368  0.4494
 2611SOL    HW119469   1.276   0.151   5.125 -1.3087 -2.5641  1.4485
 2611SOL    HW219470   1.127   0.152   5.128  0.4231 -0.6928 -2.2460
 2612SOL     OW19471   2.572   1.682   8.047  0.6955 -0.2119  0.2528
 2612SOL    HW119472   2.498   1.740   8.067  1.0008 -0.0118  0.8064
 2612SOL    HW219473   2.632   1.746   8.010 -0.1997  0.0917 -0.6865
 2613SOL     OW19474   0.327   3.521   2.858  0.0057 -0.2913 -0.2471
 2613SOL    HW119475   0.245   3.484   2.891  0.3493 -1.5259 -0.7801
 2613SOL    HW219476   0.297   3.610   2.878  1.3174 -0.3941  2.0701
 2614SOL     OW19477   0.799   0.988   7.153 -0.1185 -0.6162  0.6001
 2614SOL    HW119478   0.849   1.058   7.196 -1.1008 -0.6633  1.8204
 2614SOL    HW219479   0.711   1.027   7.152  0.3692  0.4746  0.1455
 2615SOL     OW19480   0.395   4.306   6.854 -0.8018 -0.4479 -0.5211
 2615SOL    HW119481   0.376   4.287   6.946  0.0687  3.2107  0.4123
 2615SOL    HW219482   0.373   4.399   6.845  1.5293  0.2685  1.1166
 2616SOL     OW19483   1.937   3.968  16.585 -0.1529  0.1955 -0.3559
 2616SOL    HW119484   1.936   4.044  16.644 -0.6094 -1.2028  1.4456
 2616SOL    HW219485   1.848   3.965  16.549 -0.4439  2.6811  0.1375
 2617SOL     OW19486   0.958   2.426   5.180 -0.0517 -0.4313 -0.1184
 2617SOL    HW119487   0.875   2.445   5.135  0.6531 -0.0043 -1.2336
 2617SOL    HW219488   0.925   2.384   5.259  1.0323 -0.1462  0.4823
 2618SOL     OW19489   0.026   3.034   8.119  0.2270 -0.2576 -0.1266
 2618SOL    HW119490   4.678   3.052   8.074  0.3439 -2.7208 -1.3441
 2618SOL    HW219491   0.087   3.014   8.047  1.0733 -1.3881  0.8980
 2619SOL     OW19492   1.669   1.066   4.965 -0.6701 -0.0264 -0.0618
 2619SOL    HW119493   1.760   1.096   4.957 -0.1872 -1.8682 -1.4355
 2619SOL    HW219494   1.668   0.976   4.935  0.5607 -0.3966  1.0145
 2620SOL     OW19495   3.948   2.336   1.384  0.4756 -0.8740  0.5604
 2620SOL    HW119496   3.854   2.348   1.400  1.2509  2.2038  2.7447
 2620SOL    HW219497   3.960   2.250   1.425 -3.2504 -1.8999 -0.4690
 2621SOL     OW19498   1.979   1.868   2.148 -0.8686  0.4015 -0.4766
 2621SOL    HW119499   1.933   1.943   2.111  1.4859  0.8596 -2.4928
 2621SOL    HW219500   1.925   1.845   2.223 -0.9671  1.2470 -0.2839
 2622SOL     OW19501   0.665   1.178   5.158 -0.0555  0.5453 -0.0037
 2622SOL    HW119502   0.573   1.154   5.169 -0.5929  2.3642 -0.5896
 2622SOL    HW219503   0.695   1.147   5.243 -1.9039 -0.9671  0.0909
 2623SOL     OW19504   4.238   0.069   4.418 -0.7373 -0.0519 -0.0036
 2623SOL    HW119505   4.155   0.090   4.461 -1.4504  0.7595 -1.7558
 2623SOL    HW219506   4.260   0.147   4.367  0.6531  0.0356  0.7258
 2624SOL     OW19507   4.660   2.633   5.945  0.1073 -0.2233  0.0694
 2624SOL    HW119508   4.614   2.631   5.861 -0.9882 -0.7992  0.6823
 2624SOL    HW219509   4.723   2.704   5.940  0.0634 -0.0780  1.5169
 2625SOL     OW19510   2.125   3.719   8.830 -0.0507  0.3393  0.2223
 2625SOL    HW119511   2.167   3.722   8.744 -0.0908 -1.7119  0.1324
 2625SOL    HW219512   2.190   3.761   8.885  0.3645  0.1484 -0.1206
 2626SOL     OW19513   1.390   1.190   2.095  0.0268  0.5347 -0.5835
 2626SOL    HW119514   1.327   1.187   2.167  0.8680  1.0451  0.1784
 2626SOL    HW219515   1.472   1.181   2.144 -0.5770 -2.2171 -0.0940
 2627SOL     OW19516   2.033   1.795   2.528 -0.9418  0.5669 -0.3525
 2627SOL    HW119517   2.009   1.777   2.619 -1.4590  0.7395 -0.4550
 2627SOL    HW219518   2.013   1.714   2.480  0.0207  1.0227 -1.5219
 2628SOL     OW19519   3.942   2.166   5.843  0.3059  0.3825  0.3973
 2628SOL    HW119520   3.873   2.211   5.795  1.4076  0.2662 -1.3295
 2628SOL    HW219521   3.924   2.201   5.930 -0.3260  2.8303 -0.7384
 2629SOL     OW19522   1.867   2.523   4.160  0.0108  0.0850  0.0179
 2629SOL    HW119523   1.949   2.524   4.111  1.7040  4.4618  2.8563
 2629SOL    HW219524   1.907   2.538   4.246 -0.4080 -0.6654  0.3355
 2630SOL     OW19525   4.652   2.351   0.067 -0.5200  0.2386  0.3788
 2630SOL    HW119526   0.013   2.353   0.081 -0.0508  2.3694 -3.1004
 2630SOL    HW219527   4.645   2.273   0.012 -0.2578 -0.5451  1.4532
 2631SOL     OW19528   1.831   0.473  14.591 -0.2156 -0.0627 -0.1984
 2631SOL    HW119529   1.897   0.542  14.591  1.0995 -1.2942  2.6056
 2631SOL    HW219530   1.750   0.521  14.576  0.7978  0.9192 -2.4986
 2632SOL     OW19531   3.767   1.476   3.771  0.3350 -0.0073 -0.2519
 2632SOL    HW119532   3.788   1.543   3.836  0.1391 -0.7951  0.6369
 2632SOL    HW219533   3.744   1.526   3.693  0.5646  1.4056  0.5796
 2633SOL     OW19534   2.297   2.460   1.825  0.3697 -0.0824 -0.2764
 2633SOL    HW119535   2.343   2.542   1.841  0.9927 -0.6235  0.6702
 2633SOL    HW219536   2.215   2.494   1.788 -1.2721 -2.8848  0.7475
 2634SOL     OW19537   1.322   0.373   1.392  0.3887  0.0282  0.3196
 2634SOL    HW119538   1.304   0.308   1.324  0.0673  1.2527 -0.7551
 2634SOL    HW219539   1.416   0.389   1.386  0.4098 -0.2292 -0.0397
 2635SOL     OW19540   1.552   0.232   0.352 -0.0630  0.5845  0.6670
 2635SOL    HW119541   1.581   0.141   0.347  1.0215  0.8161  2.5638
 2635SOL    HW219542   1.531   0.253   0.261  2.2528 -1.3358 -0.3396
 2636SOL     OW19543   3.335   2.129   5.621 -0.8564 -0.0894 -0.0519
 2636SOL    HW119544   3.318   2.097   5.532 -1.0577 -3.0690  1.1004
 2636SOL    HW219545   3.303   2.054   5.669  0.3006  0.4253  1.5246
 2637SOL     OW19546   1.592   1.781   9.308 -0.3369 -0.8396  1.0937
 2637SOL    HW119547   1.643   1.704   9.332 -3.4613 -4.1818 -2.9386
 2637SOL    HW219548   1.537   1.742   9.240  0.1817  0.7896 -0.2791
 2638SOL     OW19549   1.196   3.140   2.778 -0.4541  0.4971  0.2135
 2638SOL    HW119550   1.144   3.221   2.779 -0.0467  0.7520  0.9765
 2638SOL    HW219551   1.136   3.084   2.826  0.1160 -1.5457 -1.4804
 2639SOL     OW19552   3.260   1.706   8.505  0.3214 -0.2702 -0.5598
 2639SOL    HW119553   3.328   1.761   8.543 -0.6344  1.2295 -1.0376
 2639SOL    HW219554   3.306   1.628   8.473 -0.1769 -0.0070 -1.9154
 2640SOL     OW19555   4.004   1.270   6.487 -0.2176 -0.1848 -0.1891
 2640SOL    HW119556   4.046   1.198   6.535 -1.4353  0.6685  2.1827
 2640SOL    HW219557   3.964   1.222   6.414 -1.3577 -1.0394  0.9853
 2641SOL     OW19558   1.338   0.211   2.210  0.0083 -0.4042  0.0565
 2641SOL    HW119559   1.364   0.245   2.125  0.8889 -0.3972  0.3280
 2641SOL    HW219560   1.422   0.184   2.248 -1.0938 -0.4180  2.5249
 2642SOL     OW19561   0.660   3.315   5.003  0.3096 -0.8004 -0.2087
 2642SOL    HW119562   0.584   3.374   5.007 -2.1723 -4.1113  0.8690
 2642SOL    HW219563   0.687   3.331   4.912 -1.0230  0.6297 -0.3579
 2643SOL     OW19564   1.662   2.449   1.700  0.3473 -0.0686 -0.0829
 2643SOL    HW119565   1.577   2.491   1.712  1.4695  1.9624  0.6245
 2643SOL    HW219566   1.679   2.455   1.606 -1.5012 -1.5971 -0.5087
 2644SOL     OW19567   2.535   2.192   6.294 -0.0911 -0.2281 -0.2461
 2644SOL    HW119568   2.491   2.149   6.368  0.7618 -1.3129 -0.3803
 2644SOL    HW219569   2.471   2.254   6.259  0.1857  0.2566  0.0980
 2645SOL     OW19570   2.483   0.303   9.576 -0.7557  0.1880  0.2515
 2645SOL    HW119571   2.531   0.283   9.496 -2.3551  1.1397 -0.9525
 2645SOL    HW219572   2.462   0.213   9.601 -2.0863 -0.3855 -2.8736
 2646SOL     OW19573   4.708   1.450   8.843  0.6850 -0.2709  0.1408
 2646SOL    HW119574   4.711   1.542   8.870 -1.5079  0.3641 -1.7282
 2646SOL    HW219575   4.662   1.404   8.913  1.5958 -1.0832  0.2008
 2647SOL     OW19576   4.696   2.959  14.627 -0.1664  0.4512  0.3393
 2647SOL    HW119577   4.717   2.866  14.638 -4.1991 -0.2639  1.9657
 2647SOL    HW219578   4.674   2.986  14.717  3.1413 -0.0180  1.2901
 2648SOL     OW19579   3.612   3.224   3.322  0.8249 -0.0824 -0.4964
 2648SOL    HW119580   3.669   3.273   3.381 -2.5274  0.3953  2.3314
 2648SOL    HW219581   3.678   3.183   3.266  0.0568 -1.5123 -0.3652
 2649SOL     OW19582   0.285   2.734   2.196  0.0694 -0.2164  0.3438
 2649SOL    HW119583   0.334   2.784   2.261 -0.8746 -0.4230  1.2032
 2649SOL    HW219584   0.196   2.762   2.215  0.1313  0.7780 -0.7927
 2650SOL     OW19585   4.620   0.432   0.123  0.0042  0.3043 -0.9903
 2650SOL    HW119586   4.549   0.492   0.101 -0.5431  0.0024 -0.0680
 2650SOL    HW219587   4.690   0.495   0.107  2.3280 -1.8353  0.8358
 2651SOL     OW19588   2.222   1.436   1.548  0.1564 -0.0340  0.6004
 2651SOL    HW119589   2.188   1.401   1.630  0.0589  1.1492  1.0703
 2651SOL    HW219590   2.138   1.462   1.510  0.6271 -1.0307 -1.0969
 2652SOL     OW19591   1.480   3.244   2.382  0.2601  0.4909  0.7024
 2652SOL    HW119592   1.429   3.279   2.309 -0.2312  0.4237  1.0204
 2652SOL    HW219593   1.434   3.279   2.457 -0.8606  1.5027 -0.4591
 2653SOL     OW19594   4.665   4.399   1.841  0.9041  0.1814 -0.1243
 2653SOL    HW119595   4.661   4.478   1.895  0.8646 -0.2639  0.5189
 2653SOL    HW219596   4.582   4.396   1.793  1.6527  0.9289 -1.4686
 2654SOL     OW19597   2.827   2.244   7.627  0.2516 -0.0650 -0.1850
 2654SOL    HW119598   2.859   2.205   7.545 -1.2261 -1.4153 -0.1312
 2654SOL    HW219599   2.823   2.168   7.686  3.4991  0.0812  0.2340
 2655SOL     OW19600   3.126   4.662   5.595 -0.0612 -0.3308  1.1636
 2655SOL    HW119601   3.053   4.632   5.649 -0.6267 -0.0377  0.5734
 2655SOL    HW219602   3.184   4.585   5.596  0.3079 -0.1787 -5.5744
 2656SOL     OW19603   0.689   0.190   5.544 -0.1943 -0.2288 -0.2979
 2656SOL    HW119604   0.759   0.187   5.610 -1.8453 -0.6361  1.4219
 2656SOL    HW219605   0.704   0.277   5.509 -1.4698  0.4416  0.8436
 2657SOL     OW19606   2.888   4.723   4.022  0.2893 -0.2911 -0.1146
 2657SOL    HW119607   2.853   4.634   4.017 -0.0559 -0.1270 -0.6068
 2657SOL    HW219608   2.833   0.042   3.965  0.6722  0.2705  0.0307
 2658SOL     OW19609   2.624   4.155   2.905  0.1691 -0.5399  0.0065
 2658SOL    HW119610   2.680   4.116   2.972  2.1907  1.3533 -0.5722
 2658SOL    HW219611   2.629   4.099   2.828  0.2024 -0.7350  0.1514
 2659SOL     OW19612   0.012   0.619  12.503 -0.3179  0.5641 -0.2606
 2659SOL    HW119613   0.078   0.572  12.453  0.7227  1.6399  0.0993
 2659SOL    HW219614   0.052   0.620  12.590  1.3031  0.1335 -1.0080
 2660SOL     OW19615   2.064   0.868  10.057  0.0092  0.1160  0.1414
 2660SOL    HW119616   2.073   0.963  10.053 -1.4642  0.1830 -1.3423
 2660SOL    HW219617   2.153   0.842  10.082 -0.3474 -1.7411 -0.5113
 2661SOL     OW19618   2.221   0.693   0.150  0.1578  0.1025  0.5081
 2661SOL    HW119619   2.197   0.776   0.192  0.6772  0.1567  0.7037
 2661SOL    HW219620   2.142   0.663   0.105  1.1619 -2.4452  0.4021
 2662SOL     OW19621   2.552   4.671   7.956 -0.4677  0.1379  0.1053
 2662SOL    HW119622   2.614   4.686   8.027  0.3017 -0.7274 -0.3835
 2662SOL    HW219623   2.549   4.575   7.956 -3.5842  0.2209 -2.1697
 2663SOL     OW19624   3.480   1.160   5.599  0.4398 -0.1667  0.2931
 2663SOL    HW119625   3.509   1.169   5.508 -0.0059  2.0523  0.3765
 2663SOL    HW219626   3.512   1.241   5.639  0.2156  0.3582 -0.5980
 2664SOL     OW19627   4.423   1.624   5.767  0.2231  0.6404  0.0530
 2664SOL    HW119628   4.339   1.671   5.761 -0.5135 -0.9953 -2.3525
 2664SOL    HW219629   4.458   1.651   5.682  0.6826 -1.7256 -0.4999
 2665SOL     OW19630   2.677   3.536   8.548  0.2194  0.3981  0.0384
 2665SOL    HW119631   2.756   3.580   8.578  0.3209 -1.0202  1.8785
 2665SOL    HW219632   2.631   3.514   8.629  0.0400 -0.1559 -0.2157
 2666SOL     OW19633   4.022   4.489   2.544 -0.4636  0.1790  0.5429
 2666SOL    HW119634   3.968   4.496   2.465 -0.3791 -1.3841  0.3434
 2666SOL    HW219635   4.043   4.578   2.570 -0.1765  0.2358  0.1080
 2667SOL     OW19636   0.324   2.359   5.973 -0.1090 -0.3834 -0.0384
 2667SOL    HW119637   0.307   2.341   6.065 -1.0045 -2.8345 -0.6838
 2667SOL    HW219638   0.292   2.446   5.949 -0.9367 -1.4181 -2.7621
 2668SOL     OW19639   0.011   4.035   8.086 -0.3933  0.3977  0.0322
 2668SOL    HW119640   4.732   4.048   8.180 -2.6439  0.4554 -0.2954
 2668SOL    HW219641   0.081   4.098   8.069  0.0840 -0.0974  0.1137
 2669SOL     OW19642   0.018   0.655   9.039 -0.4836  0.3023 -0.3673
 2669SOL    HW119643   0.106   0.658   8.999 -0.6395  0.0793 -0.7312
 2669SOL    HW219644   4.724   0.746   9.032 -1.6369 -0.0666 -0.4933
 2670SOL     OW19645   4.128   4.543   6.661 -0.0308  0.3448  0.2881
 2670SOL    HW119646   4.078   4.546   6.580 -0.6716 -1.0377  0.6348
 2670SOL    HW219647   4.220   4.541   6.632  1.0449 -0.6484  3.7742
 2671SOL     OW19648   3.195   0.648   6.113 -0.6153 -0.4000 -0.4784
 2671SOL    HW119649   3.203   0.650   6.018 -0.2137  2.0261 -0.4094
 2671SOL    HW219650   3.286   0.671   6.134 -0.1299 -1.8632 -0.9451
 2672SOL     OW19651   0.424   0.390   3.950  0.0206 -0.5613  0.1060
 2672SOL    HW119652   0.421   0.476   3.992 -0.5338 -1.1396  1.2802
 2672SOL    HW219653   0.499   0.406   3.894 -0.8940 -2.1332 -1.5695
 2673SOL     OW19654   0.133   2.675   9.093  0.1979 -0.1180  0.0929
 2673SOL    HW119655   0.078   2.630   9.157 -1.4073  2.4365  0.4725
 2673SOL    HW219656   0.202   2.717   9.144 -2.9050  1.6531  2.7838
 2674SOL     OW19657   0.176   1.869   6.506  0.0043 -0.1609  0.0888
 2674SOL    HW119658   0.221   1.910   6.580 -0.4890  2.2186 -0.9323
 2674SOL    HW219659   0.244   1.869   6.438 -0.0941 -1.4068 -0.0152
 2675SOL     OW19660   0.655   1.758   3.136 -0.0590  0.3052 -0.1247
 2675SOL    HW119661   0.723   1.799   3.190 -0.0070  0.7656 -0.5330
 2675SOL    HW219662   0.590   1.740   3.204  0.5976  0.8748  0.6634
 2676SOL     OW19663   4.721   2.783   3.810 -0.0516  0.3980  0.1897
 2676SOL    HW119664   0.078   2.800   3.785  0.1146  1.8774  1.7807
 2676SOL    HW219665   4.712   2.701   3.761 -3.1701  0.6346  0.3914
 2677SOL     OW19666   3.965   2.878   7.388 -0.3948  0.1309  0.1573
 2677SOL    HW119667   3.980   2.784   7.398  1.8777  0.4859 -0.0214
 2677SOL    HW219668   4.011   2.909   7.465  1.9051 -1.7732 -0.4487
 2678SOL     OW19669   4.711   4.238   0.508 -0.4536 -0.7303 -0.1807
 2678SOL    HW119670   4.654   4.191   0.569  0.2371  0.8932  1.7108
 2678SOL    HW219671   4.704   4.327   0.543 -0.3068 -1.0219  0.6003
 2679SOL     OW19672   2.342   4.026   3.671 -0.5566  0.2617 -0.1169
 2679SOL    HW119673   2.430   4.024   3.633  0.1527 -2.1506  1.5943
 2679SOL    HW219674   2.382   4.056   3.753 -0.1661 -1.8054  0.4534
 2680SOL     OW19675   0.351   4.021  14.263 -0.0427  0.2307  0.8522
 2680SOL    HW119676   0.315   4.002  14.350 -1.2324 -0.2528  0.2495
 2680SOL    HW219677   0.366   4.115  14.262 -0.9465  0.4113  3.1056
 2681SOL     OW19678   3.962   3.675   3.184  0.7113  0.4651 -0.8136
 2681SOL    HW119679   4.030   3.610   3.165 -0.8542 -0.9161 -1.6527
 2681SOL    HW219680   3.926   3.688   3.096 -0.6267  1.4201 -0.1140
 2682SOL     OW19681   4.159   1.117   6.733  0.3087 -0.1775 -0.1624
 2682SOL    HW119682   4.143   1.209   6.753 -0.2708 -0.7991  2.2734
 2682SOL    HW219683   4.253   1.112   6.718  0.0491  0.4197 -2.0500
 2683SOL     OW19684   1.598   4.115   8.174 -0.2318  0.3424 -0.2005
 2683SOL    HW119685   1.684   4.155   8.159  0.1761  1.4025  4.9983
 2683SOL    HW219686   1.573   4.133   8.265 -0.5491 -0.1846 -0.1852
 2684SOL     OW19687   2.945   1.911   1.444 -0.5186 -0.0654 -0.0351
 2684SOL    HW119688   2.895   1.874   1.517 -0.2760 -0.3620 -0.0199
 2684SOL    HW219689   2.880   1.925   1.375  0.1498  0.4626 -0.5583
 2685SOL     OW19690   2.187   2.311   8.119 -0.0669 -0.1499 -0.3992
 2685SOL    HW119691   2.226   2.371   8.182  0.4271 -1.1290  0.2356
 2685SOL    HW219692   2.183   2.235   8.178 -1.5494  0.9294  0.8858
 2686SOL     OW19693   0.517   1.037   4.763  0.1057  0.1394 -0.0224
 2686SOL    HW119694   0.527   1.132   4.772 -1.4007  0.3219 -0.2077
 2686SOL    HW219695   0.503   1.007   4.853  3.7801 -1.8581 -0.0952
 2687SOL     OW19696   4.633   4.174  11.632  0.2085 -0.1263 -0.2611
 2687SOL    HW119697   4.706   4.228  11.605 -0.4648  1.1322  0.4051
 2687SOL    HW219698   4.631   4.205  11.723 -0.1385 -1.4542  0.1860
 2688SOL     OW19699   0.517   1.643  13.260  0.2239  0.2731 -0.0202
 2688SOL    HW119700   0.547   1.563  13.303  1.1674 -0.6003 -2.3058
 2688SOL    HW219701   0.435   1.660  13.306  0.6945 -0.5561  1.1138
 2689SOL     OW19702   1.854   3.211   5.855  0.5175  0.0869 -0.0695
 2689SOL    HW119703   1.912   3.274   5.897 -0.4424 -0.2334  1.7562
 2689SOL    HW219704   1.787   3.266   5.815  2.7986  0.9166 -2.7583
 2690SOL     OW19705   2.211   0.058   9.239  0.0054  0.0226 -0.0781
 2690SOL    HW119706   2.208   0.013   9.323  1.4533 -0.9222 -0.5381
 2690SOL    HW219707   2.305   0.056   9.226 -0.0760 -0.2590 -0.6323
 2691SOL     OW19708   4.370   2.729   7.688  0.0901  0.1729  0.4691
 2691SOL    HW119709   4.447   2.747   7.634  0.4553 -0.0706  0.9014
 2691SOL    HW219710   4.398   2.771   7.770  0.0611  1.4883 -0.2062
 2692SOL     OW19711   4.644   2.859   9.324  0.2939  0.0427  0.0829
 2692SOL    HW119712   4.584   2.880   9.253  1.4101  1.0144 -0.5694
 2692SOL    HW219713   4.711   2.926   9.315  0.2067  0.1643  0.3351
 2693SOL     OW19714   0.138   3.322  11.467  0.1952 -0.4518 -0.2807
 2693SOL    HW119715   0.066   3.259  11.466  0.0463 -0.2799 -0.3559
 2693SOL    HW219716   0.183   3.311  11.384  0.7009 -0.7512  0.0320
 2694SOL     OW19717   1.140   1.399   7.198 -0.1611 -1.0274  0.3638
 2694SOL    HW119718   1.122   1.431   7.286 -1.2294  0.8333 -0.5331
 2694SOL    HW219719   1.230   1.368   7.211  0.6750  0.9193 -0.6765
 2695SOL     OW19720   4.309   3.936   4.189  0.0182 -0.0862 -0.0268
 2695SOL    HW119721   4.245   4.006   4.203  0.6569  0.5317 -0.2298
 2695SOL    HW219722   4.336   3.933   4.097 -0.0342  0.7543 -0.0714
 2696SOL     OW19723   0.336   4.550   2.667 -0.3281  0.0892  0.0358
 2696SOL    HW119724   0.380   4.469   2.694 -2.5124 -0.8052  0.8956
 2696SOL    HW219725   0.301   4.591   2.747  1.8433  0.6393  0.7184
 2697SOL     OW19726   3.894   1.856   8.082  0.0284  0.4499 -0.0717
 2697SOL    HW119727   3.880   1.798   8.006 -0.5405  0.7210 -0.1729
 2697SOL    HW219728   3.806   1.887   8.104 -1.7030 -0.9408 -4.9409
 2698SOL     OW19729   3.971   1.473  16.285 -0.0140 -0.0553 -0.2388
 2698SOL    HW119730   3.908   1.418  16.238 -0.8365 -0.2778  1.1072
 2698SOL    HW219731   3.992   1.523  16.206  0.9005 -2.0896 -1.2881
 2699SOL     OW19732   1.521   1.154   0.265 -0.4510  0.3680 -0.0258
 2699SOL    HW119733   1.549   1.152   0.356  0.1581  2.3852 -0.1542
 2699SOL    HW219734   1.444   1.098   0.265  0.4411 -0.8162  1.8239
 2700SOL     OW19735   4.723   0.632   4.609  0.2854 -0.4769 -0.0432
 2700SOL    HW119736   4.657   0.679   4.661 -0.4835  0.2086 -1.6276
 2700SOL    HW219737   0.066   0.686   4.620 -1.8816  2.2976  1.6550
 2701SOL     OW19738   4.535   4.162   2.246 -0.2044  0.9133 -0.0866
 2701SOL    HW119739   4.522   4.197   2.158 -2.7165  1.8373  0.6509
 2701SOL    HW219740   4.484   4.082   2.242 -1.3462  1.6679 -0.7060
 2702SOL     OW19741   4.620   3.473   6.046  0.9442  0.2304  0.7873
 2702SOL    HW119742   4.684   3.500   5.981 -1.2048 -0.9957 -1.8728
 2702SOL    HW219743   4.566   3.552   6.055 -0.1393 -0.4845  0.5723
 2703SOL     OW19744   2.897   0.830  14.379 -0.4767  0.2419 -0.6786
 2703SOL    HW119745   2.978   0.853  14.423 -0.3662 -0.0789 -0.7150
 2703SOL    HW219746   2.852   0.914  14.364  0.4425  0.8308 -0.1447
 2704SOL     OW19747   4.316   3.573  16.951 -0.1460  0.1626 -0.0023
 2704SOL    HW119748   4.337   3.605  16.863 -1.4719 -1.5988 -0.9586
 2704SOL    HW219749   4.233   3.528  16.935  0.7866 -0.9824 -1.6854
 2705SOL     OW19750   0.681   4.695   0.254 -0.7128 -0.0252  0.2454
 2705SOL    HW119751   0.746   4.663   0.192 -0.5125 -0.0032  0.4444
 2705SOL    HW219752   0.678   4.634   0.327  0.8903 -1.6035 -1.0175
 2706SOL     OW19753   1.226   4.399  11.850 -0.2511 -0.7333 -0.0593
 2706SOL    HW119754   1.289   4.443  11.908 -0.5282  0.7588 -0.9045
 2706SOL    HW219755   1.177   4.475  11.819 -0.6680 -1.0643 -0.2132
 2707SOL     OW19756   1.449   1.504   9.987 -0.8672 -0.3448 -0.3041
 2707SOL    HW119757   1.417   1.414   9.997 -0.7310 -0.4282 -0.6480
 2707SOL    HW219758   1.369   1.557   9.985 -0.4965  0.1677 -1.8898
 2708SOL     OW19759   0.223   3.086   7.776 -0.0161 -0.1958  0.3814
 2708SOL    HW119760   0.236   3.060   7.685 -1.1668 -2.4897  0.8748
 2708SOL    HW219761   0.166   3.019   7.811 -0.4459  0.0024  0.0561
 2709SOL     OW19762   2.758   0.248   6.254 -0.2521  0.5235 -0.1959
 2709SOL    HW119763   2.794   0.289   6.333  0.8244  0.5102 -0.6829
 2709SOL    HW219764   2.713   0.175   6.295  0.9764 -0.6191 -0.8749
 2710SOL     OW19765   2.500   3.565   5.496  0.0703 -0.1907  0.6581
 2710SOL    HW119766   2.555   3.622   5.550  1.6758 -0.4969 -0.6626
 2710SOL    HW219767   2.490   3.491   5.556 -0.1788  0.1537  1.0387
 2711SOL     OW19768   1.042   3.897   7.126 -0.0351 -0.3179  0.2464
 2711SOL    HW119769   0.985   3.880   7.051  0.8886  1.2863 -0.8090
 2711SOL    HW219770   1.071   3.985   7.101 -0.6472 -0.6113 -1.4700
 2712SOL     OW19771   4.474   0.343  15.310  0.1196  0.2784 -0.7784
 2712SOL    HW119772   4.517   0.360  15.226  0.2222 -0.4403 -0.8726
 2712SOL    HW219773   4.549   0.318  15.363  0.2378  0.4634 -0.8581
 2713SOL     OW19774   2.589   4.393   4.272  0.3160  0.6679  0.2494
 2713SOL    HW119775   2.521   4.422   4.333  0.1625 -0.6405  0.7076
 2713SOL    HW219776   2.654   4.356   4.332 -0.4399 -0.0302  0.6473
 2714SOL     OW19777   4.689   3.126  11.284  0.2946 -0.0503  0.2416
 2714SOL    HW119778   4.733   3.065  11.224 -0.1361 -1.3705  1.2718
 2714SOL    HW219779   4.628   3.180  11.235 -0.6955 -0.7238  0.7414
 2715SOL     OW19780   0.822   3.446   2.002  0.6141  0.3743 -0.3629
 2715SOL    HW119781   0.788   3.378   1.944  1.4092 -0.6393  0.3563
 2715SOL    HW219782   0.851   3.389   2.073  0.2487  1.0159  0.2965
 2716SOL     OW19783   3.630   4.170   2.750  0.4441  0.2929  0.4266
 2716SOL    HW119784   3.718   4.206   2.740  0.8457 -1.1621 -1.1540
 2716SOL    HW219785   3.609   4.222   2.828  0.3549 -0.9918  1.2514
 2717SOL     OW19786   1.418   4.505   0.311  0.3309 -0.0093 -0.0368
 2717SOL    HW119787   1.339   4.455   0.290  0.4443 -0.4013  0.4718
 2717SOL    HW219788   1.435   4.536   0.222 -0.3291  0.0397 -0.1521
 2718SOL     OW19789   0.556   2.233   9.273  0.0728  0.4689 -0.0436
 2718SOL    HW119790   0.588   2.169   9.209  1.2955 -1.3009  2.3291
 2718SOL    HW219791   0.555   2.312   9.219 -0.4868  0.8838  0.5665
 2719SOL     OW19792   2.727   2.369   6.289  0.4350  0.1948 -0.3018
 2719SOL    HW119793   2.807   2.320   6.267 -0.1948 -0.2634 -1.5584
 2719SOL    HW219794   2.658   2.304   6.289  0.9742 -0.3758  0.0912
 2720SOL     OW19795   0.708   4.112  13.209  0.4216 -0.0621 -0.4945
 2720SOL    HW119796   0.678   4.058  13.136 -0.2085  1.3795 -1.3207
 2720SOL    HW219797   0.797   4.137  13.185 -0.4628  2.0120 -1.6535
 2721SOL     OW19798   0.945   4.610   2.589 -0.4390  0.3565  0.2192
 2721SOL    HW119799   0.968   4.520   2.612  2.2750  1.2843  1.2264
 2721SOL    HW219800   0.990   4.661   2.657 -0.8747 -0.0599  0.8219
 2722SOL     OW19801   0.042   4.717   1.792  0.4846 -0.6727  0.1568
 2722SOL    HW119802   4.705   0.028   1.746  0.5584 -1.4558 -0.7209
 2722SOL    HW219803   4.729   4.701   1.874 -0.4673  0.5598 -0.1532
 2723SOL     OW19804   1.926   3.885   4.559 -0.2141  0.6831 -0.4577
 2723SOL    HW119805   2.008   3.851   4.524 -0.8236 -1.0568 -0.2413
 2723SOL    HW219806   1.962   3.963   4.600 -4.9141  2.7830 -0.3519
 2724SOL     OW19807   3.968   1.337   4.642 -0.3640  0.0392  0.4889
 2724SOL    HW119808   3.895   1.377   4.690 -1.6286 -3.1484  1.2863
 2724SOL    HW219809   4.041   1.385   4.681  0.2516 -0.7673  0.3247
 2725SOL     OW19810   1.700   4.693  13.480 -0.1125  0.1437 -0.7140
 2725SOL    HW119811   1.721   4.604  13.451  0.8934  0.6732 -1.6172
 2725SOL    HW219812   1.624   4.684  13.537  0.7014 -0.0205  0.3574
 2726SOL     OW19813   2.954   1.521   8.175 -0.3453  0.0089  0.3322
 2726SOL    HW119814   3.022   1.583   8.148 -1.3646  0.8727 -0.2421
 2726SOL    HW219815   2.956   1.466   8.097  0.3397  0.6066 -0.0641
 2727SOL     OW19816   2.866   3.997  15.988 -0.0990 -0.1239  0.3513
 2727SOL    HW119817   2.865   3.902  15.972 -1.7550  0.1792 -1.4338
 2727SOL    HW219818   2.839   4.030  15.902  1.5613  0.3909  0.0252
 2728SOL     OW19819   3.003   4.636   2.897 -0.1740  0.0462 -0.1406
 2728SOL    HW119820   2.991   4.542   2.885 -1.2734  0.2390 -0.5204
 2728SOL    HW219821   3.049   4.628   2.981  0.4949 -0.2066 -0.5330
 2729SOL     OW19822   0.680   1.238   0.712  0.0278  0.3557 -0.3554
 2729SOL    HW119823   0.740   1.173   0.749  1.2214  2.0489  0.6726
 2729SOL    HW219824   0.626   1.175   0.664  0.2401  0.7464 -1.1051
 2730SOL     OW19825   4.559   0.909  12.741  0.6312  0.5041 -0.1938
 2730SOL    HW119826   4.538   0.914  12.834  0.8810 -0.5168 -0.0775
 2730SOL    HW219827   4.562   1.002  12.718  2.9842  0.6115  0.5817
 2731SOL     OW19828   1.735   4.114   7.527 -0.2589 -0.5496 -0.0764
 2731SOL    HW119829   1.713   4.155   7.611  0.7998 -1.3944  0.6166
 2731SOL    HW219830   1.647   4.089   7.501  0.0755 -2.1185  0.3143
 2732SOL     OW19831   1.023   1.164   4.519 -0.3210  0.6430 -0.5166
 2732SOL    HW119832   0.941   1.127   4.486 -1.4279  2.3379  0.2865
 2732SOL    HW219833   0.991   1.201   4.602  0.0336  0.4315 -0.2868
 2733SOL     OW19834   0.569   0.221  12.615 -0.1094  0.5394 -0.0758
 2733SOL    HW119835   0.555   0.263  12.700 -1.1146 -0.1222  0.0838
 2733SOL    HW219836   0.649   0.170  12.610 -1.6281 -1.7560 -1.1349
 2734SOL     OW19837   2.757   4.137  12.951 -0.4410  0.0782  0.6158
 2734SOL    HW119838   2.775   4.147  13.045  4.4128  1.7171 -0.5034
 2734SOL    HW219839   2.741   4.042  12.950  3.7749 -0.6491  1.1607
 2735SOL     OW19840   4.724   1.457   2.398  0.0962  0.1732 -0.0585
 2735SOL    HW119841   4.665   1.532   2.395  2.1266  1.7995  0.3237
 2735SOL    HW219842   4.734   1.438   2.304 -0.1447  0.4716 -0.1458
 2736SOL     OW19843   0.543   3.697   5.077  0.0833 -0.1271  0.7887
 2736SOL    HW119844   0.500   3.623   5.121  0.8838 -1.3936 -0.5443
 2736SOL    HW219845   0.632   3.708   5.112  0.2446 -1.0545  0.6690
 2737SOL     OW19846   0.083   0.271  13.036  0.0928  0.6977 -0.3086
 2737SOL    HW119847   0.055   0.191  13.080  2.9533  1.0323  2.0731
 2737SOL    HW219848   0.078   0.339  13.103  0.6511 -0.0903  0.5308
 2738SOL     OW19849   0.204   1.484   8.445  0.1344 -0.3670  0.0161
 2738SOL    HW119850   0.223   1.570   8.482 -2.7266 -0.7767  2.4602
 2738SOL    HW219851   0.109   1.485   8.442  0.2240 -0.4127 -2.6467
 2739SOL     OW19852   3.390   1.916   1.959 -0.0984 -0.2956  0.2443
 2739SOL    HW119853   3.313   1.908   1.903  0.5184 -0.7559 -0.5416
 2739SOL    HW219854   3.359   1.903   2.048  1.3905 -0.7803  0.6942
 2740SOL     OW19855   1.576   0.855   7.253 -0.3381 -0.3516 -0.0530
 2740SOL    HW119856   1.628   0.909   7.312 -0.1668 -0.7810  0.1851
 2740SOL    HW219857   1.585   0.910   7.175 -1.2598  0.8143  0.6538
 2741SOL     OW19858   2.370   2.543   6.124 -0.3739  0.2218  0.3611
 2741SOL    HW119859   2.322   2.624   6.109 -1.7798 -0.9444 -1.4927
 2741SOL    HW219860   2.335   2.504   6.204 -1.0161  2.6055  1.2325
 2742SOL     OW19861   3.909   3.584   7.668 -0.1901  0.3219  0.0096
 2742SOL    HW119862   3.855   3.510   7.695  0.3182  1.5895  4.5817
 2742SOL    HW219863   3.949   3.606   7.752  0.0949 -0.3125  0.0409
 2743SOL     OW19864   4.398   0.970   5.938  0.1379  0.7586  0.1287
 2743SOL    HW119865   4.480   0.926   5.919 -1.1840 -0.5804 -2.5660
 2743SOL    HW219866   4.336   0.911   5.895 -1.3609  1.9645  0.6066
 2744SOL     OW19867   2.601   2.107  13.204 -0.2297  0.1050  0.3310
 2744SOL    HW119868   2.686   2.138  13.173 -1.1902  1.2176 -1.2196
 2744SOL    HW219869   2.561   2.188  13.235  1.7518  2.2871 -2.8105
 2745SOL     OW19870   1.832   0.998  11.545  0.2012 -0.2051 -0.0470
 2745SOL    HW119871   1.839   1.093  11.548  0.1857 -0.2202  0.4466
 2745SOL    HW219872   1.739   0.991  11.563  0.8793 -1.0685  3.1191
 2746SOL     OW19873   0.119   2.826  16.357  0.1668 -0.1191 -0.4255
 2746SOL    HW119874   0.064   2.864  16.288 -2.0453  0.7364  1.8282
 2746SOL    HW219875   0.068   2.845  16.435  2.4300  0.4918  0.8894
 2747SOL     OW19876   3.204   3.691   6.396  0.3157 -0.5732  0.1311
 2747SOL    HW119877   3.239   3.748   6.327 -2.1946 -0.3706 -0.9654
 2747SOL    HW219878   3.111   3.699   6.373  0.9897 -0.7367 -2.7393
 2748SOL     OW19879   3.604   1.512   4.987  0.0314  0.1557 -0.0893
 2748SOL    HW119880   3.629   1.480   5.074 -2.0013  3.2805  1.6296
 2748SOL    HW219881   3.516   1.477   4.973 -0.4034  1.0976  0.3324
 2749SOL     OW19882   1.788   4.401   7.392  0.2243  0.6388  0.4255
 2749SOL    HW119883   1.804   4.352   7.473  2.2377  0.8839  0.1787
 2749SOL    HW219884   1.790   4.330   7.328 -0.5733  0.7862  0.2317
 2750SOL     OW19885   1.878   1.633   7.108  0.0007 -0.1588  0.3863
 2750SOL    HW119886   1.917   1.547   7.095 -0.2972 -0.1369 -0.6614
 2750SOL    HW219887   1.792   1.604   7.138  0.2233 -0.9132  0.2813
 2751SOL     OW19888   0.071   3.187   2.379  0.4177 -0.2533  0.2453
 2751SOL    HW119889   0.065   3.252   2.308  1.7719  1.2319  1.4878
 2751SOL    HW219890   0.137   3.127   2.344 -0.7033 -0.1657 -2.0059
 2752SOL     OW19891   1.620   4.400  12.589 -0.6078 -0.2329  0.2741
 2752SOL    HW119892   1.619   4.421  12.683  0.0633  0.3157  0.1608
 2752SOL    HW219893   1.705   4.359  12.573  0.7112  1.9543  1.6261
 2753SOL     OW19894   3.441   3.343  17.031 -0.6405 -0.1047  0.4235
 2753SOL    HW119895   3.447   3.400  17.108  0.8954  0.6483 -0.2788
 2753SOL    HW219896   3.346   3.331  17.032 -0.6349 -0.1436  0.5624
 2754SOL     OW19897   2.374   1.287   6.103  0.4372  0.6990 -0.2024
 2754SOL    HW119898   2.465   1.258   6.115  0.5163  1.1273  0.2106
 2754SOL    HW219899   2.317   1.223   6.146  1.7486  0.3356  1.0170
 2755SOL     OW19900   2.504   3.648   0.089  0.2545  0.1447 -0.1179
 2755SOL    HW119901   2.584   3.628   0.040  0.6408 -3.7711  2.2138
 2755SOL    HW219902   2.544   3.695   0.162 -0.4088 -0.8418  0.8577
 2756SOL     OW19903   3.855   3.731   1.097 -0.2073  0.2623  0.0231
 2756SOL    HW119904   3.848   3.753   1.190  0.9973 -2.3413  0.7302
 2756SOL    HW219905   3.765   3.706   1.074 -0.0310 -0.7175  0.3922
 2757SOL     OW19906   1.746   0.211   5.292 -0.2155 -0.4160 -0.5726
 2757SOL    HW119907   1.823   0.198   5.347 -0.5071  0.5847  0.0672
 2757SOL    HW219908   1.771   0.293   5.249 -0.1540 -0.1583 -0.0416
 2758SOL     OW19909   4.242   2.673   1.351  0.6860  0.1050  0.8195
 2758SOL    HW119910   4.182   2.739   1.385  1.5941  1.4790 -0.2795
 2758SOL    HW219911   4.322   2.714   1.382  1.3034 -0.5617  0.0982
 2759SOL     OW19912   3.961   4.193   3.109 -0.2828  0.4989  0.6849
 2759SOL    HW119913   3.991   4.104   3.125 -1.8783 -0.1125  0.2858
 2759SOL    HW219914   4.001   4.238   3.183  0.8552  0.9341 -0.1974
 2760SOL     OW19915   2.508   0.249  10.541 -0.0592 -0.1404 -0.1843
 2760SOL    HW119916   2.558   0.172  10.513  0.6850  0.7464 -1.3491
 2760SOL    HW219917   2.431   0.246  10.484 -0.1724  2.0815 -0.1609
 2761SOL     OW19918   1.529   3.088   7.303  0.4831 -0.1515  1.0239
 2761SOL    HW119919   1.580   3.162   7.336 -0.9658  0.5487  1.7199
 2761SOL    HW219920   1.488   3.046   7.379 -2.4678  1.7956  0.5323
 2762SOL     OW19921   1.126   4.387   0.686  0.4604 -0.0335 -0.3086
 2762SOL    HW119922   1.039   4.408   0.719 -0.6984 -2.3384 -1.8538
 2762SOL    HW219923   1.099   4.353   0.600 -0.9363  2.0442 -0.7061
 2763SOL     OW19924   3.237   1.709   4.237 -0.1734 -0.2080 -0.5137
 2763SOL    HW119925   3.207   1.717   4.327 -2.2118 -1.7210 -1.0665
 2763SOL    HW219926   3.171   1.759   4.189  0.2295 -0.5796 -1.4629
 2764SOL     OW19927   3.186   0.749  17.224  0.2796  0.2231  0.3135
 2764SOL    HW119928   3.264   0.775  17.274 -0.7298 -1.2294  2.6510
 2764SOL    HW219929   3.184   0.816  17.156 -0.5951  0.9294  1.0405
 2765SOL     OW19930   1.293   0.206   9.042  0.2224 -0.5380 -0.4348
 2765SOL    HW119931   1.367   0.212   8.981  0.6709 -1.6104  0.0087
 2765SOL    HW219932   1.338   0.161   9.113 -0.6812 -1.0817 -0.2109
 2766SOL     OW19933   2.606   0.343   8.840 -0.3369 -0.1108  0.5482
 2766SOL    HW119934   2.603   0.371   8.931  0.0479 -2.4515  1.2612
 2766SOL    HW219935   2.698   0.324   8.826 -0.8921 -1.7632 -0.9091
 2767SOL     OW19936   2.296   3.379   6.957  0.5015 -0.2702  0.2546
 2767SOL    HW119937   2.251   3.440   6.899  0.4884 -1.8910 -1.4279
 2767SOL    HW219938   2.384   3.416   6.960 -0.2893  1.6450 -0.2494
 2768SOL     OW19939   1.337   1.262  10.055 -0.2042  0.6439 -0.2282
 2768SOL    HW119940   1.276   1.242   9.984 -0.4655 -3.1631  1.0902
 2768SOL    HW219941   1.400   1.195  10.032  0.0314 -0.0592  2.4348
 2769SOL     OW19942   3.814   2.450  17.214 -0.3674 -0.4854 -0.1637
 2769SOL    HW119943   3.843   2.404  17.293  1.5432  2.3184  0.7304
 2769SOL    HW219944   3.762   2.383  17.168 -0.9850  0.5844 -1.0164
 2770SOL     OW19945   3.873   3.062   6.362  0.6119 -0.2495 -0.4618
 2770SOL    HW119946   3.888   2.967   6.358 -2.0478 -0.6478 -1.3510
 2770SOL    HW219947   3.881   3.097   6.273  1.4882  0.1665 -0.2162
 2771SOL     OW19948   2.418   2.562   7.537 -0.5909 -0.2745 -0.7266
 2771SOL    HW119949   2.391   2.516   7.616  1.6516 -0.8612 -0.2817
 2771SOL    HW219950   2.512   2.562   7.557 -0.1554  0.5474 -2.7640
 2772SOL     OW19951   0.549   3.605   3.931  0.1732  0.2686 -0.2450
 2772SOL    HW119952   0.482   3.564   3.877 -1.1845 -0.2786  1.8488
 2772SOL    HW219953   0.528   3.697   3.914 -0.4866  0.2660  0.5873
 2773SOL     OW19954   0.222   1.850   3.459 -0.3590 -0.8497 -0.1680
 2773SOL    HW119955   0.210   1.792   3.384 -0.1378 -1.0496 -0.0498
 2773SOL    HW219956   0.159   1.816   3.523  0.2815 -1.4508  0.1394
 2774SOL     OW19957   1.936   2.246   2.816 -0.1411  0.1386 -0.4573
 2774SOL    HW119958   2.008   2.251   2.754 -1.4737 -2.1192 -2.2033
 2774SOL    HW219959   1.969   2.297   2.890 -2.2360 -2.7764  2.5200
 2775SOL     OW19960   0.665   4.012   5.906  0.5720  0.6708  0.1008
 2775SOL    HW119961   0.627   4.025   5.819  0.0648 -0.7263  0.1189
 2775SOL    HW219962   0.754   3.980   5.890  0.7122  0.6155  0.9596
 2776SOL     OW19963   3.396   3.607   9.599 -0.0088  0.0867 -0.1311
 2776SOL    HW119964   3.345   3.676   9.557 -1.1630  1.1268  2.9735
 2776SOL    HW219965   3.339   3.531   9.583 -0.7069  0.4908  0.4329
 2777SOL     OW19966   1.303   1.369   5.839 -0.3588  0.0288  1.1551
 2777SOL    HW119967   1.273   1.455   5.869 -1.3595  0.2998 -0.5977
 2777SOL    HW219968   1.238   1.309   5.878  0.5219 -1.0709  0.9364
 2778SOL     OW19969   2.674   1.449   9.345 -0.3728  0.4050  0.0535
 2778SOL    HW119970   2.749   1.502   9.316 -1.9401  2.2681 -0.5710
 2778SOL    HW219971   2.599   1.491   9.304 -1.4439 -2.3722 -0.7621
 2779SOL     OW19972   2.267   2.505  10.225  0.1479  0.2449 -0.3632
 2779SOL    HW119973   2.288   2.598  10.240  2.7717 -0.3885 -0.1737
 2779SOL    HW219974   2.360   2.488  10.211 -0.2339 -1.2792 -0.9482
 2780SOL     OW19975   2.766   3.420   7.665  0.1390  0.0483 -0.3014
 2780SOL    HW119976   2.779   3.363   7.740  0.1331  1.8252  1.0485
 2780SOL    HW219977   2.677   3.391   7.646 -0.3764  0.7907  1.0143
 2781SOL     OW19978   3.274   1.598  13.905 -0.1445 -0.2064  0.3501
 2781SOL    HW119979   3.285   1.676  13.959  1.6388  0.7015 -1.3333
 2781SOL    HW219980   3.181   1.603  13.882  0.0487  1.5842 -0.0746
 2782SOL     OW19981   0.679   1.139   8.675  0.2870  0.7152 -0.3214
 2782SOL    HW119982   0.759   1.190   8.688  0.1861  0.6078  0.7268
 2782SOL    HW219983   0.628   1.157   8.754  1.3204 -0.3973  0.6177
 2783SOL     OW19984   2.340   2.573  14.043 -0.5711  0.0304  0.0605
 2783SOL    HW119985   2.310   2.497  14.093 -0.4043 -1.2483 -1.7488
 2783SOL    HW219986   2.265   2.592  13.986 -0.5828  0.6393  0.2824
 2784SOL     OW19987   4.237   3.595   8.242  0.1638 -0.3906  0.2919
 2784SOL    HW119988   4.221   3.507   8.209  1.3099 -0.3977 -0.2566
 2784SOL    HW219989   4.175   3.650   8.193  0.4732 -0.3712 -0.0757
 2785SOL     OW19990   1.677   0.993   3.643  0.3661  0.0691 -0.0394
 2785SOL    HW119991   1.613   1.037   3.587  0.1544  0.2018  0.3075
 2785SOL    HW219992   1.737   0.956   3.578  1.1515  1.1026  0.0892
 2786SOL     OW19993   2.204   0.306  17.554 -0.0550 -0.5310 -0.1403
 2786SOL    HW119994   2.300   0.301  17.545 -0.0536  0.4347 -0.6848
 2786SOL    HW219995   2.200   0.397  17.586  3.5118 -1.1875  2.2038
 2787SOL     OW19996   4.411   3.192   7.131  0.2873  0.1803  0.0806
 2787SOL    HW119997   4.498   3.221   7.104  0.6840  0.0808  1.2555
 2787SOL    HW219998   4.364   3.194   7.047 -2.8698 -2.0399  1.8272
 2788SOL     OW19999   2.714   0.576   4.902  0.1839  0.7982 -0.2482
 2788SOL    HW120000   2.633   0.565   4.953 -0.2663  2.2173 -0.6391
 2788SOL    HW220001   2.693   0.530   4.821  1.8571  0.1780 -0.3141
 2789SOL     OW20002   4.523   3.377   4.009 -0.1931 -0.3330  0.8347
 2789SOL    HW120003   4.582   3.346   4.078 -1.9540  2.3124  3.4761
 2789SOL    HW220004   4.559   3.465   3.995 -2.4873  0.6414  1.1184
 2790SOL     OW20005   0.597   3.220   8.830 -0.6766  0.3263 -0.3688
 2790SOL    HW120006   0.600   3.263   8.916 -2.5160 -3.6252  1.6568
 2790SOL    HW220007   0.690   3.199   8.819 -0.9070 -1.2105  0.7197
 2791SOL     OW20008   1.483   1.832   4.218 -0.6482  0.1911 -0.2766
 2791SOL    HW120009   1.486   1.753   4.164 -0.3627  0.6991 -1.0027
 2791SOL    HW220010   1.577   1.846   4.227 -0.7988  0.6207  0.6189
 2792SOL     OW20011   3.408   4.150   2.022 -0.4048  0.4843  0.0049
 2792SOL    HW120012   3.450   4.134   2.106 -0.1783  3.1919  0.4105
 2792SOL    HW220013   3.353   4.071   2.019 -0.4754  0.4998  0.7387
 2793SOL     OW20014   0.499   2.693  13.253  0.5485  0.3291  0.2665
 2793SOL    HW120015   0.421   2.675  13.201 -0.7482  0.7447  2.1037
 2793SOL    HW220016   0.552   2.706  13.174  0.4290 -1.3342 -0.1024
 2794SOL     OW20017   1.034   0.403   0.784  0.3235 -0.0047  0.2467
 2794SOL    HW120018   1.037   0.308   0.791 -0.8953 -0.1654 -1.3823
 2794SOL    HW220019   1.057   0.424   0.694 -1.6715 -1.4621 -0.6132
 2795SOL     OW20020   0.011   3.782  13.542 -0.6215  0.1173 -0.7387
 2795SOL    HW120021   0.006   3.816  13.631  1.9332 -0.9876 -0.1781
 2795SOL    HW220022   0.051   3.855  13.496 -2.3610  1.0024 -0.8209
 2796SOL     OW20023   1.286   1.171  10.341  0.1276 -0.2492  0.0434
 2796SOL    HW120024   1.310   1.205  10.255  0.0606 -0.6787 -0.1421
 2796SOL    HW220025   1.344   1.224  10.396  0.8648 -1.0669  0.0577
 2797SOL     OW20026   3.496   3.090  10.969 -0.5172 -0.2527 -0.3912
 2797SOL    HW120027   3.522   3.182  10.966 -1.1441 -0.1542 -2.9024
 2797SOL    HW220028   3.572   3.049  11.010 -0.4879 -0.7312 -0.9220
 2798SOL     OW20029   3.963   3.583   0.073  0.2403 -0.3760 -0.4606
 2798SOL    HW120030   3.906   3.510   0.093 -1.5766  1.8275  2.4434
 2798SOL    HW220031   4.039   3.546   0.118  1.6976 -0.8521 -3.3087
 2799SOL     OW20032   3.595   4.388   2.922  0.2055  0.7248 -0.3732
 2799SOL    HW120033   3.680   4.404   2.882 -0.8568 -0.4379 -3.1062
 2799SOL    HW220034   3.620   4.319   2.983  0.4508 -2.4248 -4.0470
 2800SOL     OW20035   0.536   3.878  17.655  0.1783  0.1848  1.1431
 2800SOL    HW120036   0.530   3.785  17.633  0.4233  0.5781 -0.5761
 2800SOL    HW220037   0.442   3.891  17.672 -0.0715  1.1503 -0.9832
 2801SOL     OW20038   1.926   2.201   6.668 -0.5047 -0.0235 -0.1901
 2801SOL    HW120039   1.860   2.162   6.726 -1.6356  3.1500  0.6446
 2801SOL    HW220040   1.888   2.155   6.593 -0.8966 -0.2568  0.1436
 2802SOL     OW20041   0.183   2.548   6.512  0.6569  0.2523 -0.2784
 2802SOL    HW120042   0.173   2.524   6.420 -0.6508 -0.6140  0.0833
 2802SOL    HW220043   0.273   2.581   6.517  0.4688  0.8367 -0.8039
 2803SOL     OW20044   3.161   3.195   2.571  0.0432  0.2653 -0.0949
 2803SOL    HW120045   3.155   3.137   2.495  0.6176  0.8835 -0.6000
 2803SOL    HW220046   3.102   3.265   2.542  4.5765  4.0781  0.0879
 2804SOL     OW20047   3.476   4.581   7.486 -0.1492  0.0099  0.0282
 2804SOL    HW120048   3.530   4.506   7.460 -0.8536  0.2578 -2.1649
 2804SOL    HW220049   3.469   4.562   7.580 -0.4750  1.3457  0.2716
 2805SOL     OW20050   2.031   2.706  14.612  0.3340 -0.0193  0.1804
 2805SOL    HW120051   1.979   2.627  14.599  1.8711 -1.3471  1.9994
 2805SOL    HW220052   2.058   2.692  14.703  1.9200 -1.2176 -0.4732
 2806SOL     OW20053   4.545   4.154  13.967 -0.5002  0.2313  0.1994
 2806SOL    HW120054   4.597   4.192  13.896 -2.7275  1.1586 -0.9210
 2806SOL    HW220055   4.465   4.198  13.941 -0.7150  0.1454  0.7078
 2807SOL     OW20056   2.599   2.529   2.952  0.4926  0.0963 -0.1862
 2807SOL    HW120057   2.693   2.517   2.941  0.2781 -0.5798 -1.3091
 2807SOL    HW220058   2.562   2.495   2.870  2.7276  1.2596 -1.6685
 2808SOL     OW20059   1.209   1.587   4.420  0.0652  0.1696  0.7345
 2808SOL    HW120060   1.253   1.641   4.486 -0.9398  1.5642  0.2597
 2808SOL    HW220061   1.221   1.496   4.448  0.5988  0.1195  0.3532
 2809SOL     OW20062   1.769   0.121   8.633  0.0740 -0.2455  0.1940
 2809SOL    HW120063   1.691   0.171   8.609  1.6633  0.9825 -2.4279
 2809SOL    HW220064   1.750   0.106   8.725 -2.1809 -1.0859 -0.4155
 2810SOL     OW20065   0.910   0.190   7.223  0.2639 -0.2423  0.3727
 2810SOL    HW120066   0.846   0.214   7.156  1.5250 -2.0702 -1.4868
 2810SOL    HW220067   0.982   0.251   7.208 -0.3041  0.9207  2.2835
 2811SOL     OW20068   1.050   0.067   6.687 -0.4524  0.1310  0.0154
 2811SOL    HW120069   1.059   0.156   6.721 -1.8918 -0.1178  1.0828
 2811SOL    HW220070   0.995   0.087   6.611 -0.5360  3.4817  0.9351
 2812SOL     OW20071   1.685   2.804   4.667 -0.4540  0.2559 -0.2627
 2812SOL    HW120072   1.758   2.839   4.615  2.4105 -2.7514  1.6567
 2812SOL    HW220073   1.740   2.757   4.730 -2.0117  1.8545  2.2610
 2813SOL     OW20074   0.187   2.976  15.420  0.2184  0.2413  0.1672
 2813SOL    HW120075   0.161   2.926  15.343 -1.5362  1.8346 -0.2493
 2813SOL    HW220076   0.188   2.907  15.488  1.2172 -0.3511 -0.4433
 2814SOL     OW20077   4.370   3.638  16.683 -0.2839 -0.4872 -0.1013
 2814SOL    HW120078   4.428   3.708  16.652 -1.0111 -0.2395 -0.8841
 2814SOL    HW220079   4.396   3.566  16.626  0.6451 -1.2083  1.2203
 2815SOL     OW20080   1.704   2.016  11.175  0.3287 -0.9518 -0.0493
 2815SOL    HW120081   1.669   2.087  11.121 -1.8645  0.7674  3.6617
 2815SOL    HW220082   1.739   2.065  11.249 -0.9426 -0.4857  0.2465
 2816SOL     OW20083   0.824   2.734  11.747 -0.0670 -0.1112  0.2383
 2816SOL    HW120084   0.836   2.724  11.842  2.8957  0.8956 -0.0139
 2816SOL    HW220085   0.901   2.692  11.709  0.6912  0.0629  1.5709
 2817SOL     OW20086   2.162   3.729   4.141  0.8955  0.2189 -0.5885
 2817SOL    HW120087   2.186   3.665   4.074  0.4365 -1.1559  0.5628
 2817SOL    HW220088   2.245   3.743   4.188  0.3496 -1.8511  0.9913
 2818SOL     OW20089   2.273   0.589  14.405 -0.2330 -0.3895  0.2620
 2818SOL    HW120090   2.310   0.511  14.448 -0.0693 -0.1057  0.6324
 2818SOL    HW220091   2.276   0.568  14.312 -0.7551  0.1415  0.1251
 2819SOL     OW20092   0.092   2.953   5.129 -0.3325  0.1135 -0.6430
 2819SOL    HW120093   0.096   3.010   5.206 -0.7711  0.1516 -0.6504
 2819SOL    HW220094   0.013   2.899   5.133 -0.1037 -0.2256 -0.6922
 2820SOL     OW20095   2.748   0.362   2.941 -0.7047  0.0188  0.3586
 2820SOL    HW120096   2.762   0.281   2.892 -2.1334 -0.3876  0.6236
 2820SOL    HW220097   2.837   0.391   2.959 -1.0254  1.2652 -0.0614
 2821SOL     OW20098   1.852   1.526   7.811 -0.4247 -0.5889  0.2359
 2821SOL    HW120099   1.936   1.512   7.767 -1.0641  1.0423 -1.5042
 2821SOL    HW220100   1.851   1.451   7.870  0.0814 -0.9775 -0.2546
 2822SOL     OW20101   2.627   4.427  10.030 -0.2113  0.0420 -0.9788
 2822SOL    HW120102   2.675   4.495   9.983 -0.7654  1.8836  1.0875
 2822SOL    HW220103   2.680   4.350  10.011  1.0508  0.4572  0.8797
 2823SOL     OW20104   3.888   4.566   8.439  0.9027  0.9039  0.1136
 2823SOL    HW120105   3.873   4.594   8.348 -1.3829  0.1561  0.2601
 2823SOL    HW220106   3.797   4.568   8.470  0.8408 -2.9635  0.1007
 2824SOL     OW20107   1.083   0.877   5.438  0.0051  0.8131  0.2718
 2824SOL    HW120108   1.159   0.931   5.418 -0.5846  1.9930  1.2274
 2824SOL    HW220109   1.137   0.803   5.467  0.8519  0.2908 -2.6605
 2825SOL     OW20110   3.068   3.346   7.596 -0.2420  0.3101 -0.1481
 2825SOL    HW120111   3.007   3.417   7.578 -1.2627 -0.3472  0.7332
 2825SOL    HW220112   3.082   3.306   7.510 -0.8021 -0.3310  0.0511
 2826SOL     OW20113   1.919   0.648  16.689 -0.0719 -0.7185 -0.0195
 2826SOL    HW120114   1.935   0.736  16.722  1.9719 -0.2952 -2.1214
 2826SOL    HW220115   1.912   0.597  16.770 -1.7676 -1.6030 -0.7154
 2827SOL     OW20116   4.514   2.961   6.382 -0.3113 -0.2359  0.4209
 2827SOL    HW120117   4.440   3.012   6.415  0.5002  1.4265 -0.3032
 2827SOL    HW220118   4.501   2.882   6.434 -2.2485  1.2030  2.1364
 2828SOL     OW20119   3.560   1.200   4.249  0.0865 -0.4376 -0.2013
 2828SOL    HW120120   3.532   1.248   4.171 -1.4679 -0.2044  0.4974
 2828SOL    HW220121   3.650   1.183   4.224 -0.6114 -1.0230 -2.2811
 2829SOL     OW20122   4.486   2.808   7.922 -0.3170  0.3478  0.1503
 2829SOL    HW120123   4.435   2.846   7.993  2.3664  0.6502  1.9166
 2829SOL    HW220124   4.539   2.743   7.970  1.1590  1.1274 -0.4270
 2830SOL     OW20125   2.307   3.721   5.010 -0.0852  0.4273 -0.3911
 2830SOL    HW120126   2.333   3.746   5.099 -0.1028 -0.6949 -0.0767
 2830SOL    HW220127   2.250   3.798   5.003  0.3491  0.8875  1.0499
 2831SOL     OW20128   2.733   0.105  10.394  0.0341  0.3142  0.6454
 2831SOL    HW120129   2.653   0.119  10.344  0.1291 -3.6220 -0.5942
 2831SOL    HW220130   2.764   0.023  10.357 -0.4388 -0.4844  2.0443
 2832SOL     OW20131   2.416   1.099   8.202  0.0031  0.2727 -0.2770
 2832SOL    HW120132   2.470   1.170   8.237  0.1978  1.4028 -2.8274
 2832SOL    HW220133   2.432   1.104   8.107 -0.1707  0.8834 -0.2701
 2833SOL     OW20134   2.621   1.506   7.490  0.1026  0.4896  0.2585
 2833SOL    HW120135   2.596   1.454   7.567 -1.5644  1.3524  0.3148
 2833SOL    HW220136   2.584   1.588   7.525 -2.6733  0.2739 -2.1843
 2834SOL     OW20137   1.899   1.836  11.059 -0.3931  0.4473  0.2893
 2834SOL    HW120138   1.834   1.903  11.079  0.7972  0.9083  2.4783
 2834SOL    HW220139   1.867   1.752  11.092 -0.1957  0.0506 -0.5144
 2835SOL     OW20140   4.584   3.615   3.481  0.7996 -0.1516  0.2725
 2835SOL    HW120141   4.529   3.648   3.410  0.0710 -2.0960 -0.0706
 2835SOL    HW220142   4.656   3.568   3.441 -1.7212 -1.6182 -2.5076
 2836SOL     OW20143   4.066   0.603   3.306 -0.4304 -0.3458  0.0550
 2836SOL    HW120144   4.032   0.525   3.262 -1.0324  1.0356 -1.9563
 2836SOL    HW220145   4.129   0.629   3.238 -1.2888  1.0479 -0.2145
 2837SOL     OW20146   4.130   3.774   4.691 -0.1814 -0.7270 -0.0092
 2837SOL    HW120147   4.052   3.794   4.742  0.8787  0.4091  1.2021
 2837SOL    HW220148   4.192   3.785   4.764 -1.6077  1.1554  0.9331
 2838SOL     OW20149   3.925   1.137   4.472  0.0543 -0.0113  0.0448
 2838SOL    HW120150   3.953   1.216   4.518  0.0183  0.2863 -0.4475
 2838SOL    HW220151   4.008   1.095   4.451  1.0313  1.6036  0.7055
 2839SOL     OW20152   3.103   4.327  15.356 -0.0383 -0.0913  0.5528
 2839SOL    HW120153   3.059   4.408  15.330 -1.8220 -0.3823  2.6598
 2839SOL    HW220154   3.178   4.360  15.404 -1.2624  1.4214  1.4429
 2840SOL     OW20155   2.284   2.824   6.175 -0.3858 -0.4023  0.0971
 2840SOL    HW120156   2.327   2.869   6.248  1.5090  0.8495 -1.7893
 2840SOL    HW220157   2.196   2.861   6.176  0.3471  1.3188  1.0652
 2841SOL     OW20158   0.240   1.475   8.998 -0.0056  0.4335 -0.5629
 2841SOL    HW120159   0.314   1.535   9.002 -0.7242  1.3457 -1.1419
 2841SOL    HW220160   0.172   1.521   9.048 -0.0820 -1.1153  0.7680
 2842SOL     OW20161   3.424   0.287   4.722 -0.4738 -0.6671  0.5319
 2842SOL    HW120162   3.398   0.196   4.734  4.4873 -2.0369  0.6889
 2842SOL    HW220163   3.508   0.272   4.679  0.0040  1.3772  0.7278
 2843SOL     OW20164   0.296   1.786  15.722  0.3604 -0.0252 -0.0808
 2843SOL    HW120165   0.283   1.838  15.801 -2.6118 -1.4423  0.3508
 2843SOL    HW220166   0.310   1.698  15.756 -0.7225  1.2880  3.6960
 2844SOL     OW20167   1.833   0.509   9.058  0.6202 -0.4111 -0.0531
 2844SOL    HW120168   1.896   0.572   9.094  0.8610 -0.4117 -0.4703
 2844SOL    HW220169   1.858   0.506   8.966  1.8023 -3.1101  0.3620
 2845SOL     OW20170   4.368   1.119  14.427  0.4958  0.0518  0.0868
 2845SOL    HW120171   4.386   1.201  14.381 -0.9253  0.1069 -0.3869
 2845SOL    HW220172   4.285   1.091  14.387  1.3345 -2.9534  0.4375
 2846SOL     OW20173   3.664   1.973   5.345  0.1130  0.1637  0.1435
 2846SOL    HW120174   3.709   1.899   5.306  0.5557  0.9684 -0.8812
 2846SOL    HW220175   3.745   2.023   5.360 -0.3885  1.6072 -1.8442
 2847SOL     OW20176   3.007   0.534   1.820  0.0334  0.2581 -0.4847
 2847SOL    HW120177   3.066   0.521   1.894 -0.6534 -0.2457 -0.0216
 2847SOL    HW220178   2.988   0.449   1.779 -2.7780 -0.0248  1.4299
 2848SOL     OW20179   2.166   1.764   1.978  0.0796 -0.0484  0.0645
 2848SOL    HW120180   2.095   1.793   2.035 -1.3461 -0.5112 -1.4893
 2848SOL    HW220181   2.236   1.810   2.024  0.5022 -0.5395 -0.0828
 2849SOL     OW20182   3.859   1.088   3.732 -0.5378 -0.1420 -0.4884
 2849SOL    HW120183   3.915   1.010   3.732 -0.3490 -0.0079 -0.5715
 2849SOL    HW220184   3.801   1.063   3.660 -1.8002  0.3320  0.3694
 2850SOL     OW20185   1.130   0.515   2.847 -0.4734 -0.1793 -0.7479
 2850SOL    HW120186   1.221   0.487   2.850 -1.1687 -2.0021  3.0102
 2850SOL    HW220187   1.084   0.453   2.791 -1.1909  0.1336 -0.5051
 2851SOL     OW20188   2.417   3.365   0.231  0.1067  0.1430  0.5159
 2851SOL    HW120189   2.391   3.323   0.149  1.3443 -0.2016  0.3078
 2851SOL    HW220190   2.415   3.458   0.211  2.0886 -0.0434 -0.4502
 2852SOL     OW20191   1.497   0.507   1.960  0.0601  0.2969 -0.0725
 2852SOL    HW120192   1.428   0.573   1.955  0.2686  0.5792  0.9281
 2852SOL    HW220193   1.554   0.537   1.889  0.3264  0.3688  0.1725
 2853SOL     OW20194   0.108   0.177  17.706  0.1466 -0.3175  0.1432
 2853SOL    HW120195   0.147   0.196   0.056  1.1634  0.4094 -0.4894
 2853SOL    HW220196   0.160   0.098  17.690  0.1466 -0.2699 -0.0849
 2854SOL     OW20197   3.200   4.302   4.667 -0.4916 -0.5521  0.1489
 2854SOL    HW120198   3.230   4.380   4.714 -0.2370  0.2007 -1.2666
 2854SOL    HW220199   3.273   4.300   4.605  0.1481 -0.4846  0.9047
 2855SOL     OW20200   2.893   3.310   1.856  0.0906  0.3092  0.2066
 2855SOL    HW120201   2.987   3.324   1.850 -0.0952  0.4854 -2.5395
 2855SOL    HW220202   2.872   3.309   1.762  2.8151 -2.7397 -0.3793
 2856SOL     OW20203   0.522   1.321   2.319  0.1527 -0.3683  0.2276
 2856SOL    HW120204   0.441   1.283   2.353  1.3794 -1.8628  1.4873
 2856SOL    HW220205   0.584   1.303   2.390  1.6401  2.8984 -0.2445
 2857SOL     OW20206   4.433   2.203   4.190 -0.1460 -0.0596  0.4018
 2857SOL    HW120207   4.487   2.280   4.169  1.8617 -0.6909  3.2790
 2857SOL    HW220208   4.466   2.184   4.278  0.4298 -0.3949  0.1214
 2858SOL     OW20209   2.791   2.462   6.561  0.4548 -0.2612 -0.5795
 2858SOL    HW120210   2.864   2.517   6.588  2.8212 -3.4269 -0.5248
 2858SOL    HW220211   2.793   2.472   6.466  1.3799  0.4409 -0.4785
 2859SOL     OW20212   2.889   2.424   7.851  0.3451 -0.2042  0.2751
 2859SOL    HW120213   2.856   2.402   7.764  0.0324 -0.3736  0.4359
 2859SOL    HW220214   2.946   2.347   7.857  0.5124 -0.3317 -3.3721
 2860SOL     OW20215   0.515   1.957  14.157 -0.2258 -0.5117 -0.5423
 2860SOL    HW120216   0.492   1.994  14.243  0.9397  2.3440 -1.4672
 2860SOL    HW220217   0.455   1.883  14.161 -0.2369 -0.5091 -0.6690
 2861SOL     OW20218   4.519   2.027  13.728  0.7498  0.3890 -0.2820
 2861SOL    HW120219   4.430   2.053  13.705  1.2323  1.4660 -0.9036
 2861SOL    HW220220   4.536   1.952  13.671  2.0614  1.0456 -0.7531
 2862SOL     OW20221   4.500   1.634   7.234 -0.4107  0.0331  0.5382
 2862SOL    HW120222   4.587   1.615   7.198 -0.8071 -0.6857 -0.0403
 2862SOL    HW220223   4.441   1.618   7.160 -0.9443  1.8320  0.5812
 2863SOL     OW20224   2.505   1.166   3.360 -0.5478 -0.3860  0.0304
 2863SOL    HW120225   2.557   1.204   3.290  1.0852  0.0968  1.5131
 2863SOL    HW220226   2.550   1.083   3.377  1.5845  0.2255 -2.6752
 2864SOL     OW20227   2.944   2.434   8.307  0.2639 -0.6907 -0.0449
 2864SOL    HW120228   2.952   2.512   8.252  1.5417 -0.7502  0.0482
 2864SOL    HW220229   2.973   2.468   8.392  0.2308 -0.2489 -0.2088
 2865SOL     OW20230   2.742   0.911   5.760 -0.9191  0.6924  0.2929
 2865SOL    HW120231   2.688   0.968   5.815  0.7155  3.1576 -0.6724
 2865SOL    HW220232   2.806   0.886   5.827  1.4081  1.1097 -1.7663
 2866SOL     OW20233   4.148   3.122   9.539 -0.8403 -0.1136  0.2137
 2866SOL    HW120234   4.053   3.127   9.549 -0.6290  3.4013  0.4013
 2866SOL    HW220235   4.153   3.097   9.447 -0.2897  0.4404  0.0969
 2867SOL     OW20236   1.143   1.523   3.758 -0.8316  0.0910  0.0866
 2867SOL    HW120237   1.082   1.450   3.747  0.3641 -0.6054 -1.8899
 2867SOL    HW220238   1.223   1.484   3.794 -0.5428 -0.1697 -0.8535
 2868SOL     OW20239   2.893   1.640   3.085  0.5226  0.3721  0.2424
 2868SOL    HW120240   2.963   1.575   3.075  1.5071  1.8816 -2.6517
 2868SOL    HW220241   2.853   1.646   2.999 -0.8606  1.9266  0.9835
 2869SOL     OW20242   2.106   3.915  10.930 -0.9495 -0.1663  0.0604
 2869SOL    HW120243   2.033   3.901  10.869 -2.9418 -0.6858  2.5710
 2869SOL    HW220244   2.113   3.832  10.976  0.7524  0.6480  1.2294
 2870SOL     OW20245   0.052   0.778  16.665 -0.1863  0.3532  0.0406
 2870SOL    HW120246   4.701   0.760  16.707 -0.1492 -0.3747 -0.1868
 2870SOL    HW220247   0.023   0.801  16.577  1.1457  1.0017 -0.2185
 2871SOL     OW20248   1.741   1.408   3.917  0.0047  0.1299  0.2105
 2871SOL    HW120249   1.835   1.426   3.916  0.0866 -0.2481  0.8255
 2871SOL    HW220250   1.723   1.403   3.823  0.4532  0.5367  0.1047
 2872SOL     OW20251   3.179   2.834  13.826 -0.2902  0.4513 -0.5886
 2872SOL    HW120252   3.133   2.766  13.776  0.8183 -1.5273  1.0944
 2872SOL    HW220253   3.235   2.777  13.878  1.3821  2.2352 -0.4079
 2873SOL     OW20254   1.502   0.819   8.008 -0.2969 -0.0652  0.2213
 2873SOL    HW120255   1.461   0.795   7.925 -2.4789  0.8162  1.0485
 2873SOL    HW220256   1.505   0.731   8.047  0.2616 -0.3157 -0.3930
 2874SOL     OW20257   2.090   3.817   2.283 -0.1057 -0.4344 -0.4928
 2874SOL    HW120258   2.054   3.728   2.287  1.2121 -1.0093 -1.4276
 2874SOL    HW220259   2.026   3.870   2.331 -0.3707  0.0671 -1.3922
 2875SOL     OW20260   3.808   3.597  15.427  0.4862 -0.2468  0.3727
 2875SOL    HW120261   3.722   3.641  15.425  0.8095  0.3349 -0.8886
 2875SOL    HW220262   3.817   3.596  15.522 -1.5839  2.8441  0.6430
 2876SOL     OW20263   0.640   0.406   7.422 -0.1615  0.2667  0.1274
 2876SOL    HW120264   0.613   0.384   7.333  2.2596  1.7672 -0.9913
 2876SOL    HW220265   0.663   0.499   7.415  1.3749  0.0370  2.1497
 2877SOL     OW20266   1.205   3.084   0.761 -0.3408  0.4679 -0.4983
 2877SOL    HW120267   1.184   2.993   0.738  2.6196 -0.6251  1.1616
 2877SOL    HW220268   1.268   3.109   0.694 -0.5129  0.9843 -0.4693
 2878SOL     OW20269   0.687   2.182   7.533  0.0639  0.5592 -0.1966
 2878SOL    HW120270   0.717   2.239   7.463 -0.7309  2.4923  1.0485
 2878SOL    HW220271   0.676   2.253   7.596 -3.4138 -1.1316  1.1473
 2879SOL     OW20272   0.663   2.190   8.479 -0.2642 -0.5871 -0.6956
 2879SOL    HW120273   0.582   2.172   8.432 -0.2902 -1.2370 -0.4074
 2879SOL    HW220274   0.727   2.204   8.410 -0.7919 -0.2566 -1.1195
 2880SOL     OW20275   1.137   3.392   3.418  0.2582 -0.3189 -0.2612
 2880SOL    HW120276   1.215   3.378   3.472  0.4989  0.1301 -0.4932
 2880SOL    HW220277   1.065   3.393   3.480  2.7299 -0.7748  2.6191
 2881SOL     OW20278   0.713   4.467   0.447 -0.1224  0.0288  0.3675
 2881SOL    HW120279   0.706   4.425   0.361  2.5324 -0.3864  0.3555
 2881SOL    HW220280   0.640   4.437   0.502 -1.3727 -0.5761 -1.6234
 2882SOL     OW20281   4.407   1.217   1.640 -0.1719 -0.4443  0.9996
 2882SOL    HW120282   4.404   1.141   1.699 -1.4578  0.6378  2.2991
 2882SOL    HW220283   4.498   1.243   1.656 -1.1994  2.8836  1.3779
 2883SOL     OW20284   2.889   0.302  15.620 -0.1305  0.4418 -0.0549
 2883SOL    HW120285   2.977   0.319  15.585  0.0768 -0.9231 -0.2037
 2883SOL    HW220286   2.873   0.385  15.664  2.3436  1.3091 -0.7741
 2884SOL     OW20287   1.391   4.278   2.233  0.2186  0.2315  0.0932
 2884SOL    HW120288   1.387   4.184   2.251  0.5974 -0.0271 -1.1804
 2884SOL    HW220289   1.402   4.279   2.138 -2.0703  0.5522 -0.1883
 2885SOL     OW20290   4.297   4.067  17.540 -0.2519 -0.1272 -0.0775
 2885SOL    HW120291   4.236   4.124  17.494  1.5111  0.3401 -1.8282
 2885SOL    HW220292   4.248   3.990  17.570  0.5795 -1.0006 -0.9505
 2886SOL     OW20293   2.633   0.153   1.597 -0.2586  0.0621  0.0307
 2886SOL    HW120294   2.588   0.223   1.646  1.7416  0.8016  0.7989
 2886SOL    HW220295   2.627   0.077   1.656  0.8784 -0.4896 -0.5623
 2887SOL     OW20296   1.214   1.444  16.653  0.0361  0.8483  0.0018
 2887SOL    HW120297   1.267   1.460  16.575  0.5242  1.4764  0.4717
 2887SOL    HW220298   1.240   1.522  16.702  2.3390 -0.9431  1.6030
 2888SOL     OW20299   0.564   3.105   7.599  0.1705  0.2774  0.1586
 2888SOL    HW120300   0.643   3.053   7.581  1.5178  2.5488 -0.3793
 2888SOL    HW220301   0.556   3.100   7.695 -1.1644 -0.5011  0.0084
 2889SOL     OW20302   0.940   0.247   9.558  0.1291  0.2300  0.3888
 2889SOL    HW120303   0.959   0.215   9.470 -0.3259 -1.0381  0.7441
 2889SOL    HW220304   0.845   0.234   9.552  0.2314 -0.3106 -0.0703
 2890SOL     OW20305   3.218   4.049   4.830  0.2739  0.4351 -0.0792
 2890SOL    HW120306   3.313   4.061   4.821 -0.0220  1.8995 -1.2492
 2890SOL    HW220307   3.195   4.102   4.754  0.8917 -1.1522 -1.3681
 2891SOL     OW20308   3.645   1.161   4.894 -0.6435 -0.2401 -0.3581
 2891SOL    HW120309   3.604   1.236   4.851  0.8207  1.3403  1.0007
 2891SOL    HW220310   3.676   1.111   4.819  1.6089  0.3014  0.2155
 2892SOL     OW20311   2.758   3.453  11.894 -0.1518  0.1776 -0.8430
 2892SOL    HW120312   2.667   3.480  11.880 -0.0861  1.7264  1.8496
 2892SOL    HW220313   2.803   3.491  11.818  2.4548  1.6668  1.4522
 2893SOL     OW20314   4.079   2.865   8.794 -0.2155 -0.1294 -0.1457
 2893SOL    HW120315   3.984   2.861   8.786 -0.1759  1.7783 -1.5797
 2893SOL    HW220316   4.104   2.784   8.749 -2.5033 -0.7112 -0.3611
 2894SOL     OW20317   3.462   3.545   3.731  0.5501 -0.4605 -0.2787
 2894SOL    HW120318   3.485   3.610   3.664  0.4222  0.8511  0.9566
 2894SOL    HW220319   3.375   3.520   3.699 -0.8350 -0.7776  3.7223
 2895SOL     OW20320   0.272   1.862   7.011 -0.0960 -0.0884  0.1483
 2895SOL    HW120321   0.314   1.831   7.092 -0.2404  1.3954  0.7870
 2895SOL    HW220322   0.240   1.945   7.046 -0.0660  0.4207 -1.0510
 2896SOL     OW20323   4.548   1.426  10.312 -0.5632  0.5317 -0.2526
 2896SOL    HW120324   4.523   1.505  10.361 -0.9665  0.2383  0.0102
 2896SOL    HW220325   4.534   1.352  10.370 -1.2846  1.9126  1.3238
 2897SOL     OW20326   2.187   2.075   5.307  0.5292  0.3300  0.3169
 2897SOL    HW120327   2.214   2.158   5.346  2.2758  0.2182 -0.6395
 2897SOL    HW220328   2.122   2.047   5.371  1.1445 -0.3995  0.6254
 2898SOL     OW20329   2.265   4.193   4.425 -0.2523  0.5309  0.2052
 2898SOL    HW120330   2.323   4.269   4.424 -0.3843  0.6789  3.1025
 2898SOL    HW220331   2.233   4.197   4.335 -1.3397  2.5675  0.6706
 2899SOL     OW20332   0.177   3.804   7.391  0.1920  0.1769 -0.0054
 2899SOL    HW120333   0.084   3.816   7.376  0.7309  1.8164 -2.1552
 2899SOL    HW220334   0.181   3.793   7.486 -0.1568 -0.5717 -0.0821
 2900SOL     OW20335   3.474   2.301   8.545  0.8180  0.1164 -0.4794
 2900SOL    HW120336   3.456   2.389   8.513 -1.0663 -0.0470  0.1577
 2900SOL    HW220337   3.543   2.270   8.485  2.0392  0.0002  0.9828
 2901SOL     OW20338   3.623   2.043  16.919  0.1996 -0.3236 -0.1979
 2901SOL    HW120339   3.612   1.957  16.961 -1.9897 -0.4223 -0.9650
 2901SOL    HW220340   3.533   2.056  16.890  0.4012  0.4492 -0.4721
 2902SOL     OW20341   0.566   1.989  15.436 -1.0829  0.0661  0.0062
 2902SOL    HW120342   0.587   1.921  15.500 -0.6186 -0.2918 -0.5261
 2902SOL    HW220343   0.585   2.061  15.496 -2.3315  0.1760  0.2678
 2903SOL     OW20344   3.337   0.932   6.896 -0.4219 -0.0733  0.0122
 2903SOL    HW120345   3.290   0.951   6.815 -1.9882 -0.2381  0.8890
 2903SOL    HW220346   3.341   1.020   6.932 -1.8450  0.2706 -0.6952
 2904SOL     OW20347   1.957   3.468   0.073  0.0243  0.3032  0.4876
 2904SOL    HW120348   1.888   3.529   0.100  0.7638  1.7313 -0.8362
 2904SOL    HW220349   1.981   3.505  17.724  0.6567  0.4972  0.7471
 2905SOL     OW20350   4.562   0.752   8.412  0.0552 -0.0634 -0.0225
 2905SOL    HW120351   4.574   0.804   8.492 -0.3765  0.6363 -0.4149
 2905SOL    HW220352   4.589   0.664   8.438  4.7821  0.8205 -2.0033
 2906SOL     OW20353   2.420   3.269  12.093  0.2336  0.5958  0.2550
 2906SOL    HW120354   2.374   3.334  12.147 -0.7052 -0.1180  0.3237
 2906SOL    HW220355   2.411   3.186  12.139 -0.6935  0.4591 -0.1775
 2907SOL     OW20356   3.426   2.214   8.167  0.7389 -0.3195 -0.5334
 2907SOL    HW120357   3.423   2.250   8.078 -0.4133 -0.9436 -0.7438
 2907SOL    HW220358   3.335   2.199   8.192 -1.1652  1.6572 -6.3402
 2908SOL     OW20359   1.847   0.517  10.956 -0.4899 -0.7956  0.1538
 2908SOL    HW120360   1.775   0.464  10.920 -1.0709  1.3303 -1.8728
 2908SOL    HW220361   1.825   0.512  11.049 -2.6295 -0.8113 -0.3482
 2909SOL     OW20362   4.171   3.158   1.161 -0.0834 -0.0119  0.1351
 2909SOL    HW120363   4.218   3.180   1.241  0.0787 -0.5900  0.1975
 2909SOL    HW220364   4.210   3.223   1.103 -1.7013 -0.3576 -1.3304
 2910SOL     OW20365   1.318   1.185   8.827 -0.0141  0.2557  0.0829
 2910SOL    HW120366   1.341   1.101   8.867 -0.9802 -1.0250 -2.0534
 2910SOL    HW220367   1.281   1.151   8.746  1.3137 -1.5516  0.2417
 2911SOL     OW20368   0.225   1.995  15.043  0.1481  0.0233  0.1279
 2911SOL    HW120369   0.246   1.989  15.136 -1.8482  2.0143  0.7145
 2911SOL    HW220370   0.313   1.969  15.014  0.5058  0.6571  0.6363
 2912SOL     OW20371   3.327   4.440   5.290 -0.0398 -0.2494  0.2363
 2912SOL    HW120372   3.262   4.510   5.299 -1.2240 -1.2725 -0.4128
 2912SOL    HW220373   3.272   4.381   5.238 -0.4670  2.2347 -2.1458
 2913SOL     OW20374   1.378   3.694   8.983  0.0109  0.1256 -0.2607
 2913SOL    HW120375   1.312   3.736   8.928 -3.0684 -2.7512  1.2338
 2913SOL    HW220376   1.456   3.691   8.927  0.0354 -0.1267 -0.2127
 2914SOL     OW20377   4.625   0.245   7.125  0.0088  0.0069 -0.0165
 2914SOL    HW120378   4.662   0.262   7.212  1.1646 -1.5882 -0.1925
 2914SOL    HW220379   4.592   0.333   7.110  0.7382  0.3082  0.1572
 2915SOL     OW20380   4.534   3.912   5.526 -0.2481  0.4891 -0.1660
 2915SOL    HW120381   4.589   3.834   5.534 -1.5046 -0.2515  1.4676
 2915SOL    HW220382   4.450   3.868   5.539 -0.3630 -0.5231 -4.3472
 2916SOL     OW20383   1.836   4.252  10.226  1.3653 -0.1561  0.2985
 2916SOL    HW120384   1.927   4.229  10.207  1.2897 -0.2666  0.0740
 2916SOL    HW220385   1.847   4.253  10.321  0.4887  0.8761  0.3882
 2917SOL     OW20386   1.909   1.409   2.284 -0.1003  0.0663 -0.4948
 2917SOL    HW120387   1.878   1.366   2.204  0.1757  0.3204 -0.7418
 2917SOL    HW220388   1.965   1.482   2.259  0.0730  0.7477  1.9188
 2918SOL     OW20389   3.896   1.834   2.075  0.1015 -0.4015  0.0602
 2918SOL    HW120390   3.879   1.866   1.986  1.1537 -1.6608 -0.5973
 2918SOL    HW220391   3.875   1.740   2.073  1.8743 -0.8299  1.7019
 2919SOL     OW20392   4.466   1.730   6.384  0.4729 -0.0486 -0.4445
 2919SOL    HW120393   4.554   1.706   6.416  0.0077  0.3967  1.1486
 2919SOL    HW220394   4.459   1.817   6.421  0.4991  0.1280 -0.8501
 2920SOL     OW20395   0.279   4.570   5.036  0.1412 -0.6133  0.2040
 2920SOL    HW120396   0.298   4.610   4.951  0.3774  0.1815  0.6329
 2920SOL    HW220397   0.346   4.620   5.084  0.6583 -0.6684 -0.4673
 2921SOL     OW20398   1.805   0.953   4.618  0.6252 -0.0421 -0.6292
 2921SOL    HW120399   1.828   1.035   4.573  1.1470  0.7774  1.1562
 2921SOL    HW220400   1.726   0.927   4.569  0.6606 -0.3661 -0.5121
 2922SOL     OW20401   4.373   2.847   5.428  0.1099 -0.1024  0.4390
 2922SOL    HW120402   4.414   2.931   5.452  0.9379 -0.9978  2.1584
 2922SOL    HW220403   4.337   2.869   5.342 -0.1758  3.0437  1.3472
 2923SOL     OW20404   4.671   1.377   1.441 -1.0581 -0.1160 -0.5089
 2923SOL    HW120405   4.669   1.305   1.504  0.2823  0.8380  0.5919
 2923SOL    HW220406   4.715   1.342   1.363  0.4067 -3.0248  1.6395
 2924SOL     OW20407   1.805   2.412   3.477 -0.1792 -0.3691 -0.0334
 2924SOL    HW120408   1.716   2.448   3.479 -0.2703 -0.7976  2.5060
 2924SOL    HW220409   1.829   2.424   3.385  0.0773  0.9511  0.1984
 2925SOL     OW20410   3.325   1.131   7.423 -0.1102 -0.1633  0.8084
 2925SOL    HW120411   3.363   1.198   7.480 -3.4831  0.5301  2.2502
 2925SOL    HW220412   3.352   1.165   7.338 -1.3057 -0.0963  0.4513
 2926SOL     OW20413   2.523   0.390   9.845 -0.7460 -0.4005  0.1563
 2926SOL    HW120414   2.499   0.360   9.758 -1.3755 -0.0712  0.2109
 2926SOL    HW220415   2.557   0.478   9.829 -1.5608 -0.3808 -1.4795
 2927SOL     OW20416   2.663   3.534  12.730 -0.1579  0.1494  0.0345
 2927SOL    HW120417   2.742   3.582  12.754  1.1228 -1.3276 -1.2144
 2927SOL    HW220418   2.657   3.449  12.773  2.2035 -0.3403 -0.5783
 2928SOL     OW20419   4.225   3.335  15.030 -0.6975  0.0627 -0.3999
 2928SOL    HW120420   4.166   3.259  15.028  0.0440 -0.3741 -4.1663
 2928SOL    HW220421   4.251   3.339  14.938  2.6403  1.2472  0.6078
 2929SOL     OW20422   0.078   4.191   6.910 -0.4110  0.4193 -0.0619
 2929SOL    HW120423   0.092   4.235   6.994 -0.3200 -0.4477  0.3751
 2929SOL    HW220424   0.131   4.112   6.920 -2.7383 -1.2719 -0.9467
 2930SOL     OW20425   2.053   2.913   2.730 -0.1427 -0.5823  0.4850
 2930SOL    HW120426   2.034   3.002   2.758 -1.4611 -0.8818  0.5081
 2930SOL    HW220427   1.967   2.881   2.703 -0.8735  1.5344  0.2913
 2931SOL     OW20428   3.195   4.684   1.429  0.0251  0.4074 -0.3777
 2931SOL    HW120429   3.144   0.021   1.390 -1.7026 -0.6400 -0.0286
 2931SOL    HW220430   3.240   4.653   1.351  0.3974  0.5808 -0.2335
 2932SOL     OW20431   1.136   3.683   1.279 -0.2439 -0.4014  0.4573
 2932SOL    HW120432   1.060   3.681   1.337 -1.8194  1.8252 -1.5553
 2932SOL    HW220433   1.176   3.598   1.300  0.5481 -0.2450 -0.4451
 2933SOL     OW20434   1.119   2.712   2.278 -0.1429 -0.4478 -0.2304
 2933SOL    HW120435   1.042   2.656   2.268 -0.0146 -0.6071 -0.3387
 2933SOL    HW220436   1.104   2.771   2.204 -0.9682 -1.1072 -0.5826
 2934SOL     OW20437   1.717   2.059   2.644  0.3437  0.0906 -0.0208
 2934SOL    HW120438   1.794   2.069   2.588  0.8985  3.2584  1.3167
 2934SOL    HW220439   1.650   2.104   2.594 -1.3401 -1.1810  1.1027
 2935SOL     OW20440   1.268   3.813   2.069 -0.1888  0.5696 -0.1184
 2935SOL    HW120441   1.231   3.836   1.984  3.1454 -1.3510 -2.1024
 2935SOL    HW220442   1.291   3.720   2.059 -0.1825  0.7068 -1.4714
 2936SOL     OW20443   3.262   1.030   0.693  0.0115 -0.0550  0.0445
 2936SOL    HW120444   3.217   1.027   0.608  0.0106  1.4166 -0.0136
 2936SOL    HW220445   3.226   0.947   0.724 -0.6751  0.2499  0.0644
 2937SOL     OW20446   0.965   1.028   6.811  0.5015 -0.1024  0.2498
 2937SOL    HW120447   0.946   0.961   6.746  2.1267  1.4395 -1.8232
 2937SOL    HW220448   1.040   1.076   6.774  1.0600 -1.5477 -0.5211
 2938SOL     OW20449   0.007   4.181  15.520 -0.3436  0.3136 -0.2862
 2938SOL    HW120450   0.040   4.254  15.573  0.8546 -1.4047  1.3177
 2938SOL    HW220451   0.064   4.110  15.550  1.1027  0.1584 -3.4768
 2939SOL     OW20452   3.185   2.592   2.124  0.3107 -0.5306 -0.1924
 2939SOL    HW120453   3.216   2.533   2.055  1.9942  2.6735 -2.1929
 2939SOL    HW220454   3.165   2.534   2.197  0.9315  1.5682  1.6380
 2940SOL     OW20455   3.880   1.680   8.900  0.6960 -0.8483  0.2234
 2940SOL    HW120456   3.921   1.597   8.876  0.2099 -1.1675  0.4989
 2940SOL    HW220457   3.836   1.701   8.817  1.1356 -0.7237  0.0234
 2941SOL     OW20458   2.650   4.118   5.949  0.5292  0.4399 -0.7809
 2941SOL    HW120459   2.633   4.070   6.030  1.1758  0.8077 -0.4298
 2941SOL    HW220460   2.566   4.139   5.909  0.6055  0.4743 -0.9255
 2942SOL     OW20461   3.057   4.528   1.629  0.5337 -0.7202 -0.2045
 2942SOL    HW120462   2.973   4.569   1.649  1.1080 -0.6519  2.1411
 2942SOL    HW220463   3.091   4.583   1.559 -0.3089  2.2717  1.6973
 2943SOL     OW20464   2.725   0.681  15.895  0.2340  0.6025  0.0812
 2943SOL    HW120465   2.631   0.668  15.907  0.3386 -0.3456 -0.1509
 2943SOL    HW220466   2.760   0.686  15.984  1.2620  0.1429 -0.2957
 2944SOL     OW20467   0.785   2.964   8.103 -0.0474 -0.3701  0.3575
 2944SOL    HW120468   0.860   2.988   8.158  0.4012 -0.4513 -0.2122
 2944SOL    HW220469   0.725   3.034   8.127 -0.9349 -0.9943 -0.0497
 2945SOL     OW20470   3.100   0.205  17.039  0.5807  0.1932 -0.1110
 2945SOL    HW120471   3.082   0.128  17.093  1.4476  0.1042  0.0468
 2945SOL    HW220472   3.058   0.181  16.956  0.8833  0.8509 -0.4517
 2946SOL     OW20473   4.451   2.173  15.684 -0.2049 -0.3847 -0.8511
 2946SOL    HW120474   4.505   2.220  15.748 -0.8997 -0.2619 -0.3620
 2946SOL    HW220475   4.525   2.142  15.632  0.0346 -1.8093  0.3433
 2947SOL     OW20476   1.538   4.702   4.301 -0.2341 -0.0883 -0.7062
 2947SOL    HW120477   1.555   4.624   4.248  0.7669  0.2004 -0.8239
 2947SOL    HW220478   1.478   0.017   4.246  1.0027 -1.4020 -3.2445
 2948SOL     OW20479   2.832   4.110   7.882  0.6036 -0.0690 -0.0558
 2948SOL    HW120480   2.750   4.072   7.913 -0.2601  3.1921  1.5527
 2948SOL    HW220481   2.894   4.072   7.944  0.5755  1.5748  0.9782
 2949SOL     OW20482   1.976   1.444   0.346  0.0962  0.4998 -0.1746
 2949SOL    HW120483   1.932   1.379   0.401  1.6545 -1.3041 -1.0769
 2949SOL    HW220484   2.018   1.388   0.281  1.4186  2.1625 -0.7594
 2950SOL     OW20485   3.198   3.268  11.683 -0.1133 -0.1829  0.3614
 2950SOL    HW120486   3.279   3.278  11.733  0.4506  2.3696 -1.0501
 2950SOL    HW220487   3.207   3.345  11.626 -2.3482 -0.0307  0.2344
 2951SOL     OW20488   0.321   1.562  10.674 -0.0356 -0.0784  0.3740
 2951SOL    HW120489   0.350   1.534  10.761  0.7241  0.2299  0.2228
 2951SOL    HW220490   0.403   1.584  10.631  0.3140  0.3618  1.2608
 2952SOL     OW20491   0.188   1.092   1.606 -0.2888 -0.2953 -0.1618
 2952SOL    HW120492   0.178   1.095   1.701 -3.1741  1.1862 -0.5150
 2952SOL    HW220493   0.281   1.077   1.589 -0.9474 -0.3779 -3.6826
 2953SOL     OW20494   0.582   2.421   5.928  0.4748 -0.1225  0.2379
 2953SOL    HW120495   0.490   2.404   5.948  0.2754  0.4858 -0.1679
 2953SOL    HW220496   0.583   2.511   5.897  4.1290 -0.2533  0.0173
 2954SOL     OW20497   1.888   1.272   1.053 -0.5804 -0.0787 -0.1384
 2954SOL    HW120498   1.914   1.364   1.053 -0.3080 -0.1573  1.4494
 2954SOL    HW220499   1.897   1.265   0.958  2.2414 -0.3873  0.1478
 2955SOL     OW20500   3.756   3.096   1.772  0.4592 -0.1264 -0.0969
 2955SOL    HW120501   3.764   3.113   1.866  2.3425  2.1643 -0.6858
 2955SOL    HW220502   3.812   3.019   1.775  1.6156  0.7193 -0.2485
 2956SOL     OW20503   3.066   1.934   2.941  0.1946 -0.6348  0.3065
 2956SOL    HW120504   3.052   2.024   2.968 -0.2685 -1.5558  3.1699
 2956SOL    HW220505   2.974   1.906   2.945 -0.7062  1.9879 -1.8824
 2957SOL     OW20506   2.563   3.554   5.234 -0.0151 -0.0212 -0.2931
 2957SOL    HW120507   2.496   3.517   5.176 -2.4578  1.3777  1.6083
 2957SOL    HW220508   2.522   3.542   5.320  1.5715  0.1594  0.4865
 2958SOL     OW20509   4.117   3.169   1.987  0.2283 -0.1879  0.1223
 2958SOL    HW120510   4.079   3.207   1.907  0.1558  1.3888  0.9170
 2958SOL    HW220511   4.119   3.078   1.959  0.7134 -0.4211  0.9380
 2959SOL     OW20512   2.072   1.628  10.012 -0.2366  0.9588 -0.2315
 2959SOL    HW120513   2.034   1.607   9.927 -1.1551  0.1215  0.3784
 2959SOL    HW220514   1.992   1.653  10.059 -1.2990 -0.1028 -1.4832
 2960SOL     OW20515   0.489   1.399   8.561 -0.8256  0.3112 -0.2056
 2960SOL    HW120516   0.419   1.346   8.599  0.4836 -0.2232  1.4367
 2960SOL    HW220517   0.474   1.397   8.466 -1.6207  2.2434 -0.1157
 2961SOL     OW20518   3.120   2.807  17.496 -0.0703  0.4754  0.4527
 2961SOL    HW120519   3.063   2.863  17.442  0.3579  0.3519 -0.1321
 2961SOL    HW220520   3.112   2.862  17.574 -0.1381  0.3673  0.5210
 2962SOL     OW20521   0.766   4.568   5.346 -0.2106  0.1289 -0.5932
 2962SOL    HW120522   0.809   4.508   5.407 -0.8619  1.9813  1.6717
 2962SOL    HW220523   0.843   4.622   5.329 -1.0658  1.3175 -0.7061
 2963SOL     OW20524   3.816   0.117  15.736  0.1791  0.5565 -0.4309
 2963SOL    HW120525   3.888   0.178  15.749  0.2355  0.0581  1.5661
 2963SOL    HW220526   3.804   0.123  15.641  0.3107  0.9773 -0.4186
 2964SOL     OW20527   2.687   3.316   0.445  0.1060  0.3491 -0.3807
 2964SOL    HW120528   2.619   3.344   0.384 -0.3073 -0.9289 -0.5182
 2964SOL    HW220529   2.642   3.315   0.529  2.0980 -2.2795  0.6795
 2965SOL     OW20530   0.680   2.511   2.532 -0.3079  0.5404 -0.0331
 2965SOL    HW120531   0.637   2.583   2.578 -1.5544 -0.3749  0.2451
 2965SOL    HW220532   0.609   2.447   2.533 -0.7050  0.9900  0.3683
 2966SOL     OW20533   2.040   4.578   1.150  0.1189 -0.3682 -0.4041
 2966SOL    HW120534   2.023   4.497   1.102 -0.5627 -1.5546  1.8287
 2966SOL    HW220535   2.134   4.584   1.135  0.0049 -1.9318 -1.8019
 2967SOL     OW20536   3.769   2.791  10.775  0.5465  0.1966  0.1525
 2967SOL    HW120537   3.718   2.872  10.775  0.3138  0.0474  1.1051
 2967SOL    HW220538   3.780   2.768  10.867  1.5439 -0.6333 -0.1810
 2968SOL     OW20539   4.696   1.939   4.725 -0.1144  0.1267 -0.2336
 2968SOL    HW120540   4.717   2.025   4.762 -1.5831  1.2815 -2.1114
 2968SOL    HW220541   0.018   1.943   4.648  0.9295 -0.6220  0.4779
 2969SOL     OW20542   2.138   0.539   7.371 -0.4056  0.7389 -0.4917
 2969SOL    HW120543   2.084   0.544   7.450 -3.1641  0.4336 -2.3917
 2969SOL    HW220544   2.073   0.527   7.302 -0.0062  1.3735 -0.9812
 2970SOL     OW20545   4.271   2.971  10.475 -0.2527  0.2730  0.2833
 2970SOL    HW120546   4.204   3.039  10.467  0.5953  1.0743 -0.0709
 2970SOL    HW220547   4.267   2.921  10.393 -2.0165  1.2365 -0.2001
 2971SOL     OW20548   0.143   4.375   8.925  0.1680  0.1330  0.3421
 2971SOL    HW120549   0.227   4.332   8.941  0.2710  0.8807  1.7542
 2971SOL    HW220550   0.172   4.460   8.958  0.6839  0.0144  0.2014
 2972SOL     OW20551   1.923   0.718   1.132  0.2928 -0.6238  0.2958
 2972SOL    HW120552   1.920   0.623   1.115  1.7171 -0.9835  2.0519
 2972SOL    HW220553   1.925   0.713   1.228 -0.5950  2.2149  0.4476
 2973SOL     OW20554   4.505   1.587   0.759  0.5815  0.1227 -0.1269
 2973SOL    HW120555   4.555   1.511   0.789 -1.2548 -0.4528  1.4845
 2973SOL    HW220556   4.418   1.564   0.793  1.7917  0.3531  3.1172
 2974SOL     OW20557   1.118   3.072   3.184 -0.3685  0.3588  0.2558
 2974SOL    HW120558   1.029   3.060   3.152 -1.6222 -0.8336  4.1403
 2974SOL    HW220559   1.165   3.011   3.127 -2.2260 -1.5026  0.7467
 2975SOL     OW20560   1.441   3.920   6.582 -0.2179  0.8192  0.2645
 2975SOL    HW120561   1.418   4.001   6.629  0.2770  1.6440 -0.9219
 2975SOL    HW220562   1.524   3.947   6.544  0.6382  0.7874  2.0929
 2976SOL     OW20563   4.079   3.977   3.266  0.1406 -0.1359 -0.6958
 2976SOL    HW120564   4.098   3.892   3.227  0.1702  0.1211 -1.2330
 2976SOL    HW220565   4.008   3.954   3.327 -1.3679  0.6081 -2.1928
 2977SOL     OW20566   4.638   1.702   7.887 -0.5653 -0.1261  0.1779
 2977SOL    HW120567   4.554   1.694   7.842 -0.6717 -2.0280  0.7159
 2977SOL    HW220568   4.687   1.633   7.841 -0.1917 -0.9406  1.7958
 2978SOL     OW20569   4.654   3.082   8.938 -0.4471  0.0248 -0.4036
 2978SOL    HW120570   4.672   3.053   8.848 -1.1206 -0.6718 -0.3146
 2978SOL    HW220571   4.622   3.001   8.977 -1.5875  2.2100  3.1959
 2979SOL     OW20572   3.456   3.731   5.222 -0.3807 -0.2115 -1.0980
 2979SOL    HW120573   3.440   3.798   5.289  2.1724  1.2380 -1.9316
 2979SOL    HW220574   3.496   3.788   5.156  1.1088  0.2046  0.1436
 2980SOL     OW20575   2.414   0.156  16.400 -0.0179  0.4705  0.0647
 2980SOL    HW120576   2.386   0.093  16.334  1.8431  0.0839 -0.3687
 2980SOL    HW220577   2.399   0.237  16.352 -2.1944  0.1529  0.2064
 2981SOL     OW20578   3.050   0.205   3.410 -0.0752 -0.5274 -0.1753
 2981SOL    HW120579   3.095   0.273   3.360 -0.0206  1.6538  2.8608
 2981SOL    HW220580   3.021   0.264   3.479 -1.1207 -2.7934  1.2995
 2982SOL     OW20581   4.459   2.889  16.760  0.1198 -0.2985  0.3291
 2982SOL    HW120582   4.373   2.923  16.783  0.4537  0.4044  0.5326
 2982SOL    HW220583   4.495   2.863  16.845  0.5227 -0.0916  0.2221
 2983SOL     OW20584   0.638   1.054   3.188  0.3360 -0.0833 -0.1202
 2983SOL    HW120585   0.641   1.012   3.274 -0.1860  1.2758  0.5633
 2983SOL    HW220586   0.725   1.033   3.153 -0.4337 -0.9251 -1.5334
 2984SOL     OW20587   3.675   0.236  14.314  0.2649  0.0192  0.0296
 2984SOL    HW120588   3.715   0.202  14.234 -0.1652 -1.3187  0.3769
 2984SOL    HW220589   3.714   0.180  14.382 -2.5560 -0.8610  0.9089
 2985SOL     OW20590   1.298   3.393   4.143  0.5714  0.0483 -0.0030
 2985SOL    HW120591   1.391   3.385   4.165  0.8036  1.6644 -0.3728
 2985SOL    HW220592   1.302   3.325   4.076 -1.8605 -0.9905  0.8873
 2986SOL     OW20593   4.476   1.762   5.518  0.4196 -0.0826  0.1940
 2986SOL    HW120594   4.480   1.853   5.547 -2.3342  1.3129 -3.7071
 2986SOL    HW220595   4.551   1.752   5.459  0.6180 -2.9300  0.9257
 2987SOL     OW20596   2.313   1.667   4.419  0.0576 -0.0467 -0.4505
 2987SOL    HW120597   2.371   1.742   4.434 -0.3974  0.3108 -0.5050
 2987SOL    HW220598   2.379   1.598   4.424  1.4341  1.4275  2.2077
 2988SOL     OW20599   0.557   2.776   4.661 -0.1029 -0.2149 -0.4924
 2988SOL    HW120600   0.588   2.864   4.682 -0.4394 -0.0386 -0.7186
 2988SOL    HW220601   0.626   2.724   4.701 -0.4454  0.0388  0.4186
 2989SOL     OW20602   3.046   1.846   2.094 -0.5392 -0.5459  0.0665
 2989SOL    HW120603   3.077   1.835   2.004 -1.4936  0.0215 -0.3408
 2989SOL    HW220604   2.970   1.901   2.078  1.4280  1.5484 -2.0694
 2990SOL     OW20605   0.656   4.375   1.453 -0.1926  0.2423  0.1122
 2990SOL    HW120606   0.578   4.428   1.437 -0.5372 -0.1618  0.4589
 2990SOL    HW220607   0.682   4.420   1.534  0.6982  1.4576 -0.8387
 2991SOL     OW20608   4.229   2.008   4.232  0.0931 -0.0791 -0.4050
 2991SOL    HW120609   4.294   2.075   4.210 -0.3193 -0.0813 -1.6098
 2991SOL    HW220610   4.289   1.963   4.292 -0.7034  0.7780  1.0148
 2992SOL     OW20611   0.729   0.111  17.163  0.3394 -0.5093  0.2173
 2992SOL    HW120612   0.643   0.068  17.159  0.9940 -1.9607  1.6712
 2992SOL    HW220613   0.782   0.045  17.208 -1.2982 -0.2444  2.5215
 2993SOL     OW20614   3.602   4.151   3.675 -0.9381 -0.0283  0.5904
 2993SOL    HW120615   3.690   4.114   3.669 -1.0712 -0.0626 -1.2072
 2993SOL    HW220616   3.546   4.076   3.657 -0.5212  0.4661 -2.6612
 2994SOL     OW20617   3.042   3.999   0.295 -0.8214  0.3562  0.5615
 2994SOL    HW120618   3.111   3.937   0.271  1.0214  2.5391  0.1999
 2994SOL    HW220619   3.064   4.069   0.235 -0.8305 -0.8480 -0.8436
 2995SOL     OW20620   1.019   4.157   0.224  0.2344 -0.1945 -0.3314
 2995SOL    HW120621   0.946   4.194   0.175  0.2433  0.9766  0.5366
 2995SOL    HW220622   1.040   4.079   0.173 -2.6886 -0.0847 -1.6823
 2996SOL     OW20623   1.943   3.311   8.563 -0.4612 -0.5001  0.2956
 2996SOL    HW120624   1.905   3.273   8.642  0.5828 -0.1339  0.9806
 2996SOL    HW220625   1.910   3.238   8.510  1.6412 -2.6550  1.8971
 2997SOL     OW20626   2.354   3.236   2.825 -0.5387  0.1034  0.1172
 2997SOL    HW120627   2.274   3.195   2.791 -0.3273 -0.2774  0.0807
 2997SOL    HW220628   2.346   3.217   2.919  3.3558  0.7200  0.5556
 2998SOL     OW20629   2.660   3.643   5.707  0.5170 -0.2137  0.1743
 2998SOL    HW120630   2.683   3.573   5.769 -1.4317 -1.9499 -1.0455
 2998SOL    HW220631   2.618   3.703   5.768 -1.4077 -0.4723 -0.8848
 2999SOL     OW20632   3.136   3.957   5.520 -0.2599  0.2049 -0.5611
 2999SOL    HW120633   3.089   3.932   5.440 -0.7661 -0.3798 -0.0812
 2999SOL    HW220634   3.103   3.892   5.582 -0.5403  1.9178  1.1151
 3000SOL     OW20635   3.805   0.092   9.550 -0.2368  0.7327  0.0402
 3000SOL    HW120636   3.793   0.037   9.627  1.2783  2.0272  1.1995
 3000SOL    HW220637   3.736   0.070   9.488  0.8588  0.1868 -0.9848
 3001SOL     OW20638   1.665   4.197   6.224  0.3750  0.1317 -0.5418
 3001SOL    HW120639   1.613   4.182   6.145  1.1056 -1.0915 -0.7995
 3001SOL    HW220640   1.649   4.287   6.252 -1.1545  0.0471 -1.1474
 3002SOL     OW20641   0.041   4.061   3.874  0.4210  0.1026 -0.3157
 3002SOL    HW120642   0.083   3.989   3.826  0.3656  0.9297 -1.6190
 3002SOL    HW220643   0.111   4.125   3.863  1.2030 -0.3953  1.8387
 3003SOL     OW20644   1.519   2.929  16.014 -0.7996  0.4261  0.3430
 3003SOL    HW120645   1.453   2.877  16.060  1.2587 -1.6768  0.9312
 3003SOL    HW220646   1.494   2.918  15.923 -1.0788 -0.2448  0.4972
 3004SOL     OW20647   0.792   3.950   2.054  0.0719 -0.2654 -0.1315
 3004SOL    HW120648   0.868   4.004   2.035  0.3535 -0.6350 -0.0538
 3004SOL    HW220649   0.773   3.977   2.144 -0.8002  1.9871 -0.9755
 3005SOL     OW20650   0.259   1.020   6.464  0.0279 -0.3539 -0.3603
 3005SOL    HW120651   0.298   1.005   6.550  1.7488 -1.8641 -1.3853
 3005SOL    HW220652   0.327   1.005   6.398  0.7272  0.9465  0.0540
 3006SOL     OW20653   4.526   2.260   2.122  0.3341 -0.1713 -0.6979
 3006SOL    HW120654   4.493   2.171   2.116 -0.4668 -0.1457  3.8192
 3006SOL    HW220655   4.503   2.277   2.213  0.2776 -2.5468 -0.2835
 3007SOL     OW20656   0.096   0.338   6.032  0.3893  0.0592 -0.5777
 3007SOL    HW120657   0.019   0.282   6.017 -0.5823  1.2542 -0.0288
 3007SOL    HW220658   0.060   0.417   6.071  0.5695 -0.2292  0.1735
 3008SOL     OW20659   0.665   1.860   9.484 -0.2803  0.3990  0.1059
 3008SOL    HW120660   0.569   1.867   9.480 -0.4614 -1.3483  1.7907
 3008SOL    HW220661   0.698   1.856   9.394  0.3995 -0.5754  0.3999
 3009SOL     OW20662   3.644   3.528   5.150 -0.4166 -0.3737 -0.8965
 3009SOL    HW120663   3.604   3.495   5.070 -1.7274 -0.6916 -0.1073
 3009SOL    HW220664   3.570   3.584   5.171 -0.2657 -0.7500  0.6813
 3010SOL     OW20665   0.200   2.220   8.798 -0.6005 -0.1556  0.1061
 3010SOL    HW120666   0.272   2.283   8.788 -0.4366 -0.3151  0.2902
 3010SOL    HW220667   0.143   2.265   8.861  0.0077  0.1882  0.4068
 3011SOL     OW20668   1.670   0.081   2.891 -0.3383  0.2659  0.3919
 3011SOL    HW120669   1.690   0.024   2.817  0.6581  1.0425  0.0673
 3011SOL    HW220670   1.752   0.067   2.940 -0.3271 -2.4412 -0.3775
 3012SOL     OW20671   1.720   3.123   2.914  0.5262 -0.3470 -0.2175
 3012SOL    HW120672   1.810   3.089   2.905  0.4808 -0.3256 -0.7406
 3012SOL    HW220673   1.740   3.214   2.938 -2.2339  1.1516 -3.5685
 3013SOL     OW20674   1.713   3.308   5.542  0.7032 -0.2953  0.0581
 3013SOL    HW120675   1.805   3.321   5.564  0.6429  0.0423  0.1206
 3013SOL    HW220676   1.683   3.399   5.553  0.8710  0.0447 -2.2259
 3014SOL     OW20677   3.924   3.189   6.939 -0.4240  0.1388 -0.1412
 3014SOL    HW120678   3.973   3.169   6.860  1.6746  2.2428  0.6125
 3014SOL    HW220679   3.944   3.109   6.988 -0.0846 -0.0581 -0.6047
 3015SOL     OW20680   2.715   3.829   9.464 -0.1000  0.3458  0.1170
 3015SOL    HW120681   2.624   3.813   9.487 -0.5224 -0.3493 -1.9771
 3015SOL    HW220682   2.739   3.739   9.488 -1.4124  0.2668  1.1155
 3016SOL     OW20683   1.054   0.674   3.386  0.6498 -0.3218 -0.1133
 3016SOL    HW120684   1.123   0.615   3.353  2.2861  2.0148 -0.8751
 3016SOL    HW220685   1.099   0.758   3.375  1.1728 -0.5446  0.3498
 3017SOL     OW20686   4.451   3.660  15.383 -0.1524  0.3034 -0.5945
 3017SOL    HW120687   4.528   3.675  15.439 -0.2490 -0.3416 -0.2933
 3017SOL    HW220688   4.442   3.744  15.337 -1.4522  0.4233 -0.1059
 3018SOL     OW20689   2.854   1.298   7.290  0.2445 -0.0719 -0.4580
 3018SOL    HW120690   2.765   1.319   7.264  0.8317  0.6715 -1.9003
 3018SOL    HW220691   2.888   1.382   7.322 -2.5471  0.5596  0.7901
 3019SOL     OW20692   0.858   2.763   6.493 -0.2362  0.4185  0.3856
 3019SOL    HW120693   0.896   2.697   6.435 -4.0218  0.4375 -2.1009
 3019SOL    HW220694   0.865   2.840   6.437  1.3097 -0.8895 -1.2015
 3020SOL     OW20695   1.420   4.617  14.758 -0.0678 -0.1005  0.5721
 3020SOL    HW120696   1.368   4.683  14.712  0.1520 -1.5583 -1.7766
 3020SOL    HW220697   1.490   4.614  14.693 -0.3426  0.9414  0.2298
 3021SOL     OW20698   1.885   3.409   7.766  0.0374 -0.3873 -0.0461
 3021SOL    HW120699   1.914   3.436   7.853 -0.8282 -0.8307  0.3738
 3021SOL    HW220700   1.943   3.335   7.753  0.1813 -0.5398  1.5326
 3022SOL     OW20701   0.086   4.684   9.639 -0.5544 -0.3921  0.7376
 3022SOL    HW120702   0.056   4.610   9.587  0.0521 -0.4928  0.5287
 3022SOL    HW220703   0.003   4.697   9.685 -1.0034  1.5861 -0.6243
 3023SOL     OW20704   2.534   1.683   6.117 -0.0940 -0.0086 -0.1418
 3023SOL    HW120705   2.583   1.656   6.195  0.2398  0.6125 -0.1400
 3023SOL    HW220706   2.449   1.697   6.158  0.2806  1.8289  0.0023
 3024SOL     OW20707   2.607   2.530   4.343 -0.2178  0.2632 -0.9859
 3024SOL    HW120708   2.578   2.506   4.256 -0.7902 -2.0197 -0.1669
 3024SOL    HW220709   2.561   2.613   4.357 -1.1884 -0.3979 -0.2481
 3025SOL     OW20710   1.124   1.475   7.476  0.1034 -0.2445  0.7814
 3025SOL    HW120711   1.053   1.534   7.498 -0.5788 -1.3269  1.4818
 3025SOL    HW220712   1.203   1.525   7.499  0.2014  0.2398 -0.5687
 3026SOL     OW20713   4.679   3.469   1.928  0.1060  0.4740  0.3613
 3026SOL    HW120714   4.701   3.381   1.956 -0.9394  0.2675  0.5459
 3026SOL    HW220715   4.639   3.460   1.841 -0.4237 -0.5984  0.7248
 3027SOL     OW20716   2.325   2.465   8.971 -0.0043  0.3417 -0.2084
 3027SOL    HW120717   2.408   2.426   8.944 -0.3955  0.1105 -1.0699
 3027SOL    HW220718   2.267   2.398   8.936 -2.1978  1.8583  0.5495
 3028SOL     OW20719   3.419   2.591  10.245  0.5173 -0.4274 -0.1379
 3028SOL    HW120720   3.509   2.623  10.241  0.9688 -1.2911  3.6439
 3028SOL    HW220721   3.382   2.642  10.317 -1.5098  1.2800 -2.3713
 3029SOL     OW20722   0.074   3.726  14.906 -0.1246  0.2510  0.1807
 3029SOL    HW120723   0.134   3.654  14.886 -0.1409  1.1267 -2.9693
 3029SOL    HW220724   0.093   3.785  14.834 -1.7372  2.7519  1.7871
 3030SOL     OW20725   2.937   3.589   2.789 -0.2522  0.9869 -0.1208
 3030SOL    HW120726   3.009   3.582   2.852 -0.0596 -2.0264 -0.6637
 3030SOL    HW220727   2.860   3.615   2.840  0.6462  1.8749  0.7601
 3031SOL     OW20728   2.584   3.256   4.770  0.3397 -0.1855  0.0428
 3031SOL    HW120729   2.489   3.259   4.777  0.3721  1.5945 -0.2559
 3031SOL    HW220730   2.589   3.205   4.851  1.3210  0.7165  0.5559
 3032SOL     OW20731   4.430   1.455   4.694  0.3206  0.2474 -0.5710
 3032SOL    HW120732   4.334   1.462   4.700  0.3407  0.4222 -0.4665
 3032SOL    HW220733   4.447   1.373   4.741 -0.3444  0.5145  0.1424
 3033SOL     OW20734   2.383   3.037   9.056  0.2160 -0.2215 -0.6275
 3033SOL    HW120735   2.289   3.040   9.040 -0.1876  0.1478  1.8804
 3033SOL    HW220736   2.385   2.956   9.107 -0.6266  0.7259  0.9158
 3034SOL     OW20737   1.637   4.327   4.942  0.0178  0.0030 -0.0564
 3034SOL    HW120738   1.621   4.370   4.858  1.6714 -1.3464 -1.0704
 3034SOL    HW220739   1.584   4.250   4.918 -0.4466  0.3514 -0.1374
 3035SOL     OW20740   3.597   0.094   7.495 -0.1061 -0.0291  0.4652
 3035SOL    HW120741   3.618   0.080   7.403 -1.8030  0.0238  0.0624
 3035SOL    HW220742   3.538   0.020   7.503  0.5996 -0.3513  2.7219
 3036SOL     OW20743   0.051   3.516   1.477  0.3063 -0.0903  0.4224
 3036SOL    HW120744   0.134   3.524   1.429 -0.3302  0.9685 -0.4917
 3036SOL    HW220745   0.050   3.421   1.473 -1.2823 -0.0570  0.1863
 3037SOL     OW20746   3.431   2.904   4.392  0.5264  0.1905  0.0892
 3037SOL    HW120747   3.385   2.921   4.475  0.4954 -2.9575  0.7389
 3037SOL    HW220748   3.358   2.857   4.352 -0.3781  0.7528  1.0653
 3038SOL     OW20749   2.903   2.612   2.417  0.6776  0.6225 -0.3062
 3038SOL    HW120750   2.932   2.695   2.379 -0.2755  1.9488  1.8716
 3038SOL    HW220751   2.961   2.551   2.372 -0.0181 -1.2062  1.3076
 3039SOL     OW20752   2.460   4.466  13.384 -0.2826  0.2493 -0.5484
 3039SOL    HW120753   2.382   4.412  13.397 -0.9930  1.4038 -0.0626
 3039SOL    HW220754   2.501   4.448  13.299 -1.0648  0.8949 -1.0572
 3040SOL     OW20755   2.599   2.217   7.232  0.0012  0.5444 -0.3192
 3040SOL    HW120756   2.600   2.289   7.169  0.3530  2.0172  1.3370
 3040SOL    HW220757   2.534   2.155   7.199 -0.1969 -0.2042  1.4742
 3041SOL     OW20758   0.273   3.657   4.747  0.5030 -0.3961  0.4118
 3041SOL    HW120759   0.362   3.684   4.770 -0.4985  3.2135  0.1480
 3041SOL    HW220760   0.206   3.716   4.783  1.3394  1.2521 -0.7298
 3042SOL     OW20761   0.283   3.566  14.804  0.3910  0.1122 -0.1144
 3042SOL    HW120762   0.288   3.581  14.709 -0.4540 -1.6798 -0.4347
 3042SOL    HW220763   0.244   3.480  14.816  2.2363 -0.8224 -0.8871
 3043SOL     OW20764   2.050   2.985   8.193  0.0677 -0.1611 -0.2652
 3043SOL    HW120765   1.976   2.929   8.168  1.4498 -1.5861 -1.1845
 3043SOL    HW220766   2.126   2.930   8.174 -1.5533 -2.6285  0.2571
 3044SOL     OW20767   0.778   0.099   8.487 -0.5036  0.2616  0.2671
 3044SOL    HW120768   0.735   0.184   8.477  0.8882  1.2059  2.1950
 3044SOL    HW220769   0.706   0.048   8.449  1.2256 -0.8994 -1.4284
 3045SOL     OW20770   1.464   0.467   4.800 -0.0056 -0.0157  0.3864
 3045SOL    HW120771   1.476   0.404   4.729  2.0895  0.8073  0.0043
 3045SOL    HW220772   1.496   0.550   4.763  2.0444 -0.3194  1.4923
 3046SOL     OW20773   2.039   2.844   8.726 -0.2351 -0.3309 -0.1715
 3046SOL    HW120774   2.068   2.882   8.643 -2.3103 -1.9462 -1.6237
 3046SOL    HW220775   2.077   2.756   8.717 -1.5294 -0.9394  0.4078
 3047SOL     OW20776   0.885   1.854   6.371 -0.0965  0.4895  0.3063
 3047SOL    HW120777   0.966   1.905   6.365 -0.7705  1.4106 -1.0760
 3047SOL    HW220778   0.920   1.773   6.407  1.0099 -0.0691 -2.0324
 3048SOL     OW20779   2.171   3.667   8.151  0.0423  0.2742 -0.0791
 3048SOL    HW120780   2.196   3.576   8.163  0.6244  0.3323 -0.9318
 3048SOL    HW220781   2.081   3.660   8.183 -0.0097 -1.6906 -0.6886
 3049SOL     OW20782   4.096   3.861   4.446  0.2884  0.1001 -0.1764
 3049SOL    HW120783   4.083   3.777   4.401 -0.8103  0.7301 -1.0331
 3049SOL    HW220784   4.120   3.837   4.536 -1.6746  0.5793  0.4684
 3050SOL     OW20785   0.381   2.106   6.887  0.3373  0.1270  0.3271
 3050SOL    HW120786   0.324   2.174   6.923  0.4418 -0.6688  1.9973
 3050SOL    HW220787   0.366   2.029   6.941 -0.7503 -0.3630 -0.6732
 3051SOL     OW20788   1.298   3.623   3.271 -0.4106  0.5371 -0.9120
 3051SOL    HW120789   1.245   3.564   3.325 -2.6281  3.7690  0.4312
 3051SOL    HW220790   1.247   3.701   3.294 -1.6209 -0.1912 -1.1573
 3052SOL     OW20791   3.561   2.839  17.252 -1.0316 -0.1791 -0.2836
 3052SOL    HW120792   3.575   2.811  17.162 -1.4968 -2.2138  0.2793
 3052SOL    HW220793   3.557   2.934  17.239 -0.8282 -0.1119  0.1538
 3053SOL     OW20794   0.208   1.741   8.502  0.2049  0.0047  0.3671
 3053SOL    HW120795   0.228   1.822   8.455  2.6109 -0.4083  0.6958
 3053SOL    HW220796   0.115   1.764   8.502  0.3487  0.5844  0.8158
 3054SOL     OW20797   4.487   2.506   3.732  0.3676 -0.5489 -0.1608
 3054SOL    HW120798   4.553   2.539   3.672  1.3100 -1.1160  0.5794
 3054SOL    HW220799   4.446   2.583   3.770 -1.6549 -2.4672  1.5680
 3055SOL     OW20800   2.385   0.324  10.053 -0.0155 -0.3252  0.5675
 3055SOL    HW120801   2.447   0.347   9.984  0.8700 -0.2188  1.4081
 3055SOL    HW220802   2.330   0.402  10.060  0.9336  0.3185  0.8025
 3056SOL     OW20803   0.178   1.398   7.948 -0.2248 -0.2982  0.2765
 3056SOL    HW120804   0.184   1.308   7.982 -0.8854 -0.7244 -0.7168
 3056SOL    HW220805   0.171   1.448   8.029 -2.6485 -0.3972  0.1283
 3057SOL     OW20806   0.479   4.024   6.844 -0.1775 -0.5691  0.1649
 3057SOL    HW120807   0.509   4.089   6.907 -0.0021 -0.3798 -0.1096
 3057SOL    HW220808   0.453   4.078   6.769 -0.7018 -0.8186  0.1651
 3058SOL     OW20809   0.615   0.193   1.393  0.2561 -0.6031 -0.1026
 3058SOL    HW120810   0.691   0.243   1.424 -0.1379  1.4143 -2.4001
 3058SOL    HW220811   0.607   0.139   1.472  0.4340  1.0584  1.0348
 3059SOL     OW20812   0.026   3.643   2.380 -0.0349 -0.4432  0.3351
 3059SOL    HW120813   0.016   3.613   2.290 -0.6881 -0.1910  0.3270
 3059SOL    HW220814   0.030   3.737   2.367 -0.6416 -0.2527  1.6145
 3060SOL     OW20815   3.978   3.728   5.034  0.0744 -0.0494 -0.4275
 3060SOL    HW120816   4.051   3.785   5.056  0.0531 -0.0003 -0.4853
 3060SOL    HW220817   3.995   3.654   5.092  0.4048  0.9462  0.7290
 3061SOL     OW20818   4.461   2.738  10.266  0.2545 -0.0084  0.3593
 3061SOL    HW120819   4.526   2.671  10.241  1.9782  0.6609  3.0002
 3061SOL    HW220820   4.410   2.744  10.185 -0.6420 -2.0373  0.7588
 3062SOL     OW20821   2.704   1.995   3.421  0.0392  0.0431 -0.3168
 3062SOL    HW120822   2.651   1.958   3.350  0.5415  0.6926 -1.0337
 3062SOL    HW220823   2.782   2.014   3.369 -0.1376  0.9598 -0.2547
 3063SOL     OW20824   1.685   0.665   5.735  0.2142  0.0536 -0.6019
 3063SOL    HW120825   1.659   0.737   5.678 -1.3310  1.6958  2.1691
 3063SOL    HW220826   1.696   0.600   5.667 -0.5235  0.1164 -0.7841
 3064SOL     OW20827   3.818   0.099   3.959  0.4964  0.4055  0.4329
 3064SOL    HW120828   3.831   0.010   3.925 -2.0374  0.3813 -0.4428
 3064SOL    HW220829   3.740   0.087   4.013  1.3066 -0.2238  1.4625
 3065SOL     OW20830   1.006   2.476   5.477  0.1166  0.1953 -0.4306
 3065SOL    HW120831   0.947   2.540   5.436 -0.3193 -0.7367 -1.2827
 3065SOL    HW220832   1.072   2.472   5.408  0.9301  0.1274  0.3519
 3066SOL     OW20833   3.760   1.122   8.281  0.5817  0.3168 -0.4473
 3066SOL    HW120834   3.682   1.066   8.284  0.0583  1.1005  0.3501
 3066SOL    HW220835   3.746   1.170   8.199 -2.6942  1.6883  0.9136
 3067SOL     OW20836   2.223   3.996  13.842 -0.0289  0.0671 -0.0657
 3067SOL    HW120837   2.185   3.993  13.930 -0.4244  1.5476 -0.1910
 3067SOL    HW220838   2.257   3.907  13.836  1.2936  0.4214  1.9918
 3068SOL     OW20839   0.379   1.091   8.573 -0.0204 -0.0172  0.1450
 3068SOL    HW120840   0.396   0.997   8.574 -2.5686 -0.4784 -0.5633
 3068SOL    HW220841   0.396   1.095   8.667 -0.9525  1.7872  0.2375
 3069SOL     OW20842   1.939   0.018  14.875 -0.3819 -0.6582  0.3966
 3069SOL    HW120843   1.910   0.102  14.838 -1.3391 -1.6153 -1.0058
 3069SOL    HW220844   1.964   0.052  14.961  0.1878 -0.4177  0.1374
 3070SOL     OW20845   1.914   1.712   6.668 -0.0658 -0.3442  0.0281
 3070SOL    HW120846   1.957   1.791   6.701  0.5036 -0.3852 -0.6242
 3070SOL    HW220847   1.831   1.697   6.713 -0.7890  1.2182 -0.7562
 3071SOL     OW20848   2.667   4.054   4.093  0.0773  0.0395 -0.1691
 3071SOL    HW120849   2.711   3.996   4.155 -0.5322  0.0475  0.2682
 3071SOL    HW220850   2.736   4.089   4.036 -0.9873 -0.1551 -1.6010
 3072SOL     OW20851   0.240   3.977   6.968 -0.8426 -0.1679 -0.1204
 3072SOL    HW120852   0.204   3.890   6.950 -0.8719  0.0485 -1.0799
 3072SOL    HW220853   0.320   3.972   6.915 -1.2794  0.7863 -0.8610
 3073SOL     OW20854   1.769   4.572   2.748 -0.6074 -0.6094 -0.0886
 3073SOL    HW120855   1.813   4.590   2.665 -1.3086 -0.2505 -0.3841
 3073SOL    HW220856   1.812   4.497   2.789  1.5401  0.0974 -1.0441
 3074SOL     OW20857   1.048   1.907  14.018 -0.5019  0.7562  0.0449
 3074SOL    HW120858   1.039   1.927  14.111 -1.5617 -1.1255  0.3390
 3074SOL    HW220859   1.005   1.980  13.973 -3.1616 -1.8624 -1.6357
 3075SOL     OW20860   4.566   3.287   5.213  0.3669 -0.1463  0.2090
 3075SOL    HW120861   4.651   3.261   5.177  0.1077 -2.0095  0.9470
 3075SOL    HW220862   4.573   3.249   5.301  0.9850 -1.7057 -0.5201
 3076SOL     OW20863   4.684   2.602   8.808  0.0517  0.4688 -0.7315
 3076SOL    HW120864   4.641   2.618   8.892  0.7284 -1.1171 -0.0682
 3076SOL    HW220865   4.633   2.523   8.792 -0.3185  0.3221  1.1436
 3077SOL     OW20866   2.099   3.588   9.286 -0.2114 -0.8200 -0.3803
 3077SOL    HW120867   2.057   3.551   9.209  2.5410 -0.1484 -2.2147
 3077SOL    HW220868   2.136   3.668   9.248  0.2793 -1.4046 -1.1212
 3078SOL     OW20869   4.187   0.981   4.477 -0.3764  0.7494  0.4451
 3078SOL    HW120870   4.178   0.951   4.567 -1.1925 -0.3794 -0.0073
 3078SOL    HW220871   4.199   0.901   4.425 -0.4970  0.6070  0.6349
 3079SOL     OW20872   2.484   2.376  16.390 -0.4621  0.1189  0.2560
 3079SOL    HW120873   2.477   2.471  16.403  0.0129  0.0604  0.9324
 3079SOL    HW220874   2.549   2.377  16.320 -1.7173 -0.4729 -0.9181
 3080SOL     OW20875   2.466   4.733  17.612 -0.2948  0.2120  0.6273
 3080SOL    HW120876   2.534   4.689  17.561 -1.3529 -0.6093 -0.0705
 3080SOL    HW220877   2.497   4.709  17.699  2.3914 -0.3624 -0.4927
 3081SOL     OW20878   0.561   0.057   6.890 -0.0339  0.1301  0.2910
 3081SOL    HW120879   0.638   0.084   6.940 -1.9423  1.0765  2.6849
 3081SOL    HW220880   0.496   0.125   6.907 -0.1204 -0.2764  1.5552
 3082SOL     OW20881   2.476   4.518   9.417 -0.2774 -0.3756 -0.2804
 3082SOL    HW120882   2.532   4.501   9.493  0.2253 -0.8723 -0.7555
 3082SOL    HW220883   2.540   4.516   9.346 -1.4326 -0.1154 -1.3304
 3083SOL     OW20884   2.490   4.725   5.818  0.6364  0.5175 -0.6504
 3083SOL    HW120885   2.579   0.021   5.834  1.2234 -1.6724  0.2574
 3083SOL    HW220886   2.451   0.029   5.897 -0.3055 -0.7532 -0.5021
 3084SOL     OW20887   3.382   2.998   5.993 -0.0582 -0.0692  0.0549
 3084SOL    HW120888   3.318   2.951   6.047  0.1598  1.1401  1.3582
 3084SOL    HW220889   3.466   2.997   6.038  0.1468 -1.6388 -0.3697
 3085SOL     OW20890   0.650   3.201   5.233 -0.2350 -0.6588  0.8554
 3085SOL    HW120891   0.678   3.272   5.291 -2.6664 -0.0896  1.3047
 3085SOL    HW220892   0.656   3.238   5.145 -2.5703  1.0564  1.4300
 3086SOL     OW20893   2.896   3.784   0.410 -0.4881  0.2169  0.1321
 3086SOL    HW120894   2.971   3.799   0.352 -0.7670 -0.0746 -0.3021
 3086SOL    HW220895   2.918   3.851   0.476  0.4193 -0.0066  0.0573
 3087SOL     OW20896   2.384   0.658   8.900 -0.5672  0.1192  0.2078
 3087SOL    HW120897   2.477   0.664   8.921 -0.3074 -3.0495 -0.0172
 3087SOL    HW220898   2.346   0.624   8.981  0.5524 -1.7557 -0.0552
 3088SOL     OW20899   4.307   1.569  11.039  0.1418  0.0126  0.0854
 3088SOL    HW120900   4.358   1.552  11.118  1.1637  0.6776 -0.4322
 3088SOL    HW220901   4.357   1.634  10.988 -1.6590  1.1816 -0.1975
 3089SOL     OW20902   3.558   3.411   7.961 -0.1561  0.3460 -0.2801
 3089SOL    HW120903   3.512   3.381   7.883 -1.4933 -0.6450  0.9011
 3089SOL    HW220904   3.574   3.504   7.942  0.7996 -0.5107 -3.7250
 3090SOL     OW20905   1.119   1.228   5.987  0.4241 -0.1367 -0.3711
 3090SOL    HW120906   1.045   1.278   6.022 -0.0622 -0.0690 -1.4738
 3090SOL    HW220907   1.154   1.182   6.063 -0.0746 -0.1595 -0.1574
 3091SOL     OW20908   2.100   0.684   8.455  0.0860 -0.5485  0.3224
 3091SOL    HW120909   2.175   0.733   8.423 -0.1521 -1.5942 -1.8541
 3091SOL    HW220910   2.105   0.605   8.401  0.5955 -0.8049  0.7463
 3092SOL     OW20911   2.981   2.343   4.339 -0.3424 -0.0207 -0.5068
 3092SOL    HW120912   2.959   2.256   4.308 -0.4495 -0.2773  0.3048
 3092SOL    HW220913   2.996   2.387   4.256  0.5996 -2.2341 -1.4996
 3093SOL     OW20914   1.390   2.777   3.576 -0.1755  0.0507  0.4652
 3093SOL    HW120915   1.366   2.702   3.523 -3.2549  1.2822  0.1346
 3093SOL    HW220916   1.318   2.778   3.640 -1.8037 -0.0584 -1.3913
 3094SOL     OW20917   2.700   0.641  13.397  0.3347 -0.0913  0.0864
 3094SOL    HW120918   2.611   0.645  13.362  0.6256  0.7438 -0.5661
 3094SOL    HW220919   2.754   0.663  13.320 -1.8927 -0.7082 -1.6438
 3095SOL     OW20920   4.364   3.693   3.329 -0.2653 -0.2657 -0.3062
 3095SOL    HW120921   4.310   3.614   3.337  1.5681 -1.4321  0.7974
 3095SOL    HW220922   4.310   3.761   3.369 -1.0012 -0.2972 -1.2728
 3096SOL     OW20923   0.639   2.116   6.472  1.0117  0.1803 -0.1973
 3096SOL    HW120924   0.586   2.175   6.525  0.7558 -1.1314  1.0029
 3096SOL    HW220925   0.695   2.077   6.538 -1.5489  1.3777  2.7193
 3097SOL     OW20926   3.524   1.002   8.245  0.3547  0.4404 -0.4843
 3097SOL    HW120927   3.467   1.066   8.288 -0.5936 -1.6259  1.3282
 3097SOL    HW220928   3.460   0.963   8.185 -0.8334  2.1479 -0.3466
 3098SOL     OW20929   0.069   3.345   7.307  0.0513 -0.3421 -0.3978
 3098SOL    HW120930   0.033   3.366   7.220  1.1216 -1.3966 -1.1015
 3098SOL    HW220931   0.140   3.409   7.318 -0.8348  0.5160  0.2217
 3099SOL     OW20932   4.358   3.826   8.410 -0.0901 -0.2837 -0.6963
 3099SOL    HW120933   4.389   3.743   8.447 -0.4693  1.0104  2.5463
 3099SOL    HW220934   4.384   3.824   8.318  2.1893  1.8707 -0.1322
 3100SOL     OW20935   1.376   4.437  12.098 -0.3157  0.5245 -0.2337
 3100SOL    HW120936   1.377   4.479  12.184  0.1529  2.4624 -1.1804
 3100SOL    HW220937   1.449   4.482  12.056  1.6512 -0.6899  1.8943
 3101SOL     OW20938   3.579   2.790   6.381 -0.2751 -0.0492  0.3033
 3101SOL    HW120939   3.535   2.874   6.371  0.6805  0.4672  0.4017
 3101SOL    HW220940   3.668   2.814   6.356 -0.2562 -1.9132 -1.4483
 3102SOL     OW20941   3.172   2.277  15.435  0.0210  0.1442 -0.1009
 3102SOL    HW120942   3.196   2.242  15.349 -1.4810  0.8520 -0.8086
 3102SOL    HW220943   3.124   2.202  15.472  1.4255 -0.0689  1.3002
 3103SOL     OW20944   1.875   3.281   1.624 -0.4371 -0.6093 -0.3432
 3103SOL    HW120945   1.890   3.369   1.588 -0.7118 -0.9322 -1.2405
 3103SOL    HW220946   1.955   3.241   1.658  0.3179  2.3842  1.4448
 3104SOL     OW20947   3.199   2.191   1.970  0.1693  0.4908  0.8083
 3104SOL    HW120948   3.265   2.251   2.004  0.9244  0.5906 -0.8521
 3104SOL    HW220949   3.133   2.166   2.035 -0.6048 -0.0323 -0.1797
 3105SOL     OW20950   2.267   2.376   3.590 -0.1862  1.1887 -0.1116
 3105SOL    HW120951   2.251   2.428   3.511  1.2572  0.8266 -0.6505
 3105SOL    HW220952   2.321   2.307   3.551 -1.6818 -0.0559 -0.0135
 3106SOL     OW20953   0.239   0.220   9.590  0.0462  0.1283  0.3844
 3106SOL    HW120954   0.243   0.168   9.510  0.7063 -0.9250  1.0969
 3106SOL    HW220955   0.164   0.181   9.636  2.9377 -3.0352  2.4686
 3107SOL     OW20956   4.567   3.093  10.914 -0.5811 -0.3146 -0.2918
 3107SOL    HW120957   4.562   3.023  10.980 -1.5292  0.8334  0.8439
 3107SOL    HW220958   4.498   3.067  10.853 -0.4719 -0.1290 -0.4899
 3108SOL     OW20959   2.566   3.171   2.607 -0.6315  0.1912 -0.5287
 3108SOL    HW120960   2.483   3.124   2.614  0.1351 -0.9610  0.7602
 3108SOL    HW220961   2.541   3.249   2.658  1.9979 -1.0288  2.6295
 3109SOL     OW20962   1.293   1.974  11.439 -0.5848  0.2192  0.1984
 3109SOL    HW120963   1.302   1.879  11.442 -0.7006  0.1641 -1.3427
 3109SOL    HW220964   1.382   2.006  11.457 -0.4414 -0.6005  0.9484
 3110SOL     OW20965   3.937   0.062   8.092  0.1066  0.1724  0.3226
 3110SOL    HW120966   3.928   4.711   8.048  2.5557 -0.2294  0.6094
 3110SOL    HW220967   4.007   0.044   8.155  0.8216  0.1389 -0.4745
 3111SOL     OW20968   2.719   1.980   4.581 -0.2736  0.8394  0.1050
 3111SOL    HW120969   2.810   1.970   4.608 -0.2628 -0.9820 -0.6604
 3111SOL    HW220970   2.717   2.074   4.564  0.5259  0.5169 -1.7342
 3112SOL     OW20971   4.284   0.693   4.422  0.0652  0.0149 -0.3320
 3112SOL    HW120972   4.261   0.690   4.329  0.5814 -2.0584 -0.3923
 3112SOL    HW220973   4.290   0.601   4.449  0.0846  1.7384  5.4855
 3113SOL     OW20974   0.889   1.653   4.683  0.0735  0.1748 -0.1350
 3113SOL    HW120975   0.881   1.627   4.591  2.3497  1.7539 -0.7990
 3113SOL    HW220976   0.845   1.738   4.683 -0.1333  0.0700 -0.6400
 3114SOL     OW20977   3.785   1.921   7.685  0.0647  0.0678 -0.0512
 3114SOL    HW120978   3.780   1.855   7.753  0.7734  1.5390  1.4384
 3114SOL    HW220979   3.708   1.966   7.720 -0.3797  0.7141 -1.8691
 3115SOL     OW20980   2.543   3.775   7.156  0.1511  0.5761 -0.3189
 3115SOL    HW120981   2.479   3.728   7.209  3.2216 -2.4836  0.6500
 3115SOL    HW220982   2.493   3.770   7.074 -0.7261  0.3414  0.2313
 3116SOL     OW20983   3.599   2.030  10.449  0.5976  0.6692  0.0034
 3116SOL    HW120984   3.546   1.970  10.500  1.7955 -0.1016  0.3488
 3116SOL    HW220985   3.568   2.000  10.363  1.0666 -0.4814  0.2401
 3117SOL     OW20986   1.750   2.147   5.398 -0.6096  0.0869 -0.2228
 3117SOL    HW120987   1.794   2.166   5.316  1.6855 -0.1029  0.9764
 3117SOL    HW220988   1.678   2.090   5.371 -1.4792  1.2656 -0.4028
 3118SOL     OW20989   0.859   3.921   5.473  0.1698 -0.5206  0.0127
 3118SOL    HW120990   0.936   3.868   5.492  1.7952  1.4085 -1.1212
 3118SOL    HW220991   0.888   4.002   5.429  1.4955  0.1284  2.0861
 3119SOL     OW20992   0.370   3.929   8.256 -0.0036 -0.1924  0.4816
 3119SOL    HW120993   0.282   3.891   8.255  0.7081 -1.6914 -3.5072
 3119SOL    HW220994   0.354   4.000   8.319 -2.4427 -2.3798  2.3394
 3120SOL     OW20995   4.513   1.139   2.265  0.3741 -0.3050 -0.4479
 3120SOL    HW120996   4.459   1.061   2.252 -0.9860  0.5940 -0.2045
 3120SOL    HW220997   4.593   1.101   2.231  1.0341 -2.0824  3.1185
 3121SOL     OW20998   4.496   3.665   4.612 -0.2009 -0.3326 -0.5182
 3121SOL    HW120999   4.475   3.736   4.551  0.8703  0.3279 -0.1189
 3121SOL    HW221000   4.453   3.596   4.561  0.1050 -1.2715  0.5103
 3122SOL     OW21001   4.187   3.867  16.872  0.1275 -0.3211 -0.0619
 3122SOL    HW121002   4.250   3.796  16.865 -1.1113 -1.3477 -0.9007
 3122SOL    HW221003   4.175   3.877  16.778  0.0656 -0.6684 -0.0925
 3123SOL     OW21004   1.157   1.213   9.880  0.0775 -0.8310  0.0413
 3123SOL    HW121005   1.075   1.260   9.863  0.9268  1.1574  1.4934
 3123SOL    HW221006   1.210   1.260   9.816  1.4937  1.6993  3.1083
 3124SOL     OW21007   3.166   1.863   4.495 -0.2057 -1.0217 -0.3153
 3124SOL    HW121008   3.208   1.916   4.427  1.7841 -3.0894 -0.7018
 3124SOL    HW221009   3.234   1.860   4.561 -0.5616 -1.2018  0.0423
 3125SOL     OW21010   2.024   1.913   9.745  0.0929 -0.0499 -0.1351
 3125SOL    HW121011   1.944   1.864   9.764  1.0382 -1.2700  0.7243
 3125SOL    HW221012   2.065   1.949   9.823  0.1787 -1.0169  0.2666
 3126SOL     OW21013   3.696   0.838   3.761 -0.3120  0.6007  0.1268
 3126SOL    HW121014   3.789   0.858   3.776 -0.0819  0.8589 -1.5845
 3126SOL    HW221015   3.711   0.743   3.764  1.6145  0.8492 -1.4015
 3127SOL     OW21016   2.973   3.866   7.286 -0.4605 -0.1465  0.2220
 3127SOL    HW121017   3.054   3.827   7.253 -0.1643 -0.2959  1.1306
 3127SOL    HW221018   2.958   3.937   7.223 -0.2666  0.7746  1.2306
 3128SOL     OW21019   0.711   0.144   9.984  0.3307 -0.3175 -0.0494
 3128SOL    HW121020   0.788   0.153   9.929 -0.9714 -0.4158 -1.9045
 3128SOL    HW221021   0.680   0.235   9.978  0.3757 -0.3483 -0.7123
 3129SOL     OW21022   4.109   3.171   6.745  0.1549  0.6463  0.2332
 3129SOL    HW121023   4.136   3.233   6.677  1.8774 -0.4568 -0.0794
 3129SOL    HW221024   4.198   3.154   6.775 -0.4712 -1.3613  0.8899
 3130SOL     OW21025   2.944   0.675   7.691  0.3408 -0.0396  0.2700
 3130SOL    HW121026   2.911   0.594   7.652 -0.1525 -1.0457  2.7940
 3130SOL    HW221027   2.981   0.713   7.612 -0.4417 -1.2965 -0.7029
 3131SOL     OW21028   0.129   2.391  16.457 -0.3649  0.6999  0.3685
 3131SOL    HW121029   0.134   2.407  16.362 -0.7649 -1.1003  0.0459
 3131SOL    HW221030   0.163   2.478  16.478  1.6418  0.0522 -0.2472
 3132SOL     OW21031   2.828   3.065   8.123 -0.2393 -0.7275 -0.5992
 3132SOL    HW121032   2.806   3.062   8.216 -0.9486  1.9369 -0.6878
 3132SOL    HW221033   2.784   3.148   8.105 -0.2751 -0.4397  0.8471
 3133SOL     OW21034   1.755   4.488   0.923 -0.1517  0.2087  0.0077
 3133SOL    HW121035   1.763   4.411   0.979 -2.2280  0.2047  0.2895
 3133SOL    HW221036   1.660   4.484   0.912 -0.4496  0.4974  2.6413
 3134SOL     OW21037   3.194   4.283  11.383  0.4475  0.5672  0.4575
 3134SOL    HW121038   3.271   4.311  11.433  0.0215  0.6921  1.0362
 3134SOL    HW221039   3.139   4.362  11.385  0.0114  0.2663  0.3182
 3135SOL     OW21040   1.143   1.980   6.366  0.6463 -0.7022 -0.0135
 3135SOL    HW121041   1.141   2.033   6.286  0.7148  0.2414  0.6090
 3135SOL    HW221042   1.121   2.048   6.431  1.7059  1.0392 -1.4626
 3136SOL     OW21043   2.359   1.642   3.385 -0.6396  0.0901  0.8450
 3136SOL    HW121044   2.409   1.560   3.384 -1.2433 -0.2363 -3.0719
 3136SOL    HW221045   2.337   1.649   3.292  0.8921  0.4959  0.5073
 3137SOL     OW21046   0.355   4.245  12.182 -0.2495 -0.5024 -0.6329
 3137SOL    HW121047   0.449   4.258  12.189 -0.9399  2.7541  2.8159
 3137SOL    HW221048   0.346   4.150  12.179 -1.5845 -0.4123  0.4901
 3138SOL     OW21049   0.428   3.014   2.584 -0.3017  0.4342 -0.0580
 3138SOL    HW121050   0.403   3.102   2.611  1.0119  0.3735  1.3158
 3138SOL    HW221051   0.354   2.955   2.602  0.3454 -0.7350 -1.1662
 3139SOL     OW21052   1.966   3.652   2.656 -0.4795  0.5716  0.3555
 3139SOL    HW121053   1.888   3.604   2.684 -0.7533  1.0282  0.3750
 3139SOL    HW221054   1.932   3.740   2.672  0.2139  1.1204 -1.2190
 3140SOL     OW21055   3.917   2.885   5.131  0.0494 -0.2305  0.2524
 3140SOL    HW121056   3.945   2.974   5.155  0.3504 -0.5212  0.9778
 3140SOL    HW221057   3.824   2.884   5.150 -0.0033 -0.5981 -0.0161
 3141SOL     OW21058   2.131   4.262   1.757 -0.2375 -0.2668  0.6337
 3141SOL    HW121059   2.107   4.338   1.811 -3.6924 -0.6703 -0.3323
 3141SOL    HW221060   2.161   4.199   1.822 -0.5159  0.6703  1.6766
 3142SOL     OW21061   3.643   3.372  16.058 -0.1207 -0.6453 -0.4918
 3142SOL    HW121062   3.603   3.329  16.133 -0.5962 -0.3299 -0.5649
 3142SOL    HW221063   3.722   3.415  16.092 -0.5848  0.3486 -0.7045
 3143SOL     OW21064   2.452   1.393   3.514 -0.2588  0.4535 -0.0767
 3143SOL    HW121065   2.362   1.366   3.534  0.2588 -0.7791  0.6067
 3143SOL    HW221066   2.482   1.305   3.489  0.2333  0.9605 -1.2701
 3144SOL     OW21067   3.679   4.109   4.567  0.0997  0.3086  0.1141
 3144SOL    HW121068   3.647   4.028   4.529  0.8924  0.9823 -1.9767
 3144SOL    HW221069   3.769   4.105   4.534  0.3544 -1.9938  1.0893
 3145SOL     OW21070   1.801   3.759  12.487 -0.2323 -0.2601  0.4142
 3145SOL    HW121071   1.706   3.757  12.485 -0.1681 -2.5248 -0.2589
 3145SOL    HW221072   1.828   3.842  12.525  1.2081 -1.2052  1.4828
 3146SOL     OW21073   0.921   1.927   3.545 -0.0941 -0.3709  0.0328
 3146SOL    HW121074   0.933   1.833   3.559 -0.0097 -0.4861 -0.8176
 3146SOL    HW221075   0.843   1.945   3.597  0.1001 -1.9472  0.8521
 3147SOL     OW21076   2.235   0.549  10.044  0.2801  0.3860 -0.0388
 3147SOL    HW121077   2.207   0.530  10.133 -1.3164  0.3426 -0.5447
 3147SOL    HW221078   2.296   0.622  10.056  0.8982 -0.0860 -0.2937
 3148SOL     OW21079   3.743   0.171   4.308 -0.1629  0.2251  0.0991
 3148SOL    HW121080   3.675   0.141   4.247 -0.0491 -2.6965  1.4145
 3148SOL    HW221081   3.799   0.094   4.297  1.7448  1.5050  0.7476
 3149SOL     OW21082   4.102   2.419  12.173  0.3718 -0.0743 -0.2570
 3149SOL    HW121083   4.170   2.446  12.236 -0.1908  0.7317  0.0061
 3149SOL    HW221084   4.094   2.330  12.208 -0.9346  0.4075  0.6578
 3150SOL     OW21085   0.238   3.977   7.789 -0.1688  0.0957 -0.2255
 3150SOL    HW121086   0.149   3.976   7.826 -0.7163  0.1827 -1.5278
 3150SOL    HW221087   0.299   3.969   7.862  0.1050 -0.1999 -0.4868
 3151SOL     OW21088   1.981   1.839   1.282  0.2214  0.1055  0.2743
 3151SOL    HW121089   2.019   1.754   1.262 -0.8139 -0.2643 -0.1222
 3151SOL    HW221090   2.059   1.895   1.280  0.2211  0.0447 -1.4645
 3152SOL     OW21091   1.068   3.785   2.306 -0.0115  0.2952 -0.2081
 3152SOL    HW121092   1.099   3.715   2.249 -0.2914  0.1984 -0.2441
 3152SOL    HW221093   1.080   3.847   2.234 -0.5880  2.2695  1.3842
 3153SOL     OW21094   1.097   3.035   4.968 -1.0193 -0.0878 -0.3840
 3153SOL    HW121095   1.153   3.035   5.046  1.6691  0.8460 -2.3273
 3153SOL    HW221096   1.027   3.095   4.994 -0.4345 -0.0152  1.0155
 3154SOL     OW21097   2.201   3.679   0.274  0.0437  0.6361 -0.6208
 3154SOL    HW121098   2.270   3.675   0.340  1.6003 -1.9102 -2.3618
 3154SOL    HW221099   2.127   3.633   0.312  1.2707 -0.7544  0.0821
 3155SOL     OW21100   1.140   0.637   3.779  0.8636  0.0808 -0.1298
 3155SOL    HW121101   1.063   0.605   3.732  1.0919  2.3818 -2.0589
 3155SOL    HW221102   1.151   0.571   3.848 -0.0593 -0.1817 -0.2321
 3156SOL     OW21103   1.237   1.425  11.114 -0.3657 -0.8094  0.2818
 3156SOL    HW121104   1.241   1.489  11.043  0.6036 -0.1676  0.9310
 3156SOL    HW221105   1.298   1.465  11.175  0.1274 -1.8199  0.4533
 3157SOL     OW21106   1.993   4.555   2.327 -0.1578  0.9428 -0.1221
 3157SOL    HW121107   1.999   4.616   2.400 -0.4253  0.4563  0.3062
 3157SOL    HW221108   2.056   4.595   2.267  2.1646  0.0278  1.6873
 3158SOL     OW21109   0.329   0.505  13.078 -0.2358  0.0135  0.6445
 3158SOL    HW121110   0.290   0.459  13.004  1.4246 -1.0865  0.4430
 3158SOL    HW221111   0.303   0.457  13.157 -1.4326 -1.0858 -0.4252
 3159SOL     OW21112   2.247   1.019   9.804 -0.3661 -0.2018  0.5484
 3159SOL    HW121113   2.317   1.073   9.767 -1.7883  0.1375 -1.6426
 3159SOL    HW221114   2.198   1.080   9.858  0.1364 -0.3079  1.1355
 3160SOL     OW21115   0.628   4.543   5.704 -0.2426 -0.0681 -0.7508
 3160SOL    HW121116   0.718   4.555   5.737 -0.5191 -1.4675  0.5084
 3160SOL    HW221117   0.629   4.452   5.677 -0.7624 -0.3747  0.2889
 3161SOL     OW21118   0.711   2.072   5.602  0.0736 -0.0879  0.0630
 3161SOL    HW121119   0.716   2.037   5.691 -3.5797 -0.1585  0.2262
 3161SOL    HW221120   0.727   2.166   5.606 -1.1378  0.0925  0.6031
 3162SOL     OW21121   1.493   2.998   3.758  0.1252  0.2536  0.2586
 3162SOL    HW121122   1.482   3.033   3.846  0.1092 -1.4632  0.9490
 3162SOL    HW221123   1.419   2.940   3.738 -1.5939  1.8751  1.9632
 3163SOL     OW21124   0.610   0.381   1.643  0.3275 -0.1015 -0.4704
 3163SOL    HW121125   0.618   0.293   1.678  0.5491  0.0715 -0.0918
 3163SOL    HW221126   0.515   0.379   1.653  0.4615 -1.3967  0.5691
 3164SOL     OW21127   0.485   1.032   4.224 -0.1932 -0.3679 -0.4324
 3164SOL    HW121128   0.457   1.055   4.313 -0.3908 -1.2779 -0.2603
 3164SOL    HW221129   0.523   1.117   4.202 -1.3335  0.2044 -0.2424
 3165SOL     OW21130   3.150   2.824  16.106  0.3376  0.1053  0.0835
 3165SOL    HW121131   3.065   2.825  16.149  1.0587 -0.3454  1.5201
 3165SOL    HW221132   3.130   2.869  16.024 -0.2669 -0.0215  0.1604
 3166SOL     OW21133   1.971   2.164   4.339 -0.3929  0.1735 -0.4670
 3166SOL    HW121134   1.924   2.188   4.419  1.5841 -2.2751  1.4284
 3166SOL    HW221135   1.908   2.200   4.277 -0.0069  1.2456 -0.2324
 3167SOL     OW21136   0.514   0.818  15.010 -0.7923  0.2061  0.0398
 3167SOL    HW121137   0.485   0.879  14.943  1.0620  0.6060 -0.3992
 3167SOL    HW221138   0.456   0.836  15.084 -0.6660  0.5840  0.0436
 3168SOL     OW21139   3.388   4.679   6.010 -0.7765 -0.3257  0.5613
 3168SOL    HW121140   3.452   4.721   6.068 -2.4927 -0.0129  2.2117
 3168SOL    HW221141   3.442   4.601   5.994 -1.0771 -0.7386  1.5238
 3169SOL     OW21142   2.949   2.848   2.968 -0.2829 -0.3787  0.1835
 3169SOL    HW121143   2.922   2.912   3.034  0.8869 -1.9274  2.1652
 3169SOL    HW221144   3.029   2.814   3.009 -0.7330 -1.8326 -0.1840
 3170SOL     OW21145   1.915   0.379   7.982  0.0308  0.1798  0.0828
 3170SOL    HW121146   1.901   0.443   7.912  3.3173  0.7599 -0.0502
 3170SOL    HW221147   2.011   0.384   7.989  0.2047 -1.8097 -0.8494
 3171SOL     OW21148   2.760   3.494   9.537  0.1672 -0.3971  0.6671
 3171SOL    HW121149   2.813   3.443   9.598  0.2538  1.0789  1.8130
 3171SOL    HW221150   2.676   3.495   9.582 -0.8409 -0.2402 -1.2496
 3172SOL     OW21151   1.768   1.623   1.499  0.8308 -0.2971 -0.4230
 3172SOL    HW121152   1.719   1.690   1.451  1.5670 -0.6555 -1.6370
 3172SOL    HW221153   1.839   1.675   1.537  0.6258  0.9876 -1.8162
 3173SOL     OW21154   2.177   0.019  13.619 -0.1248  0.1637 -0.1617
 3173SOL    HW121155   2.131   4.671  13.636 -2.0582  0.9487 -1.6474
 3173SOL    HW221156   2.146   0.036  13.530 -0.9197 -2.7174 -0.4377
 3174SOL     OW21157   3.018   4.325   6.153  0.3414 -0.1649  0.0941
 3174SOL    HW121158   2.985   4.281   6.075  0.9511 -0.4664  0.0140
 3174SOL    HW221159   2.939   4.340   6.206  1.6150  3.1321  1.0568
 3175SOL     OW21160   1.524   1.234  12.361 -0.1304  0.4961 -0.1329
 3175SOL    HW121161   1.504   1.297  12.292  2.4358  1.7801  0.2853
 3175SOL    HW221162   1.618   1.217  12.355 -0.2156 -0.6752  2.2986
 3176SOL     OW21163   0.657   1.031  15.194  0.2475  0.0086  0.1975
 3176SOL    HW121164   0.694   1.094  15.256  0.5464 -0.0226  0.0522
 3176SOL    HW221165   0.735   0.981  15.170 -1.9506 -2.3134 -2.0700
 3177SOL     OW21166   1.266   0.790   8.751 -0.1307 -0.1611  0.0166
 3177SOL    HW121167   1.307   0.869   8.787  2.3213 -2.1795  1.6787
 3177SOL    HW221168   1.339   0.737   8.785  1.3163  2.0366  0.3492
 3178SOL     OW21169   2.185   0.301   9.568 -0.1744 -0.3443 -0.4415
 3178SOL    HW121170   2.281   0.303   9.570 -0.1817 -1.0269  0.8779
 3178SOL    HW221171   2.165   0.315   9.660  3.6617 -2.0673  0.6872
 3179SOL     OW21172   3.410   2.681   2.951 -0.3115  0.1729  0.4379
 3179SOL    HW121173   3.492   2.697   2.904 -0.8335 -0.8524 -0.8427
 3179SOL    HW221174   3.443   2.624   3.021  1.2824  1.6093  0.8490
 3180SOL     OW21175   2.748   2.265  11.764  0.0654 -0.0557 -0.0762
 3180SOL    HW121176   2.793   2.347  11.744 -1.3573  0.2090 -2.1472
 3180SOL    HW221177   2.714   2.230  11.682 -0.0819  1.8551 -0.8336
 3181SOL     OW21178   1.051   2.049  11.497  0.2258 -0.2517 -0.1720
 3181SOL    HW121179   1.139   2.016  11.480  1.0276  0.9735  1.5285
 3181SOL    HW221180   1.017   1.974  11.546  0.1075  0.1786  0.4124
 3182SOL     OW21181   3.869   2.365   7.833  0.2076 -0.0497 -0.2698
 3182SOL    HW121182   3.833   2.371   7.745 -1.4805 -2.0001  0.2961
 3182SOL    HW221183   3.915   2.447   7.852  0.0796 -0.1703  0.5572
 3183SOL     OW21184   4.377   4.643   2.095  0.6723 -0.2762  0.1659
 3183SOL    HW121185   4.323   4.637   2.016  0.5563 -0.3746  0.2523
 3183SOL    HW221186   4.348   4.710   2.157  0.6730 -1.5841  1.5818
 3184SOL     OW21187   3.264   0.202  10.433  0.2762  0.3692 -0.0756
 3184SOL    HW121188   3.209   0.147  10.377 -0.4733 -0.6067  1.6260
 3184SOL    HW221189   3.315   0.259  10.375  1.3135  0.6583  1.1212
 3185SOL     OW21190   1.214   1.302  10.691  0.2965 -0.3661 -0.7031
 3185SOL    HW121191   1.280   1.233  10.702  0.3745 -0.3569 -1.1199
 3185SOL    HW221192   1.260   1.379  10.723  0.8975 -1.3551  0.8171
 3186SOL     OW21193   1.471   0.385   7.331 -0.2318  0.1744  0.7049
 3186SOL    HW121194   1.538   0.427   7.279 -1.1866  0.2295 -0.4867
 3186SOL    HW221195   1.518   0.313   7.374  3.2288  2.9636  1.5532
 3187SOL     OW21196   2.316   1.953   6.241 -0.1841  0.5969 -0.0994
 3187SOL    HW121197   2.326   2.022   6.175  3.1582 -0.3301 -0.6027
 3187SOL    HW221198   2.292   2.000   6.320  1.6253  2.0501 -0.3929
 3188SOL     OW21199   1.545   2.433   3.323 -0.5378 -0.2139  0.3954
 3188SOL    HW121200   1.622   2.412   3.271 -0.0549  0.9024  0.6775
 3188SOL    HW221201   1.491   2.355   3.309 -3.4463  1.5682  1.6906
 3189SOL     OW21202   0.271   1.735   2.740 -0.0564  0.2199 -0.1208
 3189SOL    HW121203   0.328   1.778   2.804  2.3854 -2.2744 -0.5881
 3189SOL    HW221204   0.218   1.807   2.707 -2.3880  0.1257  3.4846
 3190SOL     OW21205   1.064   3.650   4.226 -0.1620  0.0407 -0.0524
 3190SOL    HW121206   1.001   3.703   4.177 -0.2173  1.0483  1.1012
 3190SOL    HW221207   1.086   3.701   4.304  0.5940  0.6745 -0.6773
 3191SOL     OW21208   1.141   2.146   6.571 -0.3909 -0.0038  0.4921
 3191SOL    HW121209   1.123   2.236   6.597 -1.1554  0.2538 -0.9504
 3191SOL    HW221210   1.235   2.137   6.583 -0.6317 -1.0519  1.7430
 3192SOL     OW21211   4.046   2.532   2.983  0.4618 -0.1060 -0.2045
 3192SOL    HW121212   3.990   2.455   2.992 -0.9322  0.8198 -1.1792
 3192SOL    HW221213   4.074   2.543   3.074  0.7279 -0.6252 -0.2213
 3193SOL     OW21214   1.009   1.077  17.529 -0.0070  0.0979  0.3800
 3193SOL    HW121215   0.987   1.155  17.479 -0.3198  1.1173  2.0984
 3193SOL    HW221216   1.045   1.115  17.610 -1.3720 -0.5144  1.2710
 3194SOL     OW21217   3.182   3.003   1.512 -0.4811  0.1829 -0.0611
 3194SOL    HW121218   3.185   2.997   1.607 -0.8179  1.7013  0.0402
 3194SOL    HW221219   3.190   2.908   1.500  1.9858  0.3100  0.6371
 3195SOL     OW21220   0.974   1.604   4.280 -0.2765 -0.4613 -0.1565
 3195SOL    HW121221   1.066   1.587   4.298 -0.1447  2.2184  1.7908
 3195SOL    HW221222   0.955   1.552   4.202 -1.6962  1.2535 -0.9616
 3196SOL     OW21223   1.730   1.959   9.681 -0.3261 -0.1489  1.0881
 3196SOL    HW121224   1.672   2.035   9.669 -1.0308 -0.7399  0.7525
 3196SOL    HW221225   1.762   1.981   9.769  2.1971  0.5965 -0.0380
 3197SOL     OW21226   0.567   0.775  16.614  0.1817  0.0408  0.2616
 3197SOL    HW121227   0.559   0.714  16.540  1.5347  1.9661 -1.4860
 3197SOL    HW221228   0.475   0.771  16.640  0.0519 -1.7436 -0.4588
 3198SOL     OW21229   4.033   2.258  11.705  0.0502  0.3423 -0.6058
 3198SOL    HW121230   4.042   2.353  11.708 -0.1089  0.2777  1.7603
 3198SOL    HW221231   4.106   2.220  11.656  0.0734  0.3015 -0.5388
 3199SOL     OW21232   3.091   0.649   7.406  0.5523 -0.0313  0.0352
 3199SOL    HW121233   3.136   0.732   7.387  0.4282 -0.3607 -1.7143
 3199SOL    HW221234   3.142   0.594   7.347 -0.5658 -0.0706 -0.8863
 3200SOL     OW21235   1.318   1.412  16.179  0.4662 -0.6848 -0.2553
 3200SOL    HW121236   1.288   1.321  16.186 -0.8900 -0.2332 -0.2512
 3200SOL    HW221237   1.314   1.436  16.271 -0.1560 -0.5467 -0.3225
 3201SOL     OW21238   0.873   0.915   3.819  0.1253 -0.0156  0.5976
 3201SOL    HW121239   0.845   0.861   3.745 -1.6680  0.3100  1.0494
 3201SOL    HW221240   0.799   0.974   3.829 -1.1344 -1.5881  0.4782
 3202SOL     OW21241   3.671   3.509   2.899  0.1068 -0.2893 -0.5401
 3202SOL    HW121242   3.642   3.536   2.812  0.4145  0.5220 -0.3896
 3202SOL    HW221243   3.667   3.416   2.878 -0.7636 -0.6783  1.2731
 3203SOL     OW21244   4.113   4.124   3.866 -0.2504  0.3242  0.1885
 3203SOL    HW121245   4.189   4.175   3.896  0.8300  0.3280 -2.5283
 3203SOL    HW221246   4.141   4.043   3.909 -1.1912 -0.3650 -0.5096
 3204SOL     OW21247   3.055   2.562   6.027  0.2005  0.2912 -0.1940
 3204SOL    HW121248   3.040   2.552   6.121  2.0521 -0.7300 -0.0235
 3204SOL    HW221249   3.117   2.492   6.009  0.1980  0.1404  0.4126
 3205SOL     OW21250   0.614   1.884  16.574 -0.3488 -0.1295 -0.4910
 3205SOL    HW121251   0.607   1.802  16.622 -1.6499 -0.4206 -1.1878
 3205SOL    HW221252   0.534   1.928  16.600 -0.4550 -0.3486 -0.4535
 3206SOL     OW21253   1.230   0.117   1.575  0.2303 -0.6072 -0.0763
 3206SOL    HW121254   1.192   0.171   1.643  1.4744  0.0282  0.1139
 3206SOL    HW221255   1.161   0.129   1.510 -0.2439 -0.9373  0.3652
 3207SOL     OW21256   2.033   0.421   4.852  0.1304  0.2294 -0.2920
 3207SOL    HW121257   2.054   0.382   4.937 -2.4589 -0.1846  0.1508
 3207SOL    HW221258   2.006   0.340   4.809 -2.3552 -0.2294  2.1107
 3208SOL     OW21259   1.651   2.341   2.500  0.2919  0.0129  0.1120
 3208SOL    HW121260   1.578   2.399   2.481 -0.5542 -1.5344 -1.3693
 3208SOL    HW221261   1.691   2.393   2.570  2.8465 -0.4544 -0.9935
 3209SOL     OW21262   3.903   2.548  10.313 -0.1135 -0.0851  0.1226
 3209SOL    HW121263   3.896   2.555  10.409  1.0007  1.2586  0.0962
 3209SOL    HW221264   3.953   2.625  10.288  0.2610 -0.3366  0.1045
 3210SOL     OW21265   1.487   2.478   3.680 -0.7017 -0.2166 -0.1773
 3210SOL    HW121266   1.407   2.471   3.733  1.1337  0.8556  2.6959
 3210SOL    HW221267   1.463   2.433   3.599 -1.3300 -0.9262  0.4053
 3211SOL     OW21268   1.403   1.976   9.347 -0.4649 -0.1255  0.2116
 3211SOL    HW121269   1.437   2.048   9.294 -1.1322  1.1342  1.4771
 3211SOL    HW221270   1.473   1.911   9.347 -0.4671 -0.1125 -2.4720
 3212SOL     OW21271   1.357   0.072  12.527 -0.0200  0.2258 -0.4177
 3212SOL    HW121272   1.284   0.095  12.470 -1.4022 -1.1692  0.8137
 3212SOL    HW221273   1.402   0.002  12.480  0.5389  0.0042  0.4525
 3213SOL     OW21274   2.882   4.206   9.466  0.3529 -0.3013 -0.0927
 3213SOL    HW121275   2.868   4.231   9.557 -0.3097  3.9104 -1.3632
 3213SOL    HW221276   2.852   4.283   9.418  0.7722  0.9911  1.6981
 3214SOL     OW21277   2.108   1.093   8.251 -0.0953 -0.1261  0.0081
 3214SOL    HW121278   2.013   1.098   8.242 -0.2417 -1.4379  0.8549
 3214SOL    HW221279   2.121   1.064   8.341 -1.2777  0.0384  0.2368
 3215SOL     OW21280   2.804   3.062  14.315 -0.0115 -0.0005  0.1574
 3215SOL    HW121281   2.890   3.078  14.275 -1.0718  0.5191 -1.8899
 3215SOL    HW221282   2.812   3.123  14.389  0.7829 -0.0909  0.1452
 3216SOL     OW21283   1.547   2.056   1.281 -1.0722  0.4742 -0.1976
 3216SOL    HW121284   1.554   2.148   1.309  1.8791  0.3105 -0.3713
 3216SOL    HW221285   1.500   2.020   1.356  0.7421 -0.3803  0.5390
 3217SOL     OW21286   4.427   1.520   4.090 -0.0046  0.8485 -0.1135
 3217SOL    HW121287   4.437   1.491   4.180  0.4200 -2.3309 -1.1803
 3217SOL    HW221288   4.334   1.509   4.070  0.0436  0.6105 -0.2096
 3218SOL     OW21289   0.730   4.428   8.887 -0.1916 -0.4364  0.5253
 3218SOL    HW121290   0.763   4.387   8.967  0.2279 -0.2682  0.4348
 3218SOL    HW221291   0.721   4.517   8.921  0.4752 -1.2199  2.7789
 3219SOL     OW21292   0.116   0.164   2.489 -0.1880 -0.0982  0.3291
 3219SOL    HW121293   0.176   0.088   2.490 -0.3361 -0.2302 -1.1084
 3219SOL    HW221294   0.181   0.232   2.472  0.9237 -1.5131 -1.0667
 3220SOL     OW21295   4.529   0.662   5.516 -0.4417  0.2139  0.5577
 3220SOL    HW121296   4.488   0.738   5.474 -0.1807  0.8381  1.4269
 3220SOL    HW221297   4.495   0.592   5.460  1.9129 -2.3769  2.3566
 3221SOL     OW21298   3.304   4.678   2.637  0.3189  0.0461 -0.2269
 3221SOL    HW121299   3.346   0.004   2.575  0.6993  1.0455  0.9907
 3221SOL    HW221300   3.271   4.606   2.584  1.3744 -1.4884  1.2067
 3222SOL     OW21301   0.064   1.588   8.132  0.5412 -0.1145 -0.5192
 3222SOL    HW121302   0.130   1.655   8.152 -1.3731  1.0269  1.9255
 3222SOL    HW221303   4.719   1.636   8.154  0.4165  1.1579 -3.7552
 3223SOL     OW21304   1.877   1.071   7.843  0.3144  0.5805  0.1672
 3223SOL    HW121305   1.864   1.100   7.752 -0.4550 -0.7413 -0.1566
 3223SOL    HW221306   1.940   1.137   7.869 -0.0499  0.4444  1.3782
 3224SOL     OW21307   1.846   3.645   1.968 -0.7530  0.4692  0.2466
 3224SOL    HW121308   1.845   3.741   1.975  0.8819  0.5040  0.0362
 3224SOL    HW221309   1.937   3.633   1.942 -0.6976  1.7341 -0.1759
 3225SOL     OW21310   2.093   1.094   3.647 -0.1546 -0.7572  0.2124
 3225SOL    HW121311   2.083   1.186   3.624 -0.6169 -0.6558  0.8463
 3225SOL    HW221312   2.149   1.063   3.576  0.3194  2.8970 -1.0145
 3226SOL     OW21313   2.429   4.129  13.638  0.0741  0.9370  0.2667
 3226SOL    HW121314   2.425   4.217  13.674 -3.6521  1.1501 -0.6506
 3226SOL    HW221315   2.368   4.079  13.692 -0.4632 -1.2308 -2.3504
 3227SOL     OW21316   3.841   2.118   3.870 -0.3122 -0.4477  0.2235
 3227SOL    HW121317   3.829   2.196   3.815  0.1509 -0.2204  0.4490
 3227SOL    HW221318   3.935   2.106   3.857 -0.3635 -0.3773 -0.2396
 3228SOL     OW21319   1.072   4.216   4.832  0.5668 -0.4497  0.4159
 3228SOL    HW121320   1.136   4.155   4.795 -1.1523 -1.3078 -1.1669
 3228SOL    HW221321   1.122   4.240   4.909  0.3085  1.2173  0.0621
 3229SOL     OW21322   1.338   0.956   4.106 -0.0044 -0.1371 -0.1049
 3229SOL    HW121323   1.303   0.959   4.195 -1.5622  0.2864 -0.7309
 3229SOL    HW221324   1.259   0.949   4.051  0.2914  1.0673 -0.6959
 3230SOL     OW21325   3.208   2.484   4.383 -0.1583 -0.1412  0.1296
 3230SOL    HW121326   3.133   2.537   4.409 -0.7920 -0.9939  0.0088
 3230SOL    HW221327   3.167   2.400   4.363  1.6600 -1.1105  0.4898
 3231SOL     OW21328   0.239   0.676   7.340  0.2011  0.3422  0.4521
 3231SOL    HW121329   0.197   0.696   7.424  0.1188  0.2749  0.4275
 3231SOL    HW221330   0.277   0.758   7.309  0.0329  0.6313  1.0033
 3232SOL     OW21331   2.150   2.655  17.484 -0.4296  0.3493 -0.6966
 3232SOL    HW121332   2.154   2.595  17.409  0.7502  0.5122 -0.7512
 3232SOL    HW221333   2.238   2.645  17.519 -0.9383 -0.7284  0.2854
 3233SOL     OW21334   1.516   0.673  16.275  0.6443 -0.1366  0.5783
 3233SOL    HW121335   1.596   0.625  16.253 -0.0663 -0.3685 -1.4691
 3233SOL    HW221336   1.517   0.675  16.371 -1.7021 -3.0432  0.6684
 3234SOL     OW21337   1.706   2.514   7.366  0.0609  0.4106  0.5758
 3234SOL    HW121338   1.612   2.534   7.370  0.2344  1.3183  0.0332
 3234SOL    HW221339   1.696   2.421   7.342  1.1944  0.1317  1.1914
 3235SOL     OW21340   0.395   1.098   4.490  0.4725 -0.1423  0.7655
 3235SOL    HW121341   0.331   1.041   4.531 -2.0817  0.6154 -2.1345
 3235SOL    HW221342   0.469   1.061   4.537  1.0510  0.0986  0.0525
 3236SOL     OW21343   1.245   0.652  12.439 -0.3139  0.7694 -0.3824
 3236SOL    HW121344   1.312   0.649  12.506  0.9866 -0.6196 -1.7518
 3236SOL    HW221345   1.170   0.662  12.497 -0.5427 -1.1261 -0.3595
 3237SOL     OW21346   3.243   1.147   1.961 -0.4842 -0.1131 -0.0533
 3237SOL    HW121347   3.241   1.071   1.903  3.7950 -0.1218 -0.2068
 3237SOL    HW221348   3.182   1.210   1.924 -0.6435  1.0072  2.1275
 3238SOL     OW21349   0.549   1.969   5.407  0.2329  0.4337  0.0098
 3238SOL    HW121350   0.623   1.929   5.362  0.5665  0.0398  0.9083
 3238SOL    HW221351   0.580   2.027   5.477  0.5445  0.2946 -0.0125
 3239SOL     OW21352   1.066   2.386   9.685 -0.3477  0.3536  0.1324
 3239SOL    HW121353   1.117   2.317   9.644  0.5644  1.2989 -0.3433
 3239SOL    HW221354   0.980   2.345   9.692  0.6503 -1.6233  0.7811
 3240SOL     OW21355   1.342   4.137   6.737 -0.1142  0.1819 -0.1482
 3240SOL    HW121356   1.277   4.208   6.734  0.8210  1.0386 -0.1134
 3240SOL    HW221357   1.360   4.131   6.831  1.8011 -2.5856 -0.6992
 3241SOL     OW21358   1.897   0.972  17.675 -0.4772 -0.6416 -0.5490
 3241SOL    HW121359   1.824   1.024  17.709  0.2798 -0.1898  0.3510
 3241SOL    HW221360   1.941   1.039  17.623 -2.3455 -0.4867 -1.9592
 3242SOL     OW21361   0.433   4.294   2.467  0.1503 -1.0580 -0.0963
 3242SOL    HW121362   0.474   4.379   2.455  0.0925 -0.9643  0.3874
 3242SOL    HW221363   0.442   4.274   2.560 -0.4669 -1.1903 -0.0612
 3243SOL     OW21364   1.759   0.975   7.457  0.4968 -0.1428 -0.3372
 3243SOL    HW121365   1.792   1.058   7.492  1.6173  0.7235 -3.4356
 3243SOL    HW221366   1.750   0.929   7.540 -1.3220 -0.1504 -0.5367
 3244SOL     OW21367   4.135   1.131   4.778 -0.3237  0.3900 -0.1685
 3244SOL    HW121368   4.102   1.158   4.692 -1.8358 -1.0330 -0.0420
 3244SOL    HW221369   4.086   1.184   4.841 -0.1157  1.3320 -0.8083
 3245SOL     OW21370   3.978   2.079  16.617 -0.2080 -0.0850 -0.5111
 3245SOL    HW121371   3.919   2.105  16.687  0.4491  0.8121 -0.2874
 3245SOL    HW221372   3.928   2.011  16.571 -1.1079  0.4359 -0.2994
 3246SOL     OW21373   1.826   2.657  14.921 -0.3452 -0.3376 -0.1407
 3246SOL    HW121374   1.907   2.613  14.894 -0.0741  0.0303  0.0686
 3246SOL    HW221375   1.788   2.693  14.841  1.9690 -1.9448 -1.9659
 3247SOL     OW21376   3.738   4.266   4.982 -0.1441  0.2017  0.3576
 3247SOL    HW121377   3.765   4.177   5.005 -1.4119 -0.2328  0.1405
 3247SOL    HW221378   3.810   4.322   5.011 -1.4120  0.2307  3.4547
 3248SOL     OW21379   3.021   3.716   5.574 -0.6111  0.7291 -0.0866
 3248SOL    HW121380   3.073   3.636   5.587 -0.4276  0.4312 -2.6436
 3248SOL    HW221381   2.950   3.682   5.519  0.4852 -1.0590 -0.4049
 3249SOL     OW21382   1.560   3.165  15.708  0.3983  0.2861  0.5609
 3249SOL    HW121383   1.556   3.074  15.735 -0.6623 -0.1888 -1.2497
 3249SOL    HW221384   1.654   3.181  15.721  0.8670 -0.1100 -2.4987
 3250SOL     OW21385   0.734   0.827  16.353 -0.3365  0.4356  0.2734
 3250SOL    HW121386   0.708   0.735  16.363  0.6473 -0.0583 -1.5839
 3250SOL    HW221387   0.829   0.823  16.358 -0.4529 -0.7808  1.5319
 3251SOL     OW21388   2.566   2.227   3.545  0.5625  0.0809 -0.3754
 3251SOL    HW121389   2.604   2.161   3.487 -0.4098  0.3062 -1.2674
 3251SOL    HW221390   2.637   2.288   3.565  1.1501  0.0541 -2.3483
 3252SOL     OW21391   1.243   3.909   5.791 -0.0745  0.8021 -0.0012
 3252SOL    HW121392   1.228   3.928   5.883 -0.6748 -0.5895  0.1953
 3252SOL    HW221393   1.180   3.837   5.782  0.5756  0.0436  1.6054
 3253SOL     OW21394   3.827   3.197   2.029  0.1753  0.0503  0.0789
 3253SOL    HW121395   3.769   3.273   2.040 -0.6597 -0.7569  1.1980
 3253SOL    HW221396   3.909   3.247   2.025  0.8334 -1.0171  0.4619
 3254SOL     OW21397   1.551   0.580   5.156 -1.1743  0.3443  0.2770
 3254SOL    HW121398   1.581   0.501   5.111 -1.4315  0.3384  0.1127
 3254SOL    HW221399   1.517   0.551   5.241  0.2970  0.3877  0.8751
 3255SOL     OW21400   1.297   4.218   4.226  0.0324  0.8016  0.8640
 3255SOL    HW121401   1.291   4.216   4.322 -1.0886 -0.0259  0.7860
 3255SOL    HW221402   1.366   4.154   4.209 -0.1128  0.5559  1.1867
 3256SOL     OW21403   1.152   1.809   9.976  0.1561  0.2091 -0.2497
 3256SOL    HW121404   1.226   1.769  10.022  0.1740 -1.1270 -1.4479
 3256SOL    HW221405   1.088   1.804  10.047 -1.1926 -1.0514 -1.5484
 3257SOL     OW21406   4.443   2.441   1.437 -0.1075 -0.0841 -0.2701
 3257SOL    HW121407   4.462   2.531   1.408  1.5846 -0.5106 -0.4526
 3257SOL    HW221408   4.350   2.455   1.455 -0.2849 -0.3259 -0.9941
 3258SOL     OW21409   4.334   2.763   3.202 -0.3609 -0.1815  0.0408
 3258SOL    HW121410   4.286   2.745   3.284 -2.2655 -0.2298 -1.0838
 3258SOL    HW221411   4.403   2.700   3.222  1.0696  1.1768 -0.6963
 3259SOL     OW21412   1.112   4.682   7.349 -0.1817  0.3421  0.0172
 3259SOL    HW121413   1.021   4.704   7.327 -0.2458 -2.7934 -2.8268
 3259SOL    HW221414   1.157   0.031   7.338  0.0666  0.2952  0.6819
 3260SOL     OW21415   1.872   1.279   2.035 -0.4611 -0.9026  0.2522
 3260SOL    HW121416   1.785   1.294   1.997 -0.8514  2.2291  2.3804
 3260SOL    HW221417   1.919   1.319   1.961  1.1373  0.6086  2.0691
 3261SOL     OW21418   0.150   3.322   7.932  0.1166 -0.6475 -0.6477
 3261SOL    HW121419   0.236   3.309   7.971 -0.4531  0.1490  0.8779
 3261SOL    HW221420   0.159   3.255   7.863  1.4981 -0.5554 -0.5552
 3262SOL     OW21421   1.639   4.140  15.175  0.5410 -0.0205 -0.4934
 3262SOL    HW121422   1.607   4.183  15.254  1.1883 -0.1723 -0.1463
 3262SOL    HW221423   1.616   4.052  15.205 -2.8996  0.4419 -1.8127
 3263SOL     OW21424   3.108   3.678   6.880 -0.5095  0.0688  0.6142
 3263SOL    HW121425   3.184   3.659   6.824 -2.5540  0.1142 -2.1925
 3263SOL    HW221426   3.108   3.773   6.885 -0.3656  0.1223 -0.2670
 3264SOL     OW21427   0.463   4.443   1.759  0.3501 -0.2255 -0.4208
 3264SOL    HW121428   0.463   4.366   1.815  1.4586  0.1544  0.0962
 3264SOL    HW221429   0.373   4.441   1.725  0.5937  1.0037 -1.1424
 3265SOL     OW21430   0.480   0.041   9.858  0.2005 -0.0386  0.1528
 3265SOL    HW121431   0.541   0.068   9.926 -1.2017 -0.0289  1.4049
 3265SOL    HW221432   0.429   0.121   9.844 -0.0653  0.2334  2.6896
 3266SOL     OW21433   0.242   1.476   5.645 -0.8473 -0.3720 -0.0574
 3266SOL    HW121434   0.285   1.542   5.699 -0.3904 -1.4291  0.8811
 3266SOL    HW221435   0.200   1.541   5.588 -1.7877  1.0626  2.2672
 3267SOL     OW21436   1.752   3.193   4.000 -0.2662  0.3865 -0.3224
 3267SOL    HW121437   1.809   3.124   3.967 -0.0652 -0.5321  1.9452
 3267SOL    HW221438   1.750   3.255   3.927 -0.1276  0.0385 -0.6248
 3268SOL     OW21439   2.534   3.840  17.407 -0.3408  0.0202 -0.2217
 3268SOL    HW121440   2.504   3.881  17.326  2.6192  3.8753  0.6168
 3268SOL    HW221441   2.452   3.854  17.454  0.9215  2.4030  1.3047
 3269SOL     OW21442   3.358   3.772   6.948 -0.1447 -0.5091  0.0520
 3269SOL    HW121443   3.351   3.754   6.855  0.6325 -0.5929  0.0131
 3269SOL    HW221444   3.447   3.745   6.969 -0.4266 -1.7731 -0.3824
 3270SOL     OW21445   3.274   0.667  16.281  0.3068  0.1392  0.1127
 3270SOL    HW121446   3.218   0.743  16.293  1.1472  1.1607 -2.4301
 3270SOL    HW221447   3.307   0.687  16.193  2.1497  0.1793  0.8029
 3271SOL     OW21448   2.763   1.914   3.825 -0.2001  0.2896 -0.2804
 3271SOL    HW121449   2.683   1.961   3.802 -1.3423 -1.2604  0.5684
 3271SOL    HW221450   2.729   1.859   3.895  2.1176 -0.8245 -0.0290
 3272SOL     OW21451   4.453   4.505   4.533 -0.1041 -0.7222  0.0900
 3272SOL    HW121452   4.391   4.530   4.465 -0.0545  1.1469  0.7392
 3272SOL    HW221453   4.397   4.521   4.609 -0.6811  0.6318 -0.6349
 3273SOL     OW21454   4.659   2.775   4.576 -0.3450 -0.0225 -0.1889
 3273SOL    HW121455   4.568   2.800   4.594  0.3465  1.4097  1.3294
 3273SOL    HW221456   4.665   2.698   4.632 -1.8704  0.1781  0.2451
 3274SOL     OW21457   3.663   1.706  11.289  0.4546  0.0370 -0.2748
 3274SOL    HW121458   3.663   1.720  11.384  0.6370 -0.2626 -0.2308
 3274SOL    HW221459   3.756   1.691  11.273  0.2309  0.3425 -1.7998
 3275SOL     OW21460   1.915   1.045   4.845 -0.6646  0.0890 -0.7045
 3275SOL    HW121461   1.881   1.009   4.763 -2.0937 -0.1482 -0.0018
 3275SOL    HW221462   1.966   0.967   4.869 -2.6043 -0.6659  0.9414
 3276SOL     OW21463   4.670   2.080   1.786  0.5871  0.0687  0.2235
 3276SOL    HW121464   0.003   2.031   1.737  1.1286  1.3532 -0.3129
 3276SOL    HW221465   4.626   2.128   1.716  1.0247 -0.7499 -0.6142
 3277SOL     OW21466   2.134   1.850  13.206  0.3444 -0.2132  0.6439
 3277SOL    HW121467   2.117   1.780  13.143  0.8908 -1.3088  1.7036
 3277SOL    HW221468   2.087   1.922  13.164  0.9433 -0.6834 -0.8291
 3278SOL     OW21469   1.336   2.527   2.243  0.5645 -0.0724  0.4118
 3278SOL    HW121470   1.281   2.463   2.197  0.6868 -0.1022  0.3086
 3278SOL    HW221471   1.296   2.608   2.212  2.8468  1.0617  0.4062
 3279SOL     OW21472   3.389   3.965   1.244  0.4284  0.5344  0.2308
 3279SOL    HW121473   3.416   4.057   1.248 -0.1578  0.6938  0.5609
 3279SOL    HW221474   3.305   3.966   1.198  0.4786  1.2342  0.1491
 3280SOL     OW21475   0.893   4.569   6.996 -1.0317  0.3802  0.6181
 3280SOL    HW121476   0.805   4.565   6.959 -0.2107  0.1425 -1.2859
 3280SOL    HW221477   0.884   4.507   7.068  0.7497 -1.3367 -0.6207
 3281SOL     OW21478   4.576   4.361   8.889  0.0028  0.2773 -0.4172
 3281SOL    HW121479   4.663   4.365   8.929  0.8206  0.7529 -2.2481
 3281SOL    HW221480   4.543   4.274   8.908  0.9045 -0.2828 -1.4480
 3282SOL     OW21481   1.359   1.645   7.554  0.3158  0.3676  0.2484
 3282SOL    HW121482   1.405   1.563   7.574  1.2715  0.8074 -0.1057
 3282SOL    HW221483   1.392   1.711   7.615  0.2815  0.2242  0.4219
 3283SOL     OW21484   2.146   0.008   6.347 -0.1428 -0.2945  0.4508
 3283SOL    HW121485   2.157   0.062   6.426 -1.5583 -0.5319  0.8100
 3283SOL    HW221486   2.149   0.082   6.286 -1.6561 -0.4773  0.1514
 3284SOL     OW21487   3.503   1.651   7.570  0.0404 -0.0119  0.0662
 3284SOL    HW121488   3.535   1.576   7.620  1.4082  1.6487  1.7008
 3284SOL    HW221489   3.588   1.680   7.536 -0.7281 -0.1702 -1.9789
 3285SOL     OW21490   2.213   0.509  12.001 -0.3349  0.1442 -0.2767
 3285SOL    HW121491   2.255   0.428  11.973 -3.3882 -1.4225 -0.2870
 3285SOL    HW221492   2.245   0.568  11.933  0.9449 -0.7317 -0.4288
 3286SOL     OW21493   0.264   1.994   9.173  0.5242  0.4704 -0.3615
 3286SOL    HW121494   0.190   2.004   9.232  0.2768 -0.3295 -0.5464
 3286SOL    HW221495   0.292   1.911   9.210 -0.1249  0.4286  0.0287
 3287SOL     OW21496   2.906   4.341  10.217 -0.1096  0.0922 -0.0058
 3287SOL    HW121497   2.997   4.363  10.197 -0.1052  2.3139  2.5957
 3287SOL    HW221498   2.924   4.258  10.261 -0.0874 -1.4320 -2.8458
 3288SOL     OW21499   3.804   2.117  11.627 -0.0682  0.0589  0.1394
 3288SOL    HW121500   3.847   2.033  11.644 -0.0201 -0.1996 -1.2612
 3288SOL    HW221501   3.878   2.167  11.661 -0.0873  0.2135 -0.0454
 3289SOL     OW21502   3.023   2.150   6.532 -0.6167 -0.3466 -0.1770
 3289SOL    HW121503   2.947   2.152   6.475 -1.3584 -2.5235  0.7569
 3289SOL    HW221504   3.067   2.232   6.509 -0.9392 -0.5879 -1.5988
 3290SOL     OW21505   0.306   3.481   7.355 -0.2266 -0.2828  0.0525
 3290SOL    HW121506   0.356   3.401   7.371  0.5440  0.8068  3.0820
 3290SOL    HW221507   0.361   3.536   7.411 -0.0411  1.4133 -1.7944
 3291SOL     OW21508   3.544   0.058  15.756 -0.9737  0.4598 -0.7189
 3291SOL    HW121509   3.634   0.075  15.782 -0.5124 -1.2414 -1.2009
 3291SOL    HW221510   3.514   0.148  15.771 -0.2876 -0.0114  3.6223
 3292SOL     OW21511   2.525   3.782   5.903 -0.0727 -0.1691 -0.2208
 3292SOL    HW121512   2.488   3.841   5.968 -1.4064 -1.4220  0.1555
 3292SOL    HW221513   2.470   3.703   5.898  0.4108 -0.4287 -1.3577
 3293SOL     OW21514   0.208   4.499   1.630  0.0142 -0.1799 -0.0024
 3293SOL    HW121515   0.138   4.548   1.673 -1.3648 -0.7739 -1.5473
 3293SOL    HW221516   0.184   4.409   1.650 -1.4632  0.2979  0.4252
 3294SOL     OW21517   4.658   4.556   2.741 -0.2828 -0.5784 -0.4638
 3294SOL    HW121518   4.596   4.603   2.797 -2.3600 -1.9425 -1.6139
 3294SOL    HW221519   4.709   4.497   2.797 -1.1603 -1.0896 -0.2070
 3295SOL     OW21520   1.414   0.558   2.287 -0.2028  0.6356  0.2467
 3295SOL    HW121521   1.469   0.628   2.254 -0.0675  0.6040  0.4073
 3295SOL    HW221522   1.373   0.539   2.202 -2.0939 -0.2627  1.3625
 3296SOL     OW21523   4.247   2.386  16.373 -0.0892  0.8078 -0.6052
 3296SOL    HW121524   4.234   2.338  16.454 -0.0537 -1.5945 -2.0256
 3296SOL    HW221525   4.233   2.309  16.318  1.1587 -0.8631  1.4258
 3297SOL     OW21526   2.691   3.732   1.464 -0.8736 -0.2850 -0.1366
 3297SOL    HW121527   2.710   3.734   1.558  1.7814 -0.0740 -0.6659
 3297SOL    HW221528   2.731   3.653   1.428  1.8547  1.6544 -1.3168
 3298SOL     OW21529   3.687   3.384   6.499 -0.2364 -0.0276 -0.1049
 3298SOL    HW121530   3.694   3.322   6.572  1.7073 -0.6094 -0.7916
 3298SOL    HW221531   3.626   3.452   6.527  0.3997  0.2913  0.5088
 3299SOL     OW21532   1.186   3.776   1.806  0.8463 -0.4147  0.1314
 3299SOL    HW121533   1.276   3.788   1.775  0.2286  0.1552 -1.4419
 3299SOL    HW221534   1.134   3.825   1.742  0.4880 -0.4475  0.4027
 3300SOL     OW21535   3.506   3.538   0.760 -0.5270  0.4395  0.4423
 3300SOL    HW121536   3.506   3.455   0.808 -1.0300 -0.4475 -1.1080
 3300SOL    HW221537   3.415   3.542   0.730 -0.3369 -0.4335 -0.2748
 3301SOL     OW21538   4.708   1.473  12.246 -0.0283  1.0507 -0.5819
 3301SOL    HW121539   4.629   1.522  12.222 -1.9153 -0.7820  1.8566
 3301SOL    HW221540   0.025   1.525  12.308 -0.9328  0.6908  0.4756
 3302SOL     OW21541   2.585   4.337   3.748 -0.8509  0.1733 -0.4796
 3302SOL    HW121542   2.620   4.327   3.659  0.8304  0.9970  0.0992
 3302SOL    HW221543   2.531   4.415   3.732  0.0514  0.7875 -0.5779
 3303SOL     OW21544   1.029   2.200   3.649 -0.0728  0.0811  0.1782
 3303SOL    HW121545   1.066   2.129   3.701  0.4897 -0.4493 -0.9491
 3303SOL    HW221546   0.969   2.239   3.713  2.0687  1.5935  1.2731
 3304SOL     OW21547   2.950   1.486  16.254  0.0250  0.2753  0.4343
 3304SOL    HW121548   2.962   1.559  16.314  0.7905 -0.1775  0.8377
 3304SOL    HW221549   2.858   1.492  16.230  0.0541  1.0907  0.5485
 3305SOL     OW21550   0.072   0.188   5.192 -0.0172  0.5847 -0.1721
 3305SOL    HW121551   0.017   0.230   5.258 -0.1410 -1.4653  1.0412
 3305SOL    HW221552   0.156   0.233   5.202 -0.1232  0.4304  1.5153
 3306SOL     OW21553   2.473   2.450   1.560  0.5641 -0.1033  0.6699
 3306SOL    HW121554   2.546   2.511   1.556 -0.3099  0.8708 -0.3456
 3306SOL    HW221555   2.413   2.508   1.607 -0.3844  0.3611 -1.0919
 3307SOL     OW21556   1.089   0.053   6.347 -0.1353  0.0336 -0.0077
 3307SOL    HW121557   1.060   0.144   6.334  1.7639  0.4312 -1.4116
 3307SOL    HW221558   1.006   0.008   6.333  0.6268 -1.1007 -0.8081
 3308SOL     OW21559   1.510   2.587   9.418 -0.0737 -0.7175  0.3067
 3308SOL    HW121560   1.468   2.530   9.482 -0.5339 -0.1890  0.4778
 3308SOL    HW221561   1.575   2.528   9.379 -0.4045  0.2921 -1.7689
 3309SOL     OW21562   0.785   1.001   6.359  0.0705  0.2441  0.2003
 3309SOL    HW121563   0.771   1.083   6.406 -0.8062  1.7516 -2.7293
 3309SOL    HW221564   0.732   1.023   6.283  0.3079  1.2938  0.3489
 3310SOL     OW21565   1.726   0.133   9.982  0.0873 -0.0622 -0.4040
 3310SOL    HW121566   1.791   0.203   9.993  1.8279 -1.7829  0.2004
 3310SOL    HW221567   1.761   0.059  10.032 -2.2878 -0.0657  1.2571
 3311SOL     OW21568   1.358   4.122  10.954 -0.0424 -0.1023  0.1500
 3311SOL    HW121569   1.280   4.101  10.903 -0.4894  0.6453  0.5336
 3311SOL    HW221570   1.339   4.082  11.038 -0.0453  0.4118  0.3930
 3312SOL     OW21571   2.022   2.737  10.112 -0.1740  0.1606 -0.2627
 3312SOL    HW121572   2.082   2.747  10.038 -0.5304  1.8954 -0.3154
 3312SOL    HW221573   2.049   2.811  10.167 -0.0586  0.4830 -0.7591
 3313SOL     OW21574   3.182   3.229   5.995 -0.4535 -0.1259 -0.8049
 3313SOL    HW121575   3.114   3.198   5.935 -2.6431 -0.4932  1.8723
 3313SOL    HW221576   3.259   3.176   5.973  1.3792  2.2529 -0.1984
 3314SOL     OW21577   0.014   1.125   5.812  0.3622  0.2264  0.0982
 3314SOL    HW121578   4.689   1.179   5.760 -2.4909 -0.3639  2.7571
 3314SOL    HW221579   0.087   1.183   5.834  0.9861  0.5802 -2.9295
 3315SOL     OW21580   3.134   1.814   6.939 -0.0336  0.3174 -0.5761
 3315SOL    HW121581   3.117   1.724   6.911  2.9111 -0.8256  1.3269
 3315SOL    HW221582   3.165   1.799   7.028  1.2796 -2.4845 -1.5252
 3316SOL     OW21583   4.611   2.168   4.947  0.3188  0.0697 -0.0113
 3316SOL    HW121584   4.603   2.245   4.890  0.8236 -1.7355 -2.5599
 3316SOL    HW221585   4.688   2.195   4.997  0.1358  2.1479 -0.8488
 3317SOL     OW21586   2.651   4.181   5.607  0.2736  0.0251  0.3093
 3317SOL    HW121587   2.746   4.182   5.604  0.3872 -0.2463  3.8866
 3317SOL    HW221588   2.639   4.098   5.653 -2.7287 -0.2589 -0.9777
 3318SOL     OW21589   1.182   3.411   4.978 -0.6776  0.4713  0.4355
 3318SOL    HW121590   1.090   3.395   4.995 -0.2860 -1.6542  0.5666
 3318SOL    HW221591   1.224   3.326   4.963 -0.6836  0.4637  0.4621
 3319SOL     OW21592   4.116   2.719   3.372  0.0333 -0.0148 -0.2605
 3319SOL    HW121593   4.036   2.771   3.382  0.2578  0.2504  0.1516
 3319SOL    HW221594   4.114   2.692   3.464  0.3039  2.1371  0.3826
 3320SOL     OW21595   4.014   3.929   5.330 -0.7088  0.0184  0.3470
 3320SOL    HW121596   4.068   3.999   5.365  1.0816 -0.1467 -2.1259
 3320SOL    HW221597   4.076   3.895   5.266 -0.8654 -0.7716  0.6128
 3321SOL     OW21598   2.022   4.724   8.177  0.2183  0.0696  0.0456
 3321SOL    HW121599   2.099   4.685   8.136  0.0693  2.0762 -2.1626
 3321SOL    HW221600   1.977   0.026   8.100 -1.9741  0.4750  1.5336
 3322SOL     OW21601   0.351   1.386   8.219 -0.5830  0.3020  0.3476
 3322SOL    HW121602   0.341   1.293   8.240 -0.4706  0.0974 -0.4994
 3322SOL    HW221603   0.283   1.420   8.277  0.8799  1.3904  1.4298
 3323SOL     OW21604   2.839   2.110   2.659  0.1517  1.0053 -0.2254
 3323SOL    HW121605   2.781   2.044   2.697  2.4121 -0.8461  0.0111
 3323SOL    HW221606   2.815   2.099   2.567 -2.5700 -2.6698  0.9133
 3324SOL     OW21607   2.338   3.569   5.827 -0.2945  0.3381 -0.3748
 3324SOL    HW121608   2.275   3.582   5.757 -1.7865 -2.3983  0.4466
 3324SOL    HW221609   2.277   3.533   5.891  0.7743 -0.5174  0.1805
 3325SOL     OW21610   2.779   0.190   6.596  0.1030 -0.3528  0.3685
 3325SOL    HW121611   2.845   0.242   6.549 -0.6979  0.2308 -0.0953
 3325SOL    HW221612   2.717   0.258   6.621  1.1006 -0.5306  3.3329
 3326SOL     OW21613   3.670   1.619  10.505 -1.0473  0.2608 -0.2166
 3326SOL    HW121614   3.599   1.680  10.484 -0.0216  1.9572  1.2307
 3326SOL    HW221615   3.648   1.594  10.594 -0.2754  0.4614  0.0327
 3327SOL     OW21616   2.520   4.487   4.637  0.0291 -0.6388 -0.1335
 3327SOL    HW121617   2.553   4.402   4.667  0.3260 -0.8259 -0.9742
 3327SOL    HW221618   2.455   4.515   4.702  1.2161  0.6109  0.5110
 3328SOL     OW21619   2.684   1.825  11.936  0.1905 -0.0138 -0.1296
 3328SOL    HW121620   2.748   1.781  11.992  0.5316 -0.0009 -0.5141
 3328SOL    HW221621   2.733   1.891  11.887  2.3944 -0.6351  1.2467
 3329SOL     OW21622   0.996   3.394   4.168  0.1523  0.1373  0.4812
 3329SOL    HW121623   1.041   3.478   4.157 -0.0203  0.1340 -0.2586
 3329SOL    HW221624   1.063   3.343   4.211  0.4590 -0.5731 -0.8286
 3330SOL     OW21625   1.803   1.138   6.606  0.3271  0.2381 -0.4218
 3330SOL    HW121626   1.765   1.092   6.680  0.6098  1.6654  0.6176
 3330SOL    HW221627   1.785   1.229   6.630 -0.2938 -0.1712  0.6457
 3331SOL     OW21628   0.945   3.888   6.052  0.1276 -0.1151 -0.1786
 3331SOL    HW121629   1.033   3.915   6.076 -0.6143  2.1237  0.0091
 3331SOL    HW221630   0.937   3.905   5.959  3.1209  0.2378 -0.3540
 3332SOL     OW21631   3.184   2.016  10.169  0.5662  0.0559 -0.3584
 3332SOL    HW121632   3.230   2.083  10.119  2.2220  1.2989  2.8327
 3332SOL    HW221633   3.205   1.941  10.114  0.1092  1.8477 -2.9395
 3333SOL     OW21634   2.251   2.902   1.901 -0.0745 -0.5050 -0.3900
 3333SOL    HW121635   2.252   2.947   1.985 -2.4007 -1.5412  0.1604
 3333SOL    HW221636   2.157   2.910   1.883 -0.4055 -1.0832  1.1220
 3334SOL     OW21637   0.168   2.521   8.155  0.0599  0.2584  0.0384
 3334SOL    HW121638   0.260   2.543   8.172 -0.4613  1.1441  1.7820
 3334SOL    HW221639   0.181   2.493   8.065 -3.0877 -0.7762 -0.0869
 3335SOL     OW21640   1.193   2.294  14.585 -0.3559  0.2553  0.0584
 3335SOL    HW121641   1.288   2.296  14.591 -0.4888  0.1057  2.4693
 3335SOL    HW221642   1.185   2.360  14.654 -2.0347  0.4856 -0.3459
 3336SOL     OW21643   0.161   4.621   9.045  1.0467  0.8075  0.6278
 3336SOL    HW121644   0.079   4.670   9.049 -0.0651 -1.1144  1.8614
 3336SOL    HW221645   0.218   4.696   9.056  0.6436  0.9097  2.1063
 3337SOL     OW21646   1.248   4.393   2.510  0.4021  0.5313 -0.1049
 3337SOL    HW121647   1.218   4.371   2.421  1.1444  0.7505 -0.4097
 3337SOL    HW221648   1.272   4.485   2.498 -0.2016  0.7183  0.1316
 3338SOL     OW21649   0.970   4.648   8.539  0.2427  0.3767  0.5938
 3338SOL    HW121650   1.018   4.654   8.456  0.6445 -1.4083  0.7012
 3338SOL    HW221651   0.900   4.708   8.514  0.0691 -0.9844 -2.2656
 3339SOL     OW21652   4.143   3.307   1.504 -0.0665 -0.4014  0.3467
 3339SOL    HW121653   4.162   3.396   1.533 -0.4129  0.4000 -1.8568
 3339SOL    HW221654   4.212   3.291   1.439 -1.2941 -0.9160 -0.8404
 3340SOL     OW21655   2.618   2.854  14.759 -0.8331  0.2112 -0.1338
 3340SOL    HW121656   2.673   2.873  14.683  1.0790 -1.0049  0.9540
 3340SOL    HW221657   2.651   2.928  14.811 -1.5367  0.5767 -0.2048
 3341SOL     OW21658   3.935   1.798   4.341  0.5146  0.1668  1.0132
 3341SOL    HW121659   3.858   1.828   4.291  2.0612  1.0452 -0.8570
 3341SOL    HW221660   3.920   1.704   4.356  1.3013 -0.3324 -1.3124
 3342SOL     OW21661   2.442   3.647  14.645 -0.7583 -0.0274  0.0251
 3342SOL    HW121662   2.502   3.719  14.630  0.1746  0.0311  3.9601
 3342SOL    HW221663   2.487   3.569  14.612  2.3240  0.3266  3.4529
 3343SOL     OW21664   1.156   0.103  16.972  0.3097  0.6881 -0.3173
 3343SOL    HW121665   1.133   0.029  16.916 -1.5430  0.2258  1.0645
 3343SOL    HW221666   1.069   0.127  17.003 -0.5219  0.4052 -2.4231
 3344SOL     OW21667   2.341   2.988   7.978  0.1765 -0.0875 -0.3090
 3344SOL    HW121668   2.320   2.935   7.902 -0.1988 -0.0783 -0.2108
 3344SOL    HW221669   2.392   3.055   7.931 -0.1264 -0.6017 -1.3575
 3345SOL     OW21670   2.030   0.271   8.633 -0.0883 -0.1071  0.0208
 3345SOL    HW121671   1.995   0.202   8.690  0.9250 -0.0816  0.6650
 3345SOL    HW221672   1.962   0.266   8.565  0.1210  0.9597 -0.2587
 3346SOL     OW21673   2.494   2.462   3.295 -0.2813  0.2379  0.3199
 3346SOL    HW121674   2.491   2.368   3.278  0.0111  0.2545  0.1690
 3346SOL    HW221675   2.400   2.482   3.297 -0.2741  0.2898  0.1950
 3347SOL     OW21676   4.408   2.055   7.870  0.0129  0.1095 -0.1176
 3347SOL    HW121677   4.380   2.069   7.960  0.0258 -0.4442 -0.0260
 3347SOL    HW221678   4.359   1.973   7.861  0.7995 -0.2013 -1.6184
 3348SOL     OW21679   1.894   2.932  17.077 -0.1581  0.6049 -0.1366
 3348SOL    HW121680   1.881   2.966  17.165 -1.2452  0.1875 -0.1380
 3348SOL    HW221681   1.822   2.870  17.070  0.8414 -0.5410 -0.1161
 3349SOL     OW21682   1.866   1.551   1.027  0.2024  0.8050  0.1682
 3349SOL    HW121683   1.809   1.595   1.090 -0.5584  1.6275 -1.0737
 3349SOL    HW221684   1.812   1.531   0.951  3.0383  0.8978 -1.8633
 3350SOL     OW21685   1.778   1.685   8.587  0.4109 -0.0393  0.4282
 3350SOL    HW121686   1.853   1.727   8.629  0.4553  1.1411 -0.8473
 3350SOL    HW221687   1.817   1.649   8.508 -1.3755 -0.8310 -0.0940
 3351SOL     OW21688   0.904   3.371   2.391  0.1599  0.5228 -0.3366
 3351SOL    HW121689   0.851   3.398   2.466  0.2921 -1.5236  0.4797
 3351SOL    HW221690   0.849   3.411   2.324 -0.8854  2.2976  1.5644
 3352SOL     OW21691   3.646   1.866   9.049 -0.5323 -0.1662  0.5213
 3352SOL    HW121692   3.711   1.833   9.112  0.7831 -3.0290 -2.3690
 3352SOL    HW221693   3.568   1.821   9.080 -0.7168  0.1769  0.5573
 3353SOL     OW21694   0.286   0.605   8.601 -0.6126 -0.1740  0.1884
 3353SOL    HW121695   0.224   0.665   8.642 -1.7680 -2.4486  1.7952
 3353SOL    HW221696   0.300   0.546   8.675  0.2021  0.1970  0.3268
 3354SOL     OW21697   1.643   0.865   5.321 -0.1364  0.1125 -0.4582
 3354SOL    HW121698   1.716   0.869   5.259 -0.6254  1.3486 -0.9733
 3354SOL    HW221699   1.593   0.926   5.266  0.6188  0.8150 -0.3626
 3355SOL     OW21700   1.943   4.510   8.365  0.2239  0.5476  0.4207
 3355SOL    HW121701   1.972   4.575   8.301 -0.1803 -1.5228 -1.8395
 3355SOL    HW221702   2.007   4.518   8.436  0.7694  0.4226 -0.0583
 3356SOL     OW21703   2.354   3.608  17.335 -0.0718  0.6513 -0.7010
 3356SOL    HW121704   2.372   3.629  17.243 -2.3756 -1.5322 -1.6408
 3356SOL    HW221705   2.373   3.691  17.378 -3.2947  0.4388  1.1236
 3357SOL     OW21706   2.311   3.739   7.580  0.1730  0.3750  0.3731
 3357SOL    HW121707   2.314   3.661   7.635 -0.2065 -0.1062 -0.2927
 3357SOL    HW221708   2.267   3.801   7.637  0.2234 -0.2541  1.0990
 3358SOL     OW21709   2.960   2.047   5.994  0.0895  0.4266  0.4512
 3358SOL    HW121710   2.962   2.035   5.899 -2.2858  2.2557  0.1702
 3358SOL    HW221711   3.052   2.030   6.014  0.0619 -3.9197 -3.1964
 3359SOL     OW21712   4.080   1.430   6.185  0.4181  0.1766  0.2043
 3359SOL    HW121713   4.152   1.478   6.143  0.0074 -1.3062 -2.1806
 3359SOL    HW221714   4.102   1.433   6.278 -2.4539  0.9390  0.8483
 3360SOL     OW21715   0.087   4.307  13.239 -0.2560  0.3010 -0.5061
 3360SOL    HW121716   0.088   4.304  13.143  2.7710 -2.2453 -0.4044
 3360SOL    HW221717   0.052   4.221  13.260  0.6317  0.7824  2.8311
 3361SOL     OW21718   4.078   4.604  13.246 -0.0133 -0.0096 -0.0457
 3361SOL    HW121719   4.075   4.572  13.156 -1.6981 -0.5260  0.1964
 3361SOL    HW221720   4.019   4.678  13.234 -0.1839  0.0476  1.1539
 3362SOL     OW21721   2.878   1.792   6.173 -0.2052  0.3281  0.4968
 3362SOL    HW121722   2.860   1.811   6.081  0.4693  0.4268  0.3847
 3362SOL    HW221723   2.855   1.871   6.224  1.5856  0.0611  1.7030
 3363SOL     OW21724   1.717   4.662   3.650 -0.3065  0.6954 -0.0385
 3363SOL    HW121725   1.808   4.681   3.671  0.8646 -4.2196 -0.7862
 3363SOL    HW221726   1.732   4.588   3.591  0.5552  1.4654 -0.7997
 3364SOL     OW21727   2.071   3.663  13.371  0.1261  0.2763  0.0276
 3364SOL    HW121728   2.083   3.672  13.277  0.8666 -2.5100 -0.1473
 3364SOL    HW221729   1.985   3.706  13.372 -0.6740 -1.3285  1.0677
 3365SOL     OW21730   4.671   1.572  17.568 -0.5656  0.5596 -0.1453
 3365SOL    HW121731   4.646   1.480  17.560  2.1846 -0.3588  1.6708
 3365SOL    HW221732   4.634   1.606  17.487  1.6105 -0.6102 -1.6353
 3366SOL     OW21733   0.170   2.295   7.557 -0.0120  0.4019  0.2364
 3366SOL    HW121734   0.155   2.388   7.536 -0.6235  0.3506  0.4498
 3366SOL    HW221735   0.088   2.254   7.529  0.7531  0.6742 -2.3892
 3367SOL     OW21736   4.274   1.201  17.228  0.0036 -0.7604  0.0104
 3367SOL    HW121737   4.282   1.295  17.210  0.9662  0.0087  4.5221
 3367SOL    HW221738   4.298   1.159  17.146  1.0120 -0.3011  0.0735
 3368SOL     OW21739   3.582   1.376   3.259 -0.0761 -0.0351 -0.2644
 3368SOL    HW121740   3.597   1.337   3.345 -1.8348 -0.5822 -0.2094
 3368SOL    HW221741   3.608   1.466   3.279  0.1741  0.0199 -0.8509
 3369SOL     OW21742   0.504   2.575  16.407 -0.5740 -0.7386 -0.0465
 3369SOL    HW121743   0.525   2.485  16.381 -0.2746 -0.8368  0.5323
 3369SOL    HW221744   0.424   2.566  16.459 -0.2084  1.0819  0.8363
 3370SOL     OW21745   1.075   4.657   8.989 -0.1780 -0.1833 -0.3409
 3370SOL    HW121746   1.142   4.684   9.052 -0.6316 -2.2412  1.0046
 3370SOL    HW221747   1.135   4.650   8.914 -1.4077  0.6188 -1.3938
 3371SOL     OW21748   0.737   1.358   4.960  0.2353  0.0749 -0.1351
 3371SOL    HW121749   0.718   1.300   5.033  0.3401 -0.2483 -0.3636
 3371SOL    HW221750   0.672   1.331   4.895  2.6487 -0.9330 -2.1241
 3372SOL     OW21751   0.138   2.560   7.499  0.6963  0.0285  0.0805
 3372SOL    HW121752   0.168   2.651   7.494 -0.0247  0.2299 -0.5552
 3372SOL    HW221753   0.159   2.530   7.410  1.1043  0.1906  0.1214
 3373SOL     OW21754   1.061   1.573   9.336  0.3533 -0.0190 -0.4335
 3373SOL    HW121755   1.146   1.561   9.295  1.1020  0.6203  0.9296
 3373SOL    HW221756   1.070   1.667   9.352 -0.3020 -0.3932  2.1479
 3374SOL     OW21757   2.002   0.483  16.311 -0.6334  0.0955 -0.0198
 3374SOL    HW121758   1.999   0.435  16.394  1.3484  0.4139  0.2270
 3374SOL    HW221759   2.071   0.547  16.327 -1.3889  0.6612  0.9387
 3375SOL     OW21760   2.158   0.524   8.999  0.2252  0.0838 -0.4132
 3375SOL    HW121761   2.103   0.583   9.050  2.4142  2.2118 -0.5657
 3375SOL    HW221762   2.133   0.530   8.907  0.4446 -0.3459 -0.5012
 3376SOL     OW21763   0.900   4.461   5.056 -0.1449 -0.2366 -0.5410
 3376SOL    HW121764   0.836   4.525   5.025  1.0609  0.6250 -1.2591
 3376SOL    HW221765   0.892   4.394   4.987 -2.5839  2.0448 -2.4561
 3377SOL     OW21766   1.724   2.793   1.394 -0.0515  0.3918  0.3164
 3377SOL    HW121767   1.650   2.829   1.443 -0.5507 -0.2008 -0.0033
 3377SOL    HW221768   1.798   2.843   1.428 -0.8490  0.1919  2.3537
 3378SOL     OW21769   0.328   1.481   6.436 -0.1136  0.3027 -0.3483
 3378SOL    HW121770   0.364   1.479   6.347  1.9278 -0.9022  0.5192
 3378SOL    HW221771   0.404   1.513   6.484  0.5059 -1.0683 -0.3964
 3379SOL     OW21772   4.261   1.526   5.059  0.4426 -0.9814  0.5373
 3379SOL    HW121773   4.343   1.572   5.077 -1.0916  2.0464 -0.2970
 3379SOL    HW221774   4.202   1.573   5.118 -0.3757 -0.8933 -0.3648
 3380SOL     OW21775   1.913   3.927   9.296  0.4770 -0.4008  0.2355
 3380SOL    HW121776   1.914   3.935   9.392 -3.8680 -2.7072  0.5060
 3380SOL    HW221777   2.000   3.892   9.278 -0.0852 -0.8199 -1.6399
 3381SOL     OW21778   3.696   4.508   7.201 -0.2589  0.0608 -0.1375
 3381SOL    HW121779   3.777   4.521   7.250 -0.2553 -1.5149  0.2635
 3381SOL    HW221780   3.649   4.438   7.247  0.5765 -0.4999 -0.1391
 3382SOL     OW21781   4.007   1.537   5.837 -0.4352  0.4614 -0.7033
 3382SOL    HW121782   4.071   1.558   5.905 -0.9142  2.3549 -0.8488
 3382SOL    HW221783   4.038   1.596   5.768 -1.8274  0.3187 -1.4550
 3383SOL     OW21784   1.717   0.292   5.876 -0.1664 -0.0267 -0.4436
 3383SOL    HW121785   1.769   0.371   5.891  0.7776 -0.3596 -1.9007
 3383SOL    HW221786   1.691   0.267   5.964 -2.0547  0.9604 -0.7190
 3384SOL     OW21787   1.915   0.473   7.550  1.0079 -0.4281  0.5487
 3384SOL    HW121788   1.942   0.382   7.563 -1.9776 -1.4894 -0.5519
 3384SOL    HW221789   1.871   0.498   7.631 -2.2380 -1.6086 -0.8596
 3385SOL     OW21790   4.511   2.184  14.869 -0.2298  0.4138 -0.1168
 3385SOL    HW121791   4.479   2.098  14.840  1.1645  0.1858 -0.9778
 3385SOL    HW221792   4.606   2.176  14.868 -0.2115  0.2798  1.7751
 3386SOL     OW21793   2.409   0.880   7.436  0.6398  0.1466  0.5697
 3386SOL    HW121794   2.324   0.856   7.474  0.8333 -0.9387  0.3403
 3386SOL    HW221795   2.386   0.944   7.369 -2.1537  0.1918  1.5946
 3387SOL     OW21796   3.230   4.708   9.653 -0.4590  0.2783  0.4448
 3387SOL    HW121797   3.237   4.620   9.692 -1.1088 -0.0468 -0.1691
 3387SOL    HW221798   3.303   0.019   9.695 -0.6516 -0.2652  1.3675
 3388SOL     OW21799   3.403   2.335   5.016 -0.4355  0.6918  0.7638
 3388SOL    HW121800   3.319   2.296   5.041 -0.7311  0.5385 -0.4964
 3388SOL    HW221801   3.467   2.294   5.074 -1.3880 -1.4699  0.2693
 3389SOL     OW21802   0.551   2.544   9.554 -0.2164 -0.1233  0.3380
 3389SOL    HW121803   0.539   2.638   9.570  0.7935 -0.2408  1.7599
 3389SOL    HW221804   0.500   2.524   9.476 -1.5011 -0.8939  1.3845
 3390SOL     OW21805   4.656   4.444   9.321 -0.3152 -0.0620 -0.7318
 3390SOL    HW121806   0.010   4.420   9.290 -0.0490 -0.6689  0.4920
 3390SOL    HW221807   4.648   4.392   9.402 -3.3605  2.8874  0.8482
 3391SOL     OW21808   2.739   1.703   7.150  0.0668  0.2273  0.1041
 3391SOL    HW121809   2.731   1.709   7.054  0.6467  2.0611  0.1643
 3391SOL    HW221810   2.787   1.785   7.164 -1.7722  1.3130  0.1440
 3392SOL     OW21811   0.580   1.746   7.020  0.1332 -0.3687 -0.4998
 3392SOL    HW121812   0.579   1.745   7.115 -2.3251 -1.9660 -0.5283
 3392SOL    HW221813   0.623   1.830   7.005 -0.3330 -0.3533 -1.8038
 3393SOL     OW21814   2.115   1.586  14.682 -0.1647 -0.1547  0.1848
 3393SOL    HW121815   2.178   1.529  14.638 -0.3884  1.0957 -1.7304
 3393SOL    HW221816   2.044   1.523  14.696 -0.4692 -0.0042 -0.6811
 3394SOL     OW21817   2.957   4.333   6.712 -0.3908 -0.0278  0.0063
 3394SOL    HW121818   2.977   4.291   6.795  1.2874  1.1907  0.2347
 3394SOL    HW221819   3.029   4.395   6.698 -1.1893  1.3335  2.0115
 3395SOL     OW21820   1.773   4.395   1.462 -0.0989  0.3425 -0.4869
 3395SOL    HW121821   1.739   4.314   1.500  0.7671 -0.2480 -0.9766
 3395SOL    HW221822   1.713   4.419   1.391 -0.5627 -2.7852 -1.1616
 3396SOL     OW21823   0.703   3.775   2.847 -0.0838 -0.6090  0.3434
 3396SOL    HW121824   0.758   3.742   2.777 -0.9992  0.5805 -0.9379
 3396SOL    HW221825   0.708   3.869   2.830 -0.6148 -0.4803  0.8704
 3397SOL     OW21826   1.443   3.951   2.937  0.0842  0.7785  0.0493
 3397SOL    HW121827   1.419   3.864   2.968 -0.4614  0.3182 -1.6438
 3397SOL    HW221828   1.386   3.958   2.860 -0.0213 -1.7916 -0.1272
 3398SOL     OW21829   2.940   4.558  10.927 -0.5155 -0.0253  0.2616
 3398SOL    HW121830   2.852   4.548  10.889 -0.9736  0.1965  1.2583
 3398SOL    HW221831   2.985   4.498  10.868  0.0148 -0.3106  0.9501
 3399SOL     OW21832   1.098   2.819   1.607 -0.5740  0.1705  0.2584
 3399SOL    HW121833   1.024   2.844   1.663 -1.0681  0.2656 -0.4401
 3399SOL    HW221834   1.040   2.770   1.549  1.3460 -2.7567  0.8482
 3400SOL     OW21835   0.971   2.435   7.050  0.1378 -0.3112  0.5793
 3400SOL    HW121836   1.061   2.467   7.050 -0.3035  0.9179  3.1007
 3400SOL    HW221837   0.963   2.407   7.141 -0.9626  0.1362  0.6216
 3401SOL     OW21838   4.631   3.281   2.143 -0.1256  0.0473  0.2156
 3401SOL    HW121839   4.602   3.283   2.235  2.2253 -2.3137  0.9877
 3401SOL    HW221840   4.545   3.262   2.104  0.5844 -0.6038 -1.0172
 3402SOL     OW21841   0.517   2.426   4.341 -0.6201 -0.7182  0.3414
 3402SOL    HW121842   0.602   2.443   4.381 -1.0971 -0.0692  1.0719
 3402SOL    HW221843   0.461   2.473   4.402 -2.2724 -0.5349 -1.3354
 3403SOL     OW21844   3.948   1.923   2.856  0.3497 -0.6489 -0.0733
 3403SOL    HW121845   4.028   1.875   2.835  2.1077  2.9863 -1.7161
 3403SOL    HW221846   3.968   1.998   2.800  0.6472 -0.6868 -0.0214
 3404SOL     OW21847   0.155   0.510   3.748  0.3596 -0.0197 -0.0659
 3404SOL    HW121848   0.183   0.420   3.767  2.3908  0.6876  0.2829
 3404SOL    HW221849   0.132   0.503   3.655 -2.0145 -2.4537  0.6763
 3405SOL     OW21850   3.447   3.119   8.639 -0.2456 -0.0702 -0.4489
 3405SOL    HW121851   3.514   3.168   8.687  0.1916 -1.1187  0.0130
 3405SOL    HW221852   3.487   3.088   8.558 -2.0409 -1.4204 -0.8241
 3406SOL     OW21853   1.408   4.578  16.442 -0.2213 -0.0017 -0.0569
 3406SOL    HW121854   1.368   4.491  16.448 -1.0212  0.3279 -0.7510
 3406SOL    HW221855   1.391   4.611  16.530 -0.7233  0.0806 -0.1873
 3407SOL     OW21856   3.581   0.030   4.113 -0.8012 -0.2954 -0.0580
 3407SOL    HW121857   3.515   0.037   4.182 -1.2537  1.3312 -0.6334
 3407SOL    HW221858   3.565   4.678   4.076 -2.1351 -0.6597  1.3540
 3408SOL     OW21859   2.204   0.834   1.495 -0.5497 -0.6009 -0.0642
 3408SOL    HW121860   2.173   0.751   1.459 -0.2047 -0.5077 -0.5729
 3408SOL    HW221861   2.222   0.895   1.424 -0.8714  0.4074  0.7280
 3409SOL     OW21862   4.355   2.692  17.299 -0.0959 -0.0500 -0.4621
 3409SOL    HW121863   4.310   2.645  17.370  1.2664  1.3815  1.3409
 3409SOL    HW221864   4.367   2.624  17.233 -1.7707  0.5795 -1.4186
 3410SOL     OW21865   4.183   2.390   0.920 -0.2373 -0.2841  0.5367
 3410SOL    HW121866   4.166   2.425   1.007  2.3963 -0.3643  1.0771
 3410SOL    HW221867   4.124   2.315   0.926 -0.6988  0.0932  0.6492
 3411SOL     OW21868   3.468   1.875   8.586 -0.4242  0.2689 -0.2566
 3411SOL    HW121869   3.550   1.827   8.599  0.3922  1.6106 -0.4735
 3411SOL    HW221870   3.493   1.933   8.513 -0.5154  0.7123  0.0645
 3412SOL     OW21871   3.771   3.404   0.182 -0.1181  0.6108  0.6406
 3412SOL    HW121872   3.773   3.322   0.233 -1.7405  0.0892 -0.1437
 3412SOL    HW221873   3.684   3.441   0.196 -0.0972  0.8044  0.2500
 3413SOL     OW21874   2.510   3.389   8.357 -0.2120  0.0827  0.0206
 3413SOL    HW121875   2.554   3.307   8.335  0.0508  0.2116  0.0653
 3413SOL    HW221876   2.574   3.434   8.412  0.4913  1.8650 -2.2722
 3414SOL     OW21877   1.619   0.297   1.173  0.2263  0.1048 -0.6096
 3414SOL    HW121878   1.631   0.390   1.157  3.0722 -0.4206 -1.5250
 3414SOL    HW221879   1.543   0.278   1.117 -1.4209 -0.7706  1.9111
 3415SOL     OW21880   0.558   3.561   2.035 -0.1613  0.2000 -0.7892
 3415SOL    HW121881   0.483   3.562   2.094 -0.5232  0.1277 -1.2451
 3415SOL    HW221882   0.630   3.544   2.096  0.3877 -1.7808 -1.9538
 3416SOL     OW21883   0.558   0.447  16.841  0.5569 -0.3275  0.3442
 3416SOL    HW121884   0.504   0.523  16.863  1.1265  0.5006 -1.1249
 3416SOL    HW221885   0.646   0.485  16.846 -0.8304  3.1571 -1.4407
 3417SOL     OW21886   4.177   0.607  11.537 -0.2617  0.3063 -0.7671
 3417SOL    HW121887   4.246   0.541  11.529 -1.5286 -1.1019 -0.0953
 3417SOL    HW221888   4.132   0.609  11.452  0.6331 -0.4906 -1.2538
 3418SOL     OW21889   4.467   1.404   6.284  0.3340 -0.1659 -0.3411
 3418SOL    HW121890   4.474   1.410   6.189  2.3565  1.5808 -0.0818
 3418SOL    HW221891   4.424   1.487   6.301 -0.1329 -0.1978 -1.3886
 3419SOL     OW21892   1.980   4.591   7.426  0.1438 -0.0939  0.4113
 3419SOL    HW121893   1.928   4.599   7.506  1.1695  0.8601  0.9819
 3419SOL    HW221894   1.939   4.511   7.392 -1.5571  0.9633 -0.0277
 3420SOL     OW21895   3.221   1.655   7.180  0.1115  0.3091 -0.3660
 3420SOL    HW121896   3.175   1.571   7.172 -0.4135  0.4570  1.0113
 3420SOL    HW221897   3.309   1.632   7.150  0.5161  1.5021 -0.0855
 3421SOL     OW21898   3.040   1.385  13.096  0.4144  0.1640 -0.1556
 3421SOL    HW121899   3.002   1.361  13.012 -1.4151 -2.2979  1.3636
 3421SOL    HW221900   3.005   1.316  13.153 -1.6317  0.7718 -0.6918
 3422SOL     OW21901   1.717   4.441   3.481 -0.2711 -0.8167  0.1879
 3422SOL    HW121902   1.674   4.374   3.533 -0.5137 -0.2416  0.7282
 3422SOL    HW221903   1.794   4.386   3.465  0.6754 -0.3091  3.0806
 3423SOL     OW21904   0.799   0.420   7.920 -0.1457 -0.2001 -0.2843
 3423SOL    HW121905   0.890   0.442   7.900 -0.3369 -1.4561 -2.4636
 3423SOL    HW221906   0.773   0.508   7.948 -1.3313 -0.7527  0.3600
 3424SOL     OW21907   1.874   4.232   5.304 -0.3352 -0.4554  0.6901
 3424SOL    HW121908   1.819   4.305   5.331 -1.7576 -1.3901  0.2817
 3424SOL    HW221909   1.946   4.238   5.366  1.5112  1.6717 -1.6260
 3425SOL     OW21910   1.238   3.971  11.872  0.0923  0.1819 -0.3693
 3425SOL    HW121911   1.168   4.032  11.896 -0.6243 -0.9820  0.4550
 3425SOL    HW221912   1.249   3.908  11.943 -0.7776  1.7021  1.1335
 3426SOL     OW21913   2.611   1.149   4.505  0.3030  0.2968  0.3321
 3426SOL    HW121914   2.518   1.166   4.497  0.7336  2.2034 -0.5990
 3426SOL    HW221915   2.610   1.055   4.522 -0.0038  0.2442  0.0236
 3427SOL     OW21916   0.040   2.975   6.554  0.5609  0.0187  0.0416
 3427SOL    HW121917   4.704   3.026   6.515  0.9919  0.4729 -0.1317
 3427SOL    HW221918   0.060   2.902   6.495 -1.3214  0.1106 -0.7016
 3428SOL     OW21919   0.343   2.749   2.880 -0.0932 -0.2080  0.4385
 3428SOL    HW121920   0.339   2.653   2.879  2.9940 -0.3302 -2.0456
 3428SOL    HW221921   0.401   2.753   2.804 -0.2457 -0.9671  0.2768
 3429SOL     OW21922   4.322   1.005   4.936 -0.4767 -0.2390 -0.1637
 3429SOL    HW121923   4.235   1.035   4.909 -0.3897  1.0150  0.9195
 3429SOL    HW221924   4.374   1.067   4.885  0.3777 -1.0328 -0.2556
 3430SOL     OW21925   3.283   0.251   1.952 -0.1532  0.2545  0.6265
 3430SOL    HW121926   3.361   0.275   2.001 -0.4242  1.2551  0.5713
 3430SOL    HW221927   3.324   0.218   1.872  0.1423 -0.4505  1.0664
 3431SOL     OW21928   3.571   0.538   0.074 -0.2040 -0.5070  0.5249
 3431SOL    HW121929   3.600   0.451   0.047  0.8501 -0.4017  1.3128
 3431SOL    HW221930   3.653   0.588   0.073  0.4669 -1.5997  1.0122
 3432SOL     OW21931   0.926   4.257   1.528  0.1636 -0.0845 -0.0802
 3432SOL    HW121932   0.895   4.206   1.603  0.0824 -0.5466 -0.4309
 3432SOL    HW221933   0.840   4.280   1.492 -0.1941 -1.0811  0.1492
 3433SOL     OW21934   3.249   0.631   3.395  0.1332 -0.3812 -0.2686
 3433SOL    HW121935   3.164   0.675   3.387  0.6405  0.3845 -1.4714
 3433SOL    HW221936   3.215   0.544   3.376  2.2579 -1.3538  0.3582
 3434SOL     OW21937   3.914   3.674   7.061  0.2599  0.1127  0.1479
 3434SOL    HW121938   3.946   3.650   7.148 -0.5342 -1.0826  0.1129
 3434SOL    HW221939   3.974   3.745   7.039 -0.4189  0.4280 -0.6716
 3435SOL     OW21940   3.198   1.009   0.425 -0.4751 -0.3973  0.0655
 3435SOL    HW121941   3.151   1.081   0.382  1.8915 -0.2344 -2.2109
 3435SOL    HW221942   3.286   1.040   0.403 -1.3569  1.0220 -1.4518
 3436SOL     OW21943   2.724   1.679   3.622  0.2841 -0.2668  0.5333
 3436SOL    HW121944   2.674   1.616   3.674  1.6927 -2.2694 -0.5110
 3436SOL    HW221945   2.685   1.761   3.653  2.2911  1.2631 -1.0294
 3437SOL     OW21946   0.204   3.389  13.969 -0.2388 -0.0897 -0.4691
 3437SOL    HW121947   0.151   3.424  13.897  0.3521  0.2940 -0.7264
 3437SOL    HW221948   0.176   3.442  14.043  0.4659  0.5615 -0.6589
 3438SOL     OW21949   1.565   4.709   4.652 -0.0369 -0.1205  0.4359
 3438SOL    HW121950   1.556   4.633   4.710 -1.3799 -0.7226 -0.5639
 3438SOL    HW221951   1.592   4.675   4.567  0.6025  1.4569  0.0019
 3439SOL     OW21952   4.038   0.822   5.369  0.0908  0.1907  0.0137
 3439SOL    HW121953   3.996   0.896   5.414 -0.0930  0.6402 -0.9131
 3439SOL    HW221954   4.123   0.814   5.413  0.4232 -2.9866 -1.2298
 3440SOL     OW21955   3.398   0.976   1.461 -0.0103 -0.1453  0.1153
 3440SOL    HW121956   3.413   0.882   1.451  1.2563  0.4636 -3.5329
 3440SOL    HW221957   3.449   1.001   1.539 -0.3216  1.4808 -0.1921
 3441SOL     OW21958   0.306   0.083   2.118 -0.4051 -0.4234 -0.7175
 3441SOL    HW121959   0.358   0.025   2.174 -0.7854  0.6130  0.7021
 3441SOL    HW221960   0.217   0.046   2.112 -0.6000 -0.0882  0.0767
 3442SOL     OW21961   4.015   1.795   9.492  0.2479 -0.0163  0.6241
 3442SOL    HW121962   4.089   1.774   9.549  0.4824 -0.1793  0.2558
 3442SOL    HW221963   4.050   1.808   9.404 -0.1947 -1.5251  0.2266
 3443SOL     OW21964   2.430   0.112   0.965 -0.2721 -0.3437 -0.3153
 3443SOL    HW121965   2.469   0.065   0.892 -2.0321 -1.9460 -0.2339
 3443SOL    HW221966   2.441   0.204   0.942  1.3983 -0.1048  1.4384
 3444SOL     OW21967   2.419   1.660  16.569  0.4299 -0.4196  0.6951
 3444SOL    HW121968   2.508   1.663  16.604  0.0292 -1.5932  1.8254
 3444SOL    HW221969   2.434   1.598  16.497  0.4068  1.0911 -0.6029
 3445SOL     OW21970   3.295   0.548   7.213 -0.0259 -0.1473 -0.3568
 3445SOL    HW121971   3.350   0.607   7.161  1.5121 -0.2334  1.1815
 3445SOL    HW221972   3.358   0.485   7.249 -0.3341  0.7592  1.7467
 3446SOL     OW21973   0.017   2.294   8.535  0.3636 -0.4179 -0.5310
 3446SOL    HW121974   0.043   2.233   8.465  0.8027 -1.6342  0.6915
 3446SOL    HW221975   0.096   2.281   8.586  1.0719  0.6400 -1.3620
 3447SOL     OW21976   3.617   3.701  11.310 -0.4439  0.1808 -0.4332
 3447SOL    HW121977   3.605   3.759  11.236 -2.4829 -1.2655 -1.2375
 3447SOL    HW221978   3.580   3.757  11.379 -2.6618 -1.4403 -0.3135
 3448SOL     OW21979   1.657   3.648   5.915  0.3351 -0.0775  0.1537
 3448SOL    HW121980   1.722   3.675   5.850 -0.3336 -0.4035 -0.6538
 3448SOL    HW221981   1.644   3.730   5.962  1.7103 -0.9999  2.1269
 3449SOL     OW21982   4.486   1.257   5.733 -0.3591  0.3890  0.2423
 3449SOL    HW121983   4.426   1.247   5.807 -0.1625  2.1111  0.6450
 3449SOL    HW221984   4.494   1.352   5.725 -2.9644  0.6423  0.7557
 3450SOL     OW21985   3.962   3.754  14.718 -0.0623  0.0602 -0.0759
 3450SOL    HW121986   3.957   3.838  14.672  3.0338  0.6085  0.5965
 3450SOL    HW221987   4.056   3.763  14.734  0.1433  0.5118 -1.5130
 3451SOL     OW21988   4.587   0.613   5.805  0.0242 -0.2001  0.1903
 3451SOL    HW121989   4.633   0.680   5.856  0.0609  0.3028 -0.5057
 3451SOL    HW221990   4.576   0.640   5.714  3.1634  1.6456  0.3765
 3452SOL     OW21991   1.196   2.634   7.349  0.3646 -0.2096 -0.5391
 3452SOL    HW121992   1.122   2.647   7.290 -1.1274 -2.2824  0.8971
 3452SOL    HW221993   1.190   2.709   7.409 -1.1704  0.0462 -1.0295
 3453SOL     OW21994   1.702   3.645   2.541 -0.3643  0.3210  0.5908
 3453SOL    HW121995   1.715   3.718   2.481  1.1389  1.1307  1.9211
 3453SOL    HW221996   1.666   3.686   2.619  0.2648  1.3595  0.3307
 3454SOL     OW21997   1.767   1.018   9.373  0.2587 -0.2642 -0.3669
 3454SOL    HW121998   1.845   0.976   9.335  0.2011 -0.4379 -0.2941
 3454SOL    HW221999   1.697   0.956   9.352  1.0402 -0.4516 -2.4661
 3455SOL     OW22000   1.708   1.813  12.374  0.1012  0.1697  0.6213
 3455SOL    HW122001   1.683   1.867  12.449  0.5110 -2.3278  2.5615
 3455SOL    HW222002   1.740   1.740  12.427  3.2958 -0.1216 -1.7148
 3456SOL     OW22003   0.715   0.659  17.018  0.7284  0.4905  0.1776
 3456SOL    HW122004   0.759   0.605  16.953 -2.4596  0.3315 -1.8626
 3456SOL    HW222005   0.749   0.743  16.987 -0.3304  0.9368  0.2316
 3457SOL     OW22006   1.856   1.376   6.253  0.0168  0.0255 -0.1575
 3457SOL    HW122007   1.941   1.420   6.263  1.1795 -1.3995 -3.6696
 3457SOL    HW222008   1.811   1.394   6.336 -0.8620  0.4228 -0.7223
 3458SOL     OW22009   2.394   3.639   7.965 -0.0452  0.0235  0.0307
 3458SOL    HW122010   2.353   3.594   8.039 -0.8909  0.3604 -0.2248
 3458SOL    HW222011   2.374   3.730   7.988 -1.3317 -0.6310  1.4770
 3459SOL     OW22012   4.403   3.844  15.123  0.8916  0.6973 -0.0467
 3459SOL    HW122013   4.334   3.780  15.104  0.6074  0.3835  2.0965
 3459SOL    HW222014   4.373   3.897  15.197  0.4296 -0.7690  0.8096
 3460SOL     OW22015   4.650   1.205   6.381 -0.0247  0.0193  0.1589
 3460SOL    HW122016   4.688   1.291   6.362  2.8449 -0.8850  1.7911
 3460SOL    HW222017   4.590   1.191   6.308  1.6179 -0.5408 -1.0755
 3461SOL     OW22018   0.337   3.978  12.113 -0.1805  0.2069  0.4975
 3461SOL    HW122019   0.356   3.912  12.180  1.7660 -0.6741 -0.9614
 3461SOL    HW222020   0.249   4.011  12.130  0.0185  1.4958 -1.0008
 3462SOL     OW22021   4.088   4.666   5.971 -0.1325  1.1235 -0.2699
 3462SOL    HW122022   4.091   4.631   5.882 -0.1215  2.0660 -0.6476
 3462SOL    HW222023   4.058   4.586   6.013  0.2132  0.9880 -0.2859
 3463SOL     OW22024   0.773   1.447   8.525 -0.1948 -0.1594 -0.2880
 3463SOL    HW122025   0.765   1.533   8.483 -1.8059 -0.5384 -0.7799
 3463SOL    HW222026   0.681   1.441   8.552 -0.4150  0.8680 -0.7957
 3464SOL     OW22027   0.374   3.767   1.450 -0.4727  0.0114  0.1026
 3464SOL    HW122028   0.287   3.733   1.430 -0.7432  1.2514 -0.8325
 3464SOL    HW222029   0.394   3.835   1.386 -0.5208 -0.1540 -0.0870
 3465SOL     OW22030   1.373   3.583   3.780 -0.2085  0.5112 -0.5776
 3465SOL    HW122031   1.401   3.656   3.836  2.5521 -0.8623 -0.1497
 3465SOL    HW222032   1.334   3.518   3.838 -0.0758  1.8493  1.0184
 3466SOL     OW22033   2.663   0.903   5.087 -0.0154 -0.1113 -0.5249
 3466SOL    HW122034   2.591   0.928   5.030 -1.8202 -2.8426  0.5451
 3466SOL    HW222035   2.625   0.900   5.175  0.4480  2.5043 -0.2457
 3467SOL     OW22036   2.877   0.387   9.233  0.2742  0.1223 -0.6463
 3467SOL    HW122037   2.962   0.344   9.238  0.7715  1.2287  0.3820
 3467SOL    HW222038   2.839   0.342   9.308 -1.7533 -0.3272 -1.9480
 3468SOL     OW22039   4.297   0.475  15.491  0.0422  0.1262 -0.6756
 3468SOL    HW122040   4.302   0.387  15.527 -0.6589  0.6353  0.6435
 3468SOL    HW222041   4.334   0.468  15.403 -0.0544 -1.4187 -0.5817
 3469SOL     OW22042   2.442   0.367   0.855  0.1146  0.0864  0.4141
 3469SOL    HW122043   2.463   0.448   0.902  2.5270 -0.3773  0.1784
 3469SOL    HW222044   2.456   0.386   0.762  2.4434 -2.1232  0.3023
 3470SOL     OW22045   1.562   4.098   4.768  0.3501  0.2012 -0.1837
 3470SOL    HW122046   1.550   4.025   4.708 -1.7228 -0.1134  0.6020
 3470SOL    HW222047   1.637   4.137   4.723 -0.0521 -1.6577 -2.4413
 3471SOL     OW22048   0.251   0.732   6.254 -0.0909 -0.1558 -0.1882
 3471SOL    HW122049   0.169   0.780   6.241 -0.8900 -1.6754 -0.8433
 3471SOL    HW222050   0.208   0.649   6.275  0.3670 -0.1692  0.7109
 3472SOL     OW22051   1.651   4.478   9.311 -0.3027  0.1832  0.4333
 3472SOL    HW122052   1.663   4.505   9.219 -0.9985 -0.1466  0.2470
 3472SOL    HW222053   1.616   4.390   9.298 -0.7150  0.6515 -1.8022
 3473SOL     OW22054   3.041   3.925   6.920 -0.1692  0.1128 -0.3515
 3473SOL    HW122055   3.099   3.998   6.946 -1.8667  0.9862  0.9852
 3473SOL    HW222056   2.958   3.936   6.966 -0.6279 -0.5356 -1.0331
 3474SOL     OW22057   0.010   2.934   7.852 -0.3685 -0.4589  0.3262
 3474SOL    HW122058   4.658   2.922   7.893 -0.6626  2.0327  0.4113
 3474SOL    HW222059   0.026   2.849   7.810 -0.0609  0.0157 -0.5053
 3475SOL     OW22060   4.543   2.483  15.057 -0.5044 -0.4355 -0.5607
 3475SOL    HW122061   4.536   2.535  14.976 -0.4696  0.0566 -0.2475
 3475SOL    HW222062   4.638   2.486  15.067 -0.2868 -3.2094 -1.9299
 3476SOL     OW22063   4.524   2.632   6.176 -0.0825  0.6615 -0.0997
 3476SOL    HW122064   4.581   2.635   6.099 -2.1807 -2.2342 -1.7584
 3476SOL    HW222065   4.486   2.545   6.180  2.0522 -0.1829  1.3247
 3477SOL     OW22066   2.838   2.952   2.226 -0.3933  0.1720  0.4225
 3477SOL    HW122067   2.817   2.984   2.314 -0.1858 -1.7445  1.1695
 3477SOL    HW222068   2.929   2.923   2.235 -0.7375 -1.7360 -2.1487
 3478SOL     OW22069   4.265   3.104   7.503  0.4461  0.2336 -0.5543
 3478SOL    HW122070   4.248   3.072   7.415  1.8374  0.8822 -1.0469
 3478SOL    HW222071   4.251   3.028   7.560 -2.5892  1.3699  0.2151
 3479SOL     OW22072   0.656   4.371   2.143  0.0359 -1.2004 -0.5145
 3479SOL    HW122073   0.708   4.379   2.062 -1.6514 -1.4594 -1.6137
 3479SOL    HW222074   0.643   4.277   2.150 -0.1878 -1.1670 -0.4864
 3480SOL     OW22075   0.641   4.383  13.051 -0.0752 -0.4993 -0.3302
 3480SOL    HW122076   0.566   4.361  13.107  0.0608 -0.0196  0.0419
 3480SOL    HW222077   0.631   4.321  12.978 -1.7023 -1.6989  0.9288
 3481SOL     OW22078   0.319   3.031  10.922  0.0911 -0.8098 -0.0964
 3481SOL    HW122079   0.412   3.051  10.924  0.3572 -2.0319 -0.0991
 3481SOL    HW222080   0.287   3.081  10.847  0.8222 -0.0448  0.1026
 3482SOL     OW22081   0.863   2.981   3.144 -0.8126 -0.1070  0.1736
 3482SOL    HW122082   0.842   2.888   3.135 -1.2291  0.0205 -0.1673
 3482SOL    HW222083   0.774   3.012   3.129 -0.0720  2.4384  0.9647
 3483SOL     OW22084   4.025   4.219   7.878  0.4554  0.2604 -0.0595
 3483SOL    HW122085   3.994   4.284   7.941  2.4122  2.3161 -1.2349
 3483SOL    HW222086   3.957   4.151   7.881  0.1717  0.5347 -0.3319
 3484SOL     OW22087   1.763   2.693  10.055  0.3409 -0.0654  0.2947
 3484SOL    HW122088   1.754   2.655  10.142 -0.0480  0.6623  0.5738
 3484SOL    HW222089   1.858   2.702  10.045 -0.0115  1.5409 -1.7298
 3485SOL     OW22090   0.105   1.826   2.331  0.2188  0.9943 -0.1382
 3485SOL    HW122091   0.036   1.766   2.301  0.2964  1.0566 -0.4456
 3485SOL    HW222092   0.062   1.911   2.318  1.1220  1.3039 -1.1601
 3486SOL     OW22093   2.984   1.710   8.528 -1.4601 -0.4293  0.9737
 3486SOL    HW122094   3.079   1.715   8.523 -1.6082  0.5010 -0.7225
 3486SOL    HW222095   2.963   1.782   8.587 -1.5770 -0.7503  1.3256
 3487SOL     OW22096   3.345   2.083   7.474 -0.4451  0.2201  0.2889
 3487SOL    HW122097   3.275   2.033   7.431  0.5075  0.4320 -1.4693
 3487SOL    HW222098   3.287   2.128   7.536 -1.8339 -1.0331 -0.1037
 3488SOL     OW22099   1.970   3.908  16.247  0.1373  0.6375  0.2985
 3488SOL    HW122100   1.992   3.993  16.284 -1.9599  1.1985  0.2512
 3488SOL    HW222101   1.879   3.916  16.219 -0.1510 -1.2329  0.6764
 3489SOL     OW22102   2.225   0.960  11.261  0.2440 -0.4925 -0.3755
 3489SOL    HW122103   2.155   1.024  11.270 -0.5455 -1.3466 -0.3602
 3489SOL    HW222104   2.178   0.879  11.242 -1.2089  0.4266 -0.6967
 3490SOL     OW22105   1.456   2.958   1.293  0.0179  0.4746  0.3423
 3490SOL    HW122106   1.490   2.929   1.377 -0.3366 -1.1949 -0.0818
 3490SOL    HW222107   1.537   2.974   1.245  1.6888  0.2645  3.1177
 3491SOL     OW22108   2.975   3.448  15.314  0.0161 -0.4925  0.1381
 3491SOL    HW122109   2.998   3.452  15.221  0.3478 -1.4885  0.1841
 3491SOL    HW222110   3.007   3.535  15.341  1.3984 -1.5836  2.0293
 3492SOL     OW22111   0.205   3.321   9.244 -0.3110  0.2945 -0.3325
 3492SOL    HW122112   0.217   3.378   9.320  2.0986  0.7815 -1.0713
 3492SOL    HW222113   0.287   3.275   9.263  1.1499  2.3237 -1.7174
 3493SOL     OW22114   1.429   2.374   9.853  0.4958  0.4900 -0.0036
 3493SOL    HW122115   1.415   2.436   9.924 -0.5660 -0.1083  0.3119
 3493SOL    HW222116   1.523   2.388   9.843  0.6603 -1.2883 -1.0649
 3494SOL     OW22117   3.285   2.167   9.493  0.7222 -0.5267 -0.1082
 3494SOL    HW122118   3.198   2.127   9.480 -0.9702  2.4361  2.1686
 3494SOL    HW222119   3.281   2.233   9.424 -0.1362  0.0662  0.5054
 3495SOL     OW22120   2.378   4.416  17.696 -0.4556 -0.2004  0.2618
 3495SOL    HW122121   2.350   4.420  17.605 -1.3331 -0.8809  0.5036
 3495SOL    HW222122   2.468   4.444  17.680 -0.9543  0.4218 -1.4946
 3496SOL     OW22123   1.171   0.975   7.889 -0.1330 -0.0889 -0.2185
 3496SOL    HW122124   1.199   1.060   7.922  3.0589 -1.7385  1.2608
 3496SOL    HW222125   1.258   0.950   7.861 -0.3195  0.2947 -1.1322
 3497SOL     OW22126   1.281   1.453   2.441  0.1969 -0.1946  0.3062
 3497SOL    HW122127   1.210   1.418   2.494  1.8858 -1.7864  1.5319
 3497SOL    HW222128   1.309   1.535   2.482 -2.3474  0.4822  0.6375
 3498SOL     OW22129   1.377   0.571   8.988 -0.8011 -0.2813  0.8873
 3498SOL    HW122130   1.342   0.527   9.066  0.6370 -1.8081  0.6812
 3498SOL    HW222131   1.446   0.511   8.957 -0.5002 -0.2777  1.5412
 3499SOL     OW22132   3.415   4.086  17.532 -0.3843  0.0713 -0.3744
 3499SOL    HW122133   3.412   4.076  17.628 -0.3152 -0.8702 -0.4722
 3499SOL    HW222134   3.323   4.079  17.508 -0.1019  0.8080 -1.6360
 3500SOL     OW22135   3.277   4.400   1.566 -0.1747  0.1928  0.2200
 3500SOL    HW122136   3.191   4.442   1.576 -0.1763  0.2469 -0.0319
 3500SOL    HW222137   3.254   4.326   1.623 -1.0088  0.3383  0.0818
 3501SOL     OW22138   3.570   3.889   4.423  0.1205 -0.8475 -0.1857
 3501SOL    HW122139   3.536   3.845   4.346 -0.6645  0.5081 -0.6198
 3501SOL    HW222140   3.584   3.826   4.493 -1.4723 -0.5583  0.3928
 3502SOL     OW22141   0.870   1.133  10.254  0.0138  0.3727  0.1730
 3502SOL    HW122142   0.913   1.201  10.307  3.2320 -1.5437  0.0043
 3502SOL    HW222143   0.947   1.077  10.243 -0.5809 -0.6549  1.2919
 3503SOL     OW22144   3.174   1.277   1.738  0.7798 -0.2499  0.1469
 3503SOL    HW122145   3.179   1.226   1.657  0.5265  0.0439 -0.0506
 3503SOL    HW222146   3.086   1.314   1.733  0.2695 -1.6305 -1.0307
 3504SOL     OW22147   4.071   2.272   6.797 -1.2345 -0.2451 -0.2328
 3504SOL    HW122148   4.003   2.257   6.862 -0.5386  2.4582  1.1150
 3504SOL    HW222149   4.138   2.313   6.852 -4.0035  2.3608  1.1669
 3505SOL     OW22150   4.240   4.619   6.205 -0.1363 -0.3800  0.3621
 3505SOL    HW122151   4.258   4.650   6.116 -0.9792 -1.8565 -0.3166
 3505SOL    HW222152   4.188   4.542   6.182  0.0683 -0.4582  0.1543
 3506SOL     OW22153   0.825   2.752  10.997 -0.0453 -0.5144  0.2318
 3506SOL    HW122154   0.743   2.778  11.039  0.8917 -0.7814  2.2517
 3506SOL    HW222155   0.813   2.761  10.903 -0.5732 -0.0677  0.3447
 3507SOL     OW22156   0.673   2.869   7.049 -0.3335 -0.4198 -0.6145
 3507SOL    HW122157   0.759   2.900   7.019 -0.1346  0.1329  0.5211
 3507SOL    HW222158   0.627   2.949   7.073 -1.6300 -0.8448 -1.7058
 3508SOL     OW22159   1.419   2.955   9.647  0.2903  0.3179 -0.6933
 3508SOL    HW122160   1.505   2.976   9.611 -0.5557  1.6506 -1.9458
 3508SOL    HW222161   1.383   2.953   9.558 -0.8823  1.9273 -0.2306
 3509SOL     OW22162   2.726   0.973   6.954  0.0687 -0.1891  0.1193
 3509SOL    HW122163   2.689   1.061   6.945  1.8559  0.6417  0.7642
 3509SOL    HW222164   2.813   0.984   6.916  0.8228  1.2279  2.2338
 3510SOL     OW22165   2.868   1.126  10.761  0.0316 -0.3354 -0.1769
 3510SOL    HW122166   2.932   1.181  10.716 -0.1308  1.3283  1.6232
 3510SOL    HW222167   2.847   1.066  10.690  0.2313 -1.1606  0.4634
 3511SOL     OW22168   2.242   2.464   2.524  0.6158  0.6840 -0.6920
 3511SOL    HW122169   2.163   2.508   2.493 -0.7164 -1.4143 -0.2559
 3511SOL    HW222170   2.302   2.539   2.523 -0.0752  1.2866  1.1584
 3512SOL     OW22171   4.012   2.140   9.348  0.3591  0.4780 -0.7760
 3512SOL    HW122172   3.943   2.149   9.413 -0.5564  2.2964 -2.0053
 3512SOL    HW222173   4.071   2.210   9.377  1.8035 -0.0996 -2.2616
 3513SOL     OW22174   2.406   3.940   7.903 -0.1337  0.9674 -0.3411
 3513SOL    HW122175   2.452   4.020   7.928  2.2841 -0.5445 -0.0612
 3513SOL    HW222176   2.483   3.887   7.883 -0.2563  0.9291 -0.7030
 3514SOL     OW22177   3.191   1.026   6.198 -0.1063 -0.3781 -0.1193
 3514SOL    HW122178   3.148   1.020   6.283 -0.4513  1.9095 -0.1298
 3514SOL    HW222179   3.277   1.064   6.220 -0.0025 -0.4041 -0.4724
 3515SOL     OW22180   1.778   3.587   6.529  0.0033  0.4612  0.4059
 3515SOL    HW122181   1.722   3.514   6.556  2.2762 -1.0076  1.1163
 3515SOL    HW222182   1.831   3.543   6.463  0.2417  1.2865  0.0528
 3516SOL     OW22183   0.876   0.511   3.648 -0.2636 -0.2777 -0.1117
 3516SOL    HW122184   0.919   0.462   3.578 -1.2834 -1.0723 -0.1718
 3516SOL    HW222185   0.808   0.449   3.673 -2.1089  0.7513 -2.6318
 3517SOL     OW22186   1.776   3.140   8.779  0.2336 -0.1268  0.2703
 3517SOL    HW122187   1.710   3.172   8.717  0.4566  0.9646  0.5914
 3517SOL    HW222188   1.764   3.200   8.853 -0.2015 -0.8670  0.7973
 3518SOL     OW22189   4.691   2.823   2.524 -0.5061 -0.2922 -0.4981
 3518SOL    HW122190   4.621   2.775   2.480 -1.5743  3.4507 -2.8179
 3518SOL    HW222191   4.638   2.883   2.576  0.8226  0.9115 -0.5281
 3519SOL     OW22192   2.987   3.340   4.795 -0.1585  0.6052 -0.1103
 3519SOL    HW122193   3.004   3.393   4.873  0.6833  1.5107 -0.9101
 3519SOL    HW222194   2.965   3.259   4.841 -1.5955 -0.8883 -3.4738
 3520SOL     OW22195   1.056   2.310   7.287 -0.4764  0.2828 -0.0672
 3520SOL    HW122196   1.008   2.227   7.287 -0.1909  0.1163 -4.5791
 3520SOL    HW222197   1.144   2.281   7.312 -0.8277 -1.2557 -0.5712
 3521SOL     OW22198   1.795   0.062   9.651 -0.1934 -0.0213 -0.3363
 3521SOL    HW122199   1.815   0.137   9.705  1.6785  1.1614 -2.6760
 3521SOL    HW222200   1.869   0.065   9.590  3.0049 -0.5709  3.5572
 3522SOL     OW22201   3.606   2.064   5.623 -0.0329  0.1256 -0.4242
 3522SOL    HW122202   3.620   2.021   5.539 -0.9975  0.5641 -0.8057
 3522SOL    HW222203   3.511   2.071   5.624  0.0018  0.2768  2.4708
 3523SOL     OW22204   2.984   1.827   7.461 -0.1097  0.3899  0.1350
 3523SOL    HW122205   3.077   1.805   7.451  0.2629  1.5885  1.0297
 3523SOL    HW222206   2.978   1.825   7.556  0.6531 -3.7582  0.0956
 3524SOL     OW22207   2.176   3.875   7.768 -0.6256 -0.0726  0.0024
 3524SOL    HW122208   2.227   3.869   7.849  0.6578 -0.6613 -0.8584
 3524SOL    HW222209   2.132   3.957   7.793  1.4127  0.6255  1.3341
 3525SOL     OW22210   2.189   1.930  16.048 -0.7764 -0.0156  0.1180
 3525SOL    HW122211   2.149   1.953  16.132  0.8724  1.1551  0.5782
 3525SOL    HW222212   2.187   1.834  16.046  1.0983 -0.0538 -0.0718
 3526SOL     OW22213   2.796   3.619   0.909  0.3934  0.1095 -0.6253
 3526SOL    HW122214   2.812   3.571   0.828 -0.7119  1.1976 -1.4774
 3526SOL    HW222215   2.701   3.613   0.919  0.8212 -3.6528  1.2479
 3527SOL     OW22216   0.910   4.117   6.750 -0.1604  0.2655  0.1844
 3527SOL    HW122217   0.845   4.186   6.763 -1.3036 -0.6627 -0.6639
 3527SOL    HW222218   0.966   4.127   6.827 -0.0390  0.8107  0.0270
 3528SOL     OW22219   4.038   3.257   4.538  0.0323 -0.1758 -0.6864
 3528SOL    HW122220   3.942   3.252   4.542  0.0691 -0.4590 -0.0986
 3528SOL    HW222221   4.055   3.341   4.582 -0.6475 -0.2176 -0.3329
 3529SOL     OW22222   1.159   0.993  12.468 -0.5601 -0.0456  0.8103
 3529SOL    HW122223   1.099   0.933  12.512 -1.0457  1.3184  1.9961
 3529SOL    HW222224   1.095   1.051  12.428  1.2896  1.5481  0.1706
 3530SOL     OW22225   2.315   3.419  14.943  0.4805  0.1134 -0.1409
 3530SOL    HW122226   2.403   3.393  14.970  0.9979  1.9725 -0.0088
 3530SOL    HW222227   2.304   3.365  14.865  2.2107 -2.3677  1.3625
 3531SOL     OW22228   1.738   3.405  16.104  0.1907 -0.5831  0.6727
 3531SOL    HW122229   1.707   3.316  16.087 -0.0487 -0.0310 -1.7291
 3531SOL    HW222230   1.819   3.379  16.147  0.2425 -2.4254 -0.5241
 3532SOL     OW22231   2.701   2.915  13.825  0.4480 -0.3914  0.1106
 3532SOL    HW122232   2.623   2.928  13.771 -0.2413 -0.4478  1.0822
 3532SOL    HW222233   2.669   2.860  13.897 -0.4311 -0.1144 -0.0700
 3533SOL     OW22234   0.857   2.929   4.790 -0.6758 -0.6918  0.0872
 3533SOL    HW122235   0.791   2.988   4.753 -0.0161 -0.2336 -0.3608
 3533SOL    HW222236   0.941   2.973   4.797 -0.7966 -0.5874  0.7883
 3534SOL     OW22237   0.843   3.077   4.407  0.3218  0.5764 -0.0947
 3534SOL    HW122238   0.794   3.130   4.345 -2.1022 -0.6302  0.8126
 3534SOL    HW222239   0.780   3.007   4.425 -1.4362  1.9582 -0.9686
 3535SOL     OW22240   0.385   2.587   4.607  0.5227 -0.1053  0.2833
 3535SOL    HW122241   0.445   2.661   4.602 -1.1418  1.1940 -0.4386
 3535SOL    HW222242   0.326   2.595   4.531 -2.6849  0.5199  2.8626
 3536SOL     OW22243   0.387   4.578   6.872 -0.4104  0.8834  0.5516
 3536SOL    HW122244   0.447   4.645   6.904 -0.3813  1.2475 -0.2686
 3536SOL    HW222245   0.320   4.628   6.825 -3.1106 -1.6554  1.6957
 3537SOL     OW22246   0.933   3.895  17.563 -0.0123  0.2132 -0.3762
 3537SOL    HW122247   0.931   3.799  17.557  1.8579  0.0493  1.5074
 3537SOL    HW222248   0.928   3.925  17.473 -1.6773 -2.8944 -1.3106
 3538SOL     OW22249   4.503   3.687   5.867  0.2099  0.1506  0.0950
 3538SOL    HW122250   4.477   3.778   5.851 -0.9646 -0.3077 -0.5941
 3538SOL    HW222251   4.428   3.649   5.912  0.3656 -0.5661 -0.2492
 3539SOL     OW22252   1.581   2.943   9.025 -0.1297  0.7236 -0.1067
 3539SOL    HW122253   1.564   2.896   9.106  2.4090 -2.3260 -1.3418
 3539SOL    HW222254   1.649   2.999   9.063 -0.5736  0.3199  1.2682
 3540SOL     OW22255   1.098   3.683   2.558 -0.0295 -0.4535 -0.3354
 3540SOL    HW122256   1.129   3.597   2.528 -1.3764 -0.4432 -1.7948
 3540SOL    HW222257   1.104   3.732   2.475  3.8037 -0.3790 -0.0057
 3541SOL     OW22258   4.385   4.577   6.565 -0.2976  0.2123  0.1889
 3541SOL    HW122259   4.427   4.608   6.645 -3.2296  1.5304  1.2259
 3541SOL    HW222260   4.409   4.485   6.557  2.8689  1.0513  0.3262
 3542SOL     OW22261   4.445   4.557   1.329 -0.0851  0.2372 -0.8847
 3542SOL    HW122262   4.488   4.493   1.271  1.5673  0.3278  0.2222
 3542SOL    HW222263   4.494   4.632   1.297 -0.4752  0.2040 -1.5668
 3543SOL     OW22264   2.426   3.450  17.664  0.9415 -0.2600  0.3537
 3543SOL    HW122265   2.460   3.519  17.721 -0.9373  2.0148 -1.2622
 3543SOL    HW222266   2.366   3.509  17.618  1.1905 -0.0328  0.3164
 3544SOL     OW22267   3.977   2.763   4.299 -0.5443  0.2612  0.3066
 3544SOL    HW122268   3.986   2.670   4.281 -0.3472 -0.5719  4.5970
 3544SOL    HW222269   3.882   2.768   4.294 -0.5324  0.4036  0.2290
 3545SOL     OW22270   4.060   0.430   5.760 -0.4673 -0.0797 -0.4786
 3545SOL    HW122271   4.035   0.341   5.735 -0.6312 -0.3595  0.7000
 3545SOL    HW222272   4.123   0.423   5.832  1.4636 -1.1447 -2.2742
 3546SOL     OW22273   4.412   1.726   3.770 -0.0018  0.1474 -0.0218
 3546SOL    HW122274   4.396   1.725   3.676 -0.1333 -0.7442  0.0109
 3546SOL    HW222275   4.325   1.703   3.803 -0.5230  2.3183  0.1460
 3547SOL     OW22276   0.345   2.539   4.134 -0.3064 -0.4261  0.0738
 3547SOL    HW122277   0.414   2.569   4.074  1.0886 -1.0377  1.3709
 3547SOL    HW222278   0.405   2.484   4.185 -2.5900  0.3600  3.5610
 3548SOL     OW22279   3.432   1.460  10.006 -0.3522 -0.1380 -0.1861
 3548SOL    HW122280   3.473   1.386  10.052  0.5596  0.2392 -0.3914
 3548SOL    HW222281   3.372   1.412   9.949  0.2565  0.3090 -1.2058
 3549SOL     OW22282   2.664   3.607  13.821  0.2783 -0.1831  0.2806
 3549SOL    HW122283   2.658   3.579  13.730  0.0065 -2.1101  0.8924
 3549SOL    HW222284   2.654   3.702  13.820 -0.4551 -0.2687 -0.0153
 3550SOL     OW22285   4.488   1.325   7.805 -0.0539 -0.0810  0.0480
 3550SOL    HW122286   4.396   1.303   7.794  0.2924 -1.1729 -0.7877
 3550SOL    HW222287   4.529   1.239   7.820  0.4213 -0.0161 -0.8311
 3551SOL     OW22288   1.914   2.142   5.165  0.8442  0.4859 -0.4316
 3551SOL    HW122289   1.889   2.056   5.131  1.4420  0.2404 -0.2352
 3551SOL    HW222290   2.009   2.143   5.158  0.8907  0.2452  0.1610
 3552SOL     OW22291   4.514   4.219  10.994  0.0939  0.0604  0.1787
 3552SOL    HW122292   4.450   4.193  10.928  0.8090 -3.0957  0.7606
 3552SOL    HW222293   4.494   4.310  11.018 -1.4360  0.1270 -1.3417
 3553SOL     OW22294   2.309   1.094  16.128  0.0683  0.6389 -0.2494
 3553SOL    HW122295   2.345   1.182  16.115  2.8659 -0.0624  2.5997
 3553SOL    HW222296   2.216   1.110  16.119 -0.1403  0.1325  0.9535
 3554SOL     OW22297   2.124   3.483   3.662  0.0908  0.4937  0.4294
 3554SOL    HW122298   2.095   3.498   3.572 -1.2787 -2.6926  0.3415
 3554SOL    HW222299   2.218   3.464   3.655 -0.3825 -2.0128  0.7682
 3555SOL     OW22300   1.377   0.918   0.285 -0.0608 -0.0673  0.0096
 3555SOL    HW122301   1.462   0.877   0.266 -0.1969  0.0065 -0.7787
 3555SOL    HW222302   1.326   0.839   0.305 -0.2436  0.4973  1.7166
 3556SOL     OW22303   2.558   4.415   1.595 -0.3253 -0.2934 -0.1396
 3556SOL    HW122304   2.587   4.336   1.550  0.7043  0.3770 -0.6537
 3556SOL    HW222305   2.464   4.412   1.577  0.1377  2.1335 -2.9582
 3557SOL     OW22306   4.406   1.760   7.725  0.6872  0.1120  0.1562
 3557SOL    HW122307   4.458   1.740   7.647 -2.0247 -2.3940 -1.0031
 3557SOL    HW222308   4.322   1.789   7.687  1.0814  1.2274  0.1281
 3558SOL     OW22309   1.371   2.688   1.569  0.9000 -0.1409  0.0131
 3558SOL    HW122310   1.329   2.602   1.577 -2.6707  1.5452 -0.7715
 3558SOL    HW222311   1.294   2.735   1.600  0.6408 -1.0183  0.6919
 3559SOL     OW22312   2.843   0.155  16.512 -0.8114 -0.9602 -0.3581
 3559SOL    HW122313   2.855   0.084  16.449  2.6170  0.8076 -1.7330
 3559SOL    HW222314   2.937   0.170  16.524 -0.7649 -1.5289 -0.0386
 3560SOL     OW22315   3.626   2.662   5.966 -0.1740  0.2364  0.3189
 3560SOL    HW122316   3.654   2.753   5.963 -0.2019  0.3172  2.5279
 3560SOL    HW222317   3.554   2.664   5.902 -0.2055 -0.0885  0.3410
 3561SOL     OW22318   0.548   0.000   7.406 -0.5192  0.1096  0.2072
 3561SOL    HW122319   0.497   0.075   7.437 -1.5403 -0.2351 -0.6404
 3561SOL    HW222320   0.545   4.683   7.487  0.7924 -0.6302 -0.2120
 3562SOL     OW22321   2.069   1.727   1.606  0.4199  0.4440 -0.1238
 3562SOL    HW122322   2.049   1.680   1.686  1.2872 -3.4572 -2.1878
 3562SOL    HW222323   2.052   1.816   1.637 -2.6028 -0.4620  0.7447
 3563SOL     OW22324   1.707   3.704  10.723 -0.0627 -0.5838 -0.0173
 3563SOL    HW122325   1.673   3.757  10.650  1.7485  1.7395  0.8588
 3563SOL    HW222326   1.627   3.676  10.767  0.5792  1.7937  2.6141
 3564SOL     OW22327   3.272   4.145  11.669  0.5700 -0.5969 -0.0092
 3564SOL    HW122328   3.358   4.103  11.667  1.1039  0.4768  0.0256
 3564SOL    HW222329   3.272   4.189  11.584 -0.4819 -1.6759 -0.5577
 3565SOL     OW22330   4.161   2.768   2.614 -0.5164  0.5035 -0.1503
 3565SOL    HW122331   4.110   2.806   2.685  0.8857  0.5786  0.8179
 3565SOL    HW222332   4.124   2.807   2.535  1.2373  0.6540 -0.8921
 3566SOL     OW22333   0.208   1.073   8.820 -0.0898 -0.0360  0.3717
 3566SOL    HW122334   0.194   1.125   8.899  0.4371 -0.1291  0.5240
 3566SOL    HW222335   0.212   1.142   8.754  1.7459 -0.5359 -0.0516
 3567SOL     OW22336   4.310   4.164   2.744  0.1799  0.0033  0.0394
 3567SOL    HW122337   4.382   4.104   2.765 -0.5226 -0.9913 -0.4257
 3567SOL    HW222338   4.348   4.252   2.748  1.5704 -0.5262 -1.5998
 3568SOL     OW22339   3.971   1.195  15.588 -0.5550  0.1496  0.2030
 3568SOL    HW122340   3.989   1.180  15.681  1.2151  1.2780  0.0491
 3568SOL    HW222341   4.045   1.250  15.562 -0.4210 -0.3373 -0.4641
 3569SOL     OW22342   4.292   2.039   6.046 -1.4672  0.3979 -0.3920
 3569SOL    HW122343   4.243   2.003   5.972 -1.9126  1.1300 -0.4562
 3569SOL    HW222344   4.353   1.967   6.059 -2.1748 -0.0867  0.2843
 3570SOL     OW22345   0.247   2.250  16.637 -0.4494  0.3352  0.7830
 3570SOL    HW122346   0.192   2.302  16.579  2.2279 -1.2442 -3.1622
 3570SOL    HW222347   0.212   2.287  16.718 -0.3573 -3.0045  2.3393
 3571SOL     OW22348   0.536   3.119  14.648  0.6052  0.4626  0.1472
 3571SOL    HW122349   0.556   3.033  14.685 -0.0287 -0.2446 -1.1461
 3571SOL    HW222350   0.469   3.150  14.708 -0.2368  1.1474 -1.1578
 3572SOL     OW22351   0.369   2.573   0.572  0.2154  0.7790 -0.2694
 3572SOL    HW122352   0.370   2.668   0.558 -0.0424  1.0477  1.4848
 3572SOL    HW222353   0.347   2.550   0.482 -2.6635  0.4633  0.5221
 3573SOL     OW22354   1.628   2.102   2.352 -0.5306  0.1501  0.0376
 3573SOL    HW122355   1.638   2.192   2.383  0.9909  0.5160 -1.5070
 3573SOL    HW222356   1.537   2.073   2.356  0.1349 -1.9473  0.0595
 3574SOL     OW22357   4.669   2.355   5.963 -0.2928  0.0938  0.0310
 3574SOL    HW122358   4.660   2.450   5.954  0.7614  0.1323 -0.6427
 3574SOL    HW222359   4.711   2.334   5.880  1.1491 -1.4793  1.1530
 3575SOL     OW22360   0.031   0.598   7.111 -0.3426  0.1932 -0.1668
 3575SOL    HW122361   0.047   0.612   7.205  1.0380 -1.3943 -0.1678
 3575SOL    HW222362   0.122   0.601   7.082 -1.6477 -0.0721 -4.2785
 3576SOL     OW22363   3.820   3.658   4.533  0.2741 -0.3247 -0.1099
 3576SOL    HW122364   3.730   3.689   4.549  0.4943  1.1439 -1.7269
 3576SOL    HW222365   3.846   3.663   4.625  1.4120 -0.6295 -0.4192
 3577SOL     OW22366   2.420   2.452   1.304  0.1871 -0.2539 -0.0087
 3577SOL    HW122367   2.435   2.421   1.393  2.3189  1.1520  0.1173
 3577SOL    HW222368   2.489   2.517   1.295  2.7514 -2.7750  1.5406
 3578SOL     OW22369   4.258   3.612   5.271 -0.5655  0.0565  0.7110
 3578SOL    HW122370   4.351   3.604   5.246 -1.1408 -2.7241 -0.5373
 3578SOL    HW222371   4.223   3.526   5.247  1.7282 -1.5932  3.1073
 3579SOL     OW22372   0.899   3.409   3.900  0.3752  0.5293  0.3973
 3579SOL    HW122373   0.933   3.374   3.982  0.7444  0.2845  0.1366
 3579SOL    HW222374   0.879   3.323   3.862  0.6547  0.4470  0.4384
 3580SOL     OW22375   0.211   1.588  15.018 -0.8740  0.3956 -0.6733
 3580SOL    HW122376   0.155   1.510  15.011 -2.0331  1.0650  1.0565
 3580SOL    HW222377   0.154   1.661  14.993 -1.3351  0.0006 -0.7931
 3581SOL     OW22378   0.141   1.611   2.981  0.2134 -0.4942  0.2444
 3581SOL    HW122379   0.129   1.519   2.957 -1.5221 -0.2306  0.1117
 3581SOL    HW222380   0.157   1.652   2.896 -0.0996  0.8726  0.8463
 3582SOL     OW22381   2.966   2.683  10.091  0.1849 -0.0932  0.2922
 3582SOL    HW122382   3.038   2.621  10.103 -0.3373 -0.4888  1.4080
 3582SOL    HW222383   2.902   2.611  10.095 -0.4431  0.5917  2.8091
 3583SOL     OW22384   2.978   2.552   8.545 -0.4061 -0.1251  0.1730
 3583SOL    HW122385   2.893   2.588   8.573  0.2992  1.3100  0.4655
 3583SOL    HW222386   2.998   2.495   8.619  0.4221 -0.7436 -0.5343
 3584SOL     OW22387   1.187   3.098  12.802  0.6077 -0.1728 -0.0326
 3584SOL    HW122388   1.240   3.080  12.724  0.6334  3.7948 -0.8969
 3584SOL    HW222389   1.203   3.189  12.825 -0.4886 -0.0753  0.3190
 3585SOL     OW22390   0.036   0.949   7.416  0.2413 -0.2650 -0.0729
 3585SOL    HW122391   4.681   0.978   7.433  0.0881 -0.1244 -1.1402
 3585SOL    HW222392   0.030   0.923   7.324  0.4154  1.1389 -0.4883
 3586SOL     OW22393   0.052   3.065   5.801 -0.5009 -0.0499  0.6602
 3586SOL    HW122394   0.125   3.102   5.752 -1.0490 -0.3781 -0.3954
 3586SOL    HW222395   4.727   3.141   5.803 -0.1140  0.2292  1.4869
 3587SOL     OW22396   4.090   1.406  11.003 -0.2439 -0.6185 -0.4807
 3587SOL    HW122397   4.141   1.333  10.967 -0.3923 -1.4188  0.9439
 3587SOL    HW222398   4.159   1.470  11.018 -1.0731  0.6980 -2.3387
 3588SOL     OW22399   3.814   2.708   2.276 -0.1319  0.1910 -0.0694
 3588SOL    HW122400   3.734   2.746   2.239 -1.8178 -1.1998  2.1745
 3588SOL    HW222401   3.850   2.657   2.204 -1.8490  0.4257 -1.0999
 3589SOL     OW22402   0.572   2.154  12.094  0.4009  0.1353  0.0324
 3589SOL    HW122403   0.654   2.191  12.126 -0.1081  1.0526  0.3081
 3589SOL    HW222404   0.541   2.225  12.037  1.0558  0.2099 -0.2281
 3590SOL     OW22405   2.068   2.350   8.427 -0.1134  0.1953  0.1429
 3590SOL    HW122406   2.012   2.309   8.494 -0.2224 -2.6135 -1.6530
 3590SOL    HW222407   2.111   2.273   8.391 -0.3623 -0.8517  2.0690
 3591SOL     OW22408   0.045   0.546   6.816  0.4519 -0.1541 -0.5758
 3591SOL    HW122409   0.067   0.639   6.825 -1.5268  0.1380  1.1933
 3591SOL    HW222410   0.120   0.497   6.848 -0.8114 -1.2511  0.7064
 3592SOL     OW22411   0.971   0.342   9.135 -0.2779 -0.2678  0.2547
 3592SOL    HW122412   1.002   0.418   9.085 -2.5412  0.6594  0.2355
 3592SOL    HW222413   0.912   0.296   9.076  0.1832 -0.0949 -0.3395
 3593SOL     OW22414   2.271   0.598   1.155 -0.4477 -0.0491  0.3812
 3593SOL    HW122415   2.308   0.673   1.202  0.2476 -0.3726  0.3463
 3593SOL    HW222416   2.351   0.545   1.160  0.8253  1.8711  0.7757
 3594SOL     OW22417   1.331   3.804   4.764 -0.8422 -0.0693 -0.1493
 3594SOL    HW122418   1.406   3.757   4.800 -0.1501  0.4096 -0.9702
 3594SOL    HW222419   1.260   3.740   4.769 -0.6404 -0.4562 -2.0175
 3595SOL     OW22420   3.272   0.787   1.949  0.4102  0.5258  0.4698
 3595SOL    HW122421   3.256   0.831   2.032  0.1917  1.1688  0.0908
 3595SOL    HW222422   3.347   0.730   1.964 -0.7192 -0.6389  1.6795
 3596SOL     OW22423   4.203   3.838   5.141  0.0833  0.0403  0.1370
 3596SOL    HW122424   4.218   3.756   5.188  1.4392 -0.5773 -1.3353
 3596SOL    HW222425   4.283   3.887   5.160  0.1002  0.0411  0.0654
 3597SOL     OW22426   2.329   3.019  16.549  0.1071  0.1947  0.4087
 3597SOL    HW122427   2.397   3.008  16.482 -0.4606  0.6822 -0.2413
 3597SOL    HW222428   2.384   3.035  16.626  0.2198 -0.9017  0.5572
 3598SOL     OW22429   1.593   4.490   4.142 -0.8810 -0.3320 -0.2031
 3598SOL    HW122430   1.620   4.398   4.131  2.1372  0.4426  0.7872
 3598SOL    HW222431   1.579   4.513   4.050 -0.5016 -1.6251 -0.5915
 3599SOL     OW22432   0.592   3.858   6.374 -0.3291  0.7901  0.0402
 3599SOL    HW122433   0.687   3.851   6.388  0.0462  2.1369 -1.8075
 3599SOL    HW222434   0.577   3.780   6.320 -1.7912 -0.0272  1.6284
 3600SOL     OW22435   0.827   4.462  13.662  0.7805 -0.4425  0.3041
 3600SOL    HW122436   0.774   4.393  13.702 -1.3267  1.6411  1.1056
 3600SOL    HW222437   0.886   4.431  13.594  0.3462 -1.1999  0.2736
 3601SOL     OW22438   1.042   2.403   4.055  0.3896  0.3525  0.3677
 3601SOL    HW122439   1.033   2.344   4.130  0.4560  0.3134  0.3451
 3601SOL    HW222440   0.976   2.370   3.994  1.1077  1.7277 -1.1548
 3602SOL     OW22441   0.545   4.586  16.438 -0.1630 -0.0379  0.0318
 3602SOL    HW122442   0.468   4.540  16.405 -0.9012 -0.7736  2.7801
 3602SOL    HW222443   0.606   4.565  16.366 -0.6410 -2.7894  0.4277
 3603SOL     OW22444   0.774   0.098  12.433  0.2794  0.3431  0.6055
 3603SOL    HW122445   0.835   0.037  12.475  1.7308  0.8271 -0.7831
 3603SOL    HW222446   0.707   0.047  12.387 -0.2133  0.4191  1.2375
 3604SOL     OW22447   1.168   4.617   3.606  0.0693 -0.0435 -0.0126
 3604SOL    HW122448   1.179   4.611   3.511 -0.2942 -0.0755 -0.0531
 3604SOL    HW222449   1.258   4.599   3.634  1.0084 -1.7769 -4.1604
 3605SOL     OW22450   4.019   2.995   2.835  0.0157  0.4425 -0.4723
 3605SOL    HW122451   4.000   2.902   2.821  2.4833  0.1248 -1.6246
 3605SOL    HW222452   4.040   2.995   2.929  1.9312  0.1081 -0.9040
 3606SOL     OW22453   1.257   1.313   4.175 -1.2671 -0.5018  0.2373
 3606SOL    HW122454   1.343   1.336   4.140 -1.6820 -1.7600 -1.6000
 3606SOL    HW222455   1.273   1.329   4.268 -1.3317  1.0587 -0.0107
 3607SOL     OW22456   2.272   1.752   9.141  0.1575 -0.0740 -0.4787
 3607SOL    HW122457   2.300   1.730   9.052 -1.5591 -0.5604 -0.9114
 3607SOL    HW222458   2.197   1.693   9.154 -0.2826  0.9701  1.6734
 3608SOL     OW22459   0.621   0.501  10.376  0.4893 -0.0400  0.2372
 3608SOL    HW122460   0.657   0.588  10.359  0.2886  0.2244  1.1317
 3608SOL    HW222461   0.683   0.445  10.329 -0.2296 -0.3165 -0.3612
 3609SOL     OW22462   3.803   4.419   2.390  0.0567 -0.1989  0.6937
 3609SOL    HW122463   3.712   4.391   2.381  0.1875 -0.4727  0.1862
 3609SOL    HW222464   3.826   4.460   2.306 -1.4893  0.9923  0.8473
 3610SOL     OW22465   0.865   2.191  10.920  0.1819 -0.0838  0.1913
 3610SOL    HW122466   0.886   2.265  10.978  1.1655  0.8003 -1.3129
 3610SOL    HW222467   0.887   2.122  10.982 -0.8231 -3.0199 -2.7627
 3611SOL     OW22468   4.354   4.734   3.276  0.0749 -0.6812  0.3329
 3611SOL    HW122469   4.336   4.716   3.369 -0.1648 -0.8288  0.2566
 3611SOL    HW222470   4.300   4.672   3.228  0.6601 -0.6716 -0.3344
 3612SOL     OW22471   1.286   4.609   4.829 -0.2278 -0.4332  0.2857
 3612SOL    HW122472   1.206   4.660   4.832 -0.4873 -0.8036 -0.2747
 3612SOL    HW222473   1.283   4.566   4.743 -0.3882  2.2542 -1.0239
 3613SOL     OW22474   2.925   4.000   6.397  0.4477 -0.2143 -0.4300
 3613SOL    HW122475   2.866   4.069   6.364  1.7637  0.9454 -0.3607
 3613SOL    HW222476   2.921   4.012   6.492 -1.7375 -2.0450 -0.3039
 3614SOL     OW22477   0.288   4.532   3.458 -0.9013  0.2133  0.6517
 3614SOL    HW122478   0.281   4.627   3.458 -1.4512  0.1840 -1.8455
 3614SOL    HW222479   0.383   4.517   3.459 -0.7896  0.5650 -3.8917
 3615SOL     OW22480   0.860   3.672   5.863 -0.5448 -0.1460 -0.3316
 3615SOL    HW122481   0.956   3.672   5.862 -0.5529 -1.6510 -0.0228
 3615SOL    HW222482   0.843   3.699   5.772  0.0576  0.3683 -0.2948
 3616SOL     OW22483   4.463   0.007   8.105 -0.1297  0.2167 -0.6330
 3616SOL    HW122484   4.498   4.653   8.090  1.0166 -0.0457  3.6862
 3616SOL    HW222485   4.540   0.054   8.138  0.4956 -0.4167 -1.1909
 3617SOL     OW22486   4.579   1.836  17.679 -0.9284  0.4352 -0.6517
 3617SOL    HW122487   4.581   1.882  17.595 -1.3909  0.4896 -0.6343
 3617SOL    HW222488   4.622   1.754  17.653 -2.0353 -0.8276  1.4915
 3618SOL     OW22489   2.084   1.382   1.762 -0.0852  0.5457 -0.3551
 3618SOL    HW122490   2.002   1.338   1.739 -0.6197  1.3385  0.0408
 3618SOL    HW222491   2.061   1.475   1.755 -0.7276  0.3191 -1.2384
 3619SOL     OW22492   1.656   0.653   4.733 -0.0796 -0.1019  0.5604
 3619SOL    HW122493   1.613   0.703   4.802  0.3277  2.5529 -1.0741
 3619SOL    HW222494   1.741   0.634   4.772  0.9595  0.9788 -1.1851
 3620SOL     OW22495   2.858   2.218   6.778 -0.7689 -0.0945 -0.5041
 3620SOL    HW122496   2.912   2.218   6.700  1.3619 -0.8661  0.9658
 3620SOL    HW222497   2.906   2.154   6.831  0.2554  0.1178 -1.1906
 3621SOL     OW22498   2.771   1.684  16.009  0.6077  0.6813 -0.0464
 3621SOL    HW122499   2.703   1.665  16.073  2.3279  1.7957  2.1062
 3621SOL    HW222500   2.750   1.615  15.946  1.0986  0.1022  0.4251
 3622SOL     OW22501   3.597   3.000  11.508 -0.0159 -0.0500  1.1095
 3622SOL    HW122502   3.644   2.971  11.429 -0.2601 -1.7548  1.5829
 3622SOL    HW222503   3.669   2.989  11.570  1.1397  0.5522 -0.0968
 3623SOL     OW22504   1.574   4.499   1.288  0.5419 -0.1361  0.5846
 3623SOL    HW122505   1.505   4.501   1.222  1.2769  0.0330 -0.1908
 3623SOL    HW222506   1.609   4.589   1.289 -1.1899  0.5488 -1.0275
 3624SOL     OW22507   3.848   2.694   8.815 -0.0401  0.1136  0.5095
 3624SOL    HW122508   3.795   2.649   8.881  0.0173 -1.2497 -0.3728
 3624SOL    HW222509   3.932   2.649   8.823 -0.8477 -1.8737 -2.0874
 3625SOL     OW22510   0.848   3.704   2.639 -0.5348  0.3608 -0.4850
 3625SOL    HW122511   0.848   3.609   2.637 -0.8263  0.3441  0.5996
 3625SOL    HW222512   0.942   3.722   2.628 -0.2029 -1.0375  0.0440
 3626SOL     OW22513   3.449   1.780   2.345  0.1792 -0.1944  0.2183
 3626SOL    HW122514   3.475   1.814   2.430 -1.3663 -2.8004  1.7320
 3626SOL    HW222515   3.359   1.813   2.336 -0.0438 -0.9388 -0.3120
 3627SOL     OW22516   2.497   3.964   7.491 -0.4719 -0.3920 -0.1544
 3627SOL    HW122517   2.441   3.894   7.525  0.8830 -0.6088  1.6305
 3627SOL    HW222518   2.490   4.030   7.561 -2.0208 -0.0252 -0.6382
 3628SOL     OW22519   2.180   3.887   9.274  0.2960  0.1273  0.1684
 3628SOL    HW122520   2.249   3.899   9.340 -1.5696 -1.2953  2.3476
 3628SOL    HW222521   2.191   3.972   9.230  0.8313 -0.2225 -0.3718
 3629SOL     OW22522   0.447   2.448   1.736 -0.3447 -0.0441  0.0741
 3629SOL    HW122523   0.356   2.419   1.723  0.1760 -1.7360  0.2078
 3629SOL    HW222524   0.478   2.390   1.805 -0.9544 -0.3532  0.0850
 3630SOL     OW22525   2.685   1.685  16.641 -0.5947  0.2808 -0.4051
 3630SOL    HW122526   2.732   1.767  16.655 -0.4042  0.3576 -1.4674
 3630SOL    HW222527   2.744   1.614  16.665 -1.0595 -0.3184 -1.0164
 3631SOL     OW22528   3.591   1.907   8.148  0.6047 -0.0601  0.2302
 3631SOL    HW122529   3.642   1.901   8.229 -0.5233 -3.1587  0.7277
 3631SOL    HW222530   3.545   1.990   8.158 -0.6937 -0.5973 -1.3232
 3632SOL     OW22531   2.428   2.176  16.151  0.1085 -0.3465  0.3074
 3632SOL    HW122532   2.378   2.255  16.132 -0.6522 -0.5373  1.4738
 3632SOL    HW222533   2.465   2.150  16.067  2.5189 -0.7404  1.4761
 3633SOL     OW22534   1.684   1.457   4.304  0.0872  0.4648 -0.6624
 3633SOL    HW122535   1.676   1.364   4.322  1.9462  0.5022  0.3487
 3633SOL    HW222536   1.708   1.483   4.393 -2.9448  2.0942 -0.2983
 3634SOL     OW22537   1.461   4.112   2.013  0.0082 -0.4236 -0.2351
 3634SOL    HW122538   1.520   4.170   1.964 -1.5101  0.6802 -0.7444
 3634SOL    HW222539   1.535   4.069   2.056 -0.2432 -1.6774 -1.0700
 3635SOL     OW22540   3.849   1.305  14.689  0.2712 -0.3294  0.6953
 3635SOL    HW122541   3.779   1.315  14.754 -1.3437 -3.9354 -0.4783
 3635SOL    HW222542   3.852   1.386  14.637 -1.0891 -0.3887  0.5224
 3636SOL     OW22543   2.543   2.889   2.952 -0.1751 -0.0391 -0.2020
 3636SOL    HW122544   2.591   2.831   3.010 -1.3311 -2.3112 -1.4985
 3636SOL    HW222545   2.556   2.976   2.989  0.7782 -1.2272  2.2448
 3637SOL     OW22546   1.438   1.400   0.178 -0.0576  0.4073 -0.0354
 3637SOL    HW122547   1.480   1.318   0.207 -3.9684 -1.2775  0.8555
 3637SOL    HW222548   1.504   1.419   0.111 -0.8578  1.8789 -0.3826
 3638SOL     OW22549   0.655   0.220   7.813 -0.0518 -0.0207 -0.3594
 3638SOL    HW122550   0.581   0.252   7.865  0.2137 -0.3438  0.2203
 3638SOL    HW222551   0.724   0.282   7.836 -1.5658  1.7283 -0.5197
 3639SOL     OW22552   4.384   4.512   5.950  0.0152  0.6700  0.1062
 3639SOL    HW122553   4.394   4.534   5.858  0.3777  0.4619  0.0983
 3639SOL    HW222554   4.476   4.511   5.974 -0.1505  1.6435  0.7700
 3640SOL     OW22555   2.236   4.646   8.589 -0.4050  0.2699 -1.0225
 3640SOL    HW122556   2.274   4.705   8.654 -0.9329  0.2607 -0.7090
 3640SOL    HW222557   2.274   4.682   8.509  0.7026  0.1917 -0.5351
 3641SOL     OW22558   1.475   3.441   5.840  0.1594 -0.6543 -0.4353
 3641SOL    HW122559   1.433   3.486   5.767  0.7745 -0.5997 -0.7542
 3641SOL    HW222560   1.532   3.509   5.875 -0.7981  0.3380 -0.7971
 3642SOL     OW22561   3.246   2.478   1.880  0.1540  0.2971 -0.3957
 3642SOL    HW122562   3.290   2.422   1.816  0.5419  1.1244 -0.8612
 3642SOL    HW222563   3.179   2.515   1.823  0.1709  0.0386 -0.5783
 3643SOL     OW22564   2.046   3.627   6.125  0.2348  0.0278  0.7774
 3643SOL    HW122565   2.128   3.671   6.149  0.5180 -0.7990  1.3122
 3643SOL    HW222566   2.011   3.664   6.044  3.1523  0.9985 -0.0603
 3644SOL     OW22567   2.469   0.355   6.077  0.1538  0.2240 -0.4296
 3644SOL    HW122568   2.548   0.347   6.131 -1.1108  0.4971  1.4227
 3644SOL    HW222569   2.458   0.262   6.058  1.9577  0.3519 -2.1927
 3645SOL     OW22570   1.102   0.976  10.297  0.5344  0.0968 -0.1269
 3645SOL    HW122571   1.133   0.945  10.212 -0.3382 -2.2677  0.4370
 3645SOL    HW222572   1.168   1.036  10.331  0.6634 -0.4000  0.5002
 3646SOL     OW22573   1.553   1.095   2.598 -0.2532  0.2327  0.3271
 3646SOL    HW122574   1.494   1.168   2.614 -0.5440  0.0160  0.2333
 3646SOL    HW222575   1.630   1.122   2.648  0.7433 -0.8768 -0.5856
 3647SOL     OW22576   2.302   3.258  14.734  0.4433 -0.0442 -0.7315
 3647SOL    HW122577   2.299   3.165  14.709  1.0566 -0.2335 -0.1145
 3647SOL    HW222578   2.252   3.291  14.660  0.1242 -1.0108 -0.9491
 3648SOL     OW22579   0.886   0.692   5.012  0.4425 -0.1136 -0.0652
 3648SOL    HW122580   0.948   0.663   4.944 -2.0681 -2.6404 -1.2553
 3648SOL    HW222581   0.928   0.773   5.041  2.8295 -1.2115 -0.3878
 3649SOL     OW22582   2.277   3.124   7.018 -0.4051 -0.2739 -0.1599
 3649SOL    HW122583   2.197   3.101   6.970 -0.2699 -0.0424 -0.4989
 3649SOL    HW222584   2.279   3.215   6.986  2.0686  1.3164  4.5457
 3650SOL     OW22585   0.670   2.399   5.376  0.6342 -0.5326 -0.1676
 3650SOL    HW122586   0.657   2.493   5.360 -1.8542 -0.4496  2.1873
 3650SOL    HW222587   0.682   2.384   5.470  0.9639 -1.5046 -0.3730
 3651SOL     OW22588   0.597   4.591  12.568  0.0112 -0.1046  0.8002
 3651SOL    HW122589   0.531   4.655  12.595  0.5536  1.0855 -0.6231
 3651SOL    HW222590   0.636   4.565  12.651  1.7000  0.0561  0.0682
 3652SOL     OW22591   2.052   2.609   9.386 -0.3348 -0.5153  0.1233
 3652SOL    HW122592   2.020   2.659   9.461 -0.6383 -0.4520 -0.0508
 3652SOL    HW222593   2.052   2.681   9.324  0.3498  0.2838  1.0355
 3653SOL     OW22594   4.194   3.657   6.388 -0.3362  0.6591 -0.1626
 3653SOL    HW122595   4.145   3.721   6.337  2.1351  2.0245 -0.7959
 3653SOL    HW222596   4.162   3.572   6.357 -0.9834  0.6604  0.4996
 3654SOL     OW22597   2.999   1.441   2.054  0.4292  0.0546  0.0684
 3654SOL    HW122598   2.905   1.458   2.066  0.5543  0.6484  0.2214
 3654SOL    HW222599   2.985   1.429   1.960 -0.1386  1.9535 -0.1035
 3655SOL     OW22600   1.691   0.481   2.375 -0.3027 -0.1391  0.0905
 3655SOL    HW122601   1.765   0.468   2.435 -1.0728  1.8219  1.4655
 3655SOL    HW222602   1.623   0.527   2.423 -0.1391 -0.6832  0.8508
 3656SOL     OW22603   4.282   3.519   2.166  0.0924  0.6221 -0.1858
 3656SOL    HW122604   4.209   3.459   2.182  0.0909 -0.2720 -3.5050
 3656SOL    HW222605   4.261   3.608   2.194 -0.3486  0.8823 -1.3612
 3657SOL     OW22606   2.897   2.829   5.358 -0.7757 -0.1101 -0.6001
 3657SOL    HW122607   2.869   2.740   5.382 -1.7290  0.5072  0.5583
 3657SOL    HW222608   2.974   2.803   5.307 -0.4717 -0.4669  0.0362
 3658SOL     OW22609   3.554   0.825   6.696 -0.6175 -0.1967  0.1149
 3658SOL    HW122610   3.469   0.856   6.729 -0.6291  0.4551 -0.5127
 3658SOL    HW222611   3.535   0.736   6.668 -2.0405 -0.8356  3.0690
 3659SOL     OW22612   1.275   1.059   9.210  0.0435 -0.1660 -0.9562
 3659SOL    HW122613   1.278   0.989   9.275  0.4668 -0.2569 -1.0737
 3659SOL    HW222614   1.180   1.072   9.202 -0.2951 -0.4619  2.8740
 3660SOL     OW22615   4.362   0.958   5.218 -0.0396 -0.6104 -0.6489
 3660SOL    HW122616   4.314   1.020   5.272 -1.1040 -0.6710 -1.5219
 3660SOL    HW222617   4.338   0.992   5.132 -0.3174 -0.5455 -0.5483
 3661SOL     OW22618   2.697   2.192   1.470  0.0267  0.0743  0.2412
 3661SOL    HW122619   2.633   2.133   1.511  0.5659  0.6005  1.8402
 3661SOL    HW222620   2.664   2.281   1.484  0.4921  0.0636  1.4436
 3662SOL     OW22621   0.932   0.793   6.567 -0.3626  0.1311 -0.6769
 3662SOL    HW122622   0.995   0.741   6.517  1.3352  3.2051 -1.7176
 3662SOL    HW222623   0.928   0.873   6.515 -1.6888  0.3374 -0.2771
 3663SOL     OW22624   0.610   2.324  16.117 -0.5998 -0.6327  0.2180
 3663SOL    HW122625   0.536   2.308  16.175  0.4960 -0.8442  1.5591
 3663SOL    HW222626   0.680   2.264  16.147 -0.2985 -0.0155  0.7489
 3664SOL     OW22627   3.935   1.133   9.914 -0.5164  0.1450 -0.4959
 3664SOL    HW122628   3.968   1.056   9.867  1.6008 -0.0035  1.2503
 3664SOL    HW222629   4.013   1.186   9.924 -0.0044 -1.0398  1.9364
 3665SOL     OW22630   4.232   4.376   9.299 -0.7017  0.4540  0.2516
 3665SOL    HW122631   4.158   4.321   9.324 -1.9869  1.6085 -1.0016
 3665SOL    HW222632   4.276   4.311   9.245  0.6996  0.8745  0.8856
 3666SOL     OW22633   1.549   4.412  17.523 -0.3971 -0.9626 -0.1632
 3666SOL    HW122634   1.598   4.334  17.549  1.8042  0.6128  0.3383
 3666SOL    HW222635   1.565   4.420  17.429 -1.8182 -0.2076 -0.3486
 3667SOL     OW22636   0.447   1.977  10.449  0.3111 -0.0253 -0.3059
 3667SOL    HW122637   0.411   1.941  10.530 -0.2631  1.5946  0.1578
 3667SOL    HW222638   0.532   2.010  10.477  0.4204 -0.0718 -0.5800
 3668SOL     OW22639   4.186   1.945   3.976  0.1149 -0.1025  0.4876
 3668SOL    HW122640   4.157   1.960   4.066 -0.3866  0.7344  0.1888
 3668SOL    HW222641   4.126   1.878   3.944 -0.1835  0.0907  0.6403
 3669SOL     OW22642   4.234   2.239   1.706 -0.4156  0.4022 -0.3341
 3669SOL    HW122643   4.264   2.328   1.688 -0.4151  0.5727  0.5257
 3669SOL    HW222644   4.167   2.241   1.638 -0.8657 -2.7458  0.0084
 3670SOL     OW22645   3.009   3.283   3.059 -0.2105  0.6745  0.1493
 3670SOL    HW122646   3.000   3.297   2.964 -2.3926 -0.2664  0.2175
 3670SOL    HW222647   3.077   3.216   3.053 -2.4909 -1.4655 -1.7522
 3671SOL     OW22648   1.112   3.630   4.756  0.7386 -0.1193  0.3258
 3671SOL    HW122649   1.168   3.559   4.725  0.7506 -1.0744  2.6126
 3671SOL    HW222650   1.066   3.584   4.825  0.7462 -0.9907 -0.2489
 3672SOL     OW22651   2.205   4.563   8.059 -0.3309  0.3751 -0.4398
 3672SOL    HW122652   2.264   4.558   8.135 -2.1406  1.7494  1.0593
 3672SOL    HW222653   2.270   4.582   7.992 -0.6880  1.7087 -0.3996
 3673SOL     OW22654   2.671   0.789   2.884 -0.5126  0.0069  0.5334
 3673SOL    HW122655   2.741   0.853   2.895  0.2393 -0.7985  0.3931
 3673SOL    HW222656   2.603   0.820   2.944 -1.8773  0.7566 -1.3683
 3674SOL     OW22657   4.485   2.907  17.410 -0.0596  0.6060  0.6765
 3674SOL    HW122658   4.421   2.970  17.443 -0.0192  1.2796 -0.5349
 3674SOL    HW222659   4.433   2.831  17.384 -0.9316  0.9704  1.3751
 3675SOL     OW22660   3.290   0.945   7.798  0.2440  0.0919  0.4333
 3675SOL    HW122661   3.235   0.994   7.737  1.6163  1.0505 -0.0336
 3675SOL    HW222662   3.364   0.924   7.742  0.7021 -0.4254  1.2322
 3676SOL     OW22663   2.237   0.965   5.041  0.2401  0.1264  0.3799
 3676SOL    HW122664   2.311   0.905   5.031 -1.2203 -1.6263  0.0854
 3676SOL    HW222665   2.281   1.042   5.076 -0.1206 -0.3453  1.8452
 3677SOL     OW22666   1.123   3.092   6.248  0.8325  0.1054  0.0929
 3677SOL    HW122667   1.182   3.023   6.278  0.6799  0.8942  2.2151
 3677SOL    HW222668   1.132   3.149   6.325  0.1024  0.8725 -0.3885
 3678SOL     OW22669   3.674   2.669  10.184 -0.1007 -0.2985  0.0577
 3678SOL    HW122670   3.751   2.614  10.202 -1.7147 -2.6185 -0.1604
 3678SOL    HW222671   3.669   2.677  10.089 -1.6984  0.6932  0.2304
 3679SOL     OW22672   2.033   0.546  10.758 -0.3350 -0.4690  0.6756
 3679SOL    HW122673   1.982   0.504  10.688 -0.7530  2.3628 -0.7031
 3679SOL    HW222674   1.973   0.539  10.831 -1.1446 -1.8012 -0.1061
 3680SOL     OW22675   1.643   2.934   2.021 -0.1018 -0.4559  0.3791
 3680SOL    HW122676   1.610   3.023   2.014  0.5254 -0.3908 -1.7633
 3680SOL    HW222677   1.610   2.887   1.945  0.9492  2.0691 -1.6567
 3681SOL     OW22678   1.348   1.723   8.844  0.6424 -0.1096  0.3501
 3681SOL    HW122679   1.410   1.725   8.771 -1.2189  0.5232 -1.2262
 3681SOL    HW222680   1.272   1.733   8.787  1.4371 -1.4673 -0.9231
 3682SOL     OW22681   1.934   0.620  15.045 -0.2243 -0.1500 -0.1553
 3682SOL    HW122682   1.877   0.696  15.055  0.1046  0.0288  0.3652
 3682SOL    HW222683   1.992   0.642  14.973  2.3759  0.1318  2.0501
 3683SOL     OW22684   2.274   4.143   5.211 -0.5229  0.0364 -0.1116
 3683SOL    HW122685   2.237   4.180   5.291 -0.8030 -1.3950  0.4279
 3683SOL    HW222686   2.355   4.095   5.231  0.0204  0.0896 -2.1918
 3684SOL     OW22687   2.967   1.141   7.090  0.7885 -0.1092 -0.0667
 3684SOL    HW122688   2.926   1.162   7.007 -1.4556  0.2835  1.1498
 3684SOL    HW222689   2.921   1.196   7.153  3.7081  3.1661 -0.7606
 3685SOL     OW22690   2.147   3.463   9.539  0.1403 -0.4815  0.5172
 3685SOL    HW122691   2.235   3.478   9.574  0.5395 -0.7130 -0.3906
 3685SOL    HW222692   2.154   3.494   9.449 -0.1365 -0.5675  0.4663
 3686SOL     OW22693   1.804   4.236   7.871  0.4754  0.1242 -0.4618
 3686SOL    HW122694   1.723   4.281   7.894 -0.8193 -1.6049 -1.6496
 3686SOL    HW222695   1.868   4.308   7.873 -0.0912  0.6688 -1.7527
 3687SOL     OW22696   0.565   2.549   8.893 -0.3247  0.1569  0.1060
 3687SOL    HW122697   0.471   2.537   8.881 -0.1179 -0.6946 -0.6110
 3687SOL    HW222698   0.566   2.596   8.977 -0.4590 -1.3803  0.9718
 3688SOL     OW22699   0.783   4.536   7.849 -0.1474 -0.2851  0.1644
 3688SOL    HW122700   0.725   4.606   7.818  1.1043  0.7938  0.2799
 3688SOL    HW222701   0.713   4.472   7.862 -1.4896  0.7618 -1.8624
 3689SOL     OW22702   2.132   2.989   8.992  0.0759  0.3500  0.1110
 3689SOL    HW122703   2.069   3.049   9.033 -1.2417  0.2968 -1.8480
 3689SOL    HW222704   2.101   2.989   8.902  0.8301 -1.5393 -0.1420
 3690SOL     OW22705   1.932   2.345  14.957 -0.5556 -0.4109  0.3801
 3690SOL    HW122706   2.023   2.334  14.931  0.2688  0.5234  2.8453
 3690SOL    HW222707   1.926   2.271  15.018 -1.4293 -0.4172  0.2854
 3691SOL     OW22708   2.422   4.246   5.849 -0.4212  0.1679 -0.4812
 3691SOL    HW122709   2.376   4.281   5.773  2.1658  0.3421 -1.9724
 3691SOL    HW222710   2.374   4.288   5.920 -3.0567  0.1868 -2.2594
 3692SOL     OW22711   4.316   3.782   7.868  0.2723  0.0640 -0.2345
 3692SOL    HW122712   4.363   3.857   7.902 -0.0611 -0.3420  1.0955
 3692SOL    HW222713   4.387   3.727   7.834 -0.8541 -2.0686  0.8302
 3693SOL     OW22714   2.242   1.787   7.399 -0.4360 -0.2398 -0.4465
 3693SOL    HW122715   2.329   1.785   7.359 -0.1417  1.8444  0.0798
 3693SOL    HW222716   2.258   1.868   7.447 -1.3479  0.4663 -1.3317
 3694SOL     OW22717   1.964   2.600   7.244  0.2362  0.7003 -0.9004
 3694SOL    HW122718   2.027   2.551   7.295 -1.0904 -0.7078 -0.6312
 3694SOL    HW222719   1.881   2.560   7.271  0.9097 -0.0054  0.0635
 3695SOL     OW22720   1.398   2.629   9.967  0.2154 -0.2667 -0.1426
 3695SOL    HW122721   1.348   2.620  10.048  0.5549  1.4470  0.2640
 3695SOL    HW222722   1.387   2.723   9.948  2.4140 -0.0918 -0.5071
 3696SOL     OW22723   3.906   1.413   2.969 -0.7454  0.1896 -1.1043
 3696SOL    HW122724   3.945   1.332   2.934  1.5208  1.1330 -0.7868
 3696SOL    HW222725   3.932   1.409   3.061 -1.4373  1.6309 -0.8522
 3697SOL     OW22726   0.003   0.020  13.068  0.1485 -0.6403 -0.2889
 3697SOL    HW122727   4.725   4.718  13.156 -0.5120 -1.2826 -0.6425
 3697SOL    HW222728   0.033   4.676  13.021  1.0995 -0.7578  0.5234
 3698SOL     OW22729   2.670   2.180  10.469  0.2454 -0.1808  0.2782
 3698SOL    HW122730   2.710   2.154  10.386 -2.2337 -0.5052 -0.8288
 3698SOL    HW222731   2.744   2.196  10.527  1.4067 -1.8028 -0.7525
 3699SOL     OW22732   1.487   4.127   5.469  0.1015  0.0922 -0.2728
 3699SOL    HW122733   1.506   4.053   5.412 -0.9817 -1.1262  0.9733
 3699SOL    HW222734   1.477   4.083   5.553 -2.9759 -0.0870 -0.7181
 3700SOL     OW22735   0.022   4.125  10.217  0.1196  0.1447 -0.5440
 3700SOL    HW122736   4.664   4.110  10.236  0.3644 -0.9898 -0.2678
 3700SOL    HW222737   0.031   4.089  10.129 -0.6624 -0.0445 -0.5394
 3701SOL     OW22738   0.978   2.810   7.051 -0.4031 -0.1004 -0.2879
 3701SOL    HW122739   1.027   2.746   6.999 -1.0835 -1.6497  0.9660
 3701SOL    HW222740   0.961   2.759   7.130  1.3553  0.0306  0.1666
 3702SOL     OW22741   1.614   0.568   7.192  0.3579 -0.0760 -0.0488
 3702SOL    HW122742   1.585   0.658   7.206 -1.4935 -0.8878  1.1960
 3702SOL    HW222743   1.594   0.541   7.102  1.6273 -1.2802  0.0231
 3703SOL     OW22744   0.440   1.977   5.829  0.0650 -0.6820  0.2018
 3703SOL    HW122745   0.387   2.053   5.803 -1.4697 -0.8297  2.8709
 3703SOL    HW222746   0.451   1.931   5.745  0.0894 -1.0828  0.4236
 3704SOL     OW22747   2.015   0.109   5.350  0.4520 -0.5996  0.0507
 3704SOL    HW122748   2.042   0.196   5.380  2.0016 -1.1875  0.3338
 3704SOL    HW222749   2.093   0.062   5.380  1.3568  1.0201  0.2258
 3705SOL     OW22750   1.720   3.309  11.710 -0.4557 -0.2635 -0.2989
 3705SOL    HW122751   1.782   3.381  11.696 -1.3722  0.3361 -1.2748
 3705SOL    HW222752   1.707   3.273  11.622 -1.3356 -0.2364 -0.1804
 3706SOL     OW22753   2.706   1.933   8.102 -0.6228 -0.1166  0.5930
 3706SOL    HW122754   2.765   1.890   8.041 -0.7953  0.2417  0.1817
 3706SOL    HW222755   2.765   1.966   8.170  1.9453 -0.0409 -1.6772
 3707SOL     OW22756   0.936   3.822   3.000 -0.1087 -0.1030 -0.3220
 3707SOL    HW122757   0.986   3.742   3.018 -0.1716  0.0155  0.3713
 3707SOL    HW222758   0.846   3.788   3.004  0.2730 -1.0059  0.4728
 3708SOL     OW22759   3.602   3.093  15.408 -0.7428 -0.0473 -0.0860
 3708SOL    HW122760   3.579   3.167  15.465  0.9100 -0.8850  1.6703
 3708SOL    HW222761   3.626   3.142  15.329  0.2295 -2.3066 -1.1767
 3709SOL     OW22762   0.242   4.120   4.636 -0.2694  0.2908 -0.0722
 3709SOL    HW122763   0.325   4.091   4.674 -0.7856 -2.6223 -1.2321
 3709SOL    HW222764   0.277   4.162   4.557  2.7647  0.2465  1.2544
 3710SOL     OW22765   1.206   3.993   6.047 -0.1696  0.2261 -0.5552
 3710SOL    HW122766   1.198   4.084   6.074  0.1934  0.1854 -0.3020
 3710SOL    HW222767   1.291   3.967   6.083 -1.9735 -3.5492  0.9573
 3711SOL     OW22768   0.977   3.549   7.062 -0.8373  0.8883 -0.5064
 3711SOL    HW122769   0.993   3.584   6.974  1.1741  1.3440  0.0376
 3711SOL    HW222770   0.896   3.500   7.046 -0.5924 -0.6284  2.7770
 3712SOL     OW22771   1.403   3.026   9.392 -0.9321 -0.0569 -0.2866
 3712SOL    HW122772   1.429   2.939   9.362 -0.1957  0.2458 -0.5250
 3712SOL    HW222773   1.326   3.047   9.339 -0.6929  1.0605 -0.1892
 3713SOL     OW22774   2.286   0.325   7.446 -0.4984  0.2085  0.3380
 3713SOL    HW122775   2.261   0.411   7.414 -1.6206 -0.4660 -0.5880
 3713SOL    HW222776   2.236   0.274   7.383 -1.1688  0.4736  0.6585
 3714SOL     OW22777   4.545   4.388  17.086  0.1199 -0.3376 -0.1838
 3714SOL    HW122778   4.549   4.459  17.022 -0.9584  0.8719  1.1012
 3714SOL    HW222779   4.520   4.315  17.030 -1.4596 -0.3118  0.4999
 3715SOL     OW22780   0.009   0.518   0.982 -0.4930  0.4422  0.3906
 3715SOL    HW122781   4.657   0.553   0.956  1.0231  3.1366 -1.0122
 3715SOL    HW222782   0.051   0.600   1.008 -0.4326  1.3224 -2.3948
 3716SOL     OW22783   2.094   2.242  17.169  0.0141  0.5717 -0.0518
 3716SOL    HW122784   2.175   2.292  17.174  1.1925 -1.6028  2.5994
 3716SOL    HW222785   2.041   2.282  17.238  0.9589 -1.2269  1.7022
 3717SOL     OW22786   0.985   0.414  10.820  0.3486 -0.2255  0.3790
 3717SOL    HW122787   0.991   0.420  10.915  0.7764 -0.0377  0.3418
 3717SOL    HW222788   0.966   0.503  10.792 -0.1190 -0.6754 -0.7086
 3718SOL     OW22789   3.673   2.054  16.622  0.7802  0.1147 -0.4934
 3718SOL    HW122790   3.720   1.976  16.591 -0.0379  0.3624 -2.3373
 3718SOL    HW222791   3.687   2.048  16.717 -1.9263  1.1798 -0.0116
 3719SOL     OW22792   0.664   0.013  14.102  0.2648 -0.1808  0.3064
 3719SOL    HW122793   0.577   0.001  14.141  0.2532 -1.0685 -0.0008
 3719SOL    HW222794   0.668   0.108  14.107  1.0634 -0.4276  4.3083
 3720SOL     OW22795   1.851   0.872   5.091  0.1491  0.0444 -0.3773
 3720SOL    HW122796   1.932   0.852   5.046  0.6541  1.4527 -0.0879
 3720SOL    HW222797   1.891   0.905   5.172 -0.9703 -0.0831  0.2363
 3721SOL     OW22798   4.454   2.002   6.475  0.4291 -0.1010 -0.0007
 3721SOL    HW122799   4.384   2.028   6.535  1.4399  1.8163  0.3284
 3721SOL    HW222800   4.491   2.087   6.455 -1.0851  0.6892  0.5673
 3722SOL     OW22801   0.509   1.015   2.923  0.0614 -0.2335 -0.4530
 3722SOL    HW122802   0.529   1.010   3.016  0.8734  0.6314 -0.5774
 3722SOL    HW222803   0.435   0.955   2.920  0.5263 -0.9244  1.9355
 3723SOL     OW22804   0.809   1.553   9.192  0.5626  1.0826  0.2335
 3723SOL    HW122805   0.801   1.643   9.163  0.6792  0.5646 -1.4116
 3723SOL    HW222806   0.882   1.559   9.253  1.4770  0.7504 -0.8210
 3724SOL     OW22807   3.753   1.728   9.442 -0.2073 -0.0361  0.0140
 3724SOL    HW122808   3.791   1.753   9.358  1.2227 -1.0230  0.3657
 3724SOL    HW222809   3.837   1.737   9.487  0.5840  2.2141 -1.9480
 3725SOL     OW22810   3.772   4.019   5.158 -0.4279 -0.4030 -0.1281
 3725SOL    HW122811   3.782   4.101   5.206 -0.6762 -1.2852  1.4349
 3725SOL    HW222812   3.831   3.968   5.213 -0.7393  0.9703  1.4551
 3726SOL     OW22813   4.603   2.865  17.704  0.1660  0.7950 -0.2646
 3726SOL    HW122814   4.560   2.868  17.619 -1.8693  1.1281  0.7797
 3726SOL    HW222815   4.580   2.780   0.006  0.5497  1.3443  1.1894
 3727SOL     OW22816   4.643   0.724   3.525 -0.6033 -0.1844  0.6400
 3727SOL    HW122817   4.655   0.814   3.495 -1.8330 -0.0163  0.6544
 3727SOL    HW222818   4.603   0.681   3.449 -1.8888 -1.1338  1.8535
 3728SOL     OW22819   3.336   3.420   6.250  0.0794  0.3171 -0.6779
 3728SOL    HW122820   3.270   3.458   6.191  0.5292 -1.1035 -2.0914
 3728SOL    HW222821   3.273   3.393   6.317 -0.2155  0.4566 -0.8973
 3729SOL     OW22822   0.533   1.706   3.790 -0.8505 -0.1914  0.2382
 3729SOL    HW122823   0.504   1.738   3.875 -0.7980  1.2217 -0.2653
 3729SOL    HW222824   0.450   1.717   3.744  0.6539 -2.4547 -3.0318
 3730SOL     OW22825   3.724   2.288   4.910  0.4272 -0.6124  0.3095
 3730SOL    HW122826   3.749   2.195   4.917 -0.8477 -0.7442  2.9627
 3730SOL    HW222827   3.673   2.290   4.829  0.1623 -3.9198  0.3854
 3731SOL     OW22828   2.556   1.762   1.525  0.2949  0.0995  0.2744
 3731SOL    HW122829   2.539   1.695   1.591  0.1503 -0.8394 -0.7100
 3731SOL    HW222830   2.492   1.735   1.459  1.1554  0.4934 -0.7192
 3732SOL     OW22831   2.641   1.416   7.153 -0.3535  0.2195 -0.5711
 3732SOL    HW122832   2.698   1.491   7.171 -0.1977 -0.1599  0.5663
 3732SOL    HW222833   2.575   1.464   7.102 -0.7206 -3.2432 -3.2705
 3733SOL     OW22834   4.639   2.009   1.499 -0.2634 -0.6750 -0.1624
 3733SOL    HW122835   4.600   2.092   1.472  1.8298  1.3309  3.1325
 3733SOL    HW222836   4.564   1.977   1.549 -0.5912  1.2834  0.6096
 3734SOL     OW22837   2.778   1.042  16.656  0.5755 -0.2474 -0.4401
 3734SOL    HW122838   2.788   1.029  16.750 -2.2059  1.5566  0.1008
 3734SOL    HW222839   2.824   0.962  16.629 -1.4162 -0.8766 -2.0178
 3735SOL     OW22840   2.480   1.175   5.795 -0.5196 -0.5863 -0.5377
 3735SOL    HW122841   2.481   1.267   5.822 -0.9634 -0.8553  0.3819
 3735SOL    HW222842   2.406   1.143   5.847 -0.6223  0.6557  0.0817
 3736SOL     OW22843   2.280   4.560   7.775  0.1649  0.2238 -0.1936
 3736SOL    HW122844   2.216   4.493   7.754  1.5461 -1.0238 -0.4286
 3736SOL    HW222845   2.360   4.511   7.794 -1.2725 -1.6623  0.9036
 3737SOL     OW22846   3.878   2.322   7.166 -0.4372  0.5755  0.1085
 3737SOL    HW122847   3.811   2.264   7.203  1.2454 -0.4504  1.5493
 3737SOL    HW222848   3.924   2.350   7.245  0.5256  2.5219 -1.1363
 3738SOL     OW22849   4.142   0.957   2.956  0.6508 -0.7783  0.3931
 3738SOL    HW122850   4.122   0.948   3.049 -0.0390 -1.3493  0.1901
 3738SOL    HW222851   4.230   0.921   2.956  0.9750 -0.0126 -1.2824
 3739SOL     OW22852   1.083   0.832   3.977  0.1601 -0.2962  0.5073
 3739SOL    HW122853   1.031   0.911   3.964 -0.7127 -1.0481 -0.5233
 3739SOL    HW222854   1.086   0.785   3.894 -0.7402  0.5747 -0.0166
 3740SOL     OW22855   2.551   2.004   8.720 -0.2633  0.2404 -0.3207
 3740SOL    HW122856   2.613   1.940   8.685 -1.4502 -1.0351 -0.1135
 3740SOL    HW222857   2.541   1.962   8.806 -0.3801  2.3059  0.6824
 3741SOL     OW22858   4.531   2.454   9.872 -0.4988  0.2100  0.0471
 3741SOL    HW122859   4.557   2.546   9.886 -0.9549  0.4939 -0.9953
 3741SOL    HW222860   4.615   2.409   9.886 -1.7058 -1.2506  2.4656
 3742SOL     OW22861   3.140   1.295  16.314  0.4061  0.0520 -0.0113
 3742SOL    HW122862   3.198   1.368  16.332 -0.4185  0.4339  1.0878
 3742SOL    HW222863   3.057   1.338  16.294  0.6280 -0.5515 -2.2629
 3743SOL     OW22864   0.343   1.885   9.884 -0.3132  0.0613  0.0231
 3743SOL    HW122865   0.355   1.835   9.803  0.6561 -0.1107  0.2763
 3743SOL    HW222866   0.354   1.814   9.948  3.7730  1.5895  0.9880
 3744SOL     OW22867   2.381   1.152   5.531 -0.2885 -0.5074 -0.3234
 3744SOL    HW122868   2.464   1.128   5.491  0.6039  0.8878  0.7092
 3744SOL    HW222869   2.410   1.209   5.602  1.6501 -1.0551 -0.6888
 3745SOL     OW22870   1.523   4.483   6.768  0.6367  0.1710 -0.4236
 3745SOL    HW122871   1.528   4.451   6.858  1.3981  1.6183  0.0501
 3745SOL    HW222872   1.438   4.528   6.770 -0.2807 -1.5905  0.0914
 3746SOL     OW22873   3.049   1.267  16.721  0.5862 -0.0410  0.0012
 3746SOL    HW122874   3.118   1.221  16.768 -0.5530  1.2019  2.8486
 3746SOL    HW222875   3.103   1.339  16.688  1.3905 -0.8896 -0.5425
 3747SOL     OW22876   3.600   0.060   6.445  0.1537  0.1232  0.1478
 3747SOL    HW122877   3.524   0.044   6.390  0.3595 -2.5192  0.6100
 3747SOL    HW222878   3.639   4.707   6.434 -1.7207 -0.6481 -0.3675
 3748SOL     OW22879   0.251   2.752   3.735 -0.4172  0.2858 -0.0280
 3748SOL    HW122880   0.317   2.687   3.759  0.4111  0.8630 -0.7337
 3748SOL    HW222881   0.271   2.777   3.645 -0.9600 -0.3244 -0.3171
 3749SOL     OW22882   4.149   1.593   7.954 -0.8631 -0.2754  0.3896
 3749SOL    HW122883   4.115   1.649   7.884 -1.5717 -0.7147  0.3909
 3749SOL    HW222884   4.149   1.508   7.910 -1.0164 -0.6662  1.1546
 3750SOL     OW22885   0.256   4.100   5.743 -0.3608  0.2138 -0.0178
 3750SOL    HW122886   0.305   4.104   5.661 -3.2845  2.4157 -1.6400
 3750SOL    HW222887   0.290   4.176   5.789 -0.9424 -0.6592  1.8347
 3751SOL     OW22888   1.766   3.895   4.289 -0.8392  0.2332  0.5074
 3751SOL    HW122889   1.810   3.913   4.372  2.3669 -2.5700 -0.5934
 3751SOL    HW222890   1.833   3.898   4.221 -0.7644  0.2215  0.5800
 3752SOL     OW22891   2.776   2.767   7.114  0.2110  0.8451  0.3228
 3752SOL    HW122892   2.747   2.814   7.193 -3.0044 -2.5919  1.2266
 3752SOL    HW222893   2.709   2.698   7.126  1.0733 -0.3218 -1.6918
 3753SOL     OW22894   2.384   4.692   3.465  0.0643 -0.0213  0.3313
 3753SOL    HW122895   2.294   4.665   3.485  0.9101 -0.7200  3.2848
 3753SOL    HW222896   2.372   0.049   3.439 -0.1214 -0.3921 -0.8602
 3754SOL     OW22897   3.985   2.421   6.030  0.1962  0.1200  0.5842
 3754SOL    HW122898   3.996   2.496   6.090 -1.2340  1.7375 -1.1545
 3754SOL    HW222899   3.978   2.465   5.945 -0.0565 -1.2363 -0.0905
 3755SOL     OW22900   2.318   4.643   5.609 -0.1125  0.0304 -0.0798
 3755SOL    HW122901   2.305   4.554   5.644  0.1651  0.9259  2.2871
 3755SOL    HW222902   2.375   4.678   5.678 -1.1048 -0.9775  1.2469
 3756SOL     OW22903   0.443   0.898   7.351  0.3953 -1.1981 -0.3418
 3756SOL    HW122904   0.391   0.977   7.367  1.4027 -0.5676 -0.1884
 3756SOL    HW222905   0.522   0.924   7.399 -0.6398  1.2995 -0.0045
 3757SOL     OW22906   2.225   2.747   3.630 -0.1943  0.1215  0.3737
 3757SOL    HW122907   2.133   2.721   3.617  0.6543 -1.9317 -1.6569
 3757SOL    HW222908   2.246   2.798   3.552  1.3251 -0.2117  0.5730
 3758SOL     OW22909   1.945   4.723   2.531 -0.0612  0.1901 -0.4662
 3758SOL    HW122910   1.887   0.056   2.494 -2.0122 -0.5841  1.2339
 3758SOL    HW222911   2.028   0.035   2.544  1.1282 -2.0802 -0.0815
 3759SOL     OW22912   4.435   1.958   5.030 -0.0026 -1.0155 -0.0455
 3759SOL    HW122913   4.476   1.897   4.970  0.3488 -0.0856 -0.7532
 3759SOL    HW222914   4.486   2.037   5.015 -1.9081  0.3244  0.4124
 3760SOL     OW22915   4.401   1.716   2.712  0.0908 -0.3989  0.4237
 3760SOL    HW122916   4.483   1.752   2.746  0.9849 -0.9468 -1.1525
 3760SOL    HW222917   4.429   1.624   2.707 -1.2146 -0.8511  1.2927
 3761SOL     OW22918   3.198   2.066   6.162  0.1031 -0.0909  0.0373
 3761SOL    HW122919   3.259   2.065   6.236  0.3155 -0.9259 -0.1497
 3761SOL    HW222920   3.201   2.158   6.136 -2.4044  0.0208  0.1011
 3762SOL     OW22921   1.035   4.645   3.148  0.0875  0.0287 -0.3195
 3762SOL    HW122922   0.979   4.671   3.221  2.3147 -1.4347  1.9114
 3762SOL    HW222923   0.972   4.622   3.079  0.4841  1.0962 -1.0216
 3763SOL     OW22924   1.989   0.786  12.116  0.6604  0.3336  0.1793
 3763SOL    HW122925   2.046   0.850  12.158  1.7710  0.3507 -1.3670
 3763SOL    HW222926   1.933   0.837  12.058  0.2375 -2.4421 -1.8634
 3764SOL     OW22927   3.197   4.547   1.955  0.3667  0.1721 -0.2187
 3764SOL    HW122928   3.111   4.503   1.953  1.0385 -1.1939  0.6468
 3764SOL    HW222929   3.211   4.572   1.864  1.7864  0.0220 -0.0319
 3765SOL     OW22930   4.681   2.515   5.263  0.2908 -0.0869 -1.1705
 3765SOL    HW122931   4.624   2.440   5.279  0.3388  0.4616  1.5731
 3765SOL    HW222932   4.678   2.554   5.350  0.9682  0.5180 -1.4157
 3766SOL     OW22933   1.062   1.062  13.544  0.7700  0.1238  0.2158
 3766SOL    HW122934   1.037   1.066  13.452 -0.1809 -2.3929  0.3564
 3766SOL    HW222935   0.985   1.020  13.583  0.7088  0.8318  0.8597
 3767SOL     OW22936   4.093   0.135   3.398  0.1296  0.3545  0.1755
 3767SOL    HW122937   4.140   0.065   3.444 -0.3919 -0.5451 -0.6569
 3767SOL    HW222938   4.033   0.082   3.346 -0.7814  1.9977 -0.4381
 3768SOL     OW22939   2.119   1.464   7.792  0.6559 -0.1962 -0.2939
 3768SOL    HW122940   2.164   1.528   7.848  1.0106 -1.3418  0.7195
 3768SOL    HW222941   2.168   1.477   7.710 -0.9213 -0.3565 -1.2608
 3769SOL     OW22942   4.598   2.259   2.927  0.1448  0.4303 -0.6465
 3769SOL    HW122943   4.539   2.332   2.943  0.3197  0.9509 -2.3395
 3769SOL    HW222944   4.614   2.244   3.020 -0.3035 -2.3266 -1.0168
 3770SOL     OW22945   3.078   2.877   7.336  0.7055  0.1128 -0.0514
 3770SOL    HW122946   3.041   2.900   7.421 -0.6152 -0.1423 -0.5553
 3770SOL    HW222947   3.064   2.959   7.290 -0.6804  1.4136  2.7036
 3771SOL     OW22948   4.450   2.311   6.148  0.8490 -0.3014  1.3758
 3771SOL    HW122949   4.526   2.302   6.090 -0.6013 -1.4273 -0.3281
 3771SOL    HW222950   4.376   2.307   6.088  1.3890 -0.8284  0.7416
 3772SOL     OW22951   3.285   2.232   6.832  0.7873 -0.0390 -0.6742
 3772SOL    HW122952   3.313   2.242   6.741 -0.3361 -1.0843 -1.1337
 3772SOL    HW222953   3.369   2.216   6.874  1.0072 -0.4044 -1.2452
 3773SOL     OW22954   2.755   2.723  13.629 -0.5824 -0.4697  0.8543
 3773SOL    HW122955   2.687   2.671  13.586 -0.1768  0.8355 -1.3547
 3773SOL    HW222956   2.702   2.756  13.702 -0.9117 -0.7921  0.7608
 3774SOL     OW22957   3.057   3.133   4.071 -0.7114  0.7914  0.0216
 3774SOL    HW122958   3.028   3.210   4.119 -1.7497 -0.4015  1.2919
 3774SOL    HW222959   3.147   3.119   4.101 -0.2130  2.3195 -0.7715
 3775SOL     OW22960   2.034   4.142  13.508 -0.0190 -0.1667  0.7045
 3775SOL    HW122961   1.961   4.100  13.461 -0.5880  1.0870  0.4574
 3775SOL    HW222962   2.057   4.071  13.567  1.6191  0.5201  0.8803
 3776SOL     OW22963   1.566   0.007   2.170 -0.6215 -0.3820  0.0689
 3776SOL    HW122964   1.627   0.060   2.119 -0.7463 -0.5582 -0.2594
 3776SOL    HW222965   1.625   4.673   2.205 -0.0652 -0.3214 -0.7690
 3777SOL     OW22966   3.702   3.693   1.901 -0.6174  0.0816  0.1871
 3777SOL    HW122967   3.790   3.729   1.912 -0.5621  0.3084 -1.0081
 3777SOL    HW222968   3.649   3.764   1.865 -0.8442 -0.5532 -0.7443
 3778SOL     OW22969   0.489   1.181   8.877  0.1827 -0.6392  0.9461
 3778SOL    HW122970   0.458   1.113   8.937 -2.5917 -1.2476 -1.2023
 3778SOL    HW222971   0.505   1.256   8.934 -0.4422 -0.3802  0.7832
 3779SOL     OW22972   1.710   3.674   5.066  0.2156 -0.6207 -0.0911
 3779SOL    HW122973   1.772   3.740   5.096 -0.4051 -0.0709 -0.0026
 3779SOL    HW222974   1.698   3.689   4.972  2.4332 -2.5734 -0.6773
 3780SOL     OW22975   1.481   3.822   8.011 -0.2623 -1.3979  0.2063
 3780SOL    HW122976   1.503   3.818   7.918 -0.1990 -0.0183  0.1652
 3780SOL    HW222977   1.452   3.911   8.029  1.6039 -0.8869  0.6495
 3781SOL     OW22978   3.522   4.562  13.935 -0.7365 -0.0170 -0.2971
 3781SOL    HW122979   3.447   4.573  13.993 -1.0283  2.5090 -1.1688
 3781SOL    HW222980   3.477   4.521  13.861  0.0411  1.1482 -1.4119
 3782SOL     OW22981   2.353   0.035  11.616  0.2358  0.1891  0.5371
 3782SOL    HW122982   2.278   0.020  11.559 -0.0039  1.7159  0.4512
 3782SOL    HW222983   2.389   4.681  11.617 -0.8010 -0.2054  2.2671
 3783SOL     OW22984   1.030   0.819  17.600 -0.3310  0.3573 -0.3796
 3783SOL    HW122985   1.006   0.902  17.558 -1.8761  0.0440 -0.1272
 3783SOL    HW222986   1.058   0.854  17.685 -3.8613 -0.5026  1.1768
 3784SOL     OW22987   3.373   4.679  11.329  0.3330 -0.3767  0.1308
 3784SOL    HW122988   3.308   0.013  11.345 -2.2295 -2.8535  0.3434
 3784SOL    HW222989   3.398   4.673  11.237  0.4200 -1.7818  0.2431
 3785SOL     OW22990   1.151   0.618   7.310 -0.0561 -0.0942 -0.0386
 3785SOL    HW122991   1.077   0.665   7.271  0.9542 -0.3374 -2.2421
 3785SOL    HW222992   1.204   0.693   7.334  0.3071  0.0897 -1.4054
 3786SOL     OW22993   4.649   0.153   0.960  0.2982 -0.5450  0.5079
 3786SOL    HW122994   4.623   0.076   0.911 -0.5241  0.8044 -1.1606
 3786SOL    HW222995   4.572   0.206   0.981 -0.8746 -1.3069 -1.9679
 3787SOL     OW22996   0.091   0.879   5.619  0.8418  0.1285 -0.3671
 3787SOL    HW122997   0.049   0.922   5.694 -1.1555 -1.4674 -0.5611
 3787SOL    HW222998   0.131   0.804   5.663 -0.0837 -0.0885  0.1195
 3788SOL     OW22999   4.346   3.649  14.263  0.2046 -0.0813  0.4883
 3788SOL    HW123000   4.322   3.721  14.204 -2.4100 -1.4387 -0.0936
 3788SOL    HW223001   4.389   3.585  14.206  0.4134 -1.1729  1.8683
 3789SOL     OW23002   4.439   4.298  17.345  0.0424 -0.6179  0.6880
 3789SOL    HW123003   4.403   4.239  17.279  0.5167  0.4644 -0.5222
 3789SOL    HW223004   4.478   4.360  17.284  1.3087 -1.4903  0.6212
 3790SOL     OW23005   0.380   0.483   4.335  0.2734  0.4249  0.2000
 3790SOL    HW123006   0.364   0.391   4.314  1.8225  0.1604  0.2201
 3790SOL    HW223007   0.431   0.514   4.261 -0.6645  2.2781  0.3197
 3791SOL     OW23008   3.114   2.363   3.800 -0.5236 -0.9520 -0.2443
 3791SOL    HW123009   3.074   2.287   3.759 -0.7293 -0.7923 -0.3424
 3791SOL    HW223010   3.046   2.430   3.808  1.3766  1.3385 -3.2336
 3792SOL     OW23011   4.451   3.362   8.649 -0.1395 -0.0719  0.5336
 3792SOL    HW123012   4.427   3.324   8.734  0.0428  0.7028  0.9345
 3792SOL    HW223013   4.542   3.334   8.642 -0.3282 -0.6196  0.3530
 3793SOL     OW23014   2.049   0.645  14.550 -0.2205 -0.1918 -0.3293
 3793SOL    HW123015   2.013   0.717  14.498  0.0418 -1.1700 -1.8524
 3793SOL    HW223016   2.129   0.619  14.505  1.1094  3.1869  0.1016
 3794SOL     OW23017   1.456   4.517   5.253 -0.6503 -0.3132  0.3672
 3794SOL    HW123018   1.491   4.501   5.341 -1.5706  2.4026  1.2335
 3794SOL    HW223019   1.538   4.530   5.207 -0.5053  2.1035  1.3469
 3795SOL     OW23020   3.513   2.881   0.802  0.3355  0.0591 -0.5493
 3795SOL    HW123021   3.583   2.827   0.766  1.2584 -0.3495  1.7925
 3795SOL    HW223022   3.475   2.930   0.730 -0.3947 -0.6445 -0.6405
 3796SOL     OW23023   1.802   3.581   9.367 -0.1113  0.5702  0.5215
 3796SOL    HW123024   1.893   3.603   9.388 -0.2700  1.5468  0.1869
 3796SOL    HW223025   1.800   3.489   9.393  1.0033  0.4787  0.2719
 3797SOL     OW23026   1.339   2.986   8.400  0.3250 -0.2832 -0.4094
 3797SOL    HW123027   1.348   2.973   8.306 -1.4909  1.3658 -0.8042
 3797SOL    HW223028   1.302   2.902   8.425 -0.4794  0.0785 -0.3955
 3798SOL     OW23029   0.885   1.901   3.279  0.4514 -0.5076 -0.1397
 3798SOL    HW123030   0.903   1.921   3.371 -0.2316  3.3950 -0.8467
 3798SOL    HW223031   0.961   1.848   3.254  0.5742 -0.1877 -0.4567
 3799SOL     OW23032   0.973   3.778   0.232 -0.6161  0.0036  0.2371
 3799SOL    HW123033   0.883   3.810   0.234 -0.3027  1.0177 -2.0823
 3799SOL    HW223034   0.956   3.685   0.245 -0.5115  0.1600  1.4909
 3800SOL     OW23035   2.540   2.697   6.740  0.3981 -0.3439 -0.0696
 3800SOL    HW123036   2.599   2.663   6.807 -0.1106 -0.1653  0.4629
 3800SOL    HW223037   2.540   2.787   6.772  1.2706 -0.4091  0.0905
 3801SOL     OW23038   3.807   4.100   7.571  0.3030 -0.0007  0.2587
 3801SOL    HW123039   3.792   4.104   7.477 -1.5353 -1.1343  0.5011
 3801SOL    HW223040   3.893   4.141   7.580 -0.2457  1.3822 -0.7676
 3802SOL     OW23041   4.188   0.842   2.394  0.4856  0.4594  0.1007
 3802SOL    HW123042   4.116   0.894   2.359  0.5237  1.7014  1.8523
 3802SOL    HW223043   4.258   0.907   2.403  0.2993  0.4422  1.7270
 3803SOL     OW23044   4.050   1.596   7.659 -0.1060  0.0521  0.0502
 3803SOL    HW123045   4.097   1.671   7.622 -0.0482 -0.0623 -0.1075
 3803SOL    HW223046   4.102   1.521   7.631 -0.9949 -0.0628 -1.3109
 3804SOL     OW23047   2.080   1.007   2.262 -0.1415  0.4092  0.1362
 3804SOL    HW123048   2.146   1.015   2.193 -0.5659  0.4444 -0.2645
 3804SOL    HW223049   2.000   1.013   2.209  2.6378  0.0843 -4.1150
 3805SOL     OW23050   2.556   3.088   1.591  0.0690  0.2272 -0.2564
 3805SOL    HW123051   2.542   3.068   1.684  0.6234  0.1276 -0.1969
 3805SOL    HW223052   2.554   3.183   1.585  1.4377  0.3390  1.0684
 3806SOL     OW23053   0.847   0.274   7.570  0.3680  0.3743  0.0459
 3806SOL    HW123054   0.766   0.309   7.606 -0.5705 -0.8639 -0.8404
 3806SOL    HW223055   0.821   0.296   7.481  0.2367 -0.1238 -0.0413
 3807SOL     OW23056   3.843   3.005  11.636  0.5331  0.0048 -0.4380
 3807SOL    HW123057   3.895   3.083  11.616 -0.2447  0.4567 -0.7120
 3807SOL    HW223058   3.848   3.004  11.732  1.0475 -0.2795 -0.4678
 3808SOL     OW23059   3.737   2.284   2.771  0.0632  0.2148  0.3553
 3808SOL    HW123060   3.690   2.230   2.708 -1.3147  0.9008  0.7983
 3808SOL    HW223061   3.767   2.352   2.710 -0.3611  0.1971  0.1307
 3809SOL     OW23062   4.188   2.691  10.349 -0.1930  0.3615  0.1074
 3809SOL    HW123063   4.260   2.655  10.296 -1.1045 -1.1040 -0.1394
 3809SOL    HW223064   4.130   2.710  10.276 -0.2393  0.7144  0.2356
 3810SOL     OW23065   4.462   2.018   1.966  0.2038  0.2601  0.6067
 3810SOL    HW123066   4.511   2.037   1.886 -0.8505 -1.8722 -0.5525
 3810SOL    HW223067   4.376   2.028   1.927  0.0673 -1.8516  0.3421
 3811SOL     OW23068   1.021   3.261   1.160  0.6191 -0.4999 -0.4321
 3811SOL    HW123069   1.087   3.326   1.184 -1.6549  1.5631  0.3154
 3811SOL    HW223070   0.936   3.286   1.197  2.4046  0.4224  3.0388
 3812SOL     OW23071   0.633   1.291   4.041  0.5855  0.0793 -0.1633
 3812SOL    HW123072   0.577   1.369   4.051  0.3159 -0.0987 -0.2873
 3812SOL    HW223073   0.706   1.315   4.098  1.3408 -0.9916 -0.6874
 3813SOL     OW23074   0.735   4.205   8.278 -0.2966  0.3629 -0.3974
 3813SOL    HW123075   0.726   4.282   8.222 -1.3001 -1.1722 -2.3560
 3813SOL    HW223076   0.697   4.234   8.360 -2.2799  1.7407 -1.8269
 3814SOL     OW23077   0.668   2.285   6.268 -0.2117  0.0022 -0.4163
 3814SOL    HW123078   0.649   2.212   6.327 -1.6542  0.1759 -0.6646
 3814SOL    HW223079   0.711   2.231   6.201  1.6888 -0.6757  1.3298
 3815SOL     OW23080   0.643   2.762   9.819 -0.3273 -0.0639 -0.5254
 3815SOL    HW123081   0.566   2.717   9.854 -0.1150 -0.5385 -0.6737
 3815SOL    HW223082   0.602   2.823   9.757 -1.1230 -1.6744 -1.5719
 3816SOL     OW23083   3.171   0.386   4.667 -0.5521 -0.1925  0.3109
 3816SOL    HW123084   3.257   0.348   4.683 -0.4378 -0.8673 -1.8737
 3816SOL    HW223085   3.123   0.332   4.730 -1.3310 -0.7980 -0.7977
 3817SOL     OW23086   1.042   0.155   0.656 -0.0485  0.5485  0.9042
 3817SOL    HW123087   1.110   0.178   0.592 -2.4195  0.7586 -1.5311
 3817SOL    HW223088   1.090   0.086   0.701 -0.8963  0.3716  1.5396
 3818SOL     OW23089   3.138   3.361  14.362 -0.3325 -0.0336 -0.1039
 3818SOL    HW123090   3.113   3.300  14.431 -0.1192 -1.1725 -1.0418
 3818SOL    HW223091   3.137   3.445  14.409  1.3828  0.1717 -0.4579
 3819SOL     OW23092   3.641   3.096   2.377  0.2583  0.4603  0.5357
 3819SOL    HW123093   3.623   3.009   2.413  1.4574 -0.0753 -0.1395
 3819SOL    HW223094   3.613   3.141   2.456  0.3901 -0.4332  1.0858
 3820SOL     OW23095   2.648   0.524  17.408 -0.2745 -0.6899  0.1399
 3820SOL    HW123096   2.662   0.619  17.409 -2.4622 -0.3593  0.3610
 3820SOL    HW223097   2.667   0.507  17.316 -0.3646  0.2160 -0.0543
 3821SOL     OW23098   0.202   2.569   1.979 -0.2558 -0.2746 -0.1393
 3821SOL    HW123099   0.187   2.629   2.052 -0.4862 -0.6071  0.0851
 3821SOL    HW223100   0.279   2.611   1.939 -1.0281 -0.1364 -1.4741
 3822SOL     OW23101   1.075   0.410   7.558 -0.4443  0.5170 -0.1529
 3822SOL    HW123102   1.078   0.434   7.466  0.3909 -1.8772 -0.7508
 3822SOL    HW223103   0.992   0.361   7.565  0.3515 -0.7332  0.5899
 3823SOL     OW23104   2.676   1.193  16.177 -0.5131 -0.2648 -0.0212
 3823SOL    HW123105   2.641   1.282  16.168  0.9637  0.4106  0.8439
 3823SOL    HW223106   2.731   1.183  16.255  0.8687  1.0367 -0.8185
 3824SOL     OW23107   0.656   2.060   8.128 -0.1123 -0.0682 -0.1931
 3824SOL    HW123108   0.587   2.035   8.066 -0.7560  0.1706  0.4216
 3824SOL    HW223109   0.686   2.146   8.099 -1.4805 -0.4141 -2.6712
 3825SOL     OW23110   3.716   1.235  10.644 -0.0692 -0.1209 -0.1806
 3825SOL    HW123111   3.627   1.201  10.649  0.1568 -0.7311 -0.3786
 3825SOL    HW223112   3.703   1.322  10.683  0.2709  0.3597 -1.1282
 3826SOL     OW23113   0.643   1.792   9.139  0.6019 -0.1891 -0.0239
 3826SOL    HW123114   0.559   1.755   9.110  0.1803  1.1464 -0.5135
 3826SOL    HW223115   0.663   1.848   9.064  0.8031 -0.3717 -0.1058
 3827SOL     OW23116   0.425   0.936   7.020  0.3283 -0.2248  0.4780
 3827SOL    HW123117   0.486   1.004   7.046 -0.0587 -0.1841  1.2878
 3827SOL    HW223118   0.446   0.853   7.063  2.1809  0.3593  0.6894
 3828SOL     OW23119   1.470   1.854   7.743  0.0643  0.1913 -0.1354
 3828SOL    HW123120   1.517   1.790   7.796 -0.3760  0.1718  0.2310
 3828SOL    HW223121   1.485   1.930   7.799  1.0906  2.4020 -3.4297
 3829SOL     OW23122   4.727   4.390  17.609  0.0403  0.0884 -0.0039
 3829SOL    HW123123   4.669   4.314  17.616  0.2396 -0.1570 -1.1323
 3829SOL    HW223124   4.657   4.456  17.607  1.8198  1.9406 -0.9938
 3830SOL     OW23125   2.170   1.934   6.918 -0.4977 -0.6689 -0.6468
 3830SOL    HW123126   2.095   1.977   6.959  0.0982 -1.0918  0.9019
 3830SOL    HW223127   2.166   1.846   6.956 -0.5687 -0.3839  0.0093
 3831SOL     OW23128   2.541   1.277   2.004 -0.2364 -0.8058  0.6731
 3831SOL    HW123129   2.574   1.337   2.071 -1.4349 -0.2242  0.7305
 3831SOL    HW223130   2.617   1.275   1.946  0.8822  1.2863  2.0516
 3832SOL     OW23131   4.001   1.813   6.152 -0.1681 -0.3268  0.3444
 3832SOL    HW123132   3.936   1.744   6.168 -0.7547  0.2771  0.5550
 3832SOL    HW223133   4.031   1.842   6.238  1.4815 -3.2488  0.7481
 3833SOL     OW23134   4.281   4.046   3.092  0.7788 -0.0899 -0.0465
 3833SOL    HW123135   4.309   3.961   3.058  0.9786 -0.0811  0.0942
 3833SOL    HW223136   4.214   4.027   3.156  0.4407 -2.5485 -1.1505
 3834SOL     OW23137   2.662   0.653   9.850 -0.0713 -0.2574 -0.6285
 3834SOL    HW123138   2.592   0.716   9.832 -0.9761 -1.5308 -1.5496
 3834SOL    HW223139   2.738   0.702   9.883  0.0777 -0.4742 -0.6545
 3835SOL     OW23140   3.584   1.069  12.630  0.0832  0.4187  0.5392
 3835SOL    HW123141   3.524   1.101  12.562 -0.4369  0.5316  1.0525
 3835SOL    HW223142   3.570   1.131  12.702 -2.4193 -0.6803  1.0194
 3836SOL     OW23143   3.369   3.361   4.184  0.1977  0.3096  0.4831
 3836SOL    HW123144   3.328   3.274   4.190  3.0722 -0.9996  1.1451
 3836SOL    HW223145   3.300   3.427   4.185  0.1341  0.2369  0.8658
 3837SOL     OW23146   4.416   2.355  14.499 -0.0629 -0.0512  0.1172
 3837SOL    HW123147   4.372   2.360  14.584 -1.0712  0.6769 -0.4382
 3837SOL    HW223148   4.498   2.404  14.509 -0.1642  0.1300  0.0604
 3838SOL     OW23149   1.366   3.103   8.881 -0.0319 -0.0523 -0.4059
 3838SOL    HW123150   1.429   3.035   8.906 -1.7367 -1.4491  0.0352
 3838SOL    HW223151   1.365   3.138   8.970 -0.4584 -0.8387 -0.1066
 3839SOL     OW23152   2.341   1.034   7.221  0.5089  0.6649 -0.1653
 3839SOL    HW123153   2.384   0.954   7.191 -0.6305 -0.1157  0.2775
 3839SOL    HW223154   2.359   1.104   7.158  2.3640  1.2919  1.0640
 3840SOL     OW23155   0.135   0.538   0.095 -0.6086  0.3605 -0.6135
 3840SOL    HW123156   0.183   0.565   0.174 -0.2398  1.3161 -1.1590
 3840SOL    HW223157   0.182   0.578   0.022 -1.3616  2.1156 -0.1519
 3841SOL     OW23158   3.344   3.054   5.463 -0.9921 -0.4339  0.2037
 3841SOL    HW123159   3.431   3.093   5.459  0.1053 -2.9064  0.0059
 3841SOL    HW223160   3.339   3.028   5.555  2.1033 -0.5228  0.3192
 3842SOL     OW23161   0.628   3.063   2.068  0.3232 -0.3501  0.0295
 3842SOL    HW123162   0.577   3.119   2.009 -0.3108 -0.5157  0.4364
 3842SOL    HW223163   0.619   3.103   2.154  1.9844 -1.3757  0.6779
 3843SOL     OW23164   3.797   4.094  16.478  0.2198 -1.1723 -0.0953
 3843SOL    HW123165   3.707   4.077  16.506 -0.4216 -0.6078 -1.8369
 3843SOL    HW223166   3.832   4.020  16.528  1.7621 -0.0604  0.4478
 3844SOL     OW23167   3.246   3.938   3.783  0.3840 -0.7046  0.5360
 3844SOL    HW123168   3.253   4.033   3.786 -1.6282 -0.5229 -0.2986
 3844SOL    HW223169   3.153   3.924   3.766  0.1800 -0.6383  1.6006
 3845SOL     OW23170   1.527   1.102   2.319  0.2447  0.1552  0.6027
 3845SOL    HW123171   1.622   1.108   2.305 -0.0457 -0.3372 -1.4786
 3845SOL    HW223172   1.534   1.090   2.414 -2.6735  0.0818  0.7887
 3846SOL     OW23173   2.239   2.549   5.162 -0.3610  0.1484  0.2814
 3846SOL    HW123174   2.278   2.472   5.120 -3.1031 -0.3614 -1.3415
 3846SOL    HW223175   2.162   2.523   5.212  1.2412  0.4860  2.9457
 3847SOL     OW23176   3.121   0.594   0.311 -0.2592  0.0698  0.2833
 3847SOL    HW123177   3.088   0.675   0.352 -0.3512  0.9348 -1.5141
 3847SOL    HW223178   3.215   0.611   0.319  0.0207 -0.6203 -1.5262
 3848SOL     OW23179   1.919   3.380   5.085 -0.3402  0.1840  0.3711
 3848SOL    HW123180   1.972   3.355   5.161 -0.5560  0.3951  0.5956
 3848SOL    HW223181   1.974   3.447   5.044 -0.3409  0.8132  1.3766
 3849SOL     OW23182   2.623   0.622   6.464  0.5028 -0.0960 -0.1265
 3849SOL    HW123183   2.662   0.575   6.538  1.3958  0.7280 -0.0704
 3849SOL    HW223184   2.608   0.708   6.503  2.2876 -0.3518  1.1299
 3850SOL     OW23185   1.876   2.057   1.109 -0.0542 -0.4024 -0.2164
 3850SOL    HW123186   1.931   2.052   1.031 -0.7369  0.2589 -0.7458
 3850SOL    HW223187   1.905   1.987   1.168  1.3545 -0.6821 -1.2584
 3851SOL     OW23188   2.378   0.798   2.185 -0.2158  0.1361  0.2969
 3851SOL    HW123189   2.346   0.738   2.253 -0.8078  0.1459  0.0282
 3851SOL    HW223190   2.301   0.843   2.149 -2.0102 -3.2308 -0.0469
 3852SOL     OW23191   2.270   3.949   2.120  0.6670  0.8933  0.1695
 3852SOL    HW123192   2.288   3.992   2.203 -0.4380 -0.2409  0.9808
 3852SOL    HW223193   2.215   3.878   2.152 -1.2996  1.5301 -1.7953
 3853SOL     OW23194   3.499   3.479  17.264 -0.4863 -0.2851 -0.3989
 3853SOL    HW123195   3.496   3.443  17.353 -1.1477  0.6845 -0.0232
 3853SOL    HW223196   3.566   3.547  17.272 -1.3278  0.3071  1.7073
 3854SOL     OW23197   1.843   0.526   2.628 -0.2508 -1.2814  0.1042
 3854SOL    HW123198   1.781   0.467   2.671 -0.9490 -0.0714  0.7631
 3854SOL    HW223199   1.925   0.478   2.634 -0.2586 -1.5875 -2.3683
 3855SOL     OW23200   1.131   2.783   8.300 -0.0311 -0.0236 -0.1586
 3855SOL    HW123201   1.072   2.859   8.307 -0.2342 -0.2366  0.4517
 3855SOL    HW223202   1.188   2.807   8.227 -1.7277  0.1494 -1.4409
 3856SOL     OW23203   1.487   0.356   3.699 -0.3439 -0.3215  0.4158
 3856SOL    HW123204   1.480   0.433   3.755 -0.1629  0.5494 -0.7442
 3856SOL    HW223205   1.583   0.351   3.697 -0.4069 -0.7819 -1.9384
 3857SOL     OW23206   0.922   3.416   5.249  0.0767 -0.3244  0.1214
 3857SOL    HW123207   0.991   3.463   5.295 -0.7215  2.5088 -1.5390
 3857SOL    HW223208   0.968   3.407   5.166 -0.7178  0.7972 -0.4500
 3858SOL     OW23209   0.450   3.456   4.951 -0.3808 -0.7711  0.7136
 3858SOL    HW123210   0.385   3.463   5.020 -0.3935 -0.2701  0.6563
 3858SOL    HW223211   0.445   3.537   4.899 -1.1901  0.0724  2.0933
 3859SOL     OW23212   1.318   1.942  14.194 -0.6111 -0.0866  0.6366
 3859SOL    HW123213   1.347   2.033  14.197 -2.2358  0.4717 -0.1529
 3859SOL    HW223214   1.232   1.934  14.234  0.1714  0.4530  2.4161
 3860SOL     OW23215   3.188   0.404   3.269  0.1493  0.7289  0.3377
 3860SOL    HW123216   3.242   0.375   3.197 -0.1693  1.3690 -0.1589
 3860SOL    HW223217   3.113   0.429   3.215  0.4879  0.8997 -0.0437
 3861SOL     OW23218   0.699   4.727   2.600  0.4901  0.5244 -0.0687
 3861SOL    HW123219   0.690   0.040   2.517  2.5088  0.8850 -0.0767
 3861SOL    HW223220   0.775   4.671   2.585 -0.4797 -1.0364  0.9055
 3862SOL     OW23221   3.317   2.011  12.373  0.1096  0.5152 -0.3846
 3862SOL    HW123222   3.291   2.068  12.445  0.6468 -0.2081  0.3704
 3862SOL    HW223223   3.387   1.964  12.417  2.1377  0.2079 -3.9412
 3863SOL     OW23224   0.725   2.477  12.496  0.0135 -0.3563 -0.3637
 3863SOL    HW123225   0.684   2.438  12.419  0.8282  0.8948 -1.4290
 3863SOL    HW223226   0.776   2.399  12.518  1.2964  0.5038 -0.2579
 3864SOL     OW23227   0.053   1.785   0.487  0.3062 -0.4750 -0.7398
 3864SOL    HW123228   0.007   1.793   0.571  1.2472  2.9452 -0.5200
 3864SOL    HW223229   0.095   1.701   0.503  1.5680  0.0650 -1.1697
 3865SOL     OW23230   0.438   1.577   4.665 -0.5310 -0.3246  0.8147
 3865SOL    HW123231   0.350   1.613   4.677 -1.1494 -1.7142  0.4401
 3865SOL    HW223232   0.485   1.658   4.645  1.6089 -2.4061 -2.5573
 3866SOL     OW23233   4.115   1.474  16.535 -0.0388  0.0144 -0.3635
 3866SOL    HW123234   4.021   1.492  16.538 -0.1512 -0.6821  0.6348
 3866SOL    HW223235   4.129   1.463  16.441  4.1508 -1.6598  0.4608
 3867SOL     OW23236   4.154   0.167   6.099 -0.1701  0.2618  0.4243
 3867SOL    HW123237   4.241   0.159   6.139  0.8286  0.8030 -1.6304
 3867SOL    HW223238   4.132   0.087   6.051  0.5084 -0.5762  1.5169
 3868SOL     OW23239   3.629   3.940   7.744 -0.2856  0.0468  0.7584
 3868SOL    HW123240   3.704   3.985   7.705 -1.0448  0.4658 -0.2426
 3868SOL    HW223241   3.566   3.978   7.682  0.4303  0.1824  0.1218
 3869SOL     OW23242   0.657   0.672  16.102 -0.5754 -0.8622  0.1134
 3869SOL    HW123243   0.704   0.595  16.134  0.3277 -0.0827  0.6642
 3869SOL    HW223244   0.700   0.683  16.017  1.2436 -1.7352  0.9177
 3870SOL     OW23245   2.984   3.715  15.027  0.8461 -0.0681 -0.0160
 3870SOL    HW123246   3.002   3.782  14.962  0.3755 -0.7144 -0.8254
 3870SOL    HW223247   2.890   3.707  15.047  0.7407  2.6107  0.5193
 3871SOL     OW23248   0.230   4.583   2.929 -0.3581  0.0212  0.5834
 3871SOL    HW123249   0.308   4.609   2.976 -1.0185  1.1513  1.0477
 3871SOL    HW223250   0.191   4.670   2.919  0.8942  0.8031  2.7096
 3872SOL     OW23251   1.860   1.940   9.005  0.7552 -0.2863  0.1669
 3872SOL    HW123252   1.843   1.850   8.977  0.2225  0.3296 -1.4365
 3872SOL    HW223253   1.848   1.924   9.099 -0.5503  1.0950  0.2364
 3873SOL     OW23254   4.466   3.211   4.829  0.0673 -0.0081  0.3237
 3873SOL    HW123255   4.543   3.219   4.771  0.7717 -0.7715  1.1496
 3873SOL    HW223256   4.457   3.117   4.842  0.4931  0.2148  2.2461
 3874SOL     OW23257   2.162   0.171   5.569  0.1770 -0.4902  1.0482
 3874SOL    HW123258   2.175   0.088   5.615  1.2674 -1.0659 -0.2679
 3874SOL    HW223259   2.253   0.199   5.559 -0.0741  0.4523  1.4553
 3875SOL     OW23260   2.595   0.358   5.744  0.8198  0.3397 -0.3598
 3875SOL    HW123261   2.580   0.324   5.832  0.1104  1.1256 -0.1711
 3875SOL    HW223262   2.665   0.307   5.704  0.6228 -0.1028 -0.1390
 3876SOL     OW23263   3.691   1.769  15.091 -0.4532  0.2102  0.0356
 3876SOL    HW123264   3.678   1.733  15.004 -0.0684  0.2217 -0.0283
 3876SOL    HW223265   3.660   1.695  15.143 -1.0147  0.7905  0.5373
 3877SOL     OW23266   3.839   0.483  13.394  0.2190  0.3453  0.0606
 3877SOL    HW123267   3.792   0.494  13.476  1.8646  0.0404  1.0569
 3877SOL    HW223268   3.857   0.390  13.381  1.7067  0.5245  0.7750
 3878SOL     OW23269   1.491   1.545   6.946 -0.0332 -0.3362  0.3216
 3878SOL    HW123270   1.463   1.470   6.894  1.7653 -1.4628  0.9728
 3878SOL    HW223271   1.413   1.600   6.940  0.1607  0.1098  1.8804
 3879SOL     OW23272   2.693   2.606   2.633  0.3038  0.3012 -0.1481
 3879SOL    HW123273   2.759   2.608   2.564 -0.2658  0.0050 -0.7095
 3879SOL    HW223274   2.747   2.605   2.712 -2.2361 -3.3511  1.5590
 3880SOL     OW23275   3.246   2.425  15.659 -0.0868 -0.1210 -0.9543
 3880SOL    HW123276   3.331   2.445  15.621 -0.0065  1.0659 -0.1523
 3880SOL    HW223277   3.226   2.364  15.588  0.7272  0.1665 -1.4225
 3881SOL     OW23278   1.296   2.367   7.557  0.1797 -0.1690  0.1468
 3881SOL    HW123279   1.381   2.398   7.524 -0.7039  2.4178  0.3334
 3881SOL    HW223280   1.285   2.425   7.632 -0.3835  1.6030 -1.3011
 3882SOL     OW23281   0.885   1.397   3.661 -0.0350 -0.3181 -0.2781
 3882SOL    HW123282   0.908   1.332   3.728  0.1286 -1.1477 -1.1494
 3882SOL    HW223283   0.790   1.381   3.664  0.2520 -1.4613  2.8318
 3883SOL     OW23284   1.311   3.254  15.762 -0.2748  0.1361 -0.0382
 3883SOL    HW123285   1.405   3.241  15.768 -0.4005 -1.8936 -2.5062
 3883SOL    HW223286   1.294   3.224  15.672  0.4721  0.2549 -0.2197
 3884SOL     OW23287   3.416   1.818  16.773 -0.8756  0.0865  0.0076
 3884SOL    HW123288   3.415   1.835  16.678 -1.5738  1.3577  0.2400
 3884SOL    HW223289   3.383   1.904  16.799 -0.1305  0.6624 -0.9234
 3885SOL     OW23290   1.023   4.035   7.972  0.0717  0.2015  0.6319
 3885SOL    HW123291   0.940   4.010   8.013 -0.0035  0.4306  0.6232
 3885SOL    HW223292   1.055   4.112   8.021  0.0621 -1.3488  3.0944
 3886SOL     OW23293   0.865   0.165  16.942 -0.6451  0.4199  0.5658
 3886SOL    HW123294   0.818   0.140  16.863  1.8808 -0.8720 -0.5077
 3886SOL    HW223295   0.812   0.137  17.016 -1.2452 -1.5407 -0.6229
 3887SOL     OW23296   3.551   2.873   6.886 -0.2024 -0.6341  0.4242
 3887SOL    HW123297   3.493   2.862   6.962  1.7494 -0.0083  2.0197
 3887SOL    HW223298   3.636   2.859   6.928  0.3916  0.4562 -0.4368
 3888SOL     OW23299   0.615   4.049  13.482 -0.5623 -0.2055  0.2931
 3888SOL    HW123300   0.581   3.969  13.442  0.0666 -0.9860  1.3277
 3888SOL    HW223301   0.619   4.108  13.406  1.6827  1.9020  2.0373
 3889SOL     OW23302   2.922   0.520   5.263  0.1246 -0.1786  0.0565
 3889SOL    HW123303   2.886   0.607   5.279 -0.9014 -0.2411 -1.9899
 3889SOL    HW223304   3.001   0.522   5.316 -0.3207 -0.5391  0.7320
 3890SOL     OW23305   3.107   4.725  10.299  0.1983  0.5244 -0.1235
 3890SOL    HW123306   3.069   4.722  10.386  1.8162  3.1151  0.6698
 3890SOL    HW223307   3.032   0.028  10.253  0.0816  1.5252  0.8767
 3891SOL     OW23308   1.574   2.838   2.651 -0.3419  0.0885 -0.8403
 3891SOL    HW123309   1.577   2.930   2.676  0.0707 -0.5348  1.4391
 3891SOL    HW223310   1.485   2.810   2.675 -0.6230  0.3310 -1.6112
 3892SOL     OW23311   2.973   0.488   6.848  0.4144  0.0663  0.0160
 3892SOL    HW123312   2.887   0.494   6.891 -0.5109 -0.5205 -1.7728
 3892SOL    HW223313   3.018   0.559   6.896 -0.4070  0.0841  0.7610
 3893SOL     OW23314   2.427   4.184   7.219  0.1317  0.5605 -0.0158
 3893SOL    HW123315   2.478   4.260   7.247  0.2811  0.0811  1.0080
 3893SOL    HW223316   2.500   4.132   7.185 -2.6576 -1.8362 -2.3571
 3894SOL     OW23317   0.715   0.078  16.715  0.6755  0.5186  0.3310
 3894SOL    HW123318   0.777   0.011  16.686  2.1130  1.3992  1.4217
 3894SOL    HW223319   0.673   0.103  16.632  0.7782 -0.1524  0.0806
 3895SOL     OW23320   3.403   3.054   8.256 -0.1895 -0.4112  0.5887
 3895SOL    HW123321   3.321   3.006   8.242  0.7850 -2.1278  0.7867
 3895SOL    HW223322   3.436   3.036   8.344 -2.7766  0.9406  1.8335
 3896SOL     OW23323   2.819   1.594   7.759 -0.3017  0.5370  0.4205
 3896SOL    HW123324   2.889   1.537   7.726  0.0874 -0.1239  2.3756
 3896SOL    HW223325   2.748   1.531   7.764 -1.7355  2.1699  0.5270
 3897SOL     OW23326   4.328   0.322  16.484  0.0017  0.1301  0.3469
 3897SOL    HW123327   4.355   0.396  16.428 -2.5163  1.6492  1.1331
 3897SOL    HW223328   4.406   0.313  16.538  1.4754  0.7774 -1.6563
 3898SOL     OW23329   4.415   3.851  10.707 -0.1867  0.1975 -0.6128
 3898SOL    HW123330   4.367   3.869  10.625 -0.0288 -1.2453 -1.0203
 3898SOL    HW223331   4.369   3.906  10.770  0.7085  2.2732 -1.7448
 3899SOL     OW23332   3.502   1.335   4.744 -0.1320  0.4401 -0.3246
 3899SOL    HW123333   3.546   1.320   4.661  1.0665  0.1440  0.3564
 3899SOL    HW223334   3.471   1.421   4.716 -0.9768 -0.3189 -1.6787
 3900SOL     OW23335   2.483   3.780   1.293  0.3030  0.3023 -0.7507
 3900SOL    HW123336   2.421   3.713   1.323  0.1982  0.9262  0.4161
 3900SOL    HW223337   2.546   3.785   1.365  0.1066  2.8764 -0.7650
 3901SOL     OW23338   0.462   2.546  12.402 -0.5355  0.6158  0.0182
 3901SOL    HW123339   0.462   2.545  12.306  0.0615 -2.0598  0.0350
 3901SOL    HW223340   0.426   2.458  12.412 -0.1618  0.5482  0.7802
 3902SOL     OW23341   0.483   3.473  13.935 -0.1764 -0.5870 -0.3278
 3902SOL    HW123342   0.461   3.537  14.002 -1.1756 -0.8615 -0.3947
 3902SOL    HW223343   0.415   3.407  13.948  1.7177 -2.2238  1.3595
 3903SOL     OW23344   0.943   0.695   1.631 -0.4054 -0.0918 -0.2149
 3903SOL    HW123345   0.864   0.651   1.599 -0.7985 -0.0192  0.6622
 3903SOL    HW223346   1.000   0.632   1.585 -1.3572 -1.5232  0.5662
 3904SOL     OW23347   2.923   4.502  17.528  0.3838 -0.4217 -0.2228
 3904SOL    HW123348   2.934   4.549  17.611  2.9980  1.6633 -1.7563
 3904SOL    HW223349   3.005   4.506  17.479  0.8062 -3.2542  0.2570
 3905SOL     OW23350   2.132   1.065   2.898  0.0306  0.3795  0.1874
 3905SOL    HW123351   2.155   1.015   2.820  0.9445 -1.1272  1.4201
 3905SOL    HW223352   2.220   1.072   2.936 -0.5075 -0.2863  1.5442
 3906SOL     OW23353   1.262   0.553   7.042 -0.7287  0.6624 -0.0643
 3906SOL    HW123354   1.228   0.582   7.126 -0.0640  1.0665  0.0643
 3906SOL    HW223355   1.192   0.573   6.979 -2.7559  1.3339  2.3639
 3907SOL     OW23356   0.379   3.108   9.287 -0.1472  0.4718 -0.2273
 3907SOL    HW123357   0.451   3.166   9.311 -0.1973 -0.1665  1.4487
 3907SOL    HW223358   0.423   3.028   9.259  2.0682  1.3600  0.6834
 3908SOL     OW23359   2.086   2.085   8.309  0.1506  0.3372  0.0057
 3908SOL    HW123360   2.017   2.033   8.348 -1.2748  1.5189 -0.9247
 3908SOL    HW223361   2.086   2.055   8.218  1.8895  1.5861 -0.4058
 3909SOL     OW23362   1.944   1.866   5.892  0.0223 -0.2806 -0.5003
 3909SOL    HW123363   1.872   1.897   5.948 -1.0989 -1.0920 -1.4859
 3909SOL    HW223364   2.020   1.880   5.949  0.4940 -0.4869 -1.0765
 3910SOL     OW23365   0.705   0.569  13.269  0.0725  0.0935 -0.7621
 3910SOL    HW123366   0.773   0.553  13.335 -0.4076 -2.3516 -0.8703
 3910SOL    HW223367   0.626   0.545  13.318  2.1440  0.2601  2.6561
 3911SOL     OW23368   3.522   3.284   0.883  0.9628  0.4249  0.3854
 3911SOL    HW123369   3.434   3.260   0.910  1.7847  0.8018  3.3858
 3911SOL    HW223370   3.581   3.212   0.907  0.2760  0.1287  1.1632
 3912SOL     OW23371   1.408   3.702  16.358  0.0515 -0.0331  0.3768
 3912SOL    HW123372   1.400   3.614  16.395 -0.6764  0.4116  1.2995
 3912SOL    HW223373   1.453   3.676  16.278  0.0821 -0.2099  0.4520
 3913SOL     OW23374   4.393   1.230  10.552 -0.0743  0.0403 -0.7485
 3913SOL    HW123375   4.349   1.190  10.627 -0.9214  3.2275  0.4331
 3913SOL    HW223376   4.324   1.288  10.518 -0.5183 -1.8466 -3.1374
 3914SOL     OW23377   0.893   4.491   9.339 -0.1557 -0.3155  0.3273
 3914SOL    HW123378   0.954   4.540   9.394 -0.4573 -0.3076  0.6575
 3914SOL    HW223379   0.811   4.526   9.376  0.5188  2.0773 -0.4313
 3915SOL     OW23380   3.461   1.543   8.183 -0.0553  0.2172  0.1508
 3915SOL    HW123381   3.387   1.510   8.234 -0.0568 -0.5225 -0.3285
 3915SOL    HW223382   3.516   1.562   8.259  0.6330 -2.4750  0.3192
 3916SOL     OW23383   3.499   3.025   4.027  0.1026 -0.7375  0.0124
 3916SOL    HW123384   3.588   3.059   4.024  0.8592 -2.7877 -0.8187
 3916SOL    HW223385   3.509   2.930   4.016  0.8851 -0.8768  2.0729
 3917SOL     OW23386   1.635   4.392   8.788 -0.0662  0.6226  0.1267
 3917SOL    HW123387   1.637   4.487   8.792 -0.0724  0.6934 -1.8628
 3917SOL    HW223388   1.632   4.378   8.694 -2.2101  0.5207  0.2174
 3918SOL     OW23389   4.417   0.259   6.142 -0.3519 -0.0901 -0.1263
 3918SOL    HW123390   4.427   0.284   6.234 -0.6917  0.0474 -0.1270
 3918SOL    HW223391   4.503   0.292   6.115 -0.3286  1.5503  1.9519
 3919SOL     OW23392   0.013   3.129   0.517  0.8530  0.4389 -0.4969
 3919SOL    HW123393   0.091   3.137   0.572  0.1563  0.3828  0.4924
 3919SOL    HW223394   4.697   3.078   0.579  1.7937 -2.6718 -2.3032
 3920SOL     OW23395   2.285   3.915   7.271  0.1570  0.0858  0.1751
 3920SOL    HW123396   2.339   3.991   7.249  0.4301 -0.1499  0.0330
 3920SOL    HW223397   2.338   3.849   7.315  1.3427  0.0862 -1.2585
 3921SOL     OW23398   2.822   2.463   5.931 -0.2333  0.0488 -0.4463
 3921SOL    HW123399   2.887   2.533   5.941 -1.0376  0.3947  2.2183
 3921SOL    HW223400   2.770   2.463   6.011  0.2224  2.1973 -0.1540
 3922SOL     OW23401   3.732   1.108  15.521  0.0772 -0.3248 -0.4053
 3922SOL    HW123402   3.692   1.169  15.583  1.3964  0.6425 -0.4922
 3922SOL    HW223403   3.820   1.147  15.519  0.0608 -0.2385  0.3982
 3923SOL     OW23404   0.661   2.925   1.202 -0.0856  0.2406 -0.6409
 3923SOL    HW123405   0.712   2.852   1.237 -3.0358 -0.8510  1.3854
 3923SOL    HW223406   0.585   2.921   1.260  0.4055 -0.0691 -0.0238
 3924SOL     OW23407   0.958   0.871   9.776  0.2056  0.3196 -0.1384
 3924SOL    HW123408   1.038   0.824   9.754  0.8894  0.7938  1.3484
 3924SOL    HW223409   0.972   0.949   9.722  2.1120 -0.4571 -0.7566
 3925SOL     OW23410   0.185   3.945   3.395  0.0762  0.3062  0.0234
 3925SOL    HW123411   0.213   3.905   3.477  0.3673  1.2059  0.3647
 3925SOL    HW223412   0.165   4.030   3.434 -0.0471 -0.7816  2.3093
 3926SOL     OW23413   2.937   3.402   2.522 -0.5278  0.6210 -0.3783
 3926SOL    HW123414   2.966   3.480   2.474  0.5405  0.5466  0.1471
 3926SOL    HW223415   2.843   3.420   2.532 -0.7617 -2.1333  2.0998
 3927SOL     OW23416   0.671   0.792   4.118 -0.6608  0.3841  0.2645
 3927SOL    HW123417   0.753   0.771   4.164 -0.5366  0.8931  0.2805
 3927SOL    HW223418   0.639   0.873   4.159  2.6827  1.4148  0.9104
 3928SOL     OW23419   3.704   1.166   2.051 -0.3147 -0.3418  0.7762
 3928SOL    HW123420   3.610   1.174   2.070 -0.8543 -0.9352 -1.7187
 3928SOL    HW223421   3.708   1.082   2.005  0.2345  1.4524 -2.4180
 3929SOL     OW23422   3.311   0.665   5.865 -0.3193 -0.2283 -0.3657
 3929SOL    HW123423   3.336   0.575   5.843 -2.5377 -0.7300 -0.8848
 3929SOL    HW223424   3.375   0.716   5.815 -1.1459  0.3702 -0.8085
 3930SOL     OW23425   0.111   1.306   5.447 -0.0068  0.0978 -0.0381
 3930SOL    HW123426   0.025   1.319   5.487  0.5508  0.9259  0.8734
 3930SOL    HW223427   0.157   1.362   5.510  1.3475 -1.1666  0.0971
 3931SOL     OW23428   2.106   3.456   4.393  0.1986  0.4434 -0.4510
 3931SOL    HW123429   2.015   3.424   4.392 -0.3267  1.9639 -0.9396
 3931SOL    HW223430   2.125   3.471   4.300 -1.8541  2.1716 -0.5939
 3932SOL     OW23431   4.103   3.765   8.071 -0.1679  0.1714  0.1531
 3932SOL    HW123432   4.106   3.854   8.105  0.3725 -0.4188  1.6875
 3932SOL    HW223433   4.156   3.777   7.992 -0.2882 -0.6460 -0.0573
 3933SOL     OW23434   3.718   2.890   7.260 -0.2444  0.0331 -0.6802
 3933SOL    HW123435   3.803   2.853   7.286 -0.2018  0.2974 -0.4344
 3933SOL    HW223436   3.698   2.950   7.332 -2.9330 -1.7409  0.0749
 3934SOL     OW23437   3.101   1.862   1.831  0.0857  0.1262  0.2728
 3934SOL    HW123438   3.023   1.807   1.837 -0.6453  1.0054 -1.1670
 3934SOL    HW223439   3.134   1.836   1.745 -0.2876 -2.0118  0.7866
 3935SOL     OW23440   1.267   1.519  15.892 -0.2176 -0.4112  0.2543
 3935SOL    HW123441   1.273   1.514  15.988  2.1360 -2.6240  0.0144
 3935SOL    HW223442   1.293   1.430  15.867 -0.8202  0.0805 -2.0865
 3936SOL     OW23443   2.633   0.934   4.153 -0.1989 -0.4057  0.0999
 3936SOL    HW123444   2.606   1.025   4.166 -0.7934 -0.6105  0.2946
 3936SOL    HW223445   2.570   0.912   4.085 -0.4252 -1.8165  0.7601
 3937SOL     OW23446   0.962   0.883   3.123 -0.1357  0.0302 -0.0009
 3937SOL    HW123447   0.947   0.952   3.058 -1.6419  0.4464  0.7976
 3937SOL    HW223448   1.055   0.862   3.119 -0.3703 -1.4749  2.4008
 3938SOL     OW23449   1.029   2.826   3.499 -0.0663  0.2746 -0.0582
 3938SOL    HW123450   1.011   2.734   3.480  4.0387 -0.2421 -1.4510
 3938SOL    HW223451   0.971   2.832   3.575 -1.3034 -1.3877 -0.8718
 3939SOL     OW23452   1.209   4.396   8.857 -0.2133 -0.1932 -0.3686
 3939SOL    HW123453   1.270   4.371   8.926 -0.5520  2.5727  0.9129
 3939SOL    HW223454   1.263   4.407   8.778 -1.5144 -2.3295 -1.5553
 3940SOL     OW23455   3.161   1.982   8.374  0.0383 -0.6473 -0.0225
 3940SOL    HW123456   3.099   2.024   8.433  1.6796  3.1022 -0.9436
 3940SOL    HW223457   3.169   1.910   8.436  0.6675  0.2654  0.9393
 3941SOL     OW23458   3.966   0.887  12.020 -0.0128  0.3014  0.1759
 3941SOL    HW123459   3.893   0.935  11.980  0.5844  0.7181 -0.3919
 3941SOL    HW223460   3.945   0.797  11.995  3.2069  0.3590 -2.6801
 3942SOL     OW23461   1.973   1.843   3.815  0.1294 -0.0758  0.0410
 3942SOL    HW123462   2.026   1.799   3.882  1.1632 -0.2512 -0.8919
 3942SOL    HW223463   2.013   1.800   3.740 -0.1197 -0.1005 -0.0783
 3943SOL     OW23464   2.992   1.768   0.218 -0.6503  0.1831 -0.3652
 3943SOL    HW123465   2.896   1.763   0.223 -0.5027 -1.7989  0.4824
 3943SOL    HW223466   2.995   1.852   0.172 -2.3853  0.3251 -0.2449
 3944SOL     OW23467   4.324   0.182  17.538  0.0112  0.1515 -0.2595
 3944SOL    HW123468   4.303   0.275  17.525 -3.6066 -0.2268  2.9432
 3944SOL    HW223469   4.415   0.185  17.568  0.4149 -1.2691 -1.3613
 3945SOL     OW23470   2.689   4.085   6.627 -0.2917  1.0169 -0.4090
 3945SOL    HW123471   2.777   4.061   6.657  0.0310  1.1495 -1.2539
 3945SOL    HW223472   2.640   4.030   6.688  1.5472  0.1169  0.2586
 3946SOL     OW23473   4.325   1.568   6.029  0.2745  0.1550 -0.7163
 3946SOL    HW123474   4.391   1.627   6.066 -0.0765 -0.5096  0.9525
 3946SOL    HW223475   4.361   1.552   5.942  2.4044  0.8074  0.0367
 3947SOL     OW23476   1.409   4.628   7.215  0.4992 -0.0477 -0.1552
 3947SOL    HW123477   1.469   4.658   7.282 -1.9060  0.8910  1.5689
 3947SOL    HW223478   1.376   4.551   7.262 -0.0644  0.3743  0.1352
 3948SOL     OW23479   0.194   4.016   6.123 -0.0560  0.1613 -0.5650
 3948SOL    HW123480   0.261   3.982   6.064 -0.7635  2.3674 -2.6679
 3948SOL    HW223481   0.205   4.110   6.114  2.1177  0.0391  0.7749
 3949SOL     OW23482   4.402   1.352   9.260  0.0450  0.6565 -0.2028
 3949SOL    HW123483   4.413   1.401   9.341 -1.2318 -0.3216  0.5586
 3949SOL    HW223484   4.432   1.270   9.299  0.8776 -0.2081 -2.6660
 3950SOL     OW23485   2.019   0.672   6.412  0.5804 -0.0323 -0.1532
 3950SOL    HW123486   2.000   0.706   6.324 -0.3381 -3.2163 -1.1895
 3950SOL    HW223487   1.994   0.754   6.456  1.2473  0.3844 -0.5617
 3951SOL     OW23488   1.235   1.683  15.661  0.3985  0.2992  0.0002
 3951SOL    HW123489   1.263   1.765  15.701  1.8263  0.6983 -1.7954
 3951SOL    HW223490   1.269   1.627  15.731 -2.2704  0.0048  1.0454
 3952SOL     OW23491   2.771   0.504  17.669  0.7169  0.7667  0.1144
 3952SOL    HW123492   2.755   0.494  17.575  3.5334 -0.4760 -0.2471
 3952SOL    HW223493   2.708   0.441  17.705  1.8586  1.4107  3.2175
 3953SOL     OW23494   3.173   0.583   7.799 -0.2292 -0.0554 -0.5240
 3953SOL    HW123495   3.122   0.528   7.860  0.0131  0.2260 -0.0638
 3953SOL    HW223496   3.103   0.637   7.763  0.1572  1.3196  0.7872
 3954SOL     OW23497   0.956   3.852   3.704 -0.0413  0.0983  0.6726
 3954SOL    HW123498   0.919   3.805   3.779 -1.7798 -0.6272 -0.6363
 3954SOL    HW223499   1.027   3.892   3.755  1.3717 -0.0423 -1.1524
 3955SOL     OW23500   0.741   3.062   2.354 -0.4438  0.1306  0.2050
 3955SOL    HW123501   0.730   3.120   2.429  0.5115 -0.5077  0.8467
 3955SOL    HW223502   0.836   3.051   2.351  0.0237  3.8371  1.3166
 3956SOL     OW23503   4.551   0.564   7.703 -0.2500  0.2892  0.4674
 3956SOL    HW123504   4.506   0.633   7.752  0.8891  1.1598  0.3121
 3956SOL    HW223505   4.571   0.495   7.766 -0.2812  1.1173  1.3791
 3957SOL     OW23506   1.971   2.373  17.389  0.1264 -0.3568 -0.3911
 3957SOL    HW123507   1.901   2.327  17.436  0.5348 -1.2358 -0.6537
 3957SOL    HW223508   1.940   2.463  17.397 -0.0749 -0.1598 -3.0877
 3958SOL     OW23509   4.247   4.674   3.532 -0.2892 -0.1424  0.2080
 3958SOL    HW123510   4.200   4.597   3.562  0.1560 -0.6442 -0.4027
 3958SOL    HW223511   4.250   4.715   3.619 -0.2717 -0.8469  0.5340
 3959SOL     OW23512   3.907   2.438  11.966 -0.0721 -0.3291 -0.2209
 3959SOL    HW123513   3.946   2.401  11.887 -0.5285 -2.5607  0.5692
 3959SOL    HW223514   3.985   2.434  12.022 -0.9438  0.2007  1.0442
 3960SOL     OW23515   2.719   1.265   4.288 -0.5356  0.3660  0.9961
 3960SOL    HW123516   2.690   1.179   4.257  0.0783  0.1610  0.9939
 3960SOL    HW223517   2.738   1.248   4.380  0.0863  0.5371  0.9009
 3961SOL     OW23518   0.954   3.978  12.846 -0.0354 -0.1244  0.1849
 3961SOL    HW123519   1.037   4.022  12.825  0.5973 -1.9097 -1.1079
 3961SOL    HW223520   0.985   3.891  12.819 -0.9734 -1.4161  3.3427
 3962SOL     OW23521   1.817   4.221   0.982  0.5860  0.6523 -0.8985
 3962SOL    HW123522   1.811   4.193   1.073  0.1314 -2.0306 -1.7684
 3962SOL    HW223523   1.910   4.237   0.970  0.9550 -1.3037 -0.5407
 3963SOL     OW23524   3.413   0.275   1.065 -0.3951 -0.4477 -0.1435
 3963SOL    HW123525   3.404   0.293   0.971 -1.9941 -0.5725 -0.0246
 3963SOL    HW223526   3.343   0.218   1.096 -1.5824 -0.3002 -2.5418
 3964SOL     OW23527   2.307   0.997   2.695  0.3504 -0.2884 -0.1888
 3964SOL    HW123528   2.339   0.914   2.660  0.6969 -0.0129 -0.5266
 3964SOL    HW223529   2.333   1.059   2.627 -2.6057 -2.5107 -3.3465
 3965SOL     OW23530   2.348   1.536   8.322  0.4637  0.7874 -0.9169
 3965SOL    HW123531   2.267   1.483   8.323  0.6484  0.5027 -1.0388
 3965SOL    HW223532   2.392   1.498   8.246  0.0740  0.8317 -1.1682
 3966SOL     OW23533   2.473   2.688   6.483  0.2705  0.1644 -0.8108
 3966SOL    HW123534   2.498   2.597   6.473  0.1868  0.1101 -0.5296
 3966SOL    HW223535   2.489   2.693   6.577  0.4418 -4.0486 -0.6337
 3967SOL     OW23536   1.782   2.962   5.713 -0.6402  0.2409 -0.1474
 3967SOL    HW123537   1.813   3.023   5.780 -2.7562 -0.1498  1.2011
 3967SOL    HW223538   1.748   3.015   5.641  0.6115 -1.4468 -1.9517
 3968SOL     OW23539   0.643   3.454   6.410  0.2145 -0.2305  0.8888
 3968SOL    HW123540   0.720   3.472   6.357 -0.5853 -0.4066 -0.3412
 3968SOL    HW223541   0.569   3.473   6.353  0.6654  3.4332  1.5454
 3969SOL     OW23542   1.329   0.582   6.368  0.2659 -0.0083 -0.7106
 3969SOL    HW123543   1.268   0.649   6.337  0.0782 -0.5618 -1.5519
 3969SOL    HW223544   1.400   0.633   6.407 -1.3519  1.1370  0.7223
 3970SOL     OW23545   3.746   2.462   1.175  0.6014 -0.0989  0.2432
 3970SOL    HW123546   3.774   2.436   1.087  0.6578 -0.8011  0.4620
 3970SOL    HW223547   3.689   2.536   1.157 -1.2015 -1.5510 -0.0974
 3971SOL     OW23548   3.420   0.687   5.334  0.5792 -0.1012  0.1126
 3971SOL    HW123549   3.469   0.681   5.416  1.0289  1.5625 -0.0374
 3971SOL    HW223550   3.468   0.629   5.274  2.1655 -1.5164  2.7418
 3972SOL     OW23551   0.579   2.988  16.751  0.1727 -0.4840  0.4021
 3972SOL    HW123552   0.638   2.943  16.812 -2.5540 -2.5716  1.4688
 3972SOL    HW223553   0.560   2.919  16.687  0.7035  1.2035 -1.5703
 3973SOL     OW23554   1.137   1.940  17.600  0.1799  0.3840  0.0530
 3973SOL    HW123555   1.088   1.929  17.681 -0.3673  1.3117 -0.1441
 3973SOL    HW223556   1.071   1.934  17.531  1.1033  0.7383 -0.8781
 3974SOL     OW23557   3.942   4.151  17.704 -0.0068 -0.2558  0.3082
 3974SOL    HW123558   3.881   4.220  17.677  1.0826  0.1008 -1.2339
 3974SOL    HW223559   3.938   4.090  17.630  0.1391  0.5539 -0.3651
 3975SOL     OW23560   2.237   4.676   2.291  0.2857  0.1457 -0.0237
 3975SOL    HW123561   2.240   4.611   2.220 -2.9053 -1.2693  1.1303
 3975SOL    HW223562   2.260   0.022   2.245 -0.0288  0.2154 -0.0605
 3976SOL     OW23563   1.486   2.080  10.851 -0.6985  0.2262  0.3174
 3976SOL    HW123564   1.469   2.053  10.761  0.3447  0.4584  0.0521
 3976SOL    HW223565   1.580   2.065  10.859 -0.4198  0.7873 -1.7799
 3977SOL     OW23566   3.989   0.350   3.201  0.3917 -0.2828 -0.5259
 3977SOL    HW123567   4.038   0.279   3.241  0.7707  0.9722  1.2083
 3977SOL    HW223568   4.044   0.378   3.127 -0.3656 -1.7963 -1.6625
 3978SOL     OW23569   1.086   2.455  14.821 -0.5581  0.2599  0.8134
 3978SOL    HW123570   1.068   2.522  14.754  0.3738  0.5895  0.8984
 3978SOL    HW223571   1.012   2.468  14.880  0.1082 -1.3447  2.0113
 3979SOL     OW23572   3.386   2.606   9.942 -0.0956  0.4845  0.0238
 3979SOL    HW123573   3.471   2.642   9.920  0.8658 -0.9073  1.4412
 3979SOL    HW223574   3.413   2.553  10.018 -1.4328  1.0413  0.9034
 3980SOL     OW23575   2.737   4.698   6.117  0.0930  0.0162  0.3052
 3980SOL    HW123576   2.671   4.629   6.107 -0.2904  0.0477  2.7291
 3980SOL    HW223577   2.724   4.721   6.209 -2.0925 -1.7582  0.4479
 3981SOL     OW23578   0.648   0.247   9.488 -0.1379  0.1013  0.7700
 3981SOL    HW123579   0.591   0.276   9.559 -0.8611  1.2302 -0.2558
 3981SOL    HW223580   0.603   0.285   9.413 -1.3733 -1.3232  0.7931
 3982SOL     OW23581   1.201   4.356   6.718 -0.4141 -0.1776  0.0343
 3982SOL    HW123582   1.108   4.377   6.728 -0.2285  0.5123  0.3300
 3982SOL    HW223583   1.233   4.432   6.768  0.8259 -0.1952 -0.7387
 3983SOL     OW23584   4.102   4.121   4.189 -0.7549  0.5657 -0.5679
 3983SOL    HW123585   4.016   4.090   4.159 -0.5761  0.5949 -1.1151
 3983SOL    HW223586   4.096   4.216   4.183  0.4770  0.6151 -0.9585
 3984SOL     OW23587   2.011   3.085  17.556  0.2292 -0.0648 -0.8046
 3984SOL    HW123588   1.960   3.145  17.612 -2.4139 -3.2362  0.1786
 3984SOL    HW223589   2.013   3.008  17.613 -0.0782  0.5256  0.0156
 3985SOL     OW23590   3.294   0.131   0.809  0.7767 -0.0311  0.1897
 3985SOL    HW123591   3.281   0.154   0.717  1.0449 -0.1446  0.1237
 3985SOL    HW223592   3.202   0.104   0.820  0.1508  1.4535 -1.4815
 3986SOL     OW23593   3.946   0.953   2.324 -0.1875  0.2325 -0.9236
 3986SOL    HW123594   3.982   0.972   2.238 -1.2292  0.6145 -1.2795
 3986SOL    HW223595   3.852   0.945   2.304 -0.1169 -0.4867 -0.9533
 3987SOL     OW23596   2.717   2.311  12.971 -0.3161 -1.0447 -0.5103
 3987SOL    HW123597   2.761   2.227  12.986 -1.6649 -1.6984 -0.2318
 3987SOL    HW223598   2.784   2.356  12.919 -0.4216 -0.3280 -0.0288
 3988SOL     OW23599   4.660   3.388  15.403 -0.1263  0.5288  0.2500
 3988SOL    HW123600   4.717   3.403  15.328 -0.1561 -0.0461  0.1099
 3988SOL    HW223601   4.710   3.317  15.444 -1.8446 -1.7586 -1.6222
 3989SOL     OW23602   2.145   2.126   3.208 -0.5975 -0.0764  0.1901
 3989SOL    HW123603   2.085   2.196   3.181  0.1102  0.4126 -0.1149
 3989SOL    HW223604   2.102   2.044   3.187  0.2754 -0.3849 -0.3957
 3990SOL     OW23605   4.629   1.526  13.016  0.5631  0.1860  0.7867
 3990SOL    HW123606   4.604   1.500  13.105 -0.2174 -0.9925  0.2205
 3990SOL    HW223607   4.551   1.494  12.971  2.0330  0.0068 -1.6210
 3991SOL     OW23608   1.017   1.819   8.882 -0.4718 -0.3087  0.2487
 3991SOL    HW123609   1.026   1.724   8.892  0.7151 -0.2268 -0.0487
 3991SOL    HW223610   0.943   1.830   8.822  0.3778 -0.7165 -0.8691
 3992SOL     OW23611   2.019   4.610  17.337 -0.0765  0.1970  0.6655
 3992SOL    HW123612   2.104   4.646  17.362 -0.1154  0.7033  0.0704
 3992SOL    HW223613   1.992   4.567  17.418  3.2308 -0.6264  1.3257
 3993SOL     OW23614   4.014   0.808  15.566 -0.1733 -0.5270 -0.2611
 3993SOL    HW123615   4.030   0.751  15.641  0.6572 -0.2730 -0.2495
 3993SOL    HW223616   4.080   0.878  15.566 -1.2034  0.4420 -1.0150
 3994SOL     OW23617   0.975   4.256   5.873 -0.6027  0.0596 -0.5430
 3994SOL    HW123618   0.992   4.238   5.965 -1.8048 -1.6409 -0.6465
 3994SOL    HW223619   1.055   4.301   5.844  0.5476 -2.4256 -1.1645
 3995SOL     OW23620   0.758   2.531  15.999  0.2732  0.1665  0.0909
 3995SOL    HW123621   0.699   2.596  15.961 -1.7450 -2.4040 -1.1417
 3995SOL    HW223622   0.695   2.466  16.032 -0.8310  1.5500  0.7188
 3996SOL     OW23623   0.353   1.473   2.635  0.0553  0.0037 -0.5774
 3996SOL    HW123624   0.329   1.564   2.654 -0.9340  0.3440 -3.5294
 3996SOL    HW223625   0.444   1.487   2.611  0.5512  1.9903  2.4227
 3997SOL     OW23626   1.911   0.045  15.576  0.2267  0.6102  0.6491
 3997SOL    HW123627   1.824   0.085  15.566  0.0650  0.0591 -0.2069
 3997SOL    HW223628   1.959   0.113  15.528 -0.6696  0.2823 -0.7253
 3998SOL     OW23629   0.711   4.240   3.072  0.3224 -0.9400 -0.0672
 3998SOL    HW123630   0.649   4.249   2.999 -0.2746 -0.8895  0.4506
 3998SOL    HW223631   0.672   4.298   3.137  0.1334 -0.4766 -0.5945
 3999SOL     OW23632   1.531   0.403  10.035 -0.5165  0.3705 -0.5667
 3999SOL    HW123633   1.500   0.333   9.977 -0.0307 -0.8249  0.6262
 3999SOL    HW223634   1.608   0.433   9.985 -0.5767  0.5915 -0.5258
 4000SOL     OW23635   0.575   3.590   0.298  0.3794  0.1009  0.0923
 4000SOL    HW123636   0.643   3.656   0.295  0.4062  0.0246 -0.8347
 4000SOL    HW223637   0.521   3.618   0.224 -1.3085  0.0743  1.3056
 4001SOL     OW23638   4.591   1.730   4.882  0.6032  0.1779  0.3823
 4001SOL    HW123639   4.653   1.658   4.880  2.4158  1.7462 -0.2367
 4001SOL    HW223640   4.637   1.789   4.822  0.5193  1.7872  1.8967
 4002SOL     OW23641   0.035   1.194  16.980 -0.3216  0.2715  0.1816
 4002SOL    HW123642   0.049   1.196  16.885 -2.7704  2.4555 -0.1396
 4002SOL    HW223643   4.693   1.137  16.968  1.1856 -0.9873 -3.3812
 4003SOL     OW23644   2.260   1.333   0.545 -0.9190  0.1270  0.4231
 4003SOL    HW123645   2.356   1.333   0.540 -0.9275  0.9928  0.1630
 4003SOL    HW223646   2.241   1.427   0.547 -0.0679  0.3384 -1.1481
 4004SOL     OW23647   0.843   4.707  11.981 -0.0985  0.3082 -0.6946
 4004SOL    HW123648   0.838   0.040  12.049  0.3863  0.7532 -1.0974
 4004SOL    HW223649   0.773   4.645  12.001  0.9818 -0.3419  1.0917
 4005SOL     OW23650   2.061   0.129  10.487 -0.2838 -0.1518 -0.1089
 4005SOL    HW123651   2.050   0.093  10.575  0.5618 -1.1520 -0.4138
 4005SOL    HW223652   2.022   0.068  10.424  1.2848  0.9974 -2.1872
 4006SOL     OW23653   0.005   1.060  12.390 -0.0842  0.3819  0.0690
 4006SOL    HW123654   0.062   0.987  12.414 -0.9950 -0.0754  0.8534
 4006SOL    HW223655   0.067   1.124  12.425 -1.8117  2.9352 -1.5749
 4007SOL     OW23656   0.010   0.528   9.307 -0.0511  0.7235 -0.0086
 4007SOL    HW123657   0.079   0.470   9.275  0.1061  1.7447 -1.5172
 4007SOL    HW223658   0.022   0.583   9.229 -0.3655  0.9543  0.1034
 4008SOL     OW23659   1.185   3.356   7.028 -0.4714  0.6165  0.2887
 4008SOL    HW123660   1.191   3.366   7.123 -1.3628 -0.3453  0.4468
 4008SOL    HW223661   1.105   3.404   7.008 -1.6436 -1.9303 -1.0503
 4009SOL     OW23662   2.591   3.050   2.315  0.1070  0.1954  0.0028
 4009SOL    HW123663   2.644   3.025   2.239  1.3901 -1.0081  1.2984
 4009SOL    HW223664   2.649   3.031   2.389  0.2875 -2.5223 -0.8387
 4010SOL     OW23665   2.464   0.798   7.147 -0.4263  0.4549  0.0942
 4010SOL    HW123666   2.402   0.757   7.087 -1.5789  1.2257  0.7581
 4010SOL    HW223667   2.497   0.716   7.182 -1.7961 -1.7445 -3.7147
 4011SOL     OW23668   3.596   1.358  16.189  0.0429  0.6921 -0.1570
 4011SOL    HW123669   3.572   1.277  16.235  0.2269 -0.8388 -2.7348
 4011SOL    HW223670   3.684   1.334  16.159 -1.0043 -2.8018 -0.4721
 4012SOL     OW23671   2.704   0.546   3.501  0.3244 -0.1310 -0.4513
 4012SOL    HW123672   2.781   0.596   3.529  0.2796 -1.4022  1.8895
 4012SOL    HW223673   2.749   0.463   3.487 -0.0196 -0.1025 -1.7554
 4013SOL     OW23674   4.165   4.702   1.152 -0.1173  0.5643  0.4031
 4013SOL    HW123675   4.203   4.697   1.240  0.1611  1.9722  0.3695
 4013SOL    HW223676   4.170   0.063   1.143 -1.6357  0.7290  1.2517
 4014SOL     OW23677   0.430   1.143   7.993  0.1827  0.5663 -0.1576
 4014SOL    HW123678   0.337   1.137   8.017  0.1885 -0.4880 -0.4072
 4014SOL    HW223679   0.476   1.101   8.066  1.7324  1.2927 -0.7231
 4015SOL     OW23680   0.669   2.013   4.513 -0.0276 -0.4163 -0.1218
 4015SOL    HW123681   0.714   2.068   4.449 -0.9611 -0.4704 -0.8251
 4015SOL    HW223682   0.649   2.080   4.579  0.3983 -2.0313  1.6690
 4016SOL     OW23683   3.504   3.860   1.770  0.4021  0.0308 -0.7447
 4016SOL    HW123684   3.476   3.935   1.717  0.1530  0.5617  0.1387
 4016SOL    HW223685   3.444   3.793   1.738 -0.0589 -0.2844  0.7971
 4017SOL     OW23686   1.520   1.929   4.732 -0.4671  0.0222  0.2515
 4017SOL    HW123687   1.551   1.892   4.814  0.5692 -1.6935 -0.9022
 4017SOL    HW223688   1.427   1.912   4.743 -0.1842 -1.4841  0.4173
 4018SOL     OW23689   3.719   0.971   7.133 -0.0248 -0.2605  0.4916
 4018SOL    HW123690   3.725   0.910   7.059  3.4203 -1.1562  1.5187
 4018SOL    HW223691   3.719   1.053   7.083 -1.6418 -0.2315  0.5344
 4019SOL     OW23692   2.191   0.606   4.023 -0.8953  0.2163  0.1244
 4019SOL    HW123693   2.248   0.539   4.062  0.2673  0.4931 -1.0734
 4019SOL    HW223694   2.228   0.688   4.057 -0.9395  0.5504 -0.6306
 4020SOL     OW23695   1.225   3.281   4.407 -0.0559 -0.0477  0.3432
 4020SOL    HW123696   1.294   3.215   4.417 -0.8902 -1.0882 -0.7933
 4020SOL    HW223697   1.268   3.338   4.343 -0.3132 -0.9453 -0.6361
 4021SOL     OW23698   3.112   1.356   7.174  0.2298 -0.1544 -0.1749
 4021SOL    HW123699   3.072   1.271   7.159  1.4064 -0.6125 -0.7052
 4021SOL    HW223700   3.066   1.403   7.105 -0.7472  0.5686  0.9634
 4022SOL     OW23701   0.734   4.250   4.555  0.2336  0.0754 -0.0818
 4022SOL    HW123702   0.758   4.191   4.483 -2.3380  0.2606 -1.0631
 4022SOL    HW223703   0.697   4.327   4.512 -2.4032 -2.2290 -1.9707
 4023SOL     OW23704   2.698   2.128   5.119 -0.2624 -0.2899 -0.4956
 4023SOL    HW123705   2.637   2.200   5.137 -1.7814 -1.8889  0.7230
 4023SOL    HW223706   2.775   2.185   5.119 -0.2929 -0.2476 -0.8066
 4024SOL     OW23707   2.421   0.080   8.396  0.1009 -0.0020 -0.5773
 4024SOL    HW123708   2.484   0.083   8.469 -0.4981 -1.5634 -0.0080
 4024SOL    HW223709   2.359   0.142   8.434  2.3131  2.3339 -0.7670
 4025SOL     OW23710   2.071   1.672   0.449  0.1572 -0.3671 -0.2269
 4025SOL    HW123711   2.022   1.596   0.418  0.1629 -0.4237 -0.0929
 4025SOL    HW223712   2.123   1.694   0.371 -1.2287  0.4467 -0.9391
 4026SOL     OW23713   2.885   0.302   1.597  0.8576 -0.1823 -0.2555
 4026SOL    HW123714   2.910   0.381   1.548 -0.2540 -0.1944 -0.8294
 4026SOL    HW223715   2.798   0.282   1.564 -0.3757  2.7954  1.2831
 4027SOL     OW23716   1.923   1.184   7.603  0.0599  0.0173 -0.4807
 4027SOL    HW123717   1.921   1.278   7.588  1.1893 -0.0605 -1.0910
 4027SOL    HW223718   2.008   1.163   7.565  0.4671  1.0381 -0.1295
 4028SOL     OW23719   0.404   2.295   6.565  0.7560  0.0012  0.1818
 4028SOL    HW123720   0.313   2.277   6.587  0.1738  0.9434 -1.3992
 4028SOL    HW223721   0.396   2.386   6.534  0.7415  0.1779  0.6931
 4029SOL     OW23722   0.865   3.506   5.603 -0.2805  0.0908  0.1450
 4029SOL    HW123723   0.830   3.426   5.643  1.5308 -0.4226  0.6836
 4029SOL    HW223724   0.932   3.533   5.665 -0.5077  2.4603 -0.6396
 4030SOL     OW23725   4.667   1.252   9.170 -0.4404  0.5102 -0.4184
 4030SOL    HW123726   4.619   1.331   9.195 -2.2998 -0.6740 -0.2677
 4030SOL    HW223727   4.617   1.186   9.216 -0.2312  1.3008  0.9411
 4031SOL     OW23728   1.372   3.683   2.943  0.5923 -0.2759  0.3462
 4031SOL    HW123729   1.346   3.593   2.922 -1.7738  0.5431 -0.2098
 4031SOL    HW223730   1.339   3.685   3.032  0.8847  1.6765  0.4154
 4032SOL     OW23731   4.390   0.396   6.629  0.0634 -0.2107  0.2191
 4032SOL    HW123732   4.457   0.371   6.565 -0.2926 -0.4439 -0.0621
 4032SOL    HW223733   4.438   0.364   6.705  0.8884  0.6321  0.0641
 4033SOL     OW23734   3.737   0.839   5.309  0.5444  0.9722  0.4933
 4033SOL    HW123735   3.783   0.783   5.246 -0.4424  1.6526 -0.8133
 4033SOL    HW223736   3.724   0.909   5.245  0.9049  2.1415  1.7088
 4034SOL     OW23737   2.911   2.704  14.321  0.2776 -0.1373  0.0222
 4034SOL    HW123738   2.846   2.683  14.253 -0.9397  0.0522  1.1203
 4034SOL    HW223739   2.952   2.783  14.286 -0.0522  0.8189  1.7865
 4035SOL     OW23740   0.417   2.640   4.996  0.1528 -0.0967 -0.5108
 4035SOL    HW123741   0.327   2.654   4.965  0.1574 -1.1477 -1.0027
 4035SOL    HW223742   0.443   2.556   4.958 -2.9622 -0.8064 -1.0761
 4036SOL     OW23743   4.144   0.612   5.569 -0.8180  0.9990  0.1759
 4036SOL    HW123744   4.139   0.591   5.476  0.1396 -0.8718  0.5447
 4036SOL    HW223745   4.128   0.530   5.616 -2.1995 -0.8043 -3.5383
 4037SOL     OW23746   4.162   1.247   1.565  0.1774  0.3616 -0.7048
 4037SOL    HW123747   4.250   1.212   1.578 -1.4374 -3.3191  0.5277
 4037SOL    HW223748   4.179   1.340   1.551  0.2226  0.3175 -0.9514
 4038SOL     OW23749   3.919   1.843  14.863 -0.6278 -0.2500  0.1419
 4038SOL    HW123750   3.914   1.760  14.910 -0.4682  0.2616  1.0747
 4038SOL    HW223751   3.994   1.888  14.903 -0.3962 -1.4078  0.9979
 4039SOL     OW23752   1.448   0.144   0.974  0.1610  0.1474 -0.0562
 4039SOL    HW123753   1.407   0.079   0.917  2.3518 -0.6594 -0.6987
 4039SOL    HW223754   1.542   0.132   0.959  0.0310 -0.9662 -0.0029
 4040SOL     OW23755   4.288   0.080  16.674  0.1029  0.3595 -0.1109
 4040SOL    HW123756   4.263   0.015  16.609  1.3737 -0.5553  0.2906
 4040SOL    HW223757   4.347   0.137  16.626  0.3505  0.9676  0.9202
 4041SOL     OW23758   2.536   0.076   6.902  0.1593 -1.0871  0.0023
 4041SOL    HW123759   2.525   0.063   6.808  1.8419  0.0046 -0.3370
 4041SOL    HW223760   2.623   0.114   6.904 -0.0116 -0.6500 -1.0601
 4042SOL     OW23761   0.744   0.649   7.387 -0.0674  0.2492  0.3581
 4042SOL    HW123762   0.785   0.655   7.301  0.0678  3.0058  0.6184
 4042SOL    HW223763   0.807   0.704   7.433  0.8383 -0.3536 -0.1855
 4043SOL     OW23764   1.458   2.875   5.562  0.1477 -0.1835 -0.2685
 4043SOL    HW123765   1.449   2.954   5.508  2.7646  0.8783  0.8026
 4043SOL    HW223766   1.445   2.808   5.495 -0.9641  1.7609 -2.0126
 4044SOL     OW23767   4.291   0.213   1.390 -0.0021  0.1404 -0.9191
 4044SOL    HW123768   4.221   0.147   1.380  2.8429 -3.0449  0.2643
 4044SOL    HW223769   4.301   0.209   1.485 -2.1715  0.0080 -0.6869
 4045SOL     OW23770   0.087   2.980  11.088  0.1190 -0.1739 -0.0735
 4045SOL    HW123771   0.073   2.888  11.065  0.1598 -0.4286  0.9247
 4045SOL    HW223772   0.119   3.014  11.005  0.2474  0.5849  0.2787
 4046SOL     OW23773   1.531   0.746   4.047 -0.0670 -0.5475 -0.0801
 4046SOL    HW123774   1.537   0.776   3.956  1.8657 -1.7153 -0.3258
 4046SOL    HW223775   1.457   0.790   4.089 -1.1338 -2.7847  0.4017
 4047SOL     OW23776   4.061   2.803  16.147  0.0419  0.0071  0.1128
 4047SOL    HW123777   4.071   2.805  16.052 -3.1806 -2.8816 -0.2997
 4047SOL    HW223778   3.973   2.838  16.160  0.4684  1.1268 -0.0339
 4048SOL     OW23779   3.706   1.397   1.812  0.2994  0.1682  0.3658
 4048SOL    HW123780   3.613   1.409   1.831 -0.1124 -3.1214  0.3840
 4048SOL    HW223781   3.725   1.315   1.858  1.4534  0.1523 -0.1463
 4049SOL     OW23782   3.078   0.925   3.166  0.0200 -0.0483 -0.2672
 4049SOL    HW123783   3.152   0.961   3.215 -0.5387 -0.3749  0.8122
 4049SOL    HW223784   3.086   0.966   3.080 -2.9054 -0.9625 -0.9595
 4050SOL     OW23785   1.612   2.877   6.175 -0.1558 -0.7170 -0.0812
 4050SOL    HW123786   1.702   2.856   6.149 -0.2901 -0.7098 -0.5498
 4050SOL    HW223787   1.599   2.931   6.097  2.7405  0.9403  0.5637
 4051SOL     OW23788   0.121   3.798   8.613  0.5345 -0.6702  0.3973
 4051SOL    HW123789   0.054   3.749   8.660  2.4918 -1.5537  2.2489
 4051SOL    HW223790   0.185   3.734   8.646  1.5935 -0.6472 -1.6077
 4052SOL     OW23791   4.386   2.972   9.589  0.3901  0.2429  0.3378
 4052SOL    HW123792   4.302   3.017   9.578 -0.0707 -0.9082 -0.9192
 4052SOL    HW223793   4.443   3.028   9.537  0.7516 -0.9385 -0.5434
 4053SOL     OW23794   4.215   2.200   7.192  0.2301 -0.0433  0.2685
 4053SOL    HW123795   4.127   2.203   7.231  0.0061 -1.0276 -0.1381
 4053SOL    HW223796   4.226   2.106   7.208 -2.1567 -0.5728 -1.1613
 4054SOL     OW23797   4.631   1.576   4.560  0.6031 -0.6066  0.8547
 4054SOL    HW123798   4.706   1.578   4.620  1.9253 -0.2278 -0.8087
 4054SOL    HW223799   4.561   1.544   4.617 -1.0242 -1.7484 -1.8525
 4055SOL     OW23800   4.415   4.269   3.390  0.1500 -0.5856 -0.0356
 4055SOL    HW123801   4.500   4.299   3.358 -0.0200 -0.7748 -0.6581
 4055SOL    HW223802   4.441   4.188   3.433  3.3975 -0.9252 -2.6913
 4056SOL     OW23803   4.488   1.821   6.103  0.2825  0.2351 -0.6065
 4056SOL    HW123804   4.579   1.840   6.126  0.4608 -0.5054 -0.7092
 4056SOL    HW223805   4.452   1.814   6.191  0.0521  0.2245 -0.7009
 4057SOL     OW23806   0.341   4.679   6.303 -0.1885 -0.5400 -0.2805
 4057SOL    HW123807   0.338   4.598   6.353 -1.2302  0.7850  1.8326
 4057SOL    HW223808   0.371   0.004   6.373 -0.0237  0.0234 -0.8300
 4058SOL     OW23809   2.991   2.847   1.054 -0.1887 -0.2377 -0.0558
 4058SOL    HW123810   3.076   2.854   1.010  0.5977  1.3369  1.7056
 4058SOL    HW223811   3.001   2.865   1.148  2.8108 -2.3991  0.0723
 4059SOL     OW23812   2.167   0.846   2.482  0.0481  0.2033  0.9628
 4059SOL    HW123813   2.187   0.900   2.406  2.6486  0.1612  1.6156
 4059SOL    HW223814   2.075   0.873   2.483  0.2244  0.8415 -0.1334
 4060SOL     OW23815   1.722   4.333   0.168  0.1056 -0.1648  0.4175
 4060SOL    HW123816   1.628   4.322   0.152  0.1354  1.3243 -0.8071
 4060SOL    HW223817   1.733   4.261   0.230 -0.4359 -1.1948 -0.6827
 4061SOL     OW23818   4.365   3.699   0.213  0.3996  0.0528  0.0698
 4061SOL    HW123819   4.327   3.687   0.300  0.5735  0.0902  0.1502
 4061SOL    HW223820   4.377   3.794   0.218 -1.1847  0.2163  0.7319
 4062SOL     OW23821   1.384   2.993   7.860  0.0400  0.2749  0.2986
 4062SOL    HW123822   1.371   3.073   7.911 -1.9657 -0.5079  0.9997
 4062SOL    HW223823   1.403   3.035   7.776 -1.7399  2.4897  1.0119
 4063SOL     OW23824   1.517   2.163  17.033  0.7725 -0.9314  0.3503
 4063SOL    HW123825   1.591   2.129  16.983  0.7540  0.5761 -0.6901
 4063SOL    HW223826   1.550   2.209  17.109  2.3224  0.8825 -1.4308
 4064SOL     OW23827   0.232   4.599   6.052  0.2923 -0.1200  0.0981
 4064SOL    HW123828   0.258   4.672   5.995 -0.5272  0.2554  0.2052
 4064SOL    HW223829   0.256   4.635   6.138 -1.3872  0.2798  0.4047
 4065SOL     OW23830   4.465   0.921  12.999  1.1476 -0.2120 -0.0537
 4065SOL    HW123831   4.379   0.907  12.960  1.6631 -0.7809 -0.9772
 4065SOL    HW223832   4.461   1.015  13.014 -2.2106  0.0510 -2.7418
 4066SOL     OW23833   0.862   2.277   8.768  0.1277  0.0002  0.1142
 4066SOL    HW123834   0.836   2.199   8.719 -0.5144  1.1027 -1.3040
 4066SOL    HW223835   0.948   2.263   8.807  0.4440  1.7452  0.0414
 4067SOL     OW23836   2.729   1.852   2.710 -0.1624 -0.1443  0.2708
 4067SOL    HW123837   2.773   1.773   2.742  2.2684  1.4807  0.8966
 4067SOL    HW223838   2.657   1.802   2.670 -2.2460  2.5692  0.6527
 4068SOL     OW23839   3.984   3.649   6.735  0.3903  0.0375  0.5105
 4068SOL    HW123840   4.079   3.640   6.743  0.5098  0.2116 -0.6480
 4068SOL    HW223841   3.963   3.569   6.686 -1.4894  1.5026 -1.1197
 4069SOL     OW23842   2.544   4.275   8.621 -0.1501 -0.3916 -0.2075
 4069SOL    HW123843   2.470   4.232   8.578  0.0050  0.6765 -1.5350
 4069SOL    HW223844   2.598   4.202   8.650 -2.5957 -1.5296  1.5383
 4070SOL     OW23845   2.563   0.839  14.739  0.3224 -0.1618  0.7286
 4070SOL    HW123846   2.624   0.898  14.782 -0.0278  1.7156 -1.3568
 4070SOL    HW223847   2.486   0.891  14.716  0.6213 -0.3211 -0.6241
 4071SOL     OW23848   0.927   1.689   2.930 -0.2069 -0.3674  0.1947
 4071SOL    HW123849   0.835   1.706   2.951 -0.3727  0.5652 -1.2094
 4071SOL    HW223850   0.975   1.661   3.008  0.7473 -0.0196 -0.2690
 4072SOL     OW23851   2.452   2.182   9.045 -0.4323  0.2233 -0.2353
 4072SOL    HW123852   2.379   2.126   9.072  0.6082 -0.5799  0.9153
 4072SOL    HW223853   2.414   2.212   8.962 -0.9249 -2.9153 -1.1471
 4073SOL     OW23854   4.563   4.365  14.432  0.1058  0.0153  0.2815
 4073SOL    HW123855   4.529   4.288  14.385  2.9038  0.4470 -2.4145
 4073SOL    HW223856   4.560   4.342  14.525 -0.8371  0.9637  0.4963
 4074SOL     OW23857   3.135   3.487   4.622  0.5291  0.3439  0.6047
 4074SOL    HW123858   3.104   3.428   4.691 -1.8557 -0.0740 -0.8653
 4074SOL    HW223859   3.062   3.515   4.567  2.0017  0.3340 -1.3439
 4075SOL     OW23860   3.973   3.907   3.708 -0.1531 -0.3831  0.0653
 4075SOL    HW123861   3.913   3.844   3.746 -0.5443  0.1478  0.3160
 4075SOL    HW223862   4.055   3.881   3.750 -1.2859 -0.2251  2.3455
 4076SOL     OW23863   1.526   3.045   6.830  0.1066 -0.3239 -0.4753
 4076SOL    HW123864   1.455   3.102   6.800  1.2966  0.2068 -2.2512
 4076SOL    HW223865   1.561   3.089   6.908 -0.1008 -0.2420 -0.4277
 4077SOL     OW23866   1.176   2.351  12.326 -0.3502 -0.1149  0.8651
 4077SOL    HW123867   1.118   2.325  12.398 -0.2927 -0.9288  0.6146
 4077SOL    HW223868   1.128   2.431  12.305 -0.7856 -0.4103  0.7125
 4078SOL     OW23869   1.204   1.773   3.922  0.4170 -0.2124 -0.5173
 4078SOL    HW123870   1.172   1.727   3.845  1.5907 -0.4992 -0.8288
 4078SOL    HW223871   1.212   1.703   3.987  2.3509  0.6867  0.1870
 4079SOL     OW23872   4.498   3.633   4.893 -0.3401 -0.3099  0.4545
 4079SOL    HW123873   4.442   3.710   4.887 -0.7072 -0.7500 -2.0136
 4079SOL    HW223874   4.529   3.625   4.803 -1.7064  0.5402 -0.0913
 4080SOL     OW23875   1.069   4.135   2.821  0.0955 -0.0204 -0.4986
 4080SOL    HW123876   0.982   4.102   2.844  0.6189  0.4244  2.1458
 4080SOL    HW223877   1.077   4.192   2.898  1.5685 -0.4337 -0.3472
 4081SOL     OW23878   0.171   1.185   9.070  1.1500  0.2279  0.2892
 4081SOL    HW123879   0.217   1.261   9.107 -0.1214  0.8874  0.5222
 4081SOL    HW223880   0.083   1.206   9.102  0.5334 -4.0318  1.3618
 4082SOL     OW23881   0.575   0.106  13.475  0.1819  0.1015 -0.1903
 4082SOL    HW123882   0.490   0.074  13.505  0.0072  1.2531  0.5311
 4082SOL    HW223883   0.609   0.030  13.427  0.2854  0.0559 -0.0458
 4083SOL     OW23884   2.039   4.447   1.392  0.5923 -0.9405 -0.1048
 4083SOL    HW123885   2.036   4.498   1.311 -0.6547  0.1617  0.6439
 4083SOL    HW223886   1.948   4.460   1.418  0.6507  2.9932 -2.0006
 4084SOL     OW23887   4.554   0.517   1.708  0.1903 -0.1349 -0.3134
 4084SOL    HW123888   4.607   0.552   1.779  0.3920  2.7705 -1.9180
 4084SOL    HW223889   4.613   0.461   1.657 -0.5619  0.1592 -1.5070
 4085SOL     OW23890   3.754   3.387   4.795  0.6618 -0.2428  0.2460
 4085SOL    HW123891   3.780   3.317   4.735 -0.6747  0.9766 -1.7502
 4085SOL    HW223892   3.739   3.465   4.741  2.6815 -0.8926 -1.2558
 4086SOL     OW23893   0.713   3.798   4.143 -0.1260 -0.3163 -0.4431
 4086SOL    HW123894   0.719   3.782   4.238 -0.9091  0.5017 -0.2584
 4086SOL    HW223895   0.647   3.734   4.114 -2.3894  2.4302 -1.2903
 4087SOL     OW23896   0.291   3.889   5.117  0.2518 -0.8714 -0.3911
 4087SOL    HW123897   0.311   3.971   5.072 -3.5968  0.8470  1.0957
 4087SOL    HW223898   0.367   3.834   5.097  1.8419  0.6178  1.5547
 4088SOL     OW23899   0.231   0.410   9.403  0.1333  0.4939  0.1949
 4088SOL    HW123900   0.244   0.366   9.487  1.9365  2.3138  0.8590
 4088SOL    HW223901   0.295   0.480   9.411  0.8301  0.1994 -2.9963
 4089SOL     OW23902   2.168   0.798   8.754  0.1086 -0.1969  0.6596
 4089SOL    HW123903   2.120   0.731   8.706  0.0807  1.8673 -2.2289
 4089SOL    HW223904   2.246   0.744   8.770 -0.7933 -0.8892  2.6768
 4090SOL     OW23905   3.615   2.884   0.475  0.2218 -0.4644 -0.5536
 4090SOL    HW123906   3.630   2.905   0.383  0.4013 -0.8573 -0.6149
 4090SOL    HW223907   3.546   2.943   0.504  0.5793 -0.1351 -0.3720
 4091SOL     OW23908   4.148   1.446  15.852  0.0817 -0.1695 -0.0798
 4091SOL    HW123909   4.190   1.361  15.848 -1.4348 -0.8985 -0.5901
 4091SOL    HW223910   4.159   1.464  15.758 -0.1623 -0.0759 -0.0908
 4092SOL     OW23911   0.526   0.316  12.858 -0.1404  0.1266  0.0982
 4092SOL    HW123912   0.474   0.241  12.886 -0.3596 -0.5396 -2.1160
 4092SOL    HW223913   0.557   0.343  12.944 -1.3975 -0.7120  0.8279
 4093SOL     OW23914   2.053   0.709   3.668 -0.3948 -0.2243 -0.1192
 4093SOL    HW123915   2.000   0.673   3.739  0.6248  0.2459  0.8921
 4093SOL    HW223916   2.119   0.640   3.673 -0.6576 -0.5936 -1.8224
 4094SOL     OW23917   1.028   4.187   3.659  0.0843 -0.5669  0.2856
 4094SOL    HW123918   1.113   4.224   3.636 -0.4824 -0.2635 -1.3102
 4094SOL    HW223919   1.051   4.121   3.725 -0.4071  0.3683  1.3959
 4095SOL     OW23920   4.237   1.336   2.394  0.1232 -0.3208 -1.0294
 4095SOL    HW123921   4.174   1.331   2.466  0.8239  0.8381 -0.3322
 4095SOL    HW223922   4.229   1.428   2.369  2.3081  0.4680  1.1973
 4096SOL     OW23923   4.228   0.978   8.170 -0.7802  0.2065  0.1135
 4096SOL    HW123924   4.193   0.949   8.086  0.2746 -1.2279  0.1726
 4096SOL    HW223925   4.319   0.983   8.140 -0.3885  0.2347  1.3109
 4097SOL     OW23926   2.979   3.324   4.257 -0.3732  0.0054 -0.1840
 4097SOL    HW123927   2.997   3.269   4.332  1.4832 -0.1419 -0.7480
 4097SOL    HW223928   2.927   3.400   4.285 -0.0719 -0.4136  1.4562
 4098SOL     OW23929   4.599   1.381  17.149  0.0599 -0.4530 -0.2454
 4098SOL    HW123930   4.578   1.381  17.056  1.7620  0.0482 -0.6366
 4098SOL    HW223931   4.674   1.322  17.150  1.3666  1.2158  1.8338
 4099SOL     OW23932   4.124   4.118   5.510  0.4720 -0.4978  0.2092
 4099SOL    HW123933   4.137   4.135   5.603 -0.2927  0.0737  0.2185
 4099SOL    HW223934   4.213   4.128   5.478 -0.3560  0.4573 -1.8026
 4100SOL     OW23935   3.652   0.527   2.568 -0.4230  0.1152 -0.3337
 4100SOL    HW123936   3.655   0.432   2.563 -0.8045  0.1646 -1.4672
 4100SOL    HW223937   3.740   0.546   2.601 -0.3545  1.2601 -1.1504
 4101SOL     OW23938   1.155   2.733   6.265 -0.3461  0.1781 -0.0235
 4101SOL    HW123939   1.187   2.752   6.177  1.4077  0.1597  0.6204
 4101SOL    HW223940   1.204   2.785   6.328  1.6254 -1.3256 -0.3148
 4102SOL     OW23941   0.526   4.250   7.387 -0.3543  0.1347 -0.5019
 4102SOL    HW123942   0.570   4.319   7.436 -1.6476  0.5464  0.0866
 4102SOL    HW223943   0.439   4.237   7.427 -0.3233  1.8840  0.1293
 4103SOL     OW23944   0.930   3.135   9.030 -0.0436  0.1083 -0.4268
 4103SOL    HW123945   0.869   3.180   8.971 -1.1460 -2.1509 -1.0085
 4103SOL    HW223946   1.002   3.197   9.032 -0.9276  1.0426  1.9444
 4104SOL     OW23947   2.018   0.854   0.695  0.0567  0.4881  0.6466
 4104SOL    HW123948   2.064   0.780   0.657  0.0607  0.3176  0.9798
 4104SOL    HW223949   2.047   0.935   0.653  0.6594 -0.6663 -1.1596
 4105SOL     OW23950   3.446   3.832  10.979 -0.0078 -0.3406 -0.1041
 4105SOL    HW123951   3.509   3.766  11.007  0.2194 -0.7329 -1.5391
 4105SOL    HW223952   3.486   3.910  11.016 -2.7673  0.7971  0.4790
 4106SOL     OW23953   1.726   3.559   3.356 -0.2071  0.2792 -0.7433
 4106SOL    HW123954   1.768   3.618   3.294  0.3942 -1.6921 -2.1692
 4106SOL    HW223955   1.637   3.546   3.324 -1.2887  1.3018  1.8324
 4107SOL     OW23956   3.797   2.654   7.955  0.5335 -0.4958  0.0231
 4107SOL    HW123957   3.719   2.603   7.934 -0.9949  2.2141 -0.8458
 4107SOL    HW223958   3.822   2.634   8.045 -1.0634  2.0891  1.0511
 4108SOL     OW23959   1.038   0.325   3.181 -0.0659  0.4596 -0.3630
 4108SOL    HW123960   0.984   0.282   3.114  0.0026  0.6478 -0.5348
 4108SOL    HW223961   1.094   0.248   3.190 -2.6545 -1.5248 -0.9310
 4109SOL     OW23962   2.793   3.044   2.488  0.3035 -0.0802  0.0794
 4109SOL    HW123963   2.738   3.098   2.545 -0.7122 -1.5415  0.4824
 4109SOL    HW223964   2.871   3.023   2.539  0.2084  0.7047  0.5431
 4110SOL     OW23965   2.810   3.475   5.898 -0.6081 -0.1700  0.1583
 4110SOL    HW123966   2.846   3.398   5.854  1.4041  0.1323  1.2564
 4110SOL    HW223967   2.801   3.450   5.989 -4.0854 -0.7828 -0.3485
 4111SOL     OW23968   3.027   1.880   5.533  0.1124  0.2608 -0.3238
 4111SOL    HW123969   3.110   1.880   5.581  0.1535 -1.2101 -0.4178
 4111SOL    HW223970   2.982   1.928   5.603 -0.2853 -0.8334  0.1765
 4112SOL     OW23971   2.355   2.152  16.422 -0.4652 -0.5560  0.4031
 4112SOL    HW123972   2.356   2.162  16.327  3.9489  1.4878  0.6723
 4112SOL    HW223973   2.398   2.233  16.450 -0.1840  1.4087 -5.7407
 4113SOL     OW23974   2.582   3.411   1.818 -0.0450  0.2945 -0.0157
 4113SOL    HW123975   2.537   3.411   1.902 -0.2889  0.0741 -0.1487
 4113SOL    HW223976   2.667   3.380   1.850  0.9108  0.1599 -2.7021
 4114SOL     OW23977   3.426   1.004   2.928  0.3886  0.2551 -0.1065
 4114SOL    HW123978   3.423   0.909   2.914 -0.2843  0.1068  1.0114
 4114SOL    HW223979   3.331   1.009   2.923  0.3842  0.2033 -0.0794
 4115SOL     OW23980   3.030   1.508   9.250  0.2250  0.4119 -0.2996
 4115SOL    HW123981   2.944   1.549   9.247  0.2975  0.5704 -0.2474
 4115SOL    HW223982   3.060   1.520   9.341 -1.2187 -0.8968  0.3425
 4116SOL     OW23983   1.007   2.458   9.015 -0.8392 -0.0700 -0.5249
 4116SOL    HW123984   0.985   2.521   8.946  2.0856  0.8163 -0.6572
 4116SOL    HW223985   0.948   2.493   9.082  0.7669 -0.2467  0.9602
 4117SOL     OW23986   0.445   0.336   5.524 -0.1118  0.2541  0.8411
 4117SOL    HW123987   0.397   0.338   5.606 -0.4158 -1.0635  0.7075
 4117SOL    HW223988   0.480   0.247   5.528  0.7944  0.5766  0.0638
 4118SOL     OW23989   0.939   3.564   3.147  0.4635 -0.7192 -0.1690
 4118SOL    HW123990   0.883   3.525   3.214  0.7036  1.6374  1.3641
 4118SOL    HW223991   1.008   3.498   3.146  0.5621 -0.6098 -0.8566
 4119SOL     OW23992   2.609   4.585   0.094 -0.2108 -0.1927 -0.1317
 4119SOL    HW123993   2.661   4.515   0.055 -0.4965  0.0854 -0.9963
 4119SOL    HW223994   2.644   4.579   0.183 -2.7251  2.1514  1.0092
 4120SOL     OW23995   4.459   2.279   2.389  0.5050  0.2711 -0.0983
 4120SOL    HW123996   4.426   2.324   2.467  0.7076 -0.1829  0.2518
 4120SOL    HW223997   4.416   2.193   2.385 -0.4342  0.7183  0.2738
 4121SOL     OW23998   0.926   2.365   0.806 -0.1593  0.1765 -0.5634
 4121SOL    HW123999   0.990   2.304   0.771  0.1784  0.0019  0.3636
 4121SOL    HW224000   0.854   2.305   0.826  1.1169 -1.5663 -1.2866
 4122SOL     OW24001   1.000   1.246   1.283 -0.4466  0.3537 -0.3962
 4122SOL    HW124002   0.976   1.184   1.352  0.4439  1.6908  1.1129
 4122SOL    HW224003   0.957   1.220   1.202 -1.6776 -0.8076  0.6342
 4123SOL     OW24004   1.476   0.833   2.929  0.3816  0.8857 -0.1054
 4123SOL    HW124005   1.395   0.786   2.950 -0.8315  2.6857 -0.8261
 4123SOL    HW224006   1.540   0.761   2.927 -0.2350  0.2507  3.0204
 4124SOL     OW24007   4.153   0.655   4.191 -0.1854  0.3267  0.8006
 4124SOL    HW124008   4.091   0.712   4.146 -2.1346 -2.4258 -0.0394
 4124SOL    HW224009   4.141   0.569   4.150 -0.2422 -0.2712  2.0791
 4125SOL     OW24010   0.462   0.710   8.918  0.0653  0.5234 -0.1602
 4125SOL    HW124011   0.482   0.699   9.011 -2.1113  1.2297  0.3956
 4125SOL    HW224012   0.373   0.745   8.923 -0.8537 -2.0501  1.3796
 4126SOL     OW24013   1.914   3.560   3.958 -0.2181 -0.3503  0.2491
 4126SOL    HW124014   1.870   3.489   3.912  0.1888  0.8886 -2.0231
 4126SOL    HW224015   1.920   3.509   4.039  2.1493  2.4074  1.8472
 4127SOL     OW24016   0.028   3.368   8.739 -0.0776  0.0617  0.1364
 4127SOL    HW124017   0.062   3.324   8.817  0.1034  0.6446  0.3887
 4127SOL    HW224018   0.100   3.411   8.692 -0.3337 -1.2652 -1.4972
 4128SOL     OW24019   2.598   0.891   6.498 -0.5738 -0.8170 -0.4506
 4128SOL    HW124020   2.682   0.861   6.531 -1.1993 -1.2539  0.7535
 4128SOL    HW224021   2.628   0.922   6.413  3.0957 -1.6748  0.5499
 4129SOL     OW24022   1.415   4.049   3.628 -0.0408  0.2723  0.6008
 4129SOL    HW124023   1.409   3.954   3.613  0.6376  0.4370 -0.7431
 4129SOL    HW224024   1.506   4.072   3.610  0.0363 -1.3801 -1.1235
 4130SOL     OW24025   0.061   1.337   7.437  0.5133 -0.5613 -0.1252
 4130SOL    HW124026   4.702   1.362   7.440  1.0294  1.3489 -0.1220
 4130SOL    HW224027   0.073   1.295   7.522  0.0018  1.1860  0.7955
 4131SOL     OW24028   2.897   4.429  11.737 -0.1592 -0.4564 -0.3263
 4131SOL    HW124029   2.832   4.497  11.757 -1.0557 -1.0296 -1.3231
 4131SOL    HW224030   2.968   4.479  11.695 -1.2481  0.9083 -0.5441
 4132SOL     OW24031   3.517   1.140  16.317  0.3446  0.0670 -0.4258
 4132SOL    HW124032   3.470   1.178  16.390  2.8315 -1.4888  1.9831
 4132SOL    HW224033   3.587   1.099  16.367  1.9224  0.1395 -2.5621
 4133SOL     OW24034   0.866   4.694  13.475 -0.1048 -0.4143 -0.1985
 4133SOL    HW124035   0.874   4.635  13.549 -0.1804  2.0818  1.7806
 4133SOL    HW224036   0.789   4.651  13.438  0.1954 -0.1464 -1.1503
 4134SOL     OW24037   4.340   3.271   3.342  0.2379  0.0898  0.4543
 4134SOL    HW124038   4.298   3.357   3.345  2.4056  1.1388  0.6565
 4134SOL    HW224039   4.297   3.229   3.267 -1.7516 -0.1810  1.7722
 4135SOL     OW24040   2.496   2.151   2.885  0.4264 -0.5084 -0.0479
 4135SOL    HW124041   2.439   2.115   2.817 -1.1438  2.1298 -0.1294
 4135SOL    HW224042   2.447   2.227   2.914  0.9356 -0.5155  0.8389
 4136SOL     OW24043   3.806   2.376   6.735  1.1986 -0.0431 -0.4060
 4136SOL    HW124044   3.735   2.383   6.799 -0.5360  0.0889 -2.3888
 4136SOL    HW224045   3.762   2.421   6.664  1.0559 -2.0855 -1.6166
 4137SOL     OW24046   1.862   0.532   5.904 -0.2173  0.1904 -0.2102
 4137SOL    HW124047   1.948   0.564   5.877 -0.1764  1.5928  1.5412
 4137SOL    HW224048   1.810   0.565   5.831  0.8765 -0.5266 -1.3198
 4138SOL     OW24049   0.504   0.561   1.078 -0.1593  0.1136  0.7722
 4138SOL    HW124050   0.498   0.523   1.165 -3.4835 -0.4288  0.2717
 4138SOL    HW224051   0.511   0.482   1.025 -2.3963  0.4823 -0.0675
 4139SOL     OW24052   3.955   0.932   7.756 -0.6561 -0.0915  0.5028
 4139SOL    HW124053   3.931   1.025   7.763  1.4428  0.5768 -1.2558
 4139SOL    HW224054   3.903   0.915   7.677  0.0390 -0.0327  0.0382
 4140SOL     OW24055   1.775   2.167   8.872  0.3426  0.4556  0.8088
 4140SOL    HW124056   1.816   2.098   8.924 -2.5361 -2.5468 -0.8828
 4140SOL    HW224057   1.682   2.145   8.870 -0.2551  2.9896  1.4265
 4141SOL     OW24058   0.673   3.522   2.283 -0.2462 -0.0166 -0.1293
 4141SOL    HW124059   0.672   3.610   2.321 -1.5066 -0.4746  0.8879
 4141SOL    HW224060   0.611   3.478   2.340  0.9694  0.7324  1.7835
 4142SOL     OW24061   3.262   3.709  14.050  0.2098  0.1908 -0.1512
 4142SOL    HW124062   3.273   3.686  14.142 -0.2986 -1.3151 -0.4641
 4142SOL    HW224063   3.182   3.659  14.031 -1.0472  1.6016  1.3538
 4143SOL     OW24064   0.310   1.344  16.542  0.1764 -0.0243  0.6034
 4143SOL    HW124065   0.245   1.314  16.604 -0.1892  0.6075  0.5246
 4143SOL    HW224066   0.374   1.276  16.563  0.4809  0.5225  1.4289
 4144SOL     OW24067   2.355   1.759   3.120 -0.3473  0.0553  0.3088
 4144SOL    HW124068   2.400   1.761   3.035  0.4168 -0.0327  0.7092
 4144SOL    HW224069   2.263   1.753   3.096 -0.6392  1.2757  1.1334
 4145SOL     OW24070   0.613   0.356   2.422  0.4786  0.0246 -0.0885
 4145SOL    HW124071   0.604   0.443   2.382  0.5647 -1.1901 -2.7351
 4145SOL    HW224072   0.527   0.315   2.424 -0.0908  1.2312  0.2196
 4146SOL     OW24073   4.087   2.537   6.325  0.6356  0.1442 -0.1127
 4146SOL    HW124074   4.134   2.490   6.395  0.4723  2.6584  1.6822
 4146SOL    HW224075   4.056   2.458   6.281  1.0766 -0.3630  0.4734
 4147SOL     OW24076   1.684   0.563  16.894 -0.2213 -0.3253  0.4845
 4147SOL    HW124077   1.685   0.593  16.985 -0.8082  0.5107  0.2122
 4147SOL    HW224078   1.719   0.474  16.899 -2.0958 -1.1504 -1.2661
 4148SOL     OW24079   0.881   0.357   8.308  0.1216 -0.0206 -0.5176
 4148SOL    HW124080   0.946   0.302   8.351 -2.7041 -3.6955 -0.9428
 4148SOL    HW224081   0.939   0.405   8.248  1.2591 -0.4033  0.2674
 4149SOL     OW24082   1.275   3.429   8.476 -0.5586 -0.1027  0.0855
 4149SOL    HW124083   1.269   3.513   8.522 -0.5666 -0.0584  0.0040
 4149SOL    HW224084   1.338   3.393   8.537 -0.2306 -0.1727 -0.2946
 4150SOL     OW24085   0.422   1.908  15.238  0.0508  0.1124  0.4213
 4150SOL    HW124086   0.429   1.818  15.207 -2.2884 -0.4911  1.6948
 4150SOL    HW224087   0.486   1.911  15.309  1.1706 -1.8484 -0.5250
 4151SOL     OW24088   4.361   2.689  10.010  0.2005  0.2726  0.5445
 4151SOL    HW124089   4.341   2.602  10.046 -0.5447 -0.4213 -1.4893
 4151SOL    HW224090   4.381   2.665   9.919 -1.8977  1.6979 -0.3000
 4152SOL     OW24091   2.922   3.119   5.440 -0.0472  0.2396 -0.1468
 4152SOL    HW124092   2.923   3.038   5.389 -0.3023  0.6895 -0.8701
 4152SOL    HW224093   2.977   3.180   5.390  1.3729  0.6218  1.8942
 4153SOL     OW24094   2.803   3.616   6.887  0.4252  0.4578  0.3333
 4153SOL    HW124095   2.803   3.640   6.980 -2.3212  0.1528  0.3977
 4153SOL    HW224096   2.886   3.659   6.866  0.9095 -0.5500  0.2152
 4154SOL     OW24097   2.389   2.970  17.498  0.0258 -0.0560  0.2062
 4154SOL    HW124098   2.477   2.957  17.462 -0.3747 -1.2349 -0.3201
 4154SOL    HW224099   2.397   3.039  17.564  0.5081 -1.0361  1.1542
 4155SOL     OW24100   4.629   0.135   6.065  0.0449  0.1326 -0.0694
 4155SOL    HW124101   4.636   0.039   6.061  1.5954  0.2468 -0.4610
 4155SOL    HW224102   4.535   0.146   6.055  0.2925  2.0642 -0.1941
 4156SOL     OW24103   2.496   1.961   5.469 -0.2248  1.1310 -0.3892
 4156SOL    HW124104   2.445   1.880   5.459 -1.0003  1.2863  2.4586
 4156SOL    HW224105   2.488   1.988   5.378 -1.1527  1.2863 -0.2593
 4157SOL     OW24106   3.134   4.685   3.832  0.7015 -0.2688  0.4100
 4157SOL    HW124107   3.228   4.693   3.848  0.2389 -0.7248  3.2578
 4157SOL    HW224108   3.130   0.043   3.858 -1.6399 -0.0141 -0.7855
 4158SOL     OW24109   4.731   0.146   6.334  0.5258 -0.0665 -0.0134
 4158SOL    HW124110   0.082   0.181   6.363  0.4835  1.0779 -1.2549
 4158SOL    HW224111   4.728   0.171   6.242 -2.5827 -2.1532 -0.4498
 4159SOL     OW24112   1.077   0.623   6.857 -0.3218  0.3772  0.7244
 4159SOL    HW124113   1.003   0.663   6.813  0.1556 -1.9424 -2.1745
 4159SOL    HW224114   1.149   0.683   6.838  1.3720 -1.6535  0.7270
 4160SOL     OW24115   1.768   0.233  15.812  0.1424 -0.3636  0.4190
 4160SOL    HW124116   1.799   0.192  15.893  3.9930  1.3908 -0.1830
 4160SOL    HW224117   1.722   0.161  15.769 -0.7008  0.7792 -0.5764
 4161SOL     OW24118   4.647   4.102   7.508 -0.0668 -0.3834  0.0923
 4161SOL    HW124119   4.703   4.168   7.549 -1.4058  1.2406 -0.6809
 4161SOL    HW224120   4.624   4.053   7.586 -0.4486  3.2964  2.3016
 4162SOL     OW24121   4.563   0.642   8.712 -0.1854  0.1314 -0.0239
 4162SOL    HW124122   4.534   0.568   8.658  0.1004 -1.0244  1.3975
 4162SOL    HW224123   4.655   0.645   8.686  0.0266 -3.0760  0.3532
 4163SOL     OW24124   1.863   4.610   4.166  0.1391  0.5111 -0.1813
 4163SOL    HW124125   1.885   4.551   4.238  3.4584  1.4443 -0.4198
 4163SOL    HW224126   1.809   4.557   4.108  1.2598 -0.1595 -0.6016
 4164SOL     OW24127   4.540   2.167   2.667  0.0859  0.2096 -0.1888
 4164SOL    HW124128   4.514   2.174   2.759 -0.3631  0.3357 -0.3228
 4164SOL    HW224129   4.602   2.239   2.657  0.5608 -0.0205  1.1223
 4165SOL     OW24130   1.616   4.613   7.407 -0.0676  0.1413 -0.3962
 4165SOL    HW124131   1.673   4.543   7.375 -0.2163  0.1939 -0.7707
 4165SOL    HW224132   1.617   4.594   7.501 -2.3452 -1.1224 -0.6275
 4166SOL     OW24133   4.448   3.817  10.070  0.2858 -0.3757  0.1469
 4166SOL    HW124134   4.401   3.768  10.002  3.0246 -0.4187 -1.7368
 4166SOL    HW224135   4.454   3.742  10.129  2.6936 -0.3995 -0.0979
 4167SOL     OW24136   1.719   3.208   2.247 -0.2614 -0.4308 -0.7244
 4167SOL    HW124137   1.762   3.288   2.217 -0.8418 -0.5157 -1.7928
 4167SOL    HW224138   1.636   3.251   2.269 -0.5255 -1.4169  0.2331
 4168SOL     OW24139   3.229   1.484   4.061 -0.2879  0.4808  0.0250
 4168SOL    HW124140   3.267   1.545   4.123  1.0434 -2.2602  1.9055
 4168SOL    HW224141   3.142   1.524   4.052 -0.9584 -1.4047 -1.9909
 4169SOL     OW24142   2.982   1.378   7.949 -0.4265  0.5110  0.0122
 4169SOL    HW124143   2.927   1.318   7.900  0.6507  0.3689 -1.0186
 4169SOL    HW224144   3.064   1.384   7.901  1.6741 -1.7634  3.3128
 4170SOL     OW24145   2.270   4.709   0.407 -0.3880  0.1748 -0.0569
 4170SOL    HW124146   2.304   4.685   0.320 -0.8083 -1.3598  0.2001
 4170SOL    HW224147   2.262   0.069   0.395  0.9900  0.2899 -0.0277
 4171SOL     OW24148   4.425   3.820   7.244 -0.0490 -0.3043  0.3912
 4171SOL    HW124149   4.392   3.779   7.165  0.4527  0.2067 -0.0894
 4171SOL    HW224150   4.498   3.870   7.207  0.3070 -0.3359  1.0469
 4172SOL     OW24151   0.793   3.919   7.288 -0.3562  0.3536  0.7176
 4172SOL    HW124152   0.881   3.920   7.250 -0.9729  1.7741 -0.6670
 4172SOL    HW224153   0.751   3.997   7.252 -0.9698 -0.2694  0.0900
 4173SOL     OW24154   3.525   4.346  15.307  0.3509  0.3155  0.2267
 4173SOL    HW124155   3.456   4.345  15.373 -0.7794 -0.7693 -0.9673
 4173SOL    HW224156   3.540   4.252  15.294  0.0278  0.5167 -1.6459
 4174SOL     OW24157   1.327   2.259   2.691 -0.2194  0.0663  0.0722
 4174SOL    HW124158   1.286   2.244   2.606 -0.9564 -2.1426  0.7888
 4174SOL    HW224159   1.352   2.169   2.715  0.8225  1.1062  2.9129
 4175SOL     OW24160   4.330   2.154   8.476 -0.5063  0.9546 -0.0311
 4175SOL    HW124161   4.248   2.193   8.505  0.4275  0.9489  2.5842
 4175SOL    HW224162   4.378   2.229   8.441 -0.4929  0.6232 -0.7362
 4176SOL     OW24163   3.780   0.843   6.883 -0.0636  0.3978 -0.3178
 4176SOL    HW124164   3.844   0.889   6.829  0.7977 -0.3069  0.1010
 4176SOL    HW224165   3.707   0.866   6.826 -0.9833 -1.8906 -0.0655
 4177SOL     OW24166   4.413   1.758   2.094 -0.3713  0.3781 -0.0168
 4177SOL    HW124167   4.439   1.833   2.040 -0.5312 -0.0978 -0.7632
 4177SOL    HW224168   4.346   1.727   2.033  0.6236 -1.2476 -0.2801
 4178SOL     OW24169   4.108   0.325   2.246  0.1106  0.2113  0.0822
 4178SOL    HW124170   4.145   0.407   2.280  2.0627 -0.4174 -0.5469
 4178SOL    HW224171   4.017   0.348   2.266  0.0591  1.2648 -1.3751
 4179SOL     OW24172   0.135   0.288   1.012  0.6176  0.5543 -0.3328
 4179SOL    HW124173   0.087   0.370   1.012  0.0584  0.2272  0.8789
 4179SOL    HW224174   0.056   0.235   0.998  1.6997 -1.5673  1.3887
 4180SOL     OW24175   1.938   3.205   6.368  0.6453  0.0882  0.1231
 4180SOL    HW124176   1.957   3.297   6.351 -1.2079  0.8471  1.9996
 4180SOL    HW224177   1.977   3.172   6.288 -0.9090  1.2264 -1.1059
 4181SOL     OW24178   0.142   1.248  12.509  0.1857 -0.0911 -0.2506
 4181SOL    HW124179   0.075   1.291  12.562 -1.0873  1.9958 -3.6281
 4181SOL    HW224180   0.206   1.228  12.578 -0.8454 -0.8738  0.4877
 4182SOL     OW24181   1.418   3.078   4.360 -0.3726 -0.5367  0.3118
 4182SOL    HW124182   1.457   2.999   4.323  0.7207  0.8376 -1.4308
 4182SOL    HW224183   1.460   3.141   4.303 -1.5086 -0.6509 -0.6524
 4183SOL     OW24184   2.213   0.405   7.712  0.2374 -0.3453  0.3270
 4183SOL    HW124185   2.302   0.420   7.745  0.7887 -1.7512 -0.5119
 4183SOL    HW224186   2.216   0.382   7.619  0.6660  3.1229 -0.5437
 4184SOL     OW24187   0.744   3.388   6.864  0.7352 -0.2180  0.1816
 4184SOL    HW124188   0.756   3.325   6.934 -2.2409 -0.2496  0.6477
 4184SOL    HW224189   0.650   3.401   6.865  1.0309  2.0669 -0.8876
 4185SOL     OW24190   0.120   2.803   5.835  0.4297 -0.1883 -0.0487
 4185SOL    HW124191   0.075   2.887   5.831  0.2571 -0.2748  0.0517
 4185SOL    HW224192   0.170   2.806   5.754  1.1685  0.3183  0.4328
 4186SOL     OW24193   2.852   1.603   2.815  0.1298 -0.0507 -0.3339
 4186SOL    HW124194   2.936   1.571   2.781  1.0002  0.7311  1.0954
 4186SOL    HW224195   2.810   1.522   2.845  0.5661  0.3160  1.2587
 4187SOL     OW24196   0.523   3.375   7.657 -0.4370  0.1132 -0.2067
 4187SOL    HW124197   0.548   3.285   7.635  0.0674  0.0293  0.7308
 4187SOL    HW224198   0.487   3.368   7.745 -1.1113 -0.1209 -0.5029
 4188SOL     OW24199   0.484   4.128   8.062 -0.0650  0.3194  0.0388
 4188SOL    HW124200   0.425   4.203   8.070 -0.1398  0.3543 -0.8479
 4188SOL    HW224201   0.427   4.063   8.102 -0.4700  0.3544 -0.4825
 4189SOL     OW24202   3.339   2.985   2.142  0.6820  0.3288 -0.3001
 4189SOL    HW124203   3.336   2.928   2.065 -0.6014 -1.8053  1.3633
 4189SOL    HW224204   3.424   2.954   2.174 -0.3813 -2.7710 -0.4918
 4190SOL     OW24205   1.349   1.946   5.289 -0.5352  0.2644 -0.0927
 4190SOL    HW124206   1.443   1.935   5.273 -0.2067 -0.6528  2.5011
 4190SOL    HW224207   1.351   1.991   5.374 -1.6395 -2.6207  1.4649
 4191SOL     OW24208   3.372   1.848   5.143 -0.0130 -0.2805  0.3929
 4191SOL    HW124209   3.462   1.837   5.112  0.4682 -0.0767  1.7103
 4191SOL    HW224210   3.329   1.763   5.137  0.1392 -0.4135  1.1426
 4192SOL     OW24211   4.597   3.607   7.101 -0.4442  0.7565 -0.2132
 4192SOL    HW124212   4.508   3.579   7.081  0.2547 -1.7044  0.1308
 4192SOL    HW224213   4.642   3.523   7.110 -1.7150  0.2472  1.3163
 4193SOL     OW24214   3.360   3.403   7.043  0.0662 -0.3328 -0.5343
 4193SOL    HW124215   3.376   3.449   6.961  0.4443 -2.2368 -1.5153
 4193SOL    HW224216   3.284   3.450   7.078 -0.1131  0.4653 -1.9816
 4194SOL     OW24217   3.903   0.106   7.519 -0.1633  0.5586 -0.5121
 4194SOL    HW124218   3.813   0.124   7.548 -1.0594 -3.4889 -0.8381
 4194SOL    HW224219   3.951   0.174   7.567  1.9460 -2.9110  2.2950
 4195SOL     OW24220   1.686   2.094  13.220 -0.1907 -0.0547 -0.6405
 4195SOL    HW124221   1.675   2.052  13.135  3.6956 -0.1893 -1.0775
 4195SOL    HW224222   1.596   2.093  13.250  0.5727  1.7825  1.7374
 4196SOL     OW24223   1.151   1.715   8.221  0.0118 -0.3276  0.3079
 4196SOL    HW124224   1.240   1.724   8.255  0.3141  0.3393 -0.6629
 4196SOL    HW224225   1.163   1.763   8.140 -2.1294  1.1707  0.8682
 4197SOL     OW24226   3.119   0.360  11.630 -0.0451 -0.4278 -0.2760
 4197SOL    HW124227   3.139   0.407  11.711 -0.2165 -1.3886  0.3181
 4197SOL    HW224228   3.024   0.349  11.628 -0.0932 -0.1902  0.7688
 4198SOL     OW24229   3.702   2.092   3.393  0.1131  0.2532  0.0079
 4198SOL    HW124230   3.610   2.068   3.384  0.4150 -1.1276  0.6790
 4198SOL    HW224231   3.717   2.150   3.318  0.2008 -0.0843 -0.2393
 4199SOL     OW24232   0.441   4.007   4.411  0.0225  0.2993  0.2788
 4199SOL    HW124233   0.450   3.912   4.418 -1.2665  0.2721  1.5251
 4199SOL    HW224234   0.483   4.024   4.495  1.8627  2.1383 -0.9909
 4200SOL     OW24235   3.065   0.762   6.354  0.2012  0.0615  0.1780
 4200SOL    HW124236   3.088   0.731   6.266  0.7861 -0.0592  0.3726
 4200SOL    HW224237   3.147   0.804   6.382 -0.2979  1.4096 -0.3666
 4201SOL     OW24238   1.741   4.572  15.615  0.2526  0.2446  0.3297
 4201SOL    HW124239   1.713   4.634  15.683  0.7030 -1.2169  1.8572
 4201SOL    HW224240   1.816   4.626  15.593 -0.7156  2.4588  2.4755
 4202SOL     OW24241   2.355   3.358   3.119 -0.0836  0.0079  0.1707
 4202SOL    HW124242   2.364   3.284   3.178  1.2416  0.8436  1.0297
 4202SOL    HW224243   2.261   3.371   3.131 -0.3133 -1.2794 -0.2010
 4203SOL     OW24244   3.295   0.383  17.181  0.0349 -0.2118 -0.8247
 4203SOL    HW124245   3.312   0.462  17.129  1.8703  0.7869  1.3037
 4203SOL    HW224246   3.256   0.320  17.120 -0.6393 -0.3807 -0.2175
 4204SOL     OW24247   3.958   2.312   4.456  0.5002  0.0626 -0.5808
 4204SOL    HW124248   3.897   2.259   4.404  1.2965  0.4291 -1.8771
 4204SOL    HW224249   3.886   2.353   4.505 -0.4427 -3.0230  0.6016
 4205SOL     OW24250   3.761   3.240   4.555 -0.3742 -0.8870  0.0332
 4205SOL    HW124251   3.739   3.161   4.507 -3.3217 -0.3289  0.4072
 4205SOL    HW224252   3.677   3.286   4.548 -1.5021 -3.0180 -0.2757
 4206SOL     OW24253   4.299   3.663   3.717 -0.4240  0.2348  0.0189
 4206SOL    HW124254   4.291   3.706   3.632 -2.3987  0.2981  0.2276
 4206SOL    HW224255   4.391   3.675   3.738  0.1383 -3.5171 -0.2956
 4207SOL     OW24256   1.712   3.096   2.600 -0.1756  0.0956 -0.1087
 4207SOL    HW124257   1.743   3.183   2.573  3.7532 -2.1166 -2.7130
 4207SOL    HW224258   1.656   3.136   2.667  0.9025  0.5877  0.4995
 4208SOL     OW24259   3.051   2.994   7.594 -0.9140  0.2195 -0.3612
 4208SOL    HW124260   3.106   3.069   7.569  0.3725  0.1871  2.3772
 4208SOL    HW224261   3.093   2.944   7.664 -2.4987  1.9317  1.8005
 4209SOL     OW24262   2.003   3.063   6.139 -0.5533  0.2230 -0.1628
 4209SOL    HW124263   1.929   3.001   6.136  0.0341 -0.5481  1.2526
 4209SOL    HW224264   2.063   3.022   6.077 -1.6256  1.4832 -2.0298
 4210SOL     OW24265   1.915   4.727   2.003  0.5511 -0.1061  0.0767
 4210SOL    HW124266   1.978   0.044   2.053 -0.9824 -1.2435  3.1914
 4210SOL    HW224267   1.840   0.052   2.003  1.4721  1.0523 -0.6323
 4211SOL     OW24268   2.534   1.725  15.447 -0.0284  0.0791  0.2935
 4211SOL    HW124269   2.567   1.720  15.537  0.0767 -0.9420  0.2004
 4211SOL    HW224270   2.589   1.788  15.400  0.4712 -1.1658 -0.7875
 4212SOL     OW24271   2.876   4.340  11.088 -0.3596 -0.4228  0.6809
 4212SOL    HW124272   2.941   4.303  11.028 -1.4323  0.2885 -0.9388
 4212SOL    HW224273   2.872   4.430  11.056  0.7582 -1.1446 -1.5255
 4213SOL     OW24274   4.596   0.505   5.140  0.6659  0.0691  0.1246
 4213SOL    HW124275   4.606   0.600   5.129  0.1621 -0.0229 -1.0863
 4213SOL    HW224276   4.557   0.484   5.055  2.1176  0.6273 -0.6829
 4214SOL     OW24277   3.915   3.102   7.586 -0.1478 -0.0213 -0.6384
 4214SOL    HW124278   3.853   3.030   7.572 -1.8380  1.7661 -2.4569
 4214SOL    HW224279   3.985   3.057   7.633 -0.5560  1.1894  1.1232
 4215SOL     OW24280   4.420   2.228  15.131  0.1214 -0.0789  0.1428
 4215SOL    HW124281   4.474   2.306  15.118 -0.6956  0.3284 -0.7770
 4215SOL    HW224282   4.408   2.217  15.036 -0.7540  0.1459  0.2345
 4216SOL     OW24283   2.908   3.717  16.797  0.0244  0.1484  0.3843
 4216SOL    HW124284   2.822   3.676  16.785  0.0519  0.2997 -0.3395
 4216SOL    HW224285   2.916   3.753  16.709  1.4291  0.4992  0.6569
 4217SOL     OW24286   2.419   2.215   3.225  0.6644  0.0066 -0.2553
 4217SOL    HW124287   2.335   2.172   3.237  0.2451  0.6407 -0.9677
 4217SOL    HW224288   2.413   2.273   3.149  0.5830  0.9794  0.4873
 4218SOL     OW24289   2.155   1.129   7.470  0.3174  0.6219 -0.1594
 4218SOL    HW124290   2.160   1.034   7.478 -1.7141  0.7312  2.5190
 4218SOL    HW224291   2.205   1.146   7.390 -0.9193 -1.2886 -1.3176
 4219SOL     OW24292   3.918   3.046   1.527  0.3491  0.0013 -0.1194
 4219SOL    HW124293   3.913   3.128   1.478 -3.1119  0.5677  1.1706
 4219SOL    HW224294   3.896   3.072   1.616 -0.8657 -0.1839 -0.3637
 4220SOL     OW24295   3.803   2.666  11.852 -0.2901 -0.4696  0.0400
 4220SOL    HW124296   3.832   2.582  11.888 -3.7961 -1.5931  0.2495
 4220SOL    HW224297   3.861   2.662  11.776 -2.8576  0.1835 -1.9385
 4221SOL     OW24298   0.307   0.815   5.400 -0.3197 -0.2021  0.2912
 4221SOL    HW124299   0.261   0.852   5.475  2.7378  0.0052  2.0573
 4221SOL    HW224300   0.359   0.744   5.438  1.2768  0.7286 -0.1546
 4222SOL     OW24301   0.874   4.479  11.707 -0.1752 -0.0061 -0.9237
 4222SOL    HW124302   0.915   4.393  11.701 -1.5404 -0.7112 -0.0817
 4222SOL    HW224303   0.949   4.530  11.737 -1.3357  1.3182 -0.2447
 4223SOL     OW24304   1.104   0.053   8.738 -0.1131  0.4807 -0.7574
 4223SOL    HW124305   1.058   4.716   8.694 -0.0577 -1.6354  2.5832
 4223SOL    HW224306   1.027   0.109   8.749  0.3583  0.9199  0.2811
 4224SOL     OW24307   2.393   0.804   6.017  0.0507 -0.1885  0.1029
 4224SOL    HW124308   2.370   0.749   5.943 -0.8367  1.0444 -0.5340
 4224SOL    HW224309   2.412   0.748   6.093  3.2707 -1.1782 -1.4471
 4225SOL     OW24310   0.699   2.528   8.217  0.4967 -0.0239  0.1456
 4225SOL    HW124311   0.753   2.608   8.219 -1.0208  1.0066 -0.4866
 4225SOL    HW224312   0.758   2.472   8.268 -0.3777  0.3749  1.6117
 4226SOL     OW24313   0.746   4.341   6.773  0.1717 -0.5167  0.4447
 4226SOL    HW124314   0.823   4.397   6.757  0.0845 -0.6071 -0.2727
 4226SOL    HW224315   0.708   4.392   6.844 -2.1153 -2.1234  0.3419
 4227SOL     OW24316   2.984   0.971   6.829 -0.6901  0.1706 -0.8031
 4227SOL    HW124317   3.010   0.930   6.747 -0.7367 -1.8860  0.2281
 4227SOL    HW224318   3.041   0.933   6.896 -0.5009 -0.6544 -1.4398
 4228SOL     OW24319   3.323   0.218   7.218  0.3755 -0.5996  0.0214
 4228SOL    HW124320   3.415   0.238   7.229  0.1632  0.9319 -1.0936
 4228SOL    HW224321   3.320   0.125   7.196  1.6430 -0.3067 -1.3432
 4229SOL     OW24322   4.075   3.072  15.020 -0.1066 -0.2027 -0.6788
 4229SOL    HW124323   4.010   3.004  15.001  0.5915 -1.0766  0.0479
 4229SOL    HW224324   4.146   3.052  14.959  0.9135  1.7762 -0.1280
 4230SOL     OW24325   3.879   3.067  15.223 -0.2621  0.0471  0.0838
 4230SOL    HW124326   3.932   3.087  15.146 -1.4559 -0.3490 -0.8560
 4230SOL    HW224327   3.846   3.156  15.238 -0.2045  0.5360 -2.6402
 4231SOL     OW24328   3.611   2.992   8.466 -0.1405  0.0683 -0.2649
 4231SOL    HW124329   3.629   2.931   8.538 -1.6525  0.3169  0.3384
 4231SOL    HW224330   3.650   2.948   8.391 -0.0166 -0.5776  0.1741
 4232SOL     OW24331   1.059   0.226  10.665 -0.7502 -0.7240 -0.1503
 4232SOL    HW124332   1.137   0.272  10.632 -0.2479 -2.4597 -1.3658
 4232SOL    HW224333   1.029   0.275  10.741  3.3094  0.9098  0.4387
 4233SOL     OW24334   2.339   3.132   3.544 -0.4666  0.1778 -0.1453
 4233SOL    HW124335   2.345   3.211   3.597 -0.9017  0.7062 -0.8858
 4233SOL    HW224336   2.363   3.063   3.606  0.1615 -1.7310 -2.5041
 4234SOL     OW24337   0.868   1.538   7.625 -0.4115 -0.1680  0.8405
 4234SOL    HW124338   0.853   1.627   7.595 -0.3035  0.1819  1.8509
 4234SOL    HW224339   0.787   1.504   7.586 -2.4430  3.8531  1.5745
 4235SOL     OW24340   3.191   4.097  11.174 -0.7295 -0.4512  0.2532
 4235SOL    HW124341   3.187   4.163  11.243 -1.6350  0.6822 -0.8837
 4235SOL    HW224342   3.123   4.038  11.206  0.2135 -0.1815  2.7411
 4236SOL     OW24343   1.771   1.989   9.271  0.4934  0.5134 -0.3703
 4236SOL    HW124344   1.706   2.058   9.261 -1.1563 -1.0287 -0.3791
 4236SOL    HW224345   1.709   1.936   9.321  0.5310  1.8275  1.0418
 4237SOL     OW24346   0.132   3.848   5.651 -0.3043  0.1203 -0.1896
 4237SOL    HW124347   0.152   3.935   5.684  2.2178  0.0022 -1.3939
 4237SOL    HW224348   0.177   3.858   5.567  0.7100 -2.1382  0.0652
 4238SOL     OW24349   1.174   1.963  10.540  0.0321 -0.3150 -0.1133
 4238SOL    HW124350   1.222   1.928  10.465 -0.9327 -0.0391 -0.8600
 4238SOL    HW224351   1.235   1.922  10.602  0.0204 -0.5822 -0.2759
 4239SOL     OW24352   3.021   1.359   4.543  0.2431  0.4822  0.3694
 4239SOL    HW124353   3.058   1.430   4.597 -1.1857  1.8647 -0.4847
 4239SOL    HW224354   3.082   1.289   4.566 -0.5534  0.0090  1.0271
 4240SOL     OW24355   3.037   0.439  17.313  0.1786 -0.4237  0.3822
 4240SOL    HW124356   3.102   0.456  17.381  0.6381 -0.6111 -0.0005
 4240SOL    HW224357   3.093   0.406  17.242 -0.2318 -3.6376  1.5537
 4241SOL     OW24358   3.305   2.734   2.440  0.0517 -0.4821 -0.3140
 4241SOL    HW124359   3.261   2.773   2.516 -0.5904  1.1156 -1.4964
 4241SOL    HW224360   3.359   2.676   2.493  0.6951  0.6382  0.2659
 4242SOL     OW24361   2.224   3.410   4.157 -0.0429  0.0479 -0.3047
 4242SOL    HW124362   2.293   3.344   4.147  0.4960  0.5043  0.3986
 4242SOL    HW224363   2.246   3.477   4.092  2.7233  2.1558  2.8175
 4243SOL     OW24364   2.274   4.544  16.388  0.3050 -0.4329 -0.5245
 4243SOL    HW124365   2.314   4.478  16.444  0.4095  0.3975  0.3817
 4243SOL    HW224366   2.210   4.586  16.445  0.2740  0.2257 -1.0318
 4244SOL     OW24367   2.636   4.213   2.482 -0.0941  1.0540 -0.0821
 4244SOL    HW124368   2.693   4.139   2.462 -1.4782  0.0442 -0.3178
 4244SOL    HW224369   2.676   4.276   2.422 -2.7359  1.7457 -1.1011
 4245SOL     OW24370   0.822   2.504   5.693  0.9231 -0.8293  0.4432
 4245SOL    HW124371   0.858   2.522   5.780  2.2006  0.4873 -0.3499
 4245SOL    HW224372   0.899   2.493   5.638  1.9912  2.5343  1.2688
 4246SOL     OW24373   0.713   4.292   5.825 -0.3232  0.7612 -0.7395
 4246SOL    HW124374   0.807   4.286   5.844 -0.4187 -0.1436 -0.5693
 4246SOL    HW224375   0.703   4.209   5.778 -2.2105  1.5299 -1.6860
 4247SOL     OW24376   0.716   3.361   8.552  0.1129 -0.2790  0.0912
 4247SOL    HW124377   0.763   3.444   8.553 -0.2908 -0.0445 -0.6339
 4247SOL    HW224378   0.627   3.392   8.572 -0.4258 -2.1188  0.6431
 4248SOL     OW24379   2.155   1.068   0.588 -0.2226  0.1111  0.6241
 4248SOL    HW124380   2.094   1.115   0.532 -0.2464 -0.3944  0.2228
 4248SOL    HW224381   2.205   1.145   0.614 -2.4080  1.6275  0.3204
 4249SOL     OW24382   2.597   1.299   8.319  0.5020 -0.0247  0.4171
 4249SOL    HW124383   2.547   1.289   8.401  1.4637 -1.4334  0.8370
 4249SOL    HW224384   2.616   1.392   8.323  0.5827 -0.0257  0.0184
 4250SOL     OW24385   2.119   3.431   5.941  0.9011 -0.0355  0.3742
 4250SOL    HW124386   2.183   3.385   5.997 -0.4958 -0.2916  1.7624
 4250SOL    HW224387   2.078   3.496   5.997  1.7486 -1.6937  2.9424
 4251SOL     OW24388   1.428   3.596  17.068  0.3823  0.4261 -0.1853
 4251SOL    HW124389   1.355   3.657  17.080 -2.6051 -3.2120  0.1840
 4251SOL    HW224390   1.477   3.619  17.147  0.1709 -1.9532  0.6435
 4252SOL     OW24391   0.021   2.272   7.187 -0.5576  0.0511 -0.4944
 4252SOL    HW124392   4.701   2.198   7.161  1.2272 -0.8959 -1.5590
 4252SOL    HW224393   4.695   2.320   7.244  0.9126  0.1001  1.0255
 4253SOL     OW24394   4.044   3.451  13.814  0.2061 -0.0337 -0.1433
 4253SOL    HW124395   3.990   3.415  13.744 -0.1792 -1.0123  0.6489
 4253SOL    HW224396   4.041   3.546  13.813  1.3805 -0.0040 -0.5651
 4254SOL     OW24397   1.993   3.564   8.473  0.2640 -0.6314  0.2316
 4254SOL    HW124398   1.982   3.556   8.379  1.3466 -0.8230  0.1122
 4254SOL    HW224399   1.956   3.478   8.493 -0.4272  0.0288  1.8403
 4255SOL     OW24400   3.804   3.451   6.132 -0.0060  0.0129 -0.6404
 4255SOL    HW124401   3.807   3.452   6.036  0.9944  0.5426 -0.6001
 4255SOL    HW224402   3.723   3.403   6.153 -0.2236  1.6456  2.3031
 4256SOL     OW24403   3.957   1.604   8.614 -0.5257  0.3103  0.1222
 4256SOL    HW124404   4.000   1.523   8.586  1.6305  0.5562  2.8030
 4256SOL    HW224405   4.030   1.663   8.592 -0.4413  0.3462  0.5022
 4257SOL     OW24406   1.033   2.537   3.549  0.3155  0.1844  0.0005
 4257SOL    HW124407   1.109   2.536   3.491  0.3196  2.6882 -0.0071
 4257SOL    HW224408   1.074   2.500   3.628  2.1098  0.0707 -0.9824
 4258SOL     OW24409   0.188   3.606   1.834 -0.5981 -0.2680 -0.2589
 4258SOL    HW124410   0.189   3.511   1.827  0.1285 -0.0737 -3.0195
 4258SOL    HW224411   0.152   3.624   1.921  1.2263 -1.1991  0.6767
 4259SOL     OW24412   1.715   3.416   6.072 -0.5390 -0.5131  0.3253
 4259SOL    HW124413   1.642   3.354   6.070 -0.7956 -0.2501  1.4969
 4259SOL    HW224414   1.688   3.487   6.014 -0.3048  0.0254  0.8747
 4260SOL     OW24415   4.295   1.233   7.265  0.1498  0.0115  0.2518
 4260SOL    HW124416   4.236   1.268   7.199  1.0990  0.5241 -0.3358
 4260SOL    HW224417   4.372   1.225   7.209  2.2016  1.5306  2.8516
 4261SOL     OW24418   2.634   3.719  10.086 -0.0889 -0.3861  0.0331
 4261SOL    HW124419   2.706   3.661  10.061  0.0890 -0.4103  0.6182
 4261SOL    HW224420   2.628   3.707  10.180 -0.5794 -0.6146 -0.0278
 4262SOL     OW24421   1.709   1.832   1.314 -0.3711 -0.2361  0.3163
 4262SOL    HW124422   1.664   1.915   1.296 -0.0402 -0.0706  0.2594
 4262SOL    HW224423   1.795   1.840   1.273  0.4314 -1.5306  1.7684
 4263SOL     OW24424   4.517   3.561   5.216 -0.6137  0.0578  0.4437
 4263SOL    HW124425   4.510   3.466   5.213 -0.7373  0.0272  1.5812
 4263SOL    HW224426   4.535   3.578   5.123 -0.7880  0.1912  0.4343
 4264SOL     OW24427   0.758   4.148  15.866 -0.2334 -0.9632  0.3292
 4264SOL    HW124428   0.845   4.144  15.906 -0.9879  1.2567  2.1775
 4264SOL    HW224429   0.703   4.190  15.931 -2.2062 -2.3740 -0.4253
 4265SOL     OW24430   2.728   1.536   6.893  0.2404  0.9040 -0.4303
 4265SOL    HW124431   2.744   1.581   6.809  0.8343 -0.5480 -1.0877
 4265SOL    HW224432   2.635   1.553   6.905 -0.0206 -1.9391  1.2863
 4266SOL     OW24433   2.816   1.522  13.398 -0.0600 -0.0805  0.1144
 4266SOL    HW124434   2.738   1.468  13.413 -0.7422  1.1382  1.0243
 4266SOL    HW224435   2.885   1.472  13.442  1.1315  0.3349 -1.2707
 4267SOL     OW24436   0.265   4.288   7.123 -1.0789 -0.2175  0.0668
 4267SOL    HW124437   0.208   4.243   7.185 -1.3443 -0.1964 -0.1606
 4267SOL    HW224438   0.297   4.363   7.172  0.2476  0.4255 -1.7713
 4268SOL     OW24439   1.858   1.366   7.225 -0.6069 -0.3695  0.4061
 4268SOL    HW124440   1.876   1.291   7.168 -0.1166  0.2514 -0.2537
 4268SOL    HW224441   1.769   1.386   7.195  0.1847  0.0399 -1.6669
 4269SOL     OW24442   2.376   2.157   8.390  0.1495 -0.1434 -0.7037
 4269SOL    HW124443   2.334   2.108   8.319 -0.7443  0.9939 -0.9548
 4269SOL    HW224444   2.457   2.105   8.390 -0.5036 -1.1523 -0.1803
 4270SOL     OW24445   0.421   3.549   5.287 -0.2563  0.2110 -0.1233
 4270SOL    HW124446   0.489   3.540   5.354  1.0254 -1.3932 -1.6581
 4270SOL    HW224447   0.348   3.584   5.338 -0.3689  1.6778 -1.2721
 4271SOL     OW24448   0.097   1.757   6.805 -0.6776 -0.7549 -0.8005
 4271SOL    HW124449   0.104   1.852   6.798 -2.0259 -0.5858  0.3193
 4271SOL    HW224450   0.159   1.757   6.878 -0.2577  1.3536 -1.1523
 4272SOL     OW24451   0.799   1.746   5.623 -0.4352 -0.0678 -0.3342
 4272SOL    HW124452   0.855   1.770   5.696  0.2765 -2.3952 -0.1078
 4272SOL    HW224453   0.841   1.786   5.547  0.9577 -0.5579  0.1737
 4273SOL     OW24454   0.687   1.460   5.513 -0.2437  0.0265 -0.3497
 4273SOL    HW124455   0.692   1.529   5.579 -1.1786  0.8612 -1.1623
 4273SOL    HW224456   0.608   1.411   5.536 -0.1069 -1.0395 -2.1271
 4274SOL     OW24457   1.727   3.795   6.676  0.2161  0.0433 -0.6569
 4274SOL    HW124458   1.754   3.848   6.601  0.6983  1.0051  0.2012
 4274SOL    HW224459   1.731   3.714   6.625  1.4346 -0.1810 -0.2186
 4275SOL     OW24460   0.300   2.763   5.230 -0.3961 -0.3210 -0.3481
 4275SOL    HW124461   0.381   2.786   5.184 -0.5852 -0.8092 -0.9240
 4275SOL    HW224462   0.239   2.817   5.181 -1.2711 -0.2545  0.8199
 4276SOL     OW24463   3.799   2.485   0.897 -0.2595  0.0005  0.5827
 4276SOL    HW124464   3.792   2.567   0.847  0.7781 -0.2843 -0.0275
 4276SOL    HW224465   3.832   2.421   0.834  1.8334  0.7822  0.9062
 4277SOL     OW24466   2.030   4.328   3.044  0.1727  0.2672  0.0081
 4277SOL    HW124467   2.092   4.286   3.103 -0.5432  1.1315  1.3715
 4277SOL    HW224468   2.080   4.401   3.008  0.7433 -0.1455 -0.0294
 4278SOL     OW24469   2.701   3.272   6.429  0.5416  0.4338  0.1638
 4278SOL    HW124470   2.698   3.357   6.472 -2.7898  0.0616  0.7085
 4278SOL    HW224471   2.755   3.220   6.489 -0.1888 -2.6222 -1.8266
 4279SOL     OW24472   2.334   4.193   0.981  0.9561  0.6764 -0.9192
 4279SOL    HW124473   2.357   4.123   1.043 -2.4992  0.1190 -0.2653
 4279SOL    HW224474   2.319   4.140   0.903 -0.1345 -0.4812  0.0832
 4280SOL     OW24475   4.579   4.592  12.244  0.5158  0.4239  0.1523
 4280SOL    HW124476   4.511   4.634  12.191  0.8556  1.9220  0.9109
 4280SOL    HW224477   4.596   4.650  12.318 -3.4074  2.2164 -0.3213
 4281SOL     OW24478   1.840   0.098   0.164  0.0417 -0.3097  0.5395
 4281SOL    HW124479   1.930   0.114   0.135 -0.3125  2.2365  0.8800
 4281SOL    HW224480   1.844   0.002   0.168  0.4183 -0.3205 -0.0239
 4282SOL     OW24481   3.918   0.874   1.913 -0.3037  0.9936  0.0417
 4282SOL    HW124482   3.990   0.885   1.851  0.4271  2.2476  1.1083
 4282SOL    HW224483   3.938   0.786   1.944 -3.8096  0.5160  0.9770
 4283SOL     OW24484   0.658   4.081   2.482  0.1718  0.0756  0.0999
 4283SOL    HW124485   0.612   4.031   2.550  1.4474  1.3074  1.8801
 4283SOL    HW224486   0.736   4.026   2.489  1.7556  2.4099  0.7058
 4284SOL     OW24487   1.891   2.602  16.865  0.1327 -0.2998 -0.1964
 4284SOL    HW124488   1.880   2.647  16.948  0.2616 -0.3013 -0.1778
 4284SOL    HW224489   1.820   2.538  16.868  0.6189 -0.8653 -0.7157
 4285SOL     OW24490   0.941   0.777  17.225  0.1800  0.4447 -0.1253
 4285SOL    HW124491   0.887   0.730  17.161 -0.6282 -0.3024  1.1043
 4285SOL    HW224492   0.873   0.819  17.278  0.9909  1.8997 -0.2303
 4286SOL     OW24493   1.392   3.961   2.294 -0.1435 -0.3146  0.3692
 4286SOL    HW124494   1.374   3.901   2.221  1.2455 -0.1656 -0.1123
 4286SOL    HW224495   1.311   3.963   2.343 -1.3401 -0.9840 -1.5814
 4287SOL     OW24496   2.128   3.733   4.438  0.0893 -0.7132 -0.0299
 4287SOL    HW124497   2.129   3.643   4.404  1.7812 -0.2869 -1.1098
 4287SOL    HW224498   2.214   3.765   4.411  0.8602 -1.5704  1.4087
 4288SOL     OW24499   3.023   4.116   2.225  0.3141  0.0152 -0.8417
 4288SOL    HW124500   2.938   4.090   2.192  0.3767  0.4355 -1.3411
 4288SOL    HW224501   3.085   4.064   2.174 -0.3737 -1.3095 -0.3087
 4289SOL     OW24502   0.014   1.498  11.460  0.3314 -0.3672  0.2994
 4289SOL    HW124503   0.029   1.537  11.374 -1.2903 -1.8213 -0.6165
 4289SOL    HW224504   0.026   1.575  11.516 -1.1165  0.5759 -0.7114
 4290SOL     OW24505   0.518   2.151  15.134 -0.0511  0.0538  0.1634
 4290SOL    HW124506   0.502   2.060  15.156  0.9997  0.6160  3.2597
 4290SOL    HW224507   0.611   2.147  15.112 -0.3298 -1.0765 -0.7939
 4291SOL     OW24508   3.233   2.758   2.721  0.0331 -0.0934  0.3018
 4291SOL    HW124509   3.175   2.683   2.735 -2.1528  1.6435  0.5034
 4291SOL    HW224510   3.295   2.739   2.792 -0.3353 -3.4277 -0.2543
 4292SOL     OW24511   1.661   4.428  16.510 -0.3684 -0.0947  0.5122
 4292SOL    HW124512   1.666   4.356  16.447  2.2143  0.4566  0.1123
 4292SOL    HW224513   1.586   4.478  16.476 -0.6530 -1.0516 -0.2823
 4293SOL     OW24514   2.149   2.229   2.677  0.1299 -0.1944  0.1214
 4293SOL    HW124515   2.195   2.311   2.659 -1.3799  0.4194 -0.9049
 4293SOL    HW224516   2.219   2.164   2.682  0.8783  0.7730  2.6585
 4294SOL     OW24517   1.259   2.226   4.873 -0.2359  0.5861  0.8867
 4294SOL    HW124518   1.242   2.253   4.963 -1.7788 -0.4581  0.9092
 4294SOL    HW224519   1.168   2.209   4.846  0.5917 -1.6267 -0.5513
 4295SOL     OW24520   1.364   4.595   8.471 -0.2818  0.0681  0.2681
 4295SOL    HW124521   1.319   4.549   8.399 -0.8937 -3.3705  2.8506
 4295SOL    HW224522   1.449   4.618   8.434  0.0396  1.8943  2.1855
 4296SOL     OW24523   3.607   1.878   7.152 -0.3139  0.4031  0.0103
 4296SOL    HW124524   3.611   1.900   7.245  1.0370  0.6017 -0.0968
 4296SOL    HW224525   3.514   1.864   7.131 -1.0382  2.5427  1.8417
 4297SOL     OW24526   0.048   0.095   7.929  0.5188  0.6284 -0.3279
 4297SOL    HW124527   0.040   0.012   7.883 -0.4608 -0.0423  1.0704
 4297SOL    HW224528   0.143   0.097   7.939  0.4645  0.2766  0.2447
 4298SOL     OW24529   4.313   1.195  16.939  0.0389 -0.2368 -0.3353
 4298SOL    HW124530   4.398   1.165  16.909  0.8786  0.1030  1.7156
 4298SOL    HW224531   4.309   1.286  16.908 -1.5710 -1.4370 -3.7045
 4299SOL     OW24532   2.490   3.899   9.213  0.2082  0.1808  0.2225
 4299SOL    HW124533   2.552   3.971   9.198 -0.1641  0.4418 -0.0579
 4299SOL    HW224534   2.544   3.820   9.205  0.0308  0.1081 -0.2407
 4300SOL     OW24535   0.162   0.828  11.036 -0.0139 -0.1966 -0.1153
 4300SOL    HW124536   0.173   0.921  11.016  0.5892 -0.2044  0.1845
 4300SOL    HW224537   0.247   0.789  11.014 -0.7431 -2.0781  0.3843
 4301SOL     OW24538   1.895   2.580   7.668 -0.2281  1.0451 -0.2299
 4301SOL    HW124539   1.856   2.495   7.688  0.8414  1.3043  2.9518
 4301SOL    HW224540   1.957   2.573   7.596 -1.1411  2.2156 -1.1412
 4302SOL     OW24541   2.393   0.099   4.301 -0.0833 -0.0900 -0.3369
 4302SOL    HW124542   2.464   0.160   4.320 -0.6719  0.5499 -0.1938
 4302SOL    HW224543   2.388   0.120   4.208 -2.5886  0.8369  0.0019
 4303SOL     OW24544   0.435   2.623   7.688 -0.2492  0.4962 -0.6871
 4303SOL    HW124545   0.499   2.693   7.706 -0.8686  0.9341 -0.1730
 4303SOL    HW224546   0.477   2.575   7.617 -1.1576  0.2689 -1.0700
 4304SOL     OW24547   3.165   0.953   3.538 -0.3372 -0.1371 -0.3384
 4304SOL    HW124548   3.209   0.997   3.466 -1.4447 -0.0383 -0.9572
 4304SOL    HW224549   3.234   0.951   3.604 -0.9704  4.6943  0.4296
 4305SOL     OW24550   0.479   1.360   5.694 -0.2803  0.1273  0.0332
 4305SOL    HW124551   0.400   1.412   5.682 -1.5311 -1.7780 -0.0342
 4305SOL    HW224552   0.445   1.280   5.735 -1.0072  0.5616  0.2549
 4306SOL     OW24553   0.628   4.456   6.988 -0.2185  0.1734 -0.3336
 4306SOL    HW124554   0.588   4.468   7.074 -2.0619  1.8244 -1.4105
 4306SOL    HW224555   0.545   4.463   6.941  0.3309  1.2426 -1.1555
 4307SOL     OW24556   3.372   0.151   6.326 -0.0707  0.4599  0.2654
 4307SOL    HW124557   3.325   0.193   6.253 -1.2200  0.3191  0.9192
 4307SOL    HW224558   3.359   0.226   6.383  0.0004 -0.9939  2.1791
 4308SOL     OW24559   3.981   2.778  11.681 -0.4229  0.2403  0.1952
 4308SOL    HW124560   3.958   2.832  11.605  1.7209  2.3799  1.0250
 4308SOL    HW224561   4.035   2.844  11.724  0.9851 -0.7232 -0.0887
 4309SOL     OW24562   3.031   0.208   7.893 -0.2370  0.2837  0.1889
 4309SOL    HW124563   3.110   0.252   7.925  0.4110 -2.4698  2.4312
 4309SOL    HW224564   2.969   0.280   7.905 -2.5232 -1.6729  0.0085
 4310SOL     OW24565   1.815   0.076   5.041  0.2094 -0.0373  0.1258
 4310SOL    HW124566   1.722   0.061   5.023  0.6577 -0.2358 -1.9880
 4310SOL    HW224567   1.809   0.126   5.123  3.6610 -1.2354  1.0944
 4311SOL     OW24568   1.914   1.430   7.481 -0.7041  0.2250 -0.3050
 4311SOL    HW124569   1.866   1.512   7.484 -1.4493 -0.2852  1.4672
 4311SOL    HW224570   1.892   1.393   7.396 -1.2541 -1.2302  0.4754
 4312SOL     OW24571   1.105   3.175   3.693  0.5409 -0.1289 -0.6473
 4312SOL    HW124572   1.127   3.144   3.605  0.1210 -0.7365 -0.5373
 4312SOL    HW224573   1.086   3.095   3.742  1.8271  0.5001  0.8724
 4313SOL     OW24574   2.085   1.249   3.290 -0.1115  0.1516 -0.2187
 4313SOL    HW124575   2.064   1.156   3.278  2.1188 -0.1611 -1.7224
 4313SOL    HW224576   2.164   1.251   3.236  1.0774  0.1116  1.4947
 4314SOL     OW24577   4.339   2.353  14.759 -0.5558 -0.4809  0.4742
 4314SOL    HW124578   4.310   2.417  14.823  0.5515  1.6627 -1.1852
 4314SOL    HW224579   4.403   2.301  14.807 -1.0026  0.1899  1.7786
 4315SOL     OW24580   4.229   0.498   7.677  0.2970 -0.2982 -0.8046
 4315SOL    HW124581   4.245   0.575   7.622 -1.0990  1.1423  0.8278
 4315SOL    HW224582   4.317   0.465   7.690  0.0482 -0.2499  0.9420
 4316SOL     OW24583   3.007   0.473   7.990 -0.5946  0.2489 -0.4360
 4316SOL    HW124584   3.017   0.436   8.078 -2.5898  1.0023  0.1058
 4316SOL    HW224585   2.922   0.516   8.000 -0.8061 -0.0481 -0.9918
 4317SOL     OW24586   1.537   1.579   3.119 -0.2588 -0.0286  0.3359
 4317SOL    HW124587   1.572   1.524   3.049 -1.0438  0.5720 -0.5168
 4317SOL    HW224588   1.542   1.671   3.094 -0.0032 -0.3641 -0.8466
 4318SOL     OW24589   0.564   0.706   9.637 -0.0668  0.0693 -0.1977
 4318SOL    HW124590   0.607   0.700   9.722 -2.4379 -0.1483  1.0022
 4318SOL    HW224591   0.637   0.699   9.576 -0.5157  2.2281 -0.9957
 4319SOL     OW24592   1.760   0.514   5.481 -0.4153  0.6177  0.8026
 4319SOL    HW124593   1.836   0.471   5.521  0.5948  1.0824 -0.6120
 4319SOL    HW224594   1.795   0.516   5.392 -0.4573  1.7627  0.8194
 4320SOL     OW24595   1.180   3.405   1.323  0.0904  0.1452 -0.2456
 4320SOL    HW124596   1.097   3.392   1.369  0.9096 -0.6501  1.0109
 4320SOL    HW224597   1.236   3.345   1.372 -1.7669  0.5582  2.4002
 4321SOL     OW24598   1.210   2.006   8.978  0.2788 -0.1891  0.2831
 4321SOL    HW124599   1.169   2.021   9.063 -0.6078 -1.2553  0.0460
 4321SOL    HW224600   1.159   1.939   8.931 -1.5108  1.5341 -0.2461
 4322SOL     OW24601   4.437   3.281  17.658  0.1324 -0.6194 -0.2230
 4322SOL    HW124602   4.460   3.372  17.636 -0.5927 -0.3767  0.0114
 4322SOL    HW224603   4.515   3.249  17.702  1.5654  1.1711 -1.4786
 4323SOL     OW24604   4.312   1.522  12.323  0.3420 -0.3103  0.2069
 4323SOL    HW124605   4.219   1.547  12.330  0.7487  0.9790  1.0147
 4323SOL    HW224606   4.310   1.446  12.264  0.3554 -1.4960  1.7313
 4324SOL     OW24607   3.283   1.143   8.378 -0.1225  1.1059  0.0043
 4324SOL    HW124608   3.206   1.153   8.322 -0.9370 -1.2851  0.7003
 4324SOL    HW224609   3.236   1.141   8.461 -0.8584  0.6915 -0.4303
 4325SOL     OW24610   4.087   2.952   3.120 -0.1532  0.8123  0.2268
 4325SOL    HW124611   4.018   2.888   3.137  1.9584 -1.4927  0.0434
 4325SOL    HW224612   4.167   2.910   3.150  0.1464  1.2832  0.0859
 4326SOL     OW24613   3.011   1.117  17.015 -0.7078  0.0534 -0.2912
 4326SOL    HW124614   2.982   1.194  16.966  3.5185  1.1963 -0.9408
 4326SOL    HW224615   3.089   1.149  17.061 -1.7569  2.5993 -0.2715
 4327SOL     OW24616   4.732   3.070  14.245 -0.2789  0.2125 -0.0953
 4327SOL    HW124617   4.680   3.050  14.167  0.8815 -1.5151 -0.4266
 4327SOL    HW224618   4.664   3.080  14.311  2.0939 -1.2563  2.5678
 4328SOL     OW24619   2.389   4.526   3.711  0.0317  0.4318  0.1984
 4328SOL    HW124620   2.406   4.603   3.656  1.3697 -0.8788 -1.2265
 4328SOL    HW224621   2.294   4.514   3.707  0.1769  0.4989 -3.8309
 4329SOL     OW24622   2.463   0.342  17.512  0.0213  0.8853  0.1030
 4329SOL    HW124623   2.543   0.290  17.503 -0.8678 -1.0751  3.6909
 4329SOL    HW224624   2.495   0.424  17.474  0.8273  0.1281 -0.8207
 4330SOL     OW24625   2.994   1.108  11.264 -0.1158 -0.1899 -0.4001
 4330SOL    HW124626   2.934   1.182  11.259 -0.7096 -0.5486  1.4145
 4330SOL    HW224627   2.957   1.038  11.212 -2.0127  0.7639 -0.3458
 4331SOL     OW24628   2.867   3.764   6.012  0.0528 -0.2284  0.3195
 4331SOL    HW124629   2.922   3.832   5.973  1.0758 -0.7310  0.8995
 4331SOL    HW224630   2.834   3.716   5.936 -1.0468  2.0440 -0.6347
 4332SOL     OW24631   2.569   3.964   6.840 -0.6914 -0.5841 -0.1984
 4332SOL    HW124632   2.584   3.875   6.874  0.5239 -0.0930  0.5365
 4332SOL    HW224633   2.475   3.980   6.846 -0.7324 -0.7535 -0.3687
 4333SOL     OW24634   4.310   0.718   7.366  0.2047  0.1272  0.1476
 4333SOL    HW124635   4.263   0.718   7.449  0.5341 -0.0221  0.3338
 4333SOL    HW224636   4.247   0.769   7.314  1.0530 -0.2517 -1.2633
 4334SOL     OW24637   4.194   3.019  15.434 -0.4683 -0.0537 -0.0259
 4334SOL    HW124638   4.215   2.992  15.344 -1.2131  0.9240 -0.4991
 4334SOL    HW224639   4.169   3.111  15.424  0.0987  0.1074  0.0432
 4335SOL     OW24640   1.844   2.731   4.913 -0.1888  0.1490 -0.1865
 4335SOL    HW124641   1.883   2.816   4.892 -1.5818  0.4274 -1.6607
 4335SOL    HW224642   1.915   2.669   4.921  0.0086  0.1683 -1.7065
 4336SOL     OW24643   1.437   4.169   3.896  0.1243  0.4330 -0.2405
 4336SOL    HW124644   1.418   4.108   3.968 -0.0694  0.1468 -0.5365
 4336SOL    HW224645   1.431   4.115   3.817 -0.1883 -0.3302  0.3021
 4337SOL     OW24646   1.131   2.653   1.271 -0.2765  0.5587 -0.7268
 4337SOL    HW124647   1.217   2.612   1.259 -0.6039 -0.3612  0.0657
 4337SOL    HW224648   1.101   2.591   1.337  2.8155 -0.9162 -0.6867
 4338SOL     OW24649   2.872   0.705   9.228  0.0367 -0.0051 -0.1081
 4338SOL    HW124650   2.872   0.698   9.132 -1.7675  1.9622 -0.2659
 4338SOL    HW224651   2.892   0.619   9.264  2.3252  0.7031  0.3474
 4339SOL     OW24652   2.606   0.708  16.852  0.1911  0.4784 -0.4036
 4339SOL    HW124653   2.564   0.629  16.818  3.4975 -0.9690 -1.1152
 4339SOL    HW224654   2.543   0.779  16.840 -1.4361 -0.7128  1.1858
 4340SOL     OW24655   1.043   4.202   0.487 -0.5921 -0.0698  0.3453
 4340SOL    HW124656   1.005   4.187   0.401 -0.0680 -1.9939  0.4451
 4340SOL    HW224657   1.135   4.174   0.480 -0.0837  0.9641  2.7184
 4341SOL     OW24658   0.882   0.881   8.903  0.1138 -0.7402  0.4196
 4341SOL    HW124659   0.815   0.873   8.835  0.3427  0.5235  0.0341
 4341SOL    HW224660   0.922   0.965   8.880 -2.9178  0.0940 -1.8055
 4342SOL     OW24661   3.377   2.444   1.426 -0.7976  0.7872 -0.2947
 4342SOL    HW124662   3.307   2.380   1.412 -0.6574  0.5582  0.0316
 4342SOL    HW224663   3.364   2.486   1.342  2.1396 -1.0371 -1.6794
 4343SOL     OW24664   0.953   1.843   4.387 -0.8055  0.2889  0.0517
 4343SOL    HW124665   0.943   1.757   4.346 -0.4321  0.1291  0.3037
 4343SOL    HW224666   1.026   1.875   4.335  0.8120  2.0079  3.4162
 4344SOL     OW24667   1.698   2.760   7.529 -0.2899 -0.7018  0.4971
 4344SOL    HW124668   1.746   2.681   7.502 -1.7350 -1.4596  0.1187
 4344SOL    HW224669   1.659   2.733   7.612 -0.2551  2.1904  1.4568
 4345SOL     OW24670   0.492   3.388   2.451 -0.1527  0.4105 -0.4941
 4345SOL    HW124671   0.476   3.340   2.533  2.2307  1.8743  0.8168
 4345SOL    HW224672   0.433   3.462   2.464 -1.0948 -0.7726  2.0870
 4346SOL     OW24673   1.522   0.566   9.318  0.0190  0.3482  0.2683
 4346SOL    HW124674   1.480   0.499   9.264  0.2362  0.6007 -0.2072
 4346SOL    HW224675   1.598   0.524   9.359  0.7624 -1.3043 -2.7864
 4347SOL     OW24676   4.487   3.435  16.506 -0.3805 -0.0196  0.1689
 4347SOL    HW124677   4.532   3.362  16.549  1.3677  1.1453  0.3341
 4347SOL    HW224678   4.563   3.465  16.457 -0.4815  0.8620  0.5592
 4348SOL     OW24679   3.427   2.142   7.125 -0.3032  0.3495  0.1902
 4348SOL    HW124680   3.366   2.081   7.167  0.6461  0.5585  1.8731
 4348SOL    HW224681   3.494   2.089   7.082 -0.2481  1.0881 -0.6357
 4349SOL     OW24682   3.097   1.637   2.436  0.0140 -0.0113  0.1559
 4349SOL    HW124683   3.142   1.691   2.500  0.8911 -1.1626  0.5007
 4349SOL    HW224684   3.031   1.701   2.409  1.9114  0.6700 -2.8335
 4350SOL     OW24685   2.884   0.804   4.916  0.1966 -0.4962 -0.4057
 4350SOL    HW124686   2.825   0.728   4.915  1.6280 -1.6180  1.0207
 4350SOL    HW224687   2.824   0.863   4.962  0.3949 -0.7790  0.2146
 4351SOL     OW24688   2.295   2.442  14.445 -0.6473 -0.3495  0.3248
 4351SOL    HW124689   2.386   2.418  14.431 -1.0773 -1.6035 -0.3541
 4351SOL    HW224690   2.301   2.471  14.536  1.9671 -2.5266  0.8458
 4352SOL     OW24691   3.500   3.653   4.898 -0.3535 -0.9188  0.2993
 4352SOL    HW124692   3.408   3.635   4.918 -0.4103  0.6876  1.4062
 4352SOL    HW224693   3.507   3.729   4.955 -1.1387 -0.7001  0.0972
 4353SOL     OW24694   4.220   1.110   5.398 -0.3635  0.1117  0.3999
 4353SOL    HW124695   4.210   1.168   5.323  0.2898 -0.6197 -0.2555
 4353SOL    HW224696   4.160   1.155   5.458 -1.7613  1.4350 -1.9911
 4354SOL     OW24697   4.482   3.336   9.437 -0.1527  0.2506  0.1105
 4354SOL    HW124698   4.577   3.349   9.431 -0.1257 -0.4854 -1.1232
 4354SOL    HW224699   4.481   3.287   9.519 -1.0544 -1.7526 -1.1041
 4355SOL     OW24700   0.063   4.144  14.610  0.1103  0.1446 -0.2939
 4355SOL    HW124701   4.701   4.151  14.605  0.2205  1.8892  0.1243
 4355SOL    HW224702   0.096   4.127  14.522  2.1315  1.9726  0.1111
 4356SOL     OW24703   0.599   4.450   8.630  0.0576  0.4096 -0.6564
 4356SOL    HW124704   0.643   4.438   8.714 -1.4191  0.5407  0.1288
 4356SOL    HW224705   0.672   4.429   8.571 -0.3665  0.0864 -1.0739
 4357SOL     OW24706   1.830   3.986   3.871 -0.0502 -0.1817 -0.3719
 4357SOL    HW124707   1.869   3.939   3.944 -0.3416 -0.4311 -0.3782
 4357SOL    HW224708   1.912   4.023   3.839  0.8064 -1.9868 -0.2683
 4358SOL     OW24709   2.688   1.555   8.263  0.2591  0.1183  0.6091
 4358SOL    HW124710   2.779   1.540   8.235 -0.2145 -0.4205 -0.6506
 4358SOL    HW224711   2.653   1.601   8.186 -2.0063 -2.5726  0.0276
 4359SOL     OW24712   4.227   3.020   9.304  0.3756 -0.5296  0.2801
 4359SOL    HW124713   4.271   2.942   9.340  0.3079 -0.1594  1.1644
 4359SOL    HW224714   4.199   3.004   9.214 -1.8141  0.6584  0.7669
 4360SOL     OW24715   0.776   4.729   4.584  0.1327  0.5550 -0.2251
 4360SOL    HW124716   0.821   0.021   4.504 -1.5156 -0.9872 -1.6773
 4360SOL    HW224717   0.689   0.036   4.585 -1.1452 -2.1155 -0.9264
 4361SOL     OW24718   3.706   1.913   4.198  0.5769 -0.0010  0.3615
 4361SOL    HW124719   3.721   2.007   4.202 -1.1955  0.3895 -1.8098
 4361SOL    HW224720   3.645   1.899   4.125  1.3435  0.9668 -0.4717
 4362SOL     OW24721   4.684   0.373   2.346  0.3761  0.0428  0.2674
 4362SOL    HW124722   4.720   0.290   2.379  0.3777 -0.5997 -1.3402
 4362SOL    HW224723   4.720   0.444   2.399  1.2228 -0.5938  0.5495
 4363SOL     OW24724   0.265   3.697   7.718 -0.5326 -0.7573 -0.5407
 4363SOL    HW124725   0.298   3.785   7.701  1.6841 -1.2770  0.9856
 4363SOL    HW224726   0.319   3.645   7.658  1.3076  3.1493 -2.2453
 4364SOL     OW24727   2.338   2.024  17.155 -0.4254 -0.1367 -0.5154
 4364SOL    HW124728   2.341   2.118  17.136  2.6638 -0.4004 -1.4640
 4364SOL    HW224729   2.294   2.024  17.239 -2.2366 -0.9066 -1.4750
 4365SOL     OW24730   2.277   2.355  14.188 -0.2007 -0.2332  0.2472
 4365SOL    HW124731   2.311   2.395  14.269 -0.4686 -0.2216  0.3537
 4365SOL    HW224732   2.268   2.262  14.208  2.7680 -0.4201  0.7434
 4366SOL     OW24733   2.433   3.670   1.595  0.1501  0.1420 -0.4532
 4366SOL    HW124734   2.456   3.618   1.672 -1.2220  0.1720 -0.0159
 4366SOL    HW224735   2.516   3.677   1.549  0.8303 -1.1150  0.6184
 4367SOL     OW24736   2.932   1.233   1.508 -0.0278 -0.0199 -0.3157
 4367SOL    HW124737   3.005   1.294   1.498  1.1041 -1.0235  1.6583
 4367SOL    HW224738   2.967   1.156   1.553 -1.7583 -0.4847  0.2032
 4368SOL     OW24739   2.920   0.329   8.860  0.1808  0.0048 -0.4394
 4368SOL    HW124740   2.990   0.293   8.914 -0.7435 -3.0174 -1.2935
 4368SOL    HW224741   2.960   0.326   8.774 -0.9252 -1.1545 -0.9103
 4369SOL     OW24742   1.472   3.213   0.638 -0.4564 -0.0691 -0.7288
 4369SOL    HW124743   1.501   3.160   0.713 -0.2133  2.1641  0.7436
 4369SOL    HW224744   1.512   3.297   0.662  0.7107 -1.1251  1.0267
 4370SOL     OW24745   1.798   4.494   5.985  0.1787 -0.0147  0.1028
 4370SOL    HW124746   1.799   4.530   6.073 -2.2869  0.8991 -0.2241
 4370SOL    HW224747   1.891   4.479   5.968 -0.0867 -1.5739 -0.0607
 4371SOL     OW24748   3.882   3.817   8.330  0.5652  0.3410 -0.4702
 4371SOL    HW124749   3.829   3.802   8.408  0.9613 -1.3992 -0.5231
 4371SOL    HW224750   3.837   3.751   8.278 -0.0565  0.2361  0.2054
 4372SOL     OW24751   2.625   3.420   3.559  0.2852 -0.1132  0.0415
 4372SOL    HW124752   2.697   3.360   3.578  1.0770  1.0848  0.8322
 4372SOL    HW224753   2.637   3.441   3.466 -0.9003 -2.7637 -0.7246
 4373SOL     OW24754   2.516   0.999  10.168  0.6152  0.0295  0.1136
 4373SOL    HW124755   2.561   1.026  10.087  1.1780 -0.3022  0.3164
 4373SOL    HW224756   2.572   1.031  10.239  1.9189 -0.3137 -0.7551
 4374SOL     OW24757   0.149   4.185   2.081 -0.6047 -0.2848  0.4322
 4374SOL    HW124758   0.231   4.199   2.034  0.4418 -1.6112  1.8779
 4374SOL    HW224759   0.156   4.253   2.148  1.2625 -0.0707  0.0295
 4375SOL     OW24760   2.064   3.427   3.154 -0.0428 -0.0458 -0.5222
 4375SOL    HW124761   2.012   3.348   3.170 -0.1059  0.2669  0.7947
 4375SOL    HW224762   2.057   3.483   3.231 -1.7178 -1.2070  0.1687
 4376SOL     OW24763   0.849   3.864   6.676 -0.0952 -0.6341  0.5885
 4376SOL    HW124764   0.867   3.900   6.590  1.9392 -2.1629  0.3756
 4376SOL    HW224765   0.866   3.946   6.722 -1.1091  0.2827 -0.6850
 4377SOL     OW24766   3.332   4.106   4.260 -0.0344  0.4594  0.5133
 4377SOL    HW124767   3.239   4.125   4.257  0.7699  4.6077  1.1765
 4377SOL    HW224768   3.356   4.160   4.336 -1.7268  1.6236  0.1992
 4378SOL     OW24769   0.925   4.429   7.288  0.0311 -0.2855  0.1667
 4378SOL    HW124770   0.931   4.393   7.377 -0.5336  1.3269  0.8665
 4378SOL    HW224771   0.888   4.516   7.307 -0.5642 -0.5571  0.2625
 4379SOL     OW24772   4.483   4.373  11.887  0.0688 -0.0251  0.1623
 4379SOL    HW124773   4.412   4.419  11.843 -0.0520  0.8862  1.3205
 4379SOL    HW224774   4.548   4.442  11.901 -0.0948  0.0375  0.6175
 4380SOL     OW24775   1.750   1.861   3.417 -0.2057 -0.2915  0.2487
 4380SOL    HW124776   1.751   1.942   3.468  0.7317  0.2732 -0.6686
 4380SOL    HW224777   1.768   1.888   3.327 -0.2382 -1.0947 -0.0009
 4381SOL     OW24778   2.995   0.811   8.497 -0.6616  0.2212  0.0496
 4381SOL    HW124779   2.919   0.794   8.554 -1.9058  4.6558 -0.2611
 4381SOL    HW224780   3.050   0.875   8.543 -1.2246 -0.2346  1.3495
 4382SOL     OW24781   1.645   2.396   8.931 -0.2769 -0.0774  0.2396
 4382SOL    HW124782   1.714   2.337   8.901 -2.7782 -2.2606 -1.2838
 4382SOL    HW224783   1.567   2.347   8.904 -1.1719  0.6474  1.5222
 4383SOL     OW24784   0.873   0.002  12.701  0.4300 -0.4913  0.0438
 4383SOL    HW124785   0.924   0.080  12.726 -1.0237  0.4712 -0.0026
 4383SOL    HW224786   0.827   4.713  12.782  0.2469 -0.0723  0.0599
 4384SOL     OW24787   1.862   0.611   4.920 -0.0398 -0.2743 -0.0241
 4384SOL    HW124788   1.925   0.540   4.905  0.1498 -0.1250  0.0619
 4384SOL    HW224789   1.921   0.687   4.916 -0.5532  0.0489 -1.4890
 4385SOL     OW24790   2.217   3.933   6.453  0.4774 -0.9853  0.2497
 4385SOL    HW124791   2.220   3.930   6.357 -2.6785  0.3291  0.0880
 4385SOL    HW224792   2.253   4.019   6.477 -1.6175  0.1541 -0.6048
 4386SOL     OW24793   4.400   0.155   2.773  0.0180 -0.3416  0.0504
 4386SOL    HW124794   4.385   0.072   2.820  0.7212 -0.6744 -0.3186
 4386SOL    HW224795   4.462   0.131   2.705  0.4993 -0.0113  0.3686
 4387SOL     OW24796   4.078   3.208   6.451 -0.2563  0.4538  0.9712
 4387SOL    HW124797   3.998   3.160   6.430 -0.7562  1.1324  1.3266
 4387SOL    HW224798   4.075   3.279   6.387  0.0384 -1.0136 -0.6778
 4388SOL     OW24799   3.941   0.489   2.628  0.3560 -0.0567  0.0575
 4388SOL    HW124800   3.965   0.580   2.610 -0.0609 -0.3023 -1.7000
 4388SOL    HW224801   4.025   0.443   2.621 -0.8633 -2.3157  0.3919
 4389SOL     OW24802   4.090   4.491   3.239  0.0614  0.3382 -0.0610
 4389SOL    HW124803   4.060   4.578   3.214  0.0581  0.2793 -0.2612
 4389SOL    HW224804   4.037   4.484   3.318  1.2177 -0.0424  0.6857
 4390SOL     OW24805   1.772   2.217  11.893  0.4019  0.9895 -0.0458
 4390SOL    HW124806   1.783   2.283  11.962  0.1426  0.7612  0.2173
 4390SOL    HW224807   1.753   2.270  11.816 -1.3981  1.7684  0.9288
 4391SOL     OW24808   1.309   4.024   9.314 -0.1650 -0.2239 -0.5638
 4391SOL    HW124809   1.230   4.078   9.314 -1.2992 -1.8771  1.1920
 4391SOL    HW224810   1.329   4.028   9.221 -4.1997 -1.7228 -1.4604
 4392SOL     OW24811   4.478   2.531   3.019 -0.1805  0.2022 -0.2011
 4392SOL    HW124812   4.490   2.541   3.113 -1.5241 -0.5109  0.0344
 4392SOL    HW224813   4.449   2.620   2.998 -2.3816 -0.2949  0.7650
 4393SOL     OW24814   4.670   2.936   6.169 -0.1458 -0.5078 -0.0971
 4393SOL    HW124815   4.618   2.957   6.247  2.0657 -4.5153  2.4245
 4393SOL    HW224816   0.005   2.891   6.217 -1.1231 -1.8182  0.0863
 4394SOL     OW24817   2.446   1.176   5.106  0.3099 -0.0760 -0.2323
 4394SOL    HW124818   2.454   1.184   5.011  1.6070  2.5996  0.0883
 4394SOL    HW224819   2.535   1.195   5.137  0.0718  0.7804 -0.0549
 4395SOL     OW24820   1.703   1.955  12.170  0.0798  0.6340 -0.2425
 4395SOL    HW124821   1.685   1.895  12.241  1.2962  2.3150  1.4749
 4395SOL    HW224822   1.688   2.037  12.217 -1.1427 -0.2671  0.9325
 4396SOL     OW24823   1.991   0.366   5.539 -0.6153 -0.3477  0.4380
 4396SOL    HW124824   2.037   0.287   5.567 -0.3948 -1.2294 -2.4105
 4396SOL    HW224825   2.066   0.425   5.537  0.7829 -2.1001  1.1924
 4397SOL     OW24826   3.618   2.385   2.072  0.1453 -0.8780  0.7419
 4397SOL    HW124827   3.586   2.450   2.010 -0.1548  0.6792  2.5648
 4397SOL    HW224828   3.603   2.303   2.023 -0.8356  0.1295 -0.6296
 4398SOL     OW24829   0.071   4.175   7.286 -0.0662  0.0103  0.0402
 4398SOL    HW124830   0.031   4.144   7.368  0.4594  0.7025  0.5509
 4398SOL    HW224831   4.731   4.157   7.228  0.3056 -0.0447 -0.4095
 4399SOL     OW24832   2.073   3.146   5.710  0.4049  0.2253 -0.0422
 4399SOL    HW124833   2.118   3.067   5.741 -0.3882  0.8503  2.6412
 4399SOL    HW224834   1.983   3.134   5.740 -0.3759 -0.1176 -2.5113
 4400SOL     OW24835   2.052   3.216  12.149  0.1235 -0.4009  0.3209
 4400SOL    HW124836   2.024   3.218  12.057 -2.2622  2.6656  1.1209
 4400SOL    HW224837   1.964   3.213  12.186  0.2127  0.1993  0.5890
 4401SOL     OW24838   3.175   4.224   5.807 -0.5616 -0.1780  0.2668
 4401SOL    HW124839   3.091   4.210   5.851  0.0431 -0.4020  1.3655
 4401SOL    HW224840   3.207   4.295   5.862 -2.7793  2.0362 -1.3302
 4402SOL     OW24841   1.462   1.337   8.238 -0.0613  0.4651  0.2061
 4402SOL    HW124842   1.484   1.312   8.327 -0.8230  2.9309  1.0824
 4402SOL    HW224843   1.432   1.427   8.242 -1.1144  0.2296 -2.1161
 4403SOL     OW24844   1.704   1.331   1.593  0.3019 -0.6505 -0.3932
 4403SOL    HW124845   1.619   1.349   1.554  0.2557  0.7561  0.3764
 4403SOL    HW224846   1.743   1.413   1.564 -1.2864 -0.2463 -1.3920
 4404SOL     OW24847   4.576   3.178  15.133  0.4334 -0.0527 -0.0977
 4404SOL    HW124848   4.562   3.226  15.052 -0.0928  2.2643  1.3818
 4404SOL    HW224849   4.550   3.248  15.193 -0.9930 -0.5090 -0.1765
 4405SOL     OW24850   2.168   0.280  16.771  0.4227 -0.1613 -0.7345
 4405SOL    HW124851   2.248   0.245  16.731  0.5767 -0.0871 -0.4901
 4405SOL    HW224852   2.128   0.211  16.825 -0.2611 -0.7353 -1.9622
 4406SOL     OW24853   0.899   2.228   3.395  0.1930  0.2516  0.2144
 4406SOL    HW124854   0.956   2.194   3.464 -0.5200 -0.3279  0.5157
 4406SOL    HW224855   0.843   2.292   3.438  0.1096  0.8089 -0.7190
 4407SOL     OW24856   0.454   3.329   1.642 -0.1250 -0.1184 -0.4410
 4407SOL    HW124857   0.445   3.423   1.661 -2.6208 -0.9107  2.2449
 4407SOL    HW224858   0.449   3.284   1.726  0.1430  3.0301  1.2567
 4408SOL     OW24859   3.656   2.040   6.579 -0.5431 -0.6465 -0.2618
 4408SOL    HW124860   3.623   2.121   6.540 -0.1221 -0.6700 -0.6722
 4408SOL    HW224861   3.745   2.073   6.594 -0.2314 -1.8175  0.4745
 4409SOL     OW24862   2.587   3.204   8.974  0.3025  0.2874  0.0662
 4409SOL    HW124863   2.575   3.228   8.882 -2.6180 -0.0576  0.3455
 4409SOL    HW224864   2.499   3.206   9.012  1.6627 -0.0559  3.2394
 4410SOL     OW24865   3.025   2.385   5.499  0.3289 -0.0152  0.1650
 4410SOL    HW124866   2.992   2.360   5.585  1.5136  1.1536  0.9584
 4410SOL    HW224867   3.031   2.298   5.459 -0.5642 -0.2991  0.6513
 4411SOL     OW24868   0.741   1.292   5.765  0.0494 -0.0986 -0.2216
 4411SOL    HW124869   0.798   1.368   5.771  0.5721 -0.3480 -2.0091
 4411SOL    HW224870   0.683   1.327   5.697 -0.5509  1.0817  0.9100
 4412SOL     OW24871   0.086   1.974   5.927  0.1530  0.3990 -0.2719
 4412SOL    HW124872   0.123   2.050   5.883  2.1218 -0.3802  0.0630
 4412SOL    HW224873   0.038   1.933   5.854  0.1121  0.7798 -0.4614
 4413SOL     OW24874   3.425   2.069   6.434 -0.2594 -0.7548  0.0630
 4413SOL    HW124875   3.505   2.019   6.451  0.2956 -0.7442 -2.4036
 4413SOL    HW224876   3.433   2.078   6.339 -2.1350 -1.8139 -0.1939
 4414SOL     OW24877   4.368   2.713  11.641  0.6353  0.2039 -0.4848
 4414SOL    HW124878   4.453   2.736  11.604  2.1547 -1.3543  2.1008
 4414SOL    HW224879   4.329   2.800  11.649  2.4090  0.9279  0.2044
 4415SOL     OW24880   4.384   4.337   1.702  0.0613  0.3082  0.1723
 4415SOL    HW124881   4.316   4.300   1.646  1.1911 -1.3883 -0.0796
 4415SOL    HW224882   4.340   4.330   1.787  0.4993  2.4509  0.5858
 4416SOL     OW24883   0.862   4.462   1.941  0.6087 -0.4551  0.0847
 4416SOL    HW124884   0.908   4.520   2.002 -0.4829 -0.2994  0.7434
 4416SOL    HW224885   0.941   4.431   1.895 -0.0298 -0.5465 -0.9623
 4417SOL     OW24886   2.026   2.330  12.914 -0.3007  0.0338 -0.1662
 4417SOL    HW124887   1.982   2.305  12.833 -1.0455 -0.5827  0.4176
 4417SOL    HW224888   2.051   2.242  12.944 -2.6379 -0.0794  1.4653
 4418SOL     OW24889   1.856   1.920  12.886 -0.1334 -0.1184 -0.0622
 4418SOL    HW124890   1.804   1.852  12.928  0.2939 -0.4937 -0.1305
 4418SOL    HW224891   1.893   1.867  12.814 -0.6213 -1.0500  0.3689
 4419SOL     OW24892   4.253   0.668   6.799  0.2618 -0.0896  0.2379
 4419SOL    HW124893   4.333   0.694   6.751 -0.6736  1.5106 -0.4776
 4419SOL    HW224894   4.284   0.687   6.887  2.8120 -0.5621 -0.5500
 4420SOL     OW24895   1.629   2.963  11.623  0.5042 -0.3005 -0.5955
 4420SOL    HW124896   1.558   3.012  11.583  0.0861  0.3163  0.9038
 4420SOL    HW224897   1.705   3.001  11.578  0.9807 -0.6348 -0.0863
 4421SOL     OW24898   4.557   3.333   6.744  0.0635 -0.3136  0.1876
 4421SOL    HW124899   4.631   3.324   6.684  1.1194  1.6211  1.1914
 4421SOL    HW224900   4.598   3.386   6.812  0.8635  0.4617 -0.9083
 4422SOL     OW24901   2.639   3.163  15.350  0.0030  0.3175  0.1673
 4422SOL    HW124902   2.673   3.079  15.320  2.8283  1.3035  0.5554
 4422SOL    HW224903   2.589   3.143  15.428  0.9796 -2.8409 -0.0096
 4423SOL     OW24904   1.812   4.008  13.455 -0.1845  0.3823 -0.2626
 4423SOL    HW124905   1.780   3.993  13.365  2.4952  0.3269 -1.2095
 4423SOL    HW224906   1.735   4.001  13.512 -1.1960 -0.8093 -1.7437
 4424SOL     OW24907   4.415   3.716   6.166  0.3942  0.6258  1.3031
 4424SOL    HW124908   4.433   3.808   6.187  3.3403  0.7523 -1.6483
 4424SOL    HW224909   4.323   3.713   6.140  0.5968 -0.8497  0.7440
 4425SOL     OW24910   1.678   1.686   6.811 -0.8059 -0.2954  0.6159
 4425SOL    HW124911   1.608   1.727   6.760  0.3314  2.2700  1.1289
 4425SOL    HW224912   1.634   1.625   6.870  0.6348 -3.9738 -2.0775
 4426SOL     OW24913   1.386   0.093   7.001  0.2668 -0.3751 -0.6796
 4426SOL    HW124914   1.371   0.019   7.060  1.8602 -2.0445 -2.3353
 4426SOL    HW224915   1.304   0.141   6.999  1.1679  1.1711 -0.1948
 4427SOL     OW24916   2.531   2.215   4.773 -0.0988  0.2913 -0.4530
 4427SOL    HW124917   2.623   2.232   4.793 -0.2976  0.8291 -0.0151
 4427SOL    HW224918   2.511   2.130   4.812 -1.7263  0.6531 -0.5097
 4428SOL     OW24919   3.226   0.474   4.267 -0.3383  0.7594  0.4807
 4428SOL    HW124920   3.220   0.527   4.346  0.9817  1.3252  0.2108
 4428SOL    HW224921   3.299   0.525   4.232  0.9055 -0.6172  1.0748
 4429SOL     OW24922   1.664   4.111   2.978 -0.0895 -0.1362 -0.0549
 4429SOL    HW124923   1.733   4.071   2.927 -0.8996 -0.0144 -1.2377
 4429SOL    HW224924   1.587   4.060   2.953  0.4845 -1.1611  0.2701
 4430SOL     OW24925   4.574   4.608   5.716  0.1473 -0.3672  0.2633
 4430SOL    HW124926   4.595   4.654   5.635 -0.3842 -1.8187 -0.7000
 4430SOL    HW224927   4.662   4.600   5.753 -0.2421 -1.0958  1.0319
 4431SOL     OW24928   0.633   3.302   9.308  0.1147 -0.0007  0.0873
 4431SOL    HW124929   0.652   3.386   9.349  0.6935 -1.0094  1.9095
 4431SOL    HW224930   0.645   3.311   9.214 -1.4805  0.7321 -0.0488
 4432SOL     OW24931   2.883   2.801   3.736 -0.2508 -0.7470  0.1357
 4432SOL    HW124932   2.793   2.773   3.751 -0.9359  1.8656  0.8654
 4432SOL    HW224933   2.882   2.880   3.790 -0.6804 -1.0566  0.5731
 4433SOL     OW24934   0.456   2.623  12.130  0.0133  0.5617  0.3099
 4433SOL    HW124935   0.373   2.600  12.089  0.9126 -1.6699 -0.2497
 4433SOL    HW224936   0.512   2.575  12.070  0.3359  1.0233  0.2487
 4434SOL     OW24937   0.952   1.983   8.413 -0.6566  0.9836 -0.3350
 4434SOL    HW124938   1.028   2.022   8.457  1.1078 -1.4563 -1.2014
 4434SOL    HW224939   0.991   1.997   8.327  1.5025 -1.1930  0.2860
 4435SOL     OW24940   2.740   2.858   6.868  0.3167  0.6366 -0.2101
 4435SOL    HW124941   2.757   2.819   6.954  0.7902 -1.5478 -1.3119
 4435SOL    HW224942   2.736   2.947   6.904  0.5277  1.1897 -1.5592
 4436SOL     OW24943   3.348   4.619  11.663  0.5446 -0.3000  0.8527
 4436SOL    HW124944   3.429   4.634  11.711  0.3240 -1.2968  1.5354
 4436SOL    HW224945   3.324   4.701  11.619  1.1382  0.0949  1.2686
 4437SOL     OW24946   0.914   1.220   7.222 -0.5779 -0.3299 -0.6629
 4437SOL    HW124947   0.871   1.298   7.187 -3.1132  0.4029  3.9484
 4437SOL    HW224948   1.002   1.228   7.185 -0.4078 -0.1214 -0.2168
 4438SOL     OW24949   3.098   3.523   7.101  0.0213 -0.0359  0.3954
 4438SOL    HW124950   3.037   3.579   7.149 -0.4272  0.8027 -1.1443
 4438SOL    HW224951   3.085   3.549   7.009  2.5262 -0.6521 -0.1380
 4439SOL     OW24952   2.759   0.108   8.057  0.3080 -0.1094 -0.0343
 4439SOL    HW124953   2.825   0.110   7.988 -0.1125 -1.9909 -0.4748
 4439SOL    HW224954   2.810   0.076   8.132  1.2501 -0.7700 -0.9640
 4440SOL     OW24955   1.564   2.950   1.555 -0.0516  0.0841  0.3471
 4440SOL    HW124956   1.477   2.961   1.592 -0.7552 -1.4939 -0.8499
 4440SOL    HW224957   1.620   2.982   1.626 -0.1947  1.2623 -0.0625
 4441SOL     OW24958   1.505   3.584   2.259  0.1907 -0.2245 -0.1552
 4441SOL    HW124959   1.497   3.608   2.351 -1.5949  0.1782 -0.4050
 4441SOL    HW224960   1.594   3.551   2.249 -0.6620 -1.8655 -2.3741
 4442SOL     OW24961   2.913   3.437   9.063 -0.0792 -0.6245 -0.0659
 4442SOL    HW124962   2.988   3.379   9.073 -0.0595 -0.9793 -2.3159
 4442SOL    HW224963   2.852   3.388   9.118 -0.3978 -2.1033 -1.7142
 4443SOL     OW24964   3.436   1.407  16.828  0.1623 -0.1025 -0.4129
 4443SOL    HW124965   3.491   1.482  16.852  0.3850 -0.6189  0.7127
 4443SOL    HW224966   3.513   1.349  16.830 -0.1374 -0.4343  1.9073
 4444SOL     OW24967   1.984   1.681   6.213  0.1846 -0.3803 -0.1039
 4444SOL    HW124968   2.045   1.739   6.167 -0.2933 -0.7185 -1.1525
 4444SOL    HW224969   1.930   1.651   6.140 -0.8537  0.7248  0.2093
 4445SOL     OW24970   4.048   0.177   5.641  0.1568 -0.2036 -0.3331
 4445SOL    HW124971   4.072   0.226   5.562 -0.8171 -2.7208 -2.2038
 4445SOL    HW224972   4.136   0.141   5.657  0.0641 -1.0838 -1.7343
 4446SOL     OW24973   4.597   4.564  11.571 -0.2720 -0.1961 -0.1428
 4446SOL    HW124974   4.644   4.601  11.646 -1.8493 -2.3113  1.9027
 4446SOL    HW224975   4.636   4.612  11.499  1.0664 -3.3061 -1.4738
 4447SOL     OW24976   3.458   1.642   7.065 -0.2814 -0.4979 -0.5763
 4447SOL    HW124977   3.503   1.590   7.131  0.0917 -0.8883 -1.1388
 4447SOL    HW224978   3.529   1.662   7.003  2.4115 -0.8239  2.4084
 4448SOL     OW24979   4.110   0.680   1.985  0.2377  0.8141  0.3654
 4448SOL    HW124980   4.196   0.641   2.000  0.0529  0.0202 -0.6785
 4448SOL    HW224981   4.056   0.645   2.056  1.0077  2.5128  1.8012
 4449SOL     OW24982   1.992   4.628   3.681 -0.4061  0.5761  0.3343
 4449SOL    HW124983   2.042   4.547   3.672  1.3388  1.7250 -0.3750
 4449SOL    HW224984   2.007   4.647   3.589  1.3033  0.2202  0.5316
 4450SOL     OW24985   0.658   3.109   0.215 -0.0280  0.1708 -0.0275
 4450SOL    HW124986   0.611   3.178   0.262  1.1987  1.2279 -0.3382
 4450SOL    HW224987   0.585   3.052   0.193 -2.6553  2.8970  1.5713
 4451SOL     OW24988   4.686   1.530   7.690  0.2104 -0.5382 -0.3515
 4451SOL    HW124989   4.623   1.567   7.628 -0.7645 -1.0840  0.3264
 4451SOL    HW224990   4.637   1.450   7.710  2.2355 -1.6171  0.2834
 4452SOL     OW24991   1.833   2.986   2.214  0.0299 -0.3937 -0.9882
 4452SOL    HW124992   1.799   3.071   2.240 -1.0924 -1.8316  2.2636
 4452SOL    HW224993   1.773   2.964   2.143  3.3032 -1.9986 -3.2486
 4453SOL     OW24994   1.953   1.420   8.826 -0.1763  0.1983 -0.4246
 4453SOL    HW124995   1.871   1.465   8.848  0.7350  0.4953  2.3430
 4453SOL    HW224996   1.941   1.331   8.858  2.9508 -0.0038  0.1732
 4454SOL     OW24997   2.346   0.508   3.261  0.2268  0.1600  0.1818
 4454SOL    HW124998   2.428   0.472   3.228 -0.0907 -1.6574  1.3416
 4454SOL    HW224999   2.297   0.523   3.180  1.8417 -0.0869 -0.8352
 4455SOL     OW25000   4.109   1.407   8.212  0.1179  0.2368  0.2733
 4455SOL    HW125001   4.133   1.471   8.145 -0.6486  1.1496  0.8764
 4455SOL    HW225002   4.197   1.369   8.218 -0.6304 -1.3840  0.9647
 4456SOL     OW25003   0.940   0.675   0.823  0.2327 -1.1465  0.0203
 4456SOL    HW125004   0.938   0.580   0.811 -2.3145 -1.1854  0.8476
 4456SOL    HW225005   0.888   0.703   0.747  1.0791 -1.4418 -0.6709
 4457SOL     OW25006   3.688   4.667   9.740  0.0587 -0.2125 -0.0129
 4457SOL    HW125007   3.603   4.698   9.709 -0.1353  0.7360  1.4586
 4457SOL    HW225008   3.672   4.640   9.831  2.3516  2.3262  1.1155
 4458SOL     OW25009   4.337   0.084   3.756  0.3115 -0.0835  0.0951
 4458SOL    HW125010   4.327   0.073   3.850 -2.4378  0.8964 -0.0830
 4458SOL    HW225011   4.429   0.111   3.755  0.9432 -2.2408  1.1580
 4459SOL     OW25012   0.521   3.703   4.420 -0.4869  0.2615  0.4013
 4459SOL    HW125013   0.427   3.683   4.418 -0.9667  2.5812 -0.2317
 4459SOL    HW225014   0.548   3.644   4.490 -1.7207  2.0746  2.4249
 4460SOL     OW25015   2.861   4.518   4.562 -0.1198 -0.1588  0.1835
 4460SOL    HW125016   2.787   4.578   4.553  0.4746  0.5423 -0.1312
 4460SOL    HW225017   2.920   4.557   4.627 -1.5153 -0.3140  1.5171
 4461SOL     OW25018   1.765   2.661   6.436 -0.3252  0.2045  0.2670
 4461SOL    HW125019   1.836   2.629   6.492 -0.2446 -2.1382 -1.1923
 4461SOL    HW225020   1.809   2.736   6.395 -0.0873 -0.5287 -0.8171
 4462SOL     OW25021   2.825   3.020  15.100  0.0279  0.0707  0.6805
 4462SOL    HW125022   2.773   2.941  15.116 -0.4382 -0.0677 -1.5636
 4462SOL    HW225023   2.899   3.007  15.159  0.8361  1.3445 -0.0598
 4463SOL     OW25024   2.381   0.169   7.886 -0.3860  0.0459 -0.0225
 4463SOL    HW125025   2.430   0.098   7.929  0.0568  1.1930  1.3565
 4463SOL    HW225026   2.398   0.247   7.938 -0.3334 -0.0405  0.0899
 4464SOL     OW25027   0.424   4.243   4.256 -0.3620 -0.2795 -0.4145
 4464SOL    HW125028   0.329   4.239   4.262 -0.2831 -1.4285  0.0063
 4464SOL    HW225029   0.446   4.161   4.299  0.2216  0.1682  0.1455
 4465SOL     OW25030   3.277   3.875   4.424 -0.3854 -0.0436 -0.7901
 4465SOL    HW125031   3.320   3.959   4.405  0.0977 -0.4474 -1.4780
 4465SOL    HW225032   3.335   3.820   4.372  0.9794 -0.8327  1.5471
 4466SOL     OW25033   2.590   1.276  15.129 -0.2832 -0.5200 -0.0859
 4466SOL    HW125034   2.593   1.232  15.214 -0.6652  0.4847  0.4490
 4466SOL    HW225035   2.545   1.358  15.145  2.2513  0.7258  0.7288
 4467SOL     OW25036   0.125   1.309   5.046 -0.4218  0.0585  0.6666
 4467SOL    HW125037   0.114   1.229   5.096 -0.8940 -1.3717 -1.7249
 4467SOL    HW225038   0.038   1.345   5.060 -0.3812 -0.1012  1.3220
 4468SOL     OW25039   1.785   3.230  12.015  0.0524  0.1478 -0.1624
 4468SOL    HW125040   1.778   3.219  11.920  0.6236  0.3327 -0.2256
 4468SOL    HW225041   1.757   3.321  12.026 -2.6911 -0.7320  0.1081
 4469SOL     OW25042   1.766   2.027   6.823 -0.1584 -0.7221 -0.2090
 4469SOL    HW125043   1.769   2.055   6.914  1.8105  0.7109 -0.6994
 4469SOL    HW225044   1.682   1.983   6.810  0.0191 -0.8682 -0.8815
 4470SOL     OW25045   1.310   3.537  15.778 -0.2581 -0.0134 -0.2745
 4470SOL    HW125046   1.252   3.573  15.712 -0.7485 -0.0477  0.1342
 4470SOL    HW225047   1.292   3.443  15.770  1.8366 -0.4403 -0.0060
 4471SOL     OW25048   3.073   0.387   7.144  0.0149  0.3001  0.1461
 4471SOL    HW125049   3.153   0.438   7.155 -0.3307  0.8683  0.0284
 4471SOL    HW225050   3.015   0.456   7.112 -0.5845 -0.2494  0.0429
 4472SOL     OW25051   3.906   1.894   5.176 -0.7893  0.0631 -0.3529
 4472SOL    HW125052   3.912   1.966   5.238  0.0473  0.2208 -0.6113
 4472SOL    HW225053   3.957   1.929   5.103  0.0309  2.1671  1.2081
 4473SOL     OW25054   1.310   3.186   4.875  0.0087 -0.2969 -0.5244
 4473SOL    HW125055   1.398   3.175   4.839  1.4332 -1.0490  3.1945
 4473SOL    HW225056   1.290   3.093   4.889 -2.4073  0.4153  0.8651
 4474SOL     OW25057   4.483   1.200  13.003  0.2472 -0.2630 -0.3855
 4474SOL    HW125058   4.412   1.217  13.066  0.4439  1.2859 -0.5604
 4474SOL    HW225059   4.480   1.277  12.946  2.0173 -1.5940 -2.2562
 4475SOL     OW25060   0.140   1.752  10.758 -0.0887  0.1994 -0.1060
 4475SOL    HW125061   0.170   1.839  10.730 -1.5345  0.3561 -1.2002
 4475SOL    HW225062   0.207   1.700  10.713  0.9910 -0.3197  2.1221
 4476SOL     OW25063   3.662   2.921  14.692 -0.6877 -0.9619 -1.0681
 4476SOL    HW125064   3.571   2.933  14.720 -0.2748  0.8383 -0.5127
 4476SOL    HW225065   3.655   2.936  14.598 -1.3510  1.1830 -0.6615
 4477SOL     OW25066   1.168   2.845   7.532 -0.0796 -0.1324 -0.2672
 4477SOL    HW125067   1.082   2.858   7.492 -0.5136 -0.9601  0.4097
 4477SOL    HW225068   1.140   2.844   7.623  1.5066  0.1777  0.2228
 4478SOL     OW25069   3.768   4.126   2.250 -0.3395 -0.0022 -0.2753
 4478SOL    HW125070   3.700   4.065   2.280  0.1921  0.5808  2.1446
 4478SOL    HW225071   3.829   4.115   2.323  0.6846  0.7376 -1.0293
 4479SOL     OW25072   2.557   0.822   7.691  0.0492  0.8982 -0.4285
 4479SOL    HW125073   2.652   0.825   7.676  0.1498  2.8691  0.6740
 4479SOL    HW225074   2.527   0.859   7.608 -0.8215  0.8384 -0.1390
 4480SOL     OW25075   1.536   0.126   7.706 -0.1758 -0.3185  0.0915
 4480SOL    HW125076   1.598   0.099   7.773  0.2988 -1.6451 -0.8928
 4480SOL    HW225077   1.485   0.047   7.690  1.1494 -1.3399  0.9537
 4481SOL     OW25078   1.424   4.170  11.568 -0.5800 -0.0430  0.0952
 4481SOL    HW125079   1.363   4.236  11.534 -0.7975  1.3593  3.1727
 4481SOL    HW225080   1.468   4.229  11.629 -1.9825  1.7474 -0.6021
 4482SOL     OW25081   2.646   4.390  17.304  0.4204  0.1312  0.3227
 4482SOL    HW125082   2.626   4.304  17.340 -1.5229  1.4736  2.4126
 4482SOL    HW225083   2.724   4.359  17.259 -0.8816 -0.9702 -1.2015
 4483SOL     OW25084   1.825   3.883   2.787 -0.1453  0.2774  0.0214
 4483SOL    HW125085   1.780   3.951   2.737  1.9179  0.4241 -1.6508
 4483SOL    HW225086   1.752   3.826   2.812 -2.3834  1.6516 -3.2853
 4484SOL     OW25087   2.091   0.157   6.079 -0.0001 -0.4974 -0.2370
 4484SOL    HW125088   2.021   0.205   6.124  0.7416  0.6921 -0.3423
 4484SOL    HW225089   2.063   0.185   5.992  1.0944  1.3117 -0.0068
 4485SOL     OW25090   4.049   2.832  15.581  0.1593 -0.2150 -0.3565
 4485SOL    HW125091   4.110   2.899  15.551 -0.2199 -0.8154 -2.4316
 4485SOL    HW225092   3.990   2.843  15.507 -0.1494 -1.7102 -0.3272
 4486SOL     OW25093   0.201   3.862   3.743  0.2511 -0.0053 -0.0970
 4486SOL    HW125094   0.172   3.772   3.724 -2.4271  0.4217  1.9280
 4486SOL    HW225095   0.285   3.849   3.787  2.0512 -0.3876 -3.6062
 4487SOL     OW25096   2.726   0.590   1.495  0.1085 -0.0051 -0.6013
 4487SOL    HW125097   2.744   0.604   1.588 -0.8739 -1.4789 -0.1908
 4487SOL    HW225098   2.675   0.671   1.492  1.0963  0.5978 -1.1861
 4488SOL     OW25099   1.119   4.174   9.071 -0.4031  0.3135  0.0753
 4488SOL    HW125100   1.081   4.190   9.158  3.6354  0.9601  1.7466
 4488SOL    HW225101   1.073   4.245   9.027  2.0342  1.4073 -0.6867
 4489SOL     OW25102   3.678   0.034   7.850 -0.1929 -0.3808 -0.2944
 4489SOL    HW125103   3.583   0.047   7.858 -0.0178  0.1615  0.8007
 4489SOL    HW225104   3.672   4.677   7.822 -0.8727 -0.2634 -0.5354
 4490SOL     OW25105   3.650   4.532   6.412 -0.4676  0.4530 -0.1870
 4490SOL    HW125106   3.587   4.461   6.407 -1.6047  1.3743  1.2122
 4490SOL    HW225107   3.728   4.476   6.404 -1.0618 -0.5280  0.7914
 4491SOL     OW25108   4.144   4.032   8.138 -0.1439  0.1117 -0.3858
 4491SOL    HW125109   4.212   4.040   8.205 -0.1299  1.0379 -0.5119
 4491SOL    HW225110   4.176   4.095   8.073 -3.0499  0.5876 -1.3875
 4492SOL     OW25111   1.612   1.097   1.157 -0.4505 -0.1341 -0.0529
 4492SOL    HW125112   1.669   1.026   1.127 -0.3493  0.5861 -1.5716
 4492SOL    HW225113   1.559   1.111   1.078  2.7073 -0.9023 -2.3365
 4493SOL     OW25114   2.832   1.511   5.567  0.1527  0.2731 -0.1706
 4493SOL    HW125115   2.759   1.450   5.552 -1.9364  2.7217 -0.0475
 4493SOL    HW225116   2.806   1.578   5.504  1.9612  1.4387  0.3509
 4494SOL     OW25117   4.072   2.608  13.298 -0.4148  0.0021 -0.3119
 4494SOL    HW125118   3.988   2.651  13.282 -1.3491 -1.6808 -0.0479
 4494SOL    HW225119   4.133   2.681  13.308 -0.0165 -0.7241  2.7531
 4495SOL     OW25120   0.434   3.058   4.976 -0.4564 -0.0448  0.3835
 4495SOL    HW125121   0.509   3.109   4.945 -0.8771  0.3613  0.0368
 4495SOL    HW225122   0.360   3.116   4.956  2.3764  3.2022 -0.5951
 4496SOL     OW25123   1.601   1.989  12.562 -0.3355 -0.3818  0.2037
 4496SOL    HW125124   1.584   2.060  12.501 -0.4811  1.4058  2.3291
 4496SOL    HW225125   1.526   2.002  12.620 -0.2409 -0.9248  0.4495
 4497SOL     OW25126   2.308   1.501   2.183 -0.4995 -0.0839  0.1601
 4497SOL    HW125127   2.379   1.437   2.191 -0.3079 -0.2679 -3.1480
 4497SOL    HW225128   2.301   1.519   2.089 -0.0581 -1.6468 -0.1663
 4498SOL     OW25129   1.610   0.161   1.770 -0.5998 -0.4077  0.4890
 4498SOL    HW125130   1.566   0.087   1.728 -0.7354 -0.5046  0.8021
 4498SOL    HW225131   1.608   0.231   1.704  1.3341 -0.3360  0.5232
 4499SOL     OW25132   1.346   0.153  10.747 -0.3600  0.1836  0.3332
 4499SOL    HW125133   1.302   0.068  10.754  0.2629 -0.1269  0.5125
 4499SOL    HW225134   1.365   0.158  10.654 -0.8608  2.9413  0.3875
 4500SOL     OW25135   0.794   4.619   3.369  0.0388  0.7778 -0.2672
 4500SOL    HW125136   0.720   4.585   3.420  1.6229 -1.7093  0.4105
 4500SOL    HW225137   0.748   4.637   3.288  0.2712  2.1880 -0.0895
 4501SOL     OW25138   2.044   0.066   8.852  0.3330 -0.0881  0.2604
 4501SOL    HW125139   2.101   0.134   8.887 -1.0399  0.0851  2.2040
 4501SOL    HW225140   2.018   0.025   8.935  0.8027  1.0538  0.9719
 4502SOL     OW25141   2.422   2.033  13.458 -0.1829 -0.4056 -0.1341
 4502SOL    HW125142   2.514   2.039  13.431  0.5863 -0.4310  2.4745
 4502SOL    HW225143   2.378   2.074  13.383 -0.2846  1.8343  1.1513
 4503SOL     OW25144   0.924   1.972   4.607  0.4225 -0.1353 -0.1409
 4503SOL    HW125145   0.936   1.923   4.526 -1.3101 -2.9085  1.2687
 4503SOL    HW225146   0.830   1.989   4.612  0.8494  2.1532  0.4407
 4504SOL     OW25147   3.046   0.918   2.654  0.0083 -0.3435 -0.4421
 4504SOL    HW125148   2.951   0.915   2.641  0.1739 -0.5928 -1.6399
 4504SOL    HW225149   3.076   0.984   2.592 -1.4214  0.5523 -0.1955
 4505SOL     OW25150   0.812   1.589  12.086  0.3026  0.0113 -0.6000
 4505SOL    HW125151   0.729   1.542  12.080  0.9413 -1.1426 -0.4030
 4505SOL    HW225152   0.863   1.525  12.137  1.3313  1.2216 -0.1194
 4506SOL     OW25153   0.810   2.511   0.606  0.3337 -0.4622 -0.0504
 4506SOL    HW125154   0.868   2.475   0.674 -0.1755 -0.4796  0.3801
 4506SOL    HW225155   0.720   2.502   0.636 -0.1580  3.0148 -0.5274
 4507SOL     OW25156   3.681   0.507   5.826  0.0394 -0.1027 -0.0572
 4507SOL    HW125157   3.707   0.521   5.917 -0.8667  1.3610 -0.0140
 4507SOL    HW225158   3.756   0.552   5.788 -1.5437  2.2833 -0.4041
 4508SOL     OW25159   1.042   1.931  14.292  0.0662  0.7003 -0.4380
 4508SOL    HW125160   1.085   1.985  14.360  2.0828  0.8699 -1.8386
 4508SOL    HW225161   1.054   1.840  14.317 -0.1003  0.2524 -2.0123
 4509SOL     OW25162   4.389   3.567   2.462  0.1624  0.4776 -0.0504
 4509SOL    HW125163   4.408   3.630   2.531  2.5373 -0.0486 -0.2123
 4509SOL    HW225164   4.374   3.625   2.387  1.5739  0.2480 -0.5097
 4510SOL     OW25165   1.168   2.714   2.556 -0.3014  0.1266 -0.0524
 4510SOL    HW125166   1.179   2.809   2.551 -0.4325  0.1169 -0.5363
 4510SOL    HW225167   1.172   2.697   2.462  0.0297  2.8410 -0.5377
 4511SOL     OW25168   2.479   3.312  17.429  0.3890  0.2399 -0.3756
 4511SOL    HW125169   2.401   3.358  17.398  0.3978 -0.3451 -1.2632
 4511SOL    HW225170   2.486   3.359  17.513  3.4774 -1.4468  0.3424
 4512SOL     OW25171   1.635   2.548   2.192 -0.6007  0.1637 -0.1456
 4512SOL    HW125172   1.540   2.538   2.186 -0.8141  1.7591  0.7429
 4512SOL    HW225173   1.670   2.503   2.115  0.2868  0.0919  0.3041
 4513SOL     OW25174   0.008   3.739  13.882  0.9105 -0.9579  0.0372
 4513SOL    HW125175   4.648   3.749  13.895  1.2076  0.0906  1.4567
 4513SOL    HW225176   0.032   3.831  13.870 -2.7050  0.0334  0.2616
 4514SOL     OW25177   2.050   0.483   3.168  0.5792  0.0787 -0.6053
 4514SOL    HW125178   1.966   0.496   3.124  0.1449 -2.1518 -0.4142
 4514SOL    HW225179   2.067   0.390   3.154 -1.7460 -0.4007 -0.3892
 4515SOL     OW25180   0.986   3.116  10.813 -0.0125  0.0099  0.1312
 4515SOL    HW125181   0.976   3.028  10.848 -0.1694  1.3801  3.5858
 4515SOL    HW225182   1.067   3.099  10.765 -0.4096 -1.0261 -0.1750
 4516SOL     OW25183   1.043   1.177   0.074 -0.3693  0.7157  0.0336
 4516SOL    HW125184   1.058   1.209   0.163 -0.0422  0.4321  0.0801
 4516SOL    HW225185   0.967   1.230   0.051 -0.4783  1.6287  2.5273
 4517SOL     OW25186   0.012   1.530   2.718  0.0410  0.7105 -0.1838
 4517SOL    HW125187   4.724   1.562   2.630 -0.0734 -1.1610 -0.8317
 4517SOL    HW225188   4.661   1.492   2.739 -0.1824  0.2029 -2.0254
 4518SOL     OW25189   0.102   3.342   5.828  0.0955  0.1594  0.2780
 4518SOL    HW125190   0.143   3.426   5.811 -0.1284 -0.1612 -1.7794
 4518SOL    HW225191   0.145   3.307   5.907  1.1404  2.0064  0.5150
 4519SOL     OW25192   3.048   2.633   7.467  0.2386  0.3284  0.1296
 4519SOL    HW125193   3.100   2.698   7.420  0.2865 -0.5690 -1.0627
 4519SOL    HW225194   3.004   2.590   7.393  1.1964  0.4678 -0.5181
 4520SOL     OW25195   2.061   4.623  10.258  0.0880  0.3720  0.6226
 4520SOL    HW125196   2.027   4.558  10.320  3.1143 -1.5665  0.2600
 4520SOL    HW225197   2.148   4.587  10.244  0.9236  2.4313  0.3953
 4521SOL     OW25198   2.778   3.899  13.346 -0.6555 -0.2305  0.3828
 4521SOL    HW125199   2.761   3.858  13.431  1.8545 -0.8065  0.6054
 4521SOL    HW225200   2.853   3.842  13.327 -0.2753  0.6805 -0.8785
 4522SOL     OW25201   4.395   3.569   8.459 -0.5447 -0.2418  0.0760
 4522SOL    HW125202   4.339   3.566   8.382  4.0783 -4.5208 -3.1007
 4522SOL    HW225203   4.401   3.483   8.500 -0.2382 -0.9297 -1.4171
 4523SOL     OW25204   2.079   1.931   3.478 -0.2287 -0.0876 -0.5984
 4523SOL    HW125205   2.012   1.996   3.495 -2.5912 -2.5909 -0.2914
 4523SOL    HW225206   2.148   1.968   3.423 -0.1078 -0.9208 -1.0127
 4524SOL     OW25207   2.461   2.656  16.426 -0.3833  0.8465  0.3438
 4524SOL    HW125208   2.447   2.733  16.372  1.3339 -0.1224 -1.4664
 4524SOL    HW225209   2.379   2.658  16.475  0.9215  0.8593  2.5041
 4525SOL     OW25210   4.514   0.890   6.412  0.3149 -0.0742  0.8017
 4525SOL    HW125211   4.509   0.888   6.316 -1.5705  0.0889  0.8876
 4525SOL    HW225212   4.536   0.798   6.428  1.8341  0.1236 -0.1357
 4526SOL     OW25213   1.030   4.536   0.439  0.0856 -0.8642 -0.0148
 4526SOL    HW125214   1.056   4.613   0.491 -1.5227 -0.6247  0.4151
 4526SOL    HW225215   0.935   4.544   0.435 -0.0441 -1.3156  2.1047
 4527SOL     OW25216   2.411   3.766   4.239  0.7206  0.1637  0.1229
 4527SOL    HW125217   2.445   3.842   4.286 -0.9637  1.0140 -0.0505
 4527SOL    HW225218   2.492   3.743   4.194  1.4852  0.5236  1.3264
 4528SOL     OW25219   4.319   4.362   2.147  0.2208 -0.2289 -0.4656
 4528SOL    HW125220   4.352   4.451   2.136  0.5483 -0.0847  1.5733
 4528SOL    HW225221   4.292   4.360   2.239  4.2956  1.5342  0.7747
 4529SOL     OW25222   2.134   3.633   7.124  0.1873  0.1770  0.2532
 4529SOL    HW125223   2.132   3.727   7.108  2.2291  0.0704 -0.6656
 4529SOL    HW225224   2.217   3.624   7.171 -0.2658  1.5574  1.3129
 4530SOL     OW25225   0.161   0.287  16.851  0.0861 -0.0464  0.4745
 4530SOL    HW125226   0.191   0.221  16.789  1.0735  0.8873 -0.0429
 4530SOL    HW225227   0.193   0.256  16.936  2.5242  1.1839  0.0180
 4531SOL     OW25228   2.958   0.480   3.122  0.2914 -0.3957 -0.4180
 4531SOL    HW125229   2.889   0.420   3.148 -2.5026  3.0366  0.1310
 4531SOL    HW225230   2.921   0.564   3.148  1.4079 -0.1239  0.3025
 4532SOL     OW25231   3.831   0.945   2.691  0.2443  0.0194 -0.9058
 4532SOL    HW125232   3.756   1.000   2.713  0.2204 -0.8482  1.2208
 4532SOL    HW225233   3.827   0.936   2.596  0.2019  1.4241 -1.0311
 4533SOL     OW25234   4.284   0.055   5.574  0.4093  0.0073 -0.5733
 4533SOL    HW125235   4.373   0.031   5.549  1.3760  2.7210  0.3509
 4533SOL    HW225236   4.244   0.012   5.497  0.3292  0.8528 -1.0009
 4534SOL     OW25237   0.876   2.481   6.434  0.0667 -0.1681 -0.1730
 4534SOL    HW125238   0.867   2.458   6.342  0.2114  1.1221 -0.5009
 4534SOL    HW225239   0.790   2.517   6.454 -1.1629 -2.0690 -2.0879
 4535SOL     OW25240   4.644   3.726   7.384  0.2410 -0.1318  0.0636
 4535SOL    HW125241   4.605   3.673   7.313 -2.0683  0.9142  0.5411
 4535SOL    HW225242   4.596   3.808   7.376  0.1080 -0.1401  0.7688
 4536SOL     OW25243   0.874   4.606   6.157 -0.2980 -0.1551 -0.2587
 4536SOL    HW125244   0.892   4.635   6.068 -0.9387  2.0519  0.3515
 4536SOL    HW225245   0.780   4.587   6.147  0.0133 -1.6064 -0.5149
 4537SOL     OW25246   3.518   0.024   1.839  0.5234  0.5565  0.1410
 4537SOL    HW125247   3.537   4.675   1.884 -1.0196 -0.8499 -1.8000
 4537SOL    HW225248   3.435   0.001   1.797 -0.1493 -0.0345  1.7991
 4538SOL     OW25249   4.559   3.669   3.744 -0.4263  0.1051 -0.0664
 4538SOL    HW125250   4.610   3.611   3.799 -1.6819 -0.2253  0.7398
 4538SOL    HW225251   4.581   3.629   3.660  3.2896 -2.0059  1.9662
 4539SOL     OW25252   0.436   4.708   5.297  0.6729 -0.0592  0.0924
 4539SOL    HW125253   0.439   4.726   5.391  1.4962  0.1922  0.0134
 4539SOL    HW225254   0.341   4.719   5.305  0.3388 -0.6378 -2.9446
 4540SOL     OW25255   2.484   4.069   0.586  0.8390  0.0620  0.6245
 4540SOL    HW125256   2.475   3.999   0.522 -0.4841  1.9304 -1.2153
 4540SOL    HW225257   2.453   4.145   0.537  0.0351  0.0045  1.0551
 4541SOL     OW25258   3.422   4.622   2.860  0.3029  0.4363 -0.2532
 4541SOL    HW125259   3.400   4.657   2.774 -0.2102 -0.5466 -0.5244
 4541SOL    HW225260   3.476   4.546   2.837 -0.6098 -0.4268  0.4716
 4542SOL     OW25261   4.219   0.185   7.282  0.1893  0.1279 -0.1667
 4542SOL    HW125262   4.247   0.233   7.204  1.9061 -1.1003 -0.3147
 4542SOL    HW225263   4.172   0.248   7.336  0.8269 -0.4279  1.0235
 4543SOL     OW25264   2.714   3.517   3.277 -0.3784 -0.0265 -0.1791
 4543SOL    HW125265   2.679   3.482   3.195 -0.2485 -0.3078 -0.1157
 4543SOL    HW225266   2.788   3.456   3.279 -2.4284 -2.4553  2.9419
 4544SOL     OW25267   1.765   3.797   7.392  0.6465 -0.6910 -0.5404
 4544SOL    HW125268   1.749   3.826   7.303 -1.9516  0.5149  0.3073
 4544SOL    HW225269   1.686   3.747   7.414  0.2811  0.2046  0.2476
 4545SOL     OW25270   4.355   1.157  17.492  0.3017 -0.1800  0.3588
 4545SOL    HW125271   4.409   1.235  17.480  1.8803 -1.5209 -1.2482
 4545SOL    HW225272   4.314   1.158  17.406  0.8327 -1.7854  0.0852
 4546SOL     OW25273   2.445   2.359   5.396  0.1306 -0.0343 -0.0756
 4546SOL    HW125274   2.359   2.360   5.353  0.7167  1.6590 -1.1667
 4546SOL    HW225275   2.447   2.435   5.455 -0.9774 -1.1888  1.4503
 4547SOL     OW25276   0.596   2.825   7.737  0.5445  0.1660 -0.1428
 4547SOL    HW125277   0.690   2.810   7.753  0.4088 -0.0707  0.4625
 4547SOL    HW225278   0.584   2.909   7.781  2.0465  0.4262 -0.2219
 4548SOL     OW25279   3.313   1.710   5.481 -0.4584 -0.2277 -0.3461
 4548SOL    HW125280   3.218   1.718   5.492 -0.6207 -0.3038 -1.7508
 4548SOL    HW225281   3.318   1.671   5.394 -2.8961 -0.8047 -0.2176
 4549SOL     OW25282   3.452   2.430   6.261 -0.5602  0.0591  0.1684
 4549SOL    HW125283   3.531   2.484   6.267  2.0696 -3.8879  1.0494
 4549SOL    HW225284   3.388   2.492   6.295 -0.5288  0.5689 -0.6958
 4550SOL     OW25285   1.654   0.869   6.294  0.5641 -0.6837 -0.6175
 4550SOL    HW125286   1.673   0.803   6.227 -0.0247  0.3929 -1.8333
 4550SOL    HW225287   1.674   0.947   6.243 -0.9433 -0.7557 -1.3343
 4551SOL     OW25288   3.867   2.103   6.957  0.3908 -0.5051 -0.4185
 4551SOL    HW125289   3.772   2.095   6.950  0.1070  1.4585  1.1986
 4551SOL    HW225290   3.876   2.188   6.999  0.4360 -1.1401  0.8709
 4552SOL     OW25291   3.818   1.346  15.051  0.2377 -0.8360  0.5259
 4552SOL    HW125292   3.884   1.408  15.020 -1.5785  1.6743  1.7227
 4552SOL    HW225293   3.785   1.308  14.969 -1.3299  1.7583 -0.0313
 4553SOL     OW25294   3.981   4.370   1.983 -0.5261 -0.0431 -0.5382
 4553SOL    HW125295   4.009   4.409   1.901  0.2252  0.5884  0.0234
 4553SOL    HW225296   4.042   4.412   2.044  1.3287 -0.0437 -2.3779
 4554SOL     OW25297   0.955   3.380   9.513 -0.2382 -0.2183  0.3969
 4554SOL    HW125298   0.895   3.446   9.479 -0.0701 -0.5946 -0.6127
 4554SOL    HW225299   1.004   3.428   9.580 -1.4799 -2.1032  2.6615
 4555SOL     OW25300   1.038   1.596  12.771  0.5585 -0.0591 -0.3167
 4555SOL    HW125301   1.118   1.619  12.725  1.1698 -0.2485  0.6444
 4555SOL    HW225302   1.058   1.521  12.828  2.1891  1.8495  1.6024
 4556SOL     OW25303   3.886   0.602   1.072  0.3608 -0.3551  0.6884
 4556SOL    HW125304   3.852   0.620   1.159 -2.5053 -2.2894 -0.0354
 4556SOL    HW225305   3.830   0.657   1.016  1.2431  1.1136  1.2569
 4557SOL     OW25306   3.136   3.349   1.467  0.0762  0.2833  0.0816
 4557SOL    HW125307   3.207   3.289   1.444 -0.6135 -0.1269 -0.9911
 4557SOL    HW225308   3.158   3.361   1.559  1.7780  0.0365 -0.2886
 4558SOL     OW25309   3.884   1.465  13.810  0.1624 -0.5868  0.2064
 4558SOL    HW125310   3.855   1.375  13.817 -0.9447 -0.2168  0.3612
 4558SOL    HW225311   3.807   1.513  13.841  1.6715  0.3840  2.4289
 4559SOL     OW25312   1.891   0.285   9.790 -0.0327  0.5472  0.0231
 4559SOL    HW125313   1.858   0.365   9.831  1.0502  1.0019  0.0283
 4559SOL    HW225314   1.985   0.292   9.807  0.3849  1.4546 -2.6462
 4560SOL     OW25315   0.586   3.779   5.651  0.1436 -0.0036  0.1349
 4560SOL    HW125316   0.556   3.738   5.570  1.8309 -2.0008  0.5245
 4560SOL    HW225317   0.675   3.807   5.631 -0.9466  2.7435 -0.9617
 4561SOL     OW25318   3.463   1.355   6.004 -0.7665 -0.3996 -0.0977
 4561SOL    HW125319   3.455   1.441   5.964  1.3780 -0.1978 -0.0957
 4561SOL    HW225320   3.420   1.298   5.940 -0.0413  2.1313 -2.8398
 4562SOL     OW25321   0.250   3.755   4.104  0.2205  0.1910  0.3051
 4562SOL    HW125322   0.334   3.801   4.101  0.7791 -0.7951  1.2229
 4562SOL    HW225323   0.184   3.823   4.119  0.3190  0.5472 -0.8794
 4563SOL     OW25324   1.259   1.330   6.867  0.5854  0.2673 -0.0283
 4563SOL    HW125325   1.183   1.272   6.869  0.8783 -0.0864  1.1340
 4563SOL    HW225326   1.312   1.301   6.792  1.8385 -0.9827  1.3440
 4564SOL     OW25327   4.517   3.759  16.327 -0.4438  0.4516 -0.7492
 4564SOL    HW125328   4.535   3.781  16.418 -2.7759 -0.6846 -0.0282
 4564SOL    HW225329   4.589   3.697  16.312  0.4184  0.4204  3.5189
 4565SOL     OW25330   1.319   0.065  11.568 -1.0178  0.1308 -0.3713
 4565SOL    HW125331   1.226   0.084  11.579 -1.4031 -0.5208 -2.4033
 4565SOL    HW225332   1.308   4.705  11.553 -2.1294  0.0570  0.9381
 4566SOL     OW25333   2.299   3.350   4.833 -0.6407  0.1151 -0.3861
 4566SOL    HW125334   2.258   3.305   4.759 -2.0168 -1.0750  1.0862
 4566SOL    HW225335   2.221   3.387   4.874 -1.0595 -2.8713  1.5415
 4567SOL     OW25336   2.993   1.211  13.754 -0.0703 -0.0179  0.0923
 4567SOL    HW125337   2.949   1.142  13.804 -3.0485  0.4932 -1.8337
 4567SOL    HW225338   3.017   1.269  13.827 -0.7456 -0.0030  0.2990
 4568SOL     OW25339   2.928   1.642   9.515 -0.2444  0.2507 -0.1490
 4568SOL    HW125340   2.973   1.706   9.571 -0.4557  0.0662  0.2336
 4568SOL    HW225341   2.984   1.566   9.511 -0.9059 -0.3076  1.2988
 4569SOL     OW25342   1.600   2.560   5.553  0.3261  0.0070 -0.5336
 4569SOL    HW125343   1.670   2.596   5.607  0.7673 -2.0303  0.2749
 4569SOL    HW225344   1.623   2.467   5.546 -0.8999 -0.4497  1.2986
 4570SOL     OW25345   4.560   0.131  12.710 -0.0717 -0.2304  0.9020
 4570SOL    HW125346   4.519   0.100  12.791  2.1588  0.6389  2.3558
 4570SOL    HW225347   4.483   0.176  12.675  0.8863  0.3308 -0.4649
 4571SOL     OW25348   2.905   2.169  17.576  0.4530 -0.1730  0.3852
 4571SOL    HW125349   2.936   2.216  17.499 -0.3972  0.4824  0.4404
 4571SOL    HW225350   2.885   2.086  17.533  0.4428 -0.6585  1.3217
 4572SOL     OW25351   4.405   3.424   7.976  0.0972  0.2837 -0.1645
 4572SOL    HW125352   4.466   3.487   7.938  1.6486  0.2463  2.2832
 4572SOL    HW225353   4.474   3.377   8.022 -0.6418 -0.0698  0.5833
 4573SOL     OW25354   4.702   0.846   5.930  0.2637 -0.1363  0.4187
 4573SOL    HW125355   0.004   0.931   5.905 -1.7860  0.6258  0.0278
 4573SOL    HW225356   4.672   0.852   6.021  0.0293 -2.5180  0.4804
 4574SOL     OW25357   2.500   2.244   1.788 -0.0952  0.1283 -0.7957
 4574SOL    HW125358   2.497   2.184   1.713  1.7532  0.0272 -0.7906
 4574SOL    HW225359   2.443   2.316   1.760 -1.8355 -0.5945  0.9126
 4575SOL     OW25360   4.386   1.850   8.850  0.1744 -0.0560  0.4156
 4575SOL    HW125361   4.320   1.794   8.810  0.3623 -1.0258  1.4481
 4575SOL    HW225362   4.447   1.778   8.868  0.3177  0.1905  0.9247
 4576SOL     OW25363   3.153   0.542   2.044  0.4401 -0.3259 -0.0462
 4576SOL    HW125364   3.217   0.475   2.070 -1.6613 -0.8065  3.8804
 4576SOL    HW225365   3.192   0.602   2.108 -1.9989 -0.5014  1.5896
 4577SOL     OW25366   4.612   1.511   3.649  0.2856  0.5731  0.4694
 4577SOL    HW125367   4.577   1.445   3.710 -0.2336 -1.6996 -2.2625
 4577SOL    HW225368   4.530   1.535   3.605  0.7211  0.7353 -0.2425
 4578SOL     OW25369   3.206   2.127   4.340  0.0035  0.9711 -0.0687
 4578SOL    HW125370   3.239   2.092   4.258 -0.2765  0.3253  0.0961
 4578SOL    HW225371   3.282   2.180   4.364  1.7358 -1.3992 -0.3166
 4579SOL     OW25372   2.385   2.327   9.372  0.2545 -0.3780  0.1758
 4579SOL    HW125373   2.331   2.322   9.293  3.1226 -0.9796 -1.7323
 4579SOL    HW225374   2.409   2.236   9.389  2.9430 -0.0890 -2.2500
 4580SOL     OW25375   3.615   3.957   6.993 -0.2681  0.1718 -0.2986
 4580SOL    HW125376   3.576   3.883   7.039 -2.5517  0.4309 -1.7937
 4580SOL    HW225377   3.664   3.911   6.925  0.7135  1.4371 -0.4529
 4581SOL     OW25378   0.587   1.360   3.066  0.2681 -0.5352  0.3865
 4581SOL    HW125379   0.591   1.273   3.106  0.1195 -0.4049  0.6873
 4581SOL    HW225380   0.677   1.380   3.042 -0.5434  1.2470 -1.2157
 4582SOL     OW25381   0.576   4.402   3.221  0.3223 -0.0125  0.4408
 4582SOL    HW125382   0.544   4.440   3.303 -0.4838 -1.2803  0.7034
 4582SOL    HW225383   0.549   4.465   3.154 -0.0963  0.8648  1.4204
 4583SOL     OW25384   3.984   3.358   4.939 -0.4388  0.1689 -0.3504
 4583SOL    HW125385   4.065   3.387   4.898 -0.1604 -3.3978 -2.3753
 4583SOL    HW225386   3.917   3.379   4.873  0.2721  2.0836 -0.4442
 4584SOL     OW25387   1.382   2.248  11.206  0.1764  0.3379  0.1416
 4584SOL    HW125388   1.323   2.280  11.275 -0.8236  1.3435 -1.1761
 4584SOL    HW225389   1.320   2.191  11.160  1.3031 -0.9124  0.1804
 4585SOL     OW25390   3.293   1.958   0.919 -0.4668 -0.2415 -0.2805
 4585SOL    HW125391   3.354   2.028   0.894 -0.9955  1.0567  2.1005
 4585SOL    HW225392   3.315   1.940   1.011  0.2963 -0.0425 -0.4269
 4586SOL     OW25393   1.213   3.725  14.435 -0.2160 -0.2987 -0.2476
 4586SOL    HW125394   1.160   3.655  14.471  0.5582 -0.9924 -0.4524
 4586SOL    HW225395   1.159   3.757  14.362  0.6151 -0.2252 -0.8403
 4587SOL     OW25396   2.889   3.506   8.796  0.2021 -0.2096 -0.0937
 4587SOL    HW125397   2.797   3.516   8.820  0.0286  0.8086 -1.1952
 4587SOL    HW225398   2.919   3.477   8.882  0.6888 -1.3450 -0.6404
 4588SOL     OW25399   0.754   2.174   4.896  0.4398  0.0110  0.1075
 4588SOL    HW125400   0.660   2.169   4.916  0.7561  3.1755  2.3939
 4588SOL    HW225401   0.781   2.133   4.978 -0.4556  0.7180  0.7531
 4589SOL     OW25402   3.428   4.247   4.482  0.3230  0.6630  0.1863
 4589SOL    HW125403   3.481   4.312   4.435 -0.1998 -0.4099 -1.8991
 4589SOL    HW225404   3.499   4.199   4.525 -0.3200 -0.7775 -0.3465
 4590SOL     OW25405   1.761   4.254  17.295 -0.1002  0.1055 -0.1706
 4590SOL    HW125406   1.721   4.222  17.376  1.1292  1.8936  1.1591
 4590SOL    HW225407   1.758   4.349  17.305  1.0869  0.1650 -0.3251
 4591SOL     OW25408   4.524   1.232   7.090 -0.0246 -0.2527  0.0105
 4591SOL    HW125409   4.546   1.267   7.004  1.6610  0.9733  0.9372
 4591SOL    HW225410   4.595   1.280   7.133 -0.3370  0.2333 -0.0129
 4592SOL     OW25411   2.981   4.247   0.933 -0.2578  0.3194  0.0227
 4592SOL    HW125412   2.892   4.236   0.898  0.1002 -1.4648 -0.3663
 4592SOL    HW225413   2.981   4.332   0.976  1.5296  0.3920 -0.1118
 4593SOL     OW25414   0.983   0.599   6.167 -0.0594 -0.3761 -0.0053
 4593SOL    HW125415   0.967   0.601   6.073  1.3049  0.0215 -0.2411
 4593SOL    HW225416   1.067   0.647   6.169 -0.8265  0.9092  1.1326
 4594SOL     OW25417   2.390   3.268   6.512 -0.0808  0.2437  0.2004
 4594SOL    HW125418   2.444   3.280   6.590 -0.0158  0.0941  0.1783
 4594SOL    HW225419   2.454   3.233   6.450  1.2377  2.2964  0.3860
 4595SOL     OW25420   1.483   0.155   9.236 -0.0048 -1.0023 -0.1306
 4595SOL    HW125421   1.529   0.123   9.313 -1.1767 -0.6980  0.7061
 4595SOL    HW225422   1.546   0.224   9.215 -0.6063  0.2464  2.0888
 4596SOL     OW25423   3.413   2.825  17.514  0.0974  0.3195  0.4905
 4596SOL    HW125424   3.321   2.798  17.520 -0.0313  0.2941 -1.5155
 4596SOL    HW225425   3.437   2.801  17.425 -1.8340  2.8594 -0.7145
 4597SOL     OW25426   3.233   1.961   7.191  0.0268  0.1014 -0.2232
 4597SOL    HW125427   3.144   1.997   7.191 -0.1489 -0.3388  0.1459
 4597SOL    HW225428   3.216   1.879   7.237 -0.1292  0.2171 -0.0733
 4598SOL     OW25429   0.985   4.208   5.347 -0.5863  0.4777 -0.3906
 4598SOL    HW125430   1.057   4.254   5.304 -0.3492  0.6114  0.1540
 4598SOL    HW225431   1.035   4.169   5.419  1.8561  2.3593 -1.0919
 4599SOL     OW25432   0.532   4.161   3.389 -0.0442 -0.5591  0.4992
 4599SOL    HW125433   0.570   4.231   3.336  0.1131  0.3588  1.8229
 4599SOL    HW225434   0.582   4.090   3.348 -1.2049 -0.6228 -0.7784
 4600SOL     OW25435   1.908   3.565   6.821 -0.1368  0.0532  0.7210
 4600SOL    HW125436   1.861   3.555   6.904 -1.2207 -1.1320 -0.0399
 4600SOL    HW225437   1.878   3.652   6.795 -0.0407  0.3097  1.4662
 4601SOL     OW25438   4.042   3.046  10.094 -0.3392  0.6857 -0.7420
 4601SOL    HW125439   4.088   3.125  10.068  1.2697  0.0983  0.3487
 4601SOL    HW225440   4.093   2.986  10.039  0.0497  0.4197 -0.0917
 4602SOL     OW25441   3.179   3.418   6.484 -0.3660  0.3069 -0.3051
 4602SOL    HW125442   3.120   3.416   6.559  1.4689  3.4071  1.2476
 4602SOL    HW225443   3.173   3.508   6.451  1.6878  0.2815 -0.7606
 4603SOL     OW25444   4.252   3.966  14.652  0.0822 -0.5563  0.6239
 4603SOL    HW125445   4.285   3.929  14.734  0.6117 -2.0717 -0.2743
 4603SOL    HW225446   4.293   3.903  14.594  0.6391  0.9914 -0.6506
 4604SOL     OW25447   1.514   1.923   6.827  0.0753 -0.2956  0.2025
 4604SOL    HW125448   1.491   1.910   6.735  0.7950 -0.8792  0.1075
 4604SOL    HW225449   1.449   1.863   6.864 -1.3402  1.6475  0.8685
 4605SOL     OW25450   0.455   1.048   9.125 -0.1952 -0.0549  0.2806
 4605SOL    HW125451   0.376   1.102   9.114 -0.7609 -0.7873  0.7403
 4605SOL    HW225452   0.418   0.968   9.162 -2.1104  1.3811  1.5081
 4606SOL     OW25453   1.674   4.359   8.517 -0.2245  0.3575  0.3311
 4606SOL    HW125454   1.676   4.272   8.477  3.2635  0.0386  1.1553
 4606SOL    HW225455   1.769   4.374   8.525 -0.0324  0.0375 -1.1964
 4607SOL     OW25456   0.776   0.535   6.991 -0.2216  0.3245  0.0625
 4607SOL    HW125457   0.780   0.588   6.912  0.0018  1.2465  0.6831
 4607SOL    HW225458   0.818   0.592   7.057 -1.0067  0.1740  0.6901
 4608SOL     OW25459   2.866   0.746  14.095 -0.4260  0.5475 -0.2845
 4608SOL    HW125460   2.791   0.690  14.116 -0.3329  0.6245  0.2612
 4608SOL    HW225461   2.886   0.761  14.188 -1.5893  0.8592 -0.0744
 4609SOL     OW25462   3.225   1.772   2.654  0.3917  0.2069  0.2520
 4609SOL    HW125463   3.284   1.754   2.727  0.0528 -1.1811  0.1871
 4609SOL    HW225464   3.266   1.852   2.623  0.1125  0.1078 -0.3894
 4610SOL     OW25465   0.542   3.543  14.878  0.2309  0.0719  0.3466
 4610SOL    HW125466   0.454   3.526  14.843  0.5525  0.5142 -0.6678
 4610SOL    HW225467   0.568   3.625  14.837 -1.2348  0.5766  0.4014
 4611SOL     OW25468   0.172   2.929   4.582  0.0991 -0.1179 -0.1270
 4611SOL    HW125469   0.165   2.906   4.675  2.9764  1.3003  0.4742
 4611SOL    HW225470   0.111   2.868   4.543 -0.0334 -0.6447  0.9053
 4612SOL     OW25471   0.802   4.216   4.270  0.2244 -0.5782  0.5691
 4612SOL    HW125472   0.779   4.223   4.177 -3.2327  0.5075  1.5137
 4612SOL    HW225473   0.857   4.294   4.278  1.0163 -1.0752 -0.0314
 4613SOL     OW25474   4.067   0.349  16.507 -0.1862  0.1063  0.0865
 4613SOL    HW125475   4.057   0.415  16.438 -0.0428  0.5388  0.4822
 4613SOL    HW225476   4.160   0.328  16.499  0.0072  0.6099  0.9433
 4614SOL     OW25477   4.127   2.251   7.900 -0.1040  0.1482  0.4082
 4614SOL    HW125478   4.126   2.165   7.857 -2.2309  0.7220 -0.7062
 4614SOL    HW225479   4.036   2.278   7.888  0.3885  0.7883 -1.8014
 4615SOL     OW25480   4.387   3.636   4.222  0.0155 -0.7650 -0.2619
 4615SOL    HW125481   4.373   3.714   4.276 -1.6758 -2.3264  1.5417
 4615SOL    HW225482   4.404   3.669   4.133  0.0883 -1.8324 -0.6509
 4616SOL     OW25483   4.395   1.153   4.352 -0.4991  0.0832  0.2475
 4616SOL    HW125484   4.371   1.068   4.389 -1.0833  0.2564  0.2698
 4616SOL    HW225485   4.487   1.150   4.380 -0.5290  1.5225  0.4928
 4617SOL     OW25486   3.315   2.777   5.346  0.1735  0.8130 -0.2807
 4617SOL    HW125487   3.372   2.714   5.391  1.1959  0.8383 -1.5401
 4617SOL    HW225488   3.328   2.853   5.403  0.0308  1.4077 -1.0489
 4618SOL     OW25489   2.230   2.405  16.116 -0.0213  0.3744  0.1001
 4618SOL    HW125490   2.288   2.481  16.116  0.3713  0.0803  0.5970
 4618SOL    HW225491   2.166   2.429  16.183 -1.2687  3.2350 -2.1181
 4619SOL     OW25492   3.904   2.807  15.340 -0.3398 -0.1337 -0.0526
 4619SOL    HW125493   3.870   2.894  15.321  1.5895  0.6604  0.0986
 4619SOL    HW225494   3.941   2.788  15.254 -0.2405 -0.4792  0.0664
 4620SOL     OW25495   2.277   0.297   8.510  0.4826 -0.5001  0.3082
 4620SOL    HW125496   2.291   0.348   8.591  1.2630  0.2159 -0.2714
 4620SOL    HW225497   2.186   0.280   8.534  0.1796 -1.8987 -1.9122
 4621SOL     OW25498   0.685   1.129   3.833 -0.3975 -0.2115 -0.3593
 4621SOL    HW125499   0.636   1.186   3.892  1.0279  0.4151  0.2109
 4621SOL    HW225500   0.609   1.095   3.785  0.6768 -0.4330 -1.8915
 4622SOL     OW25501   2.344   2.357   2.071  0.5512  0.1292 -0.6204
 4622SOL    HW125502   2.342   2.366   1.976  0.0807 -1.7910 -0.7959
 4622SOL    HW225503   2.335   2.448   2.101  1.2427 -0.4186  1.2835
 4623SOL     OW25504   4.453   3.267   8.965 -0.2383 -0.5174  0.1926
 4623SOL    HW125505   4.527   3.206   8.964 -0.0640 -0.3248  1.4829
 4623SOL    HW225506   4.423   3.265   9.056 -1.0859  0.6058 -0.0604
 4624SOL     OW25507   3.175   4.230   7.951 -0.2155 -0.5815  0.4674
 4624SOL    HW125508   3.240   4.273   7.896  0.6775 -0.8145  1.3407
 4624SOL    HW225509   3.146   4.303   8.006 -1.3383  0.5511 -1.6292
 4625SOL     OW25510   1.240   0.614  12.171 -0.4304 -0.7496 -0.3961
 4625SOL    HW125511   1.149   0.639  12.159 -0.6532 -0.8641  1.1210
 4625SOL    HW225512   1.257   0.640  12.261 -0.4961  0.4979 -0.7448
 4626SOL     OW25513   4.180   1.015  15.525  0.7905  0.0030  0.2239
 4626SOL    HW125514   4.221   0.973  15.450  0.4867  0.5036 -0.2276
 4626SOL    HW225515   4.145   1.087  15.473  0.3282  0.0667  0.6184
 4627SOL     OW25516   4.652   3.987   6.060  0.0517 -0.4456  0.1871
 4627SOL    HW125517   4.701   3.910   6.032 -1.8324 -1.5016 -0.1774
 4627SOL    HW225518   4.704   4.006   6.138  1.1656 -1.0839 -0.3921
 4628SOL     OW25519   4.523   0.003   5.429  0.9171 -0.3734  0.5173
 4628SOL    HW125520   4.541   0.042   5.344 -0.5695  0.5008  0.6020
 4628SOL    HW225521   4.590   4.669   5.427 -2.0792 -3.2923 -0.7880
 4629SOL     OW25522   2.233   1.133  10.099 -0.4971  0.2706 -0.1539
 4629SOL    HW125523   2.263   1.216  10.060 -0.4041 -0.7186 -2.1699
 4629SOL    HW225524   2.309   1.078  10.115 -1.3476 -0.5895  0.9316
 4630SOL     OW25525   3.877   1.175   2.486  0.3702  0.2113 -0.0342
 4630SOL    HW125526   3.891   1.104   2.423 -1.3086  1.9102 -2.3460
 4630SOL    HW225527   3.847   1.240   2.423  1.0458 -0.2058 -0.7823
 4631SOL     OW25528   3.483   0.907   5.749  0.6498 -0.6461  0.6333
 4631SOL    HW125529   3.558   0.851   5.730  0.9939  0.5859 -1.6405
 4631SOL    HW225530   3.535   0.981   5.719  1.1327 -0.9484  0.7170
 4632SOL     OW25531   2.901   0.837   6.545 -0.0034  0.2781  0.4419
 4632SOL    HW125532   2.962   0.804   6.479 -1.0694  0.9380 -0.8676
 4632SOL    HW225533   2.900   0.929   6.522  0.2751 -0.5456 -2.8844
 4633SOL     OW25534   0.233   1.552   7.324 -0.2536  0.3643  0.7435
 4633SOL    HW125535   0.198   1.463   7.335 -0.1472  0.3151  0.6920
 4633SOL    HW225536   0.248   1.572   7.416  0.0877  0.3453  0.6918
 4634SOL     OW25537   2.016   0.403  15.194  0.1108  0.0410 -0.2910
 4634SOL    HW125538   1.995   0.469  15.128  2.0907  1.5998  0.6057
 4634SOL    HW225539   2.037   0.465  15.264  0.1293  0.0530 -0.3072
 4635SOL     OW25540   0.077   3.275  17.623  0.0060 -0.1791  0.0300
 4635SOL    HW125541   4.723   3.239  17.627 -0.3801  0.8883  1.2515
 4635SOL    HW225542   0.073   3.309  17.713 -2.2625 -0.7975  0.1565
 4636SOL     OW25543   0.862   2.686   0.408  0.2616 -0.3836 -0.5720
 4636SOL    HW125544   0.952   2.714   0.425 -0.1314  1.7501 -2.0408
 4636SOL    HW225545   0.831   2.643   0.488  0.0225  0.5118 -0.1919
 4637SOL     OW25546   1.061   1.661   5.143  0.2671 -0.3056  0.7065
 4637SOL    HW125547   1.036   1.750   5.168  2.4229  0.6756 -0.6284
 4637SOL    HW225548   1.035   1.650   5.052 -0.7355  2.3505  0.6883
 4638SOL     OW25549   1.340   1.182  12.560 -0.1282  0.1321  0.3797
 4638SOL    HW125550   1.391   1.189  12.480 -1.6966 -1.0997 -0.7346
 4638SOL    HW225551   1.274   1.122  12.525 -0.1778  0.3275  0.1337
 4639SOL     OW25552   4.220   0.230   1.989  0.7765 -0.5824  0.2592
 4639SOL    HW125553   4.167   0.151   2.003 -0.9321  0.3913 -0.7622
 4639SOL    HW225554   4.192   0.292   2.056 -0.5343  1.0218 -1.7876
 4640SOL     OW25555   2.874   3.400   2.169  0.1990  0.0572 -0.3669
 4640SOL    HW125556   2.799   3.387   2.227  0.5585  0.6629  0.2359
 4640SOL    HW225557   2.856   3.348   2.091 -1.2716 -0.4269  0.2856
 4641SOL     OW25558   3.168   1.404   7.760 -0.1852  0.5345 -0.0735
 4641SOL    HW125559   3.247   1.448   7.791 -1.4851  2.4429  0.5559
 4641SOL    HW225560   3.175   1.440   7.672  2.3503 -1.6723 -0.7857
 4642SOL     OW25561   1.250   2.524   7.113  0.0014 -0.0948  0.1324
 4642SOL    HW125562   1.258   2.556   7.203 -0.6604  1.7419 -0.4561
 4642SOL    HW225563   1.317   2.579   7.072 -0.6000 -0.2763 -1.0885
 4643SOL     OW25564   0.200   3.077  14.536 -0.2492 -0.7999 -0.3144
 4643SOL    HW125565   0.122   3.025  14.551 -2.0425  1.4625 -1.7404
 4643SOL    HW225566   0.234   3.085  14.625 -3.8438  0.1491  0.9702
 4644SOL     OW25567   2.081   4.128   7.876 -0.0439 -0.1623 -0.7476
 4644SOL    HW125568   2.004   4.161   7.829 -1.6803 -1.1932  1.1829
 4644SOL    HW225569   2.138   4.204   7.867  1.1358 -0.9271  0.2982
 4645SOL     OW25570   2.575   2.643   5.285 -0.2225  0.6035  0.5387
 4645SOL    HW125571   2.662   2.617   5.316 -0.6362 -1.6267 -0.2275
 4645SOL    HW225572   2.543   2.575   5.226 -0.8653  1.6968 -0.3684
 4646SOL     OW25573   1.521   1.620   8.101  0.3020 -0.3940 -0.4200
 4646SOL    HW125574   1.433   1.626   8.065 -0.1911  0.7181  0.9359
 4646SOL    HW225575   1.578   1.641   8.027  0.8930 -0.5526 -0.0137
 4647SOL     OW25576   1.810   3.986  10.180  0.0413  0.0830 -0.0066
 4647SOL    HW125577   1.808   4.076  10.212  0.2048 -0.4758  1.5848
 4647SOL    HW225578   1.771   3.993  10.093  0.7844 -1.5085 -0.4636
 4648SOL     OW25579   3.877   2.803   1.857 -0.3965 -0.8669  0.6428
 4648SOL    HW125580   3.913   2.729   1.906 -1.1063 -1.0390  0.8978
 4648SOL    HW225581   3.882   2.865   1.929  0.3191 -0.4031  0.1916
 4649SOL     OW25582   0.477   3.971   1.648 -0.3229 -0.9864 -0.4398
 4649SOL    HW125583   0.437   3.891   1.615  0.0314 -0.9847 -0.8718
 4649SOL    HW225584   0.494   3.945   1.738 -0.2317  0.9283  0.0985
 4650SOL     OW25585   4.701   1.876   3.061 -0.5409  0.5648  0.0460
 4650SOL    HW125586   0.024   1.809   3.023 -1.1633  0.9970 -1.6167
 4650SOL    HW225587   0.022   1.899   3.136  1.5697 -2.4852 -0.5682
 4651SOL     OW25588   0.121   2.244   8.190  0.3033  0.0703  0.2629
 4651SOL    HW125589   0.198   2.238   8.133 -1.4297 -1.7949 -1.8758
 4651SOL    HW225590   0.113   2.339   8.199  1.8642  0.2453 -0.2409
 4652SOL     OW25591   2.862   2.458   3.307  0.1521  0.1002  0.2906
 4652SOL    HW125592   2.783   2.413   3.278  0.3195 -0.0088  0.0096
 4652SOL    HW225593   2.839   2.532   3.363  1.6763  0.5657  0.2837
 4653SOL     OW25594   1.497   0.470   6.964  0.6787 -0.2360  0.4082
 4653SOL    HW125595   1.419   0.503   7.008  0.8913 -1.0025  1.3553
 4653SOL    HW225596   1.451   0.461   6.880 -1.7200  1.2371  1.5569
 4654SOL     OW25597   3.492   1.787   4.116 -0.5929 -0.2552  0.1142
 4654SOL    HW125598   3.442   1.734   4.177 -0.1026 -0.4193  0.3775
 4654SOL    HW225599   3.425   1.847   4.084  0.1353  1.8777  2.5574
 4655SOL     OW25600   1.762   4.074   1.223  0.5162 -0.5796 -0.0640
 4655SOL    HW125601   1.702   4.092   1.296  1.0201 -3.1808  0.9865
 4655SOL    HW225602   1.821   4.019   1.274 -1.2976 -1.8248  0.7184
 4656SOL     OW25603   3.114   3.823   1.566 -0.1693  0.5157 -0.6619
 4656SOL    HW125604   3.201   3.856   1.588 -0.1729 -0.7178  1.2042
 4656SOL    HW225605   3.129   3.729   1.556 -0.4817  0.2142  1.7745
 4657SOL     OW25606   4.337   2.773   9.367 -0.3755 -0.3518  0.1714
 4657SOL    HW125607   4.398   2.806   9.433  0.0860  1.4731 -1.1392
 4657SOL    HW225608   4.339   2.679   9.385 -1.4050 -0.3359  0.3535
 4658SOL     OW25609   2.977   4.030   4.126 -0.4804 -0.5108  0.6074
 4658SOL    HW125610   2.948   3.977   4.201 -0.7498 -0.7698  0.3233
 4658SOL    HW225611   3.045   4.089   4.158 -0.9545  0.3371  0.0655
 4659SOL     OW25612   2.636   1.067   6.244 -1.1918  0.5461 -0.4329
 4659SOL    HW125613   2.703   1.131   6.218 -1.9007  1.3772 -0.1872
 4659SOL    HW225614   2.687   0.991   6.214 -1.2533  0.2537  0.2027
 4660SOL     OW25615   4.288   1.666   8.175  0.1712 -0.7716 -0.3224
 4660SOL    HW125616   4.216   1.685   8.115  0.6777 -0.2004 -0.7431
 4660SOL    HW225617   4.353   1.638   8.110 -0.1771  1.0193 -1.4279
 4661SOL     OW25618   0.088   0.740   9.497 -0.0708 -0.4928  0.3808
 4661SOL    HW125619   0.079   0.673   9.428  0.5284  2.3875 -2.5155
 4661SOL    HW225620   0.165   0.707   9.544  1.0560  4.7392  2.1971
 4662SOL     OW25621   2.890   4.404   3.190 -0.2758 -0.1324  0.4962
 4662SOL    HW125622   2.975   4.382   3.153 -1.0129  0.0079 -1.2941
 4662SOL    HW225623   2.859   4.314   3.203  0.8858 -0.5628  0.1910
 4663SOL     OW25624   0.546   0.453   7.140 -0.1735  0.4581 -0.3047
 4663SOL    HW125625   0.503   0.390   7.082  1.5472 -0.6811 -0.3466
 4663SOL    HW225626   0.633   0.454   7.098  0.2143 -3.0865  0.4235
 4664SOL     OW25627   3.555   1.889  11.071 -0.7012 -0.4076 -0.0680
 4664SOL    HW125628   3.613   1.963  11.090 -0.3751 -0.6693 -0.0297
 4664SOL    HW225629   3.541   1.873  11.164 -0.3796  2.1529  0.4097
 4665SOL     OW25630   4.348   2.117   0.128 -0.3248  0.7392 -0.2559
 4665SOL    HW125631   4.397   2.130   0.047 -0.4524  3.0159  0.0320
 4665SOL    HW225632   4.352   2.199   0.176 -2.6920 -0.6270  2.2600
 4666SOL     OW25633   4.719   2.245   0.579  0.8509 -0.0393 -0.0219
 4666SOL    HW125634   4.637   2.238   0.532 -0.6858  0.7578  2.5291
 4666SOL    HW225635   0.039   2.177   0.537  3.1851  0.9967  1.2695
 4667SOL     OW25636   3.315   2.601   4.991 -0.2361 -0.2645  0.6747
 4667SOL    HW125637   3.243   2.541   5.007  1.4045 -2.0559  1.4339
 4667SOL    HW225638   3.378   2.532   5.011  0.6621  0.2907 -0.1889
 4668SOL     OW25639   1.095   2.187  10.767  0.2872  0.2907 -0.3327
 4668SOL    HW125640   1.009   2.190  10.808  0.6183 -1.0664  0.4387
 4668SOL    HW225641   1.136   2.271  10.791 -1.8700  0.7351  1.7726
 4669SOL     OW25642   3.640   2.364   1.396 -1.0176 -0.2649 -0.7582
 4669SOL    HW125643   3.679   2.387   1.311  0.7776 -0.4903  0.0125
 4669SOL    HW225644   3.560   2.415   1.411  0.1165  1.4975 -0.7519
 4670SOL     OW25645   2.338   2.383   4.685  0.7273 -0.3183  0.0749
 4670SOL    HW125646   2.327   2.350   4.596 -1.1873  0.1286  0.1494
 4670SOL    HW225647   2.419   2.341   4.713 -0.3670 -1.1795  1.8577
 4671SOL     OW25648   1.018   2.518  13.757  0.5939  0.3475 -0.2827
 4671SOL    HW125649   1.027   2.434  13.713  3.1904 -0.9516  2.7715
 4671SOL    HW225650   1.051   2.575  13.687 -1.3330  1.3258 -0.3903
 4672SOL     OW25651   4.087   2.725   4.546 -0.6597  0.4253 -0.1405
 4672SOL    HW125652   4.088   2.820   4.561  0.3885  0.6116 -1.3423
 4672SOL    HW225653   4.053   2.716   4.457  3.0210  1.5150 -1.6723
 4673SOL     OW25654   3.423   1.294  16.515  0.1907 -0.8481  1.6726
 4673SOL    HW125655   3.345   1.345  16.538 -1.4267 -1.8236 -1.6232
 4673SOL    HW225656   3.489   1.357  16.546 -0.0344 -0.1951  0.8233
 4674SOL     OW25657   4.410   4.096   4.834 -0.1509 -0.7116  0.4136
 4674SOL    HW125658   4.474   4.099   4.905  0.0827  0.4164  0.1461
 4674SOL    HW225659   4.362   4.178   4.829  2.7388  0.9350 -0.6752
 4675SOL     OW25660   0.870   2.579  11.333 -0.4399  0.3794  0.2898
 4675SOL    HW125661   0.897   2.511  11.272  1.4697 -0.8191  2.5158
 4675SOL    HW225662   0.775   2.563  11.332 -0.2634 -0.5137 -2.7795
 4676SOL     OW25663   2.272   3.804   5.292  0.3567  0.4532 -0.4230
 4676SOL    HW125664   2.357   3.848   5.301  0.4291 -0.2409  2.2903
 4676SOL    HW225665   2.223   3.881   5.320 -0.2094  0.2517 -0.8532
 4677SOL     OW25666   1.766   4.243  14.638 -0.0515 -0.5749  0.0082
 4677SOL    HW125667   1.767   4.311  14.705  1.5276 -0.7892  0.1999
 4677SOL    HW225668   1.829   4.270  14.572  2.6622 -1.1644  2.3735
 4678SOL     OW25669   4.524   3.608   1.514  0.2995  0.2929 -0.3050
 4678SOL    HW125670   4.501   3.699   1.498  1.3931  0.6576  0.1574
 4678SOL    HW225671   4.616   3.594   1.492  0.6815  2.4150 -0.0660
 4679SOL     OW25672   2.752   0.210   2.596  0.4461 -0.6007  0.4982
 4679SOL    HW125673   2.813   0.179   2.529  0.2358  0.6230 -0.2701
 4679SOL    HW225674   2.795   0.185   2.677 -1.0146 -2.3552  0.7208
 4680SOL     OW25675   1.027   0.527   8.911  0.5052  0.2603 -0.6420
 4680SOL    HW125676   1.118   0.509   8.937  0.0633  0.8363  1.2582
 4680SOL    HW225677   1.054   0.525   8.819  0.8840 -0.1313 -0.5264
 4681SOL     OW25678   2.485   2.981   8.795  0.0858 -0.6240 -0.2431
 4681SOL    HW125679   2.486   2.912   8.861  1.7523 -0.4915 -0.1152
 4681SOL    HW225680   2.450   3.054   8.846  2.0412 -0.2893  0.6516
 4682SOL     OW25681   2.094   1.214   6.744  0.1322  0.3076 -0.2344
 4682SOL    HW125682   2.147   1.172   6.676 -1.6494 -2.1857 -0.1062
 4682SOL    HW225683   2.066   1.136   6.792 -0.8873  2.2447  2.3345
 4683SOL     OW25684   4.023   3.595   4.349  0.7276  0.0224  0.1048
 4683SOL    HW125685   4.015   3.502   4.326  2.2409 -0.2801  0.7950
 4683SOL    HW225686   3.956   3.608   4.415  1.3669 -0.3982  0.8361
 4684SOL     OW25687   2.944   4.489   4.301 -0.4897 -0.0406  0.1507
 4684SOL    HW125688   2.989   4.572   4.286  1.5392 -0.8250  1.9975
 4684SOL    HW225689   2.917   4.499   4.392  0.1817 -1.7734  0.5226
 4685SOL     OW25690   3.786   1.021  10.148 -0.2690 -0.1463 -0.1828
 4685SOL    HW125691   3.722   1.091  10.135  1.8716  2.0178  0.8360
 4685SOL    HW225692   3.862   1.061  10.107 -0.4854 -0.9361 -1.3443
 4686SOL     OW25693   3.240   3.806   0.981 -0.3573 -0.1188  0.1011
 4686SOL    HW125694   3.186   3.822   0.903 -0.9826 -4.0754 -0.3081
 4686SOL    HW225695   3.273   3.894   0.997 -1.0873  0.2408 -0.3751
 4687SOL     OW25696   1.765   2.774   9.117 -0.0058 -0.2552  0.3465
 4687SOL    HW125697   1.793   2.687   9.089  1.7191 -0.2277  1.9514
 4687SOL    HW225698   1.786   2.808   9.030 -1.4992 -0.1307  0.0444
 4688SOL     OW25699   2.264   4.705   5.338  0.0505  0.5903 -0.5275
 4688SOL    HW125700   2.348   0.014   5.321  0.0339  0.5770 -0.6419
 4688SOL    HW225701   2.264   4.699   5.434 -1.4144  1.4734 -0.4832
 4689SOL     OW25702   4.647   3.970   7.145 -0.2895  0.0489  0.3617
 4689SOL    HW125703   0.006   3.975   7.124 -0.0952 -0.2277  1.1594
 4689SOL    HW225704   4.614   3.922   7.068  1.7289 -0.5344 -0.1388
 4690SOL     OW25705   1.296   2.216   4.378  0.6501  0.2628 -0.5499
 4690SOL    HW125706   1.283   2.245   4.468  3.6186 -1.1926  0.3428
 4690SOL    HW225707   1.338   2.292   4.338  0.7954  0.9750  0.9386
 4691SOL     OW25708   1.891   4.669   4.688 -0.1298 -0.0914  0.4956
 4691SOL    HW125709   1.952   4.671   4.615 -1.2863 -1.3874 -0.5023
 4691SOL    HW225710   1.815   4.694   4.635 -1.1994 -0.1716  1.9854
 4692SOL     OW25711   0.494   0.709   7.134 -0.0396 -0.3076  0.1552
 4692SOL    HW125712   0.516   0.619   7.158  0.1877 -0.6252 -1.2434
 4692SOL    HW225713   0.498   0.748   7.221  0.0506 -1.8222  0.8329
 4693SOL     OW25714   2.446   3.977   1.096  0.1154 -0.6083 -0.1820
 4693SOL    HW125715   2.533   3.993   1.059 -0.0912  1.4858  0.2354
 4693SOL    HW225716   2.468   3.903   1.152  1.4598 -0.0463  0.0351
 4694SOL     OW25717   1.532   4.458   0.565  0.0416 -0.0294 -0.4198
 4694SOL    HW125718   1.625   4.459   0.543  1.0787 -4.2407  3.7322
 4694SOL    HW225719   1.503   4.433   0.478 -0.8338 -0.0569 -0.1196
 4695SOL     OW25720   2.985   0.001   6.778 -0.3343  0.2276  0.3013
 4695SOL    HW125721   3.044   0.076   6.763 -0.4168 -0.0919 -1.7025
 4695SOL    HW225722   3.016   4.702   6.862 -3.7360  1.0735  1.8762
 4696SOL     OW25723   1.384   1.369   6.630 -0.1916 -0.2923  0.4260
 4696SOL    HW125724   1.403   1.459   6.604  0.9444 -0.7483 -0.3077
 4696SOL    HW225725   1.368   1.328   6.545  1.2314  1.6762 -0.7832
 4697SOL     OW25726   4.135   2.889   7.904 -0.5155  0.5864 -0.2455
 4697SOL    HW125727   4.055   2.933   7.933 -1.2803 -0.6684 -0.4339
 4697SOL    HW225728   4.206   2.946   7.933 -0.1077 -0.0095 -0.0647
 4698SOL     OW25729   1.343   0.343   5.935  0.1286  0.3999 -0.2508
 4698SOL    HW125730   1.399   0.269   5.913 -0.3098  0.1791 -0.6385
 4698SOL    HW225731   1.353   0.394   5.854 -1.1848  0.5263 -0.3346
 4699SOL     OW25732   1.365   3.084  11.607 -0.0256 -0.0915 -0.7549
 4699SOL    HW125733   1.283   3.134  11.596 -0.2364 -0.0392  1.0324
 4699SOL    HW225734   1.376   3.073  11.513 -1.7030 -1.6513 -0.7730
 4700SOL     OW25735   4.243   3.466   0.094 -0.6067  0.6692  0.2771
 4700SOL    HW125736   4.249   3.548   0.144 -0.6182 -0.0775  1.5002
 4700SOL    HW225737   4.291   3.488   0.014 -3.1511 -1.9728 -1.9598
 4701SOL     OW25738   0.769   2.335   8.016  0.6353  0.2592 -0.1400
 4701SOL    HW125739   0.721   2.389   8.078  1.3994  0.5964  0.1605
 4701SOL    HW225740   0.731   2.351   7.930  0.2023 -0.2968 -0.0544
 4702SOL     OW25741   0.455   2.292  16.352 -0.2972 -0.2660  0.7037
 4702SOL    HW125742   0.400   2.285  16.430 -0.0227  1.5758  1.0679
 4702SOL    HW225743   0.488   2.204  16.335 -1.3757 -0.9232  2.0100
 4703SOL     OW25744   2.052   2.411   4.804  0.2444  0.0428  0.3851
 4703SOL    HW125745   2.075   2.327   4.843  0.3616 -0.1533 -0.1134
 4703SOL    HW225746   2.138   2.423   4.763  0.0706  0.1783  0.0578
 4704SOL     OW25747   1.540   1.490  12.473  0.0013  0.6596 -0.4940
 4704SOL    HW125748   1.540   1.402  12.434  0.5886  0.5891 -0.3429
 4704SOL    HW225749   1.633   1.500  12.494  0.5664 -1.0148 -2.1979
 4705SOL     OW25750   2.276   1.581   2.464  0.0678 -0.3773  0.3843
 4705SOL    HW125751   2.268   1.552   2.373  0.7721 -0.0749  0.2202
 4705SOL    HW225752   2.239   1.505   2.508 -2.9398  1.6501  1.3342
 4706SOL     OW25753   3.683   2.075  11.239  0.8486  0.0875  0.2355
 4706SOL    HW125754   3.640   2.072  11.325 -0.2073 -4.9392 -0.4195
 4706SOL    HW225755   3.772   2.096  11.267  1.0680 -1.0741  0.4313
 4707SOL     OW25756   3.564   1.290   3.789 -0.0756  0.7821 -0.1382
 4707SOL    HW125757   3.511   1.289   3.869 -0.2404  0.1499 -0.2560
 4707SOL    HW225758   3.621   1.359   3.821 -0.6363  0.9237  0.5660
 4708SOL     OW25759   2.700   2.181   4.365  0.0027  0.1126 -0.1694
 4708SOL    HW125760   2.774   2.125   4.346 -0.2319 -0.7419  1.4259
 4708SOL    HW225761   2.743   2.266   4.357  0.9302 -0.2214  1.2342
 4709SOL     OW25762   3.099   2.987   5.846  0.3147 -0.2205  0.5705
 4709SOL    HW125763   3.103   2.934   5.925  0.3504  0.7799  1.2438
 4709SOL    HW225764   3.009   3.020   5.852  0.6605  0.7280  0.5698
 4710SOL     OW25765   3.249   2.650  11.528 -0.1492  0.2143 -0.1747
 4710SOL    HW125766   3.330   2.602  11.543 -0.3622  0.9752  3.3480
 4710SOL    HW225767   3.291   2.734  11.505  0.7997 -0.1889  0.0707
 4711SOL     OW25768   3.802   4.557   3.861 -0.0328 -1.1216  0.3925
 4711SOL    HW125769   3.861   4.482   3.870 -0.1358 -1.0451  1.6844
 4711SOL    HW225770   3.727   4.511   3.822 -1.0508  0.2638  0.7279
 4712SOL     OW25771   2.946   1.604  16.654  0.5473 -0.6664  0.1886
 4712SOL    HW125772   3.026   1.621  16.704  2.0480 -0.5952 -2.2696
 4712SOL    HW225773   2.977   1.641  16.571 -0.4812  0.2680  0.2099
 4713SOL     OW25774   2.612   3.432   7.213 -0.2303 -0.3858  0.3112
 4713SOL    HW125775   2.606   3.512   7.266  0.8387 -0.3645  0.4057
 4713SOL    HW225776   2.644   3.368   7.276  0.2663 -0.6282 -0.1859
 4714SOL     OW25777   0.200   1.352   8.734  0.5853 -0.0684 -0.2448
 4714SOL    HW125778   0.232   1.374   8.822 -0.4909 -0.6283  0.2855
 4714SOL    HW225779   0.119   1.401   8.742 -1.8578 -4.5179  2.5880
 4715SOL     OW25780   1.638   0.030   1.253 -0.5961 -0.2444  0.6791
 4715SOL    HW125781   1.674   0.052   1.167 -1.6616  1.0923  0.5775
 4715SOL    HW225782   1.612   0.119   1.277  0.2027  0.6585 -1.8320
 4716SOL     OW25783   2.286   3.931   0.199 -0.1770  0.0071  0.1715
 4716SOL    HW125784   2.355   3.958   0.259 -0.0885  1.4710 -0.5970
 4716SOL    HW225785   2.288   3.838   0.224 -2.8225 -0.6340 -1.9296
 4717SOL     OW25786   1.220   0.970   0.061 -0.5156 -0.2488 -0.3240
 4717SOL    HW125787   1.163   1.036   0.100 -0.6931  1.1187 -2.9308
 4717SOL    HW225788   1.277   0.941   0.132  0.3758  1.2221 -0.4300
 4718SOL     OW25789   0.033   3.767  15.835 -0.5005  0.2611  0.5312
 4718SOL    HW125790   0.061   3.808  15.917 -0.0078 -0.0125  0.4979
 4718SOL    HW225791   0.110   3.723  15.800  0.7347  0.3839  3.1188
 4719SOL     OW25792   3.777   4.227  17.457 -0.0886  0.2771  0.0755
 4719SOL    HW125793   3.702   4.278  17.428 -0.0759 -0.3349 -1.0405
 4719SOL    HW225794   3.833   4.211  17.381 -0.0784 -1.4846  0.4480
 4720SOL     OW25795   2.227   2.111  12.080  0.4507 -0.3247  0.5284
 4720SOL    HW125796   2.299   2.175  12.082 -0.6361  0.9330 -0.0363
 4720SOL    HW225797   2.274   2.048  12.026 -0.0883 -0.2513 -0.0350
 4721SOL     OW25798   1.961   2.836   9.527 -0.3511  0.0776 -0.3200
 4721SOL    HW125799   2.052   2.853   9.500  0.2622  0.1420  1.7452
 4721SOL    HW225800   1.956   2.901   9.597  1.9258  1.5248 -1.4902
 4722SOL     OW25801   2.853   1.804   7.935 -0.1858 -0.4050  0.3004
 4722SOL    HW125802   2.833   1.730   7.877 -0.9811  0.3641 -0.4089
 4722SOL    HW225803   2.923   1.770   7.991 -0.9746 -0.1333  1.4537
 4723SOL     OW25804   4.501   1.578   1.572  0.0336  0.1658 -0.4938
 4723SOL    HW125805   4.558   1.516   1.526  1.3330  0.2921  0.9290
 4723SOL    HW225806   4.415   1.539   1.558 -0.8752  1.9954  0.0485
 4724SOL     OW25807   2.561   0.726   0.347 -0.0658  0.2356 -0.6784
 4724SOL    HW125808   2.542   0.779   0.269  3.5531  0.2916 -1.5638
 4724SOL    HW225809   2.623   0.786   0.390 -1.2735 -0.7739  2.4689
 4725SOL     OW25810   1.954   4.018   5.922  0.8911  0.4839  0.4864
 4725SOL    HW125811   1.948   4.094   5.980  0.4880  1.9652 -1.4619
 4725SOL    HW225812   2.045   3.990   5.930  0.5159 -1.4204 -1.9346
 4726SOL     OW25813   2.360   1.627   3.909  0.3442 -1.0103  0.0776
 4726SOL    HW125814   2.265   1.633   3.921  0.1123  2.7548 -3.6177
 4726SOL    HW225815   2.353   1.700   3.847  0.1613 -1.6296 -0.6218
 4727SOL     OW25816   0.873   1.494   2.335  0.1909  0.4317 -0.3102
 4727SOL    HW125817   0.803   1.465   2.394  0.5742 -0.5339 -0.3303
 4727SOL    HW225818   0.839   1.577   2.302  0.4853  0.5848 -0.2284
 4728SOL     OW25819   3.108   2.666   7.153  0.1428  0.5744 -0.2693
 4728SOL    HW125820   3.101   2.742   7.212  0.2626 -0.6847  1.3773
 4728SOL    HW225821   3.028   2.689   7.106 -1.3823  0.2564  2.1545
 4729SOL     OW25822   3.089   3.703   0.033  0.5850  0.1113  0.3368
 4729SOL    HW125823   3.142   3.755   0.093 -1.0479  0.5008  1.4022
 4729SOL    HW225824   3.100   3.746  17.684 -0.0503 -1.6338 -0.6441
 4730SOL     OW25825   1.054   3.122   1.428 -0.1678  0.3516  0.8071
 4730SOL    HW125826   1.058   3.099   1.335 -2.4434 -0.1904  0.8382
 4730SOL    HW225827   1.148   3.124   1.447  0.3120  0.7477 -1.6556
 4731SOL     OW25828   3.047   4.050  11.474 -0.1135  0.4614 -0.0240
 4731SOL    HW125829   2.962   4.090  11.487 -0.2994  0.6720 -2.0032
 4731SOL    HW225830   3.099   4.127  11.449 -2.1559  1.7003 -0.3912
 4732SOL     OW25831   3.242   4.442   4.105 -0.1301 -0.2163 -0.0779
 4732SOL    HW125832   3.201   4.528   4.114  0.3264  0.0995 -0.9336
 4732SOL    HW225833   3.318   4.469   4.052  0.3989 -2.0532 -0.2383
 4733SOL     OW25834   0.779   3.772  12.268 -0.4489 -0.6362 -0.6000
 4733SOL    HW125835   0.843   3.723  12.217 -0.1546 -1.2977  0.4220
 4733SOL    HW225836   0.720   3.697  12.263  0.5764 -1.8632  6.1424
 4734SOL     OW25837   4.468   4.022   3.469  0.2525  0.4784 -0.4326
 4734SOL    HW125838   4.542   3.970   3.500 -0.8281  0.0529  1.4535
 4734SOL    HW225839   4.400   3.956   3.461 -0.6055  1.2055  0.9233
 4735SOL     OW25840   3.375   2.885  10.090 -0.2235 -0.1909 -0.2239
 4735SOL    HW125841   3.367   2.789  10.091 -1.8563 -0.0560 -0.8154
 4735SOL    HW225842   3.286   2.916  10.075 -0.4243  0.7740  2.8879
 4736SOL     OW25843   3.797   1.416   6.116 -0.1928 -0.0006 -0.4194
 4736SOL    HW125844   3.789   1.504   6.153 -1.4416 -1.7495  3.4799
 4736SOL    HW225845   3.892   1.410   6.114 -0.3530 -1.7792 -2.5167
 4737SOL     OW25846   0.494   3.898   8.599 -0.0457 -0.3080  0.3039
 4737SOL    HW125847   0.503   3.885   8.694 -1.1174  0.2023  0.4762
 4737SOL    HW225848   0.447   3.981   8.600  2.5693  1.2158 -3.1027
 4738SOL     OW25849   0.597   4.339  10.421  0.0485 -0.3540  0.0601
 4738SOL    HW125850   0.643   4.257  10.438  1.1974 -0.2106 -2.3344
 4738SOL    HW225851   0.551   4.350  10.504  0.3238  0.0234  0.1626
 4739SOL     OW25852   0.929   0.684  10.762 -0.5051  0.4794 -0.2038
 4739SOL    HW125853   0.907   0.683  10.669 -1.3278 -1.3825  0.0181
 4739SOL    HW225854   1.014   0.728  10.773 -0.2678 -0.4510  1.8316
 4740SOL     OW25855   0.593   2.461  13.666  0.4668 -0.1651 -0.1046
 4740SOL    HW125856   0.611   2.538  13.613 -0.3216  0.5806  0.7048
 4740SOL    HW225857   0.662   2.452  13.732  0.0022  0.7587  0.5077
 4741SOL     OW25858   0.275   3.134   1.531  0.0657 -0.5555  0.1363
 4741SOL    HW125859   0.332   3.077   1.583  1.1775 -1.2082 -1.8025
 4741SOL    HW225860   0.293   3.215   1.580  1.3855 -1.5711  1.3272
 4742SOL     OW25861   2.365   2.149  12.976 -0.5743  1.0472 -0.1194
 4742SOL    HW125862   2.365   2.169  13.070 -2.6486  1.7940 -0.2941
 4742SOL    HW225863   2.272   2.159  12.958 -0.4714  5.4734  1.8305
 4743SOL     OW25864   0.552   0.601   0.686 -0.1466  0.9441  0.0911
 4743SOL    HW125865   0.524   0.510   0.681 -0.2078  0.9811 -0.2242
 4743SOL    HW225866   0.496   0.634   0.755 -0.9705  1.3733 -0.7858
 4744SOL     OW25867   1.873   0.273  11.563  0.3173 -0.3011 -0.0327
 4744SOL    HW125868   1.792   0.277  11.614 -0.1266  1.1131 -0.8398
 4744SOL    HW225869   1.926   0.333  11.614 -0.4589 -0.9335  1.5307
 4745SOL     OW25870   1.361   3.380   3.599  0.2887  0.0252  0.0475
 4745SOL    HW125871   1.358   3.321   3.674 -1.1106  0.8870  0.6611
 4745SOL    HW225872   1.387   3.459   3.645  3.0668  0.1998 -1.8086
 4746SOL     OW25873   2.667   0.856   1.349  0.0525  0.9531 -0.6489
 4746SOL    HW125874   2.691   0.928   1.289 -0.3372  1.1734 -0.5417
 4746SOL    HW225875   2.689   0.895   1.433 -0.3015 -1.6189  0.6143
 4747SOL     OW25876   0.274   2.376  14.137 -0.0822  0.2749 -0.6655
 4747SOL    HW125877   0.362   2.380  14.100  0.6886 -0.2138  1.1203
 4747SOL    HW225878   0.262   2.470  14.146  2.5135  0.5140  0.3593
 4748SOL     OW25879   0.687   0.672   5.380  0.2252 -0.1977 -0.0605
 4748SOL    HW125880   0.662   0.678   5.287 -0.5922 -0.2235  0.1576
 4748SOL    HW225881   0.732   0.756   5.389 -0.3739  0.2181 -0.9106
 4749SOL     OW25882   1.697   3.070   1.744 -0.2050  0.4983 -0.2893
 4749SOL    HW125883   1.779   3.041   1.785 -0.3845  0.3238 -0.0530
 4749SOL    HW225884   1.656   3.112   1.820  1.2180  0.0730  0.7261
 4750SOL     OW25885   0.459   4.105   3.650  0.4573 -0.2167  0.2463
 4750SOL    HW125886   0.496   4.126   3.565  0.3321  1.1042  0.5172
 4750SOL    HW225887   0.527   4.148   3.701  2.6248 -0.8579 -2.1260
 4751SOL     OW25888   0.117   2.541  16.238  0.1398 -0.1953 -0.3154
 4751SOL    HW125889   0.187   2.551  16.174  1.0286  0.5334  0.7727
 4751SOL    HW225890   0.117   2.629  16.275  0.5747  0.0795 -0.9752
 4752SOL     OW25891   1.830   1.592  12.535 -0.1171  0.0624 -0.4117
 4752SOL    HW125892   1.895   1.641  12.586 -0.5934  1.4900 -1.1654
 4752SOL    HW225893   1.885   1.542  12.475 -0.2261 -1.0146  0.3713
 4753SOL     OW25894   0.349   2.953   9.533 -0.3254  0.0897 -0.1855
 4753SOL    HW125895   0.274   2.941   9.591 -1.2885  1.5245 -1.1293
 4753SOL    HW225896   0.328   3.028   9.477  0.5294  2.1828  2.2898
 4754SOL     OW25897   2.907   1.336   3.321 -0.4317 -0.0376  0.0700
 4754SOL    HW125898   2.874   1.422   3.346  0.6953  0.6207 -0.7477
 4754SOL    HW225899   2.991   1.340   3.367 -0.9211 -0.9865  1.0444
 4755SOL     OW25900   3.510   4.695   8.413 -0.0464  0.0530  0.5568
 4755SOL    HW125901   3.551   4.611   8.432  0.4175  0.3061  0.6638
 4755SOL    HW225902   3.578   0.022   8.385 -0.1034 -0.1296  0.0229
 4756SOL     OW25903   1.575   4.387   5.480 -0.3590  0.0144 -0.3161
 4756SOL    HW125904   1.551   4.294   5.485 -1.4313  0.2568 -0.8831
 4756SOL    HW225905   1.660   4.372   5.521 -0.3328 -1.6457 -0.9452
 4757SOL     OW25906   1.719   1.886   6.074  0.6879 -0.4122  0.2025
 4757SOL    HW125907   1.675   1.814   6.029  0.5416  1.5025 -2.7070
 4757SOL    HW225908   1.654   1.924   6.132  1.3446  0.8893  0.0993
 4758SOL     OW25909   0.596   3.093   3.098  0.2143 -0.5843 -0.0355
 4758SOL    HW125910   0.520   3.067   3.047 -0.1014  0.7643 -0.2422
 4758SOL    HW225911   0.599   3.182   3.062 -0.3140 -0.9737 -1.0313
 4759SOL     OW25912   1.466   2.355   7.930  0.0951  0.1547 -0.2965
 4759SOL    HW125913   1.532   2.411   7.889 -0.5780  1.0628 -0.1267
 4759SOL    HW225914   1.437   2.405   8.006  3.4158 -0.4047  1.3294
 4760SOL     OW25915   0.518   1.415  13.416  0.0026 -0.5174  0.2195
 4760SOL    HW125916   0.516   1.429  13.511 -0.8615 -0.1124  0.1389
 4760SOL    HW225917   0.612   1.396  13.408 -0.3287 -1.3413 -1.6818
 4761SOL     OW25918   4.260   0.719  11.762 -0.4747 -0.0474 -0.0207
 4761SOL    HW125919   4.218   0.700  11.678  0.4584 -2.6035  0.0948
 4761SOL    HW225920   4.344   0.759  11.741 -2.4153  2.6055 -2.7013
 4762SOL     OW25921   3.521   0.322   2.092 -0.2526  0.1393 -0.3890
 4762SOL    HW125922   3.538   0.238   2.136 -0.7688  0.4115  0.3417
 4762SOL    HW225923   3.450   0.360   2.145  0.3778  2.6391 -1.3524
 4763SOL     OW25924   2.312   3.326   9.218 -0.0484 -0.1551  0.9192
 4763SOL    HW125925   2.384   3.263   9.227 -0.9651 -1.0950  1.5460
 4763SOL    HW225926   2.240   3.293   9.271 -0.4189 -0.3120  0.3234
 4764SOL     OW25927   1.340   2.532   5.645 -0.8382  0.1173 -0.2188
 4764SOL    HW125928   1.308   2.519   5.556  0.4942 -1.3431 -0.4894
 4764SOL    HW225929   1.431   2.540   5.617 -0.5713  0.0266  0.6258
 4765SOL     OW25930   1.762   1.583   5.549  0.4386  0.2687 -0.1904
 4765SOL    HW125931   1.787   1.522   5.618  1.2525  0.3651 -0.3969
 4765SOL    HW225932   1.722   1.528   5.481 -0.9381  0.7139  0.2671
 4766SOL     OW25933   4.103   2.579   8.693  0.1259  0.2114 -0.2032
 4766SOL    HW125934   4.194   2.597   8.672 -0.0890 -0.9126 -2.0385
 4766SOL    HW225935   4.080   2.509   8.632 -2.8973  1.6250 -0.7155
 4767SOL     OW25936   1.561   1.056  15.282 -0.0789  0.1482 -0.4117
 4767SOL    HW125937   1.599   1.141  15.304  0.9548 -0.5151  0.3032
 4767SOL    HW225938   1.634   1.011  15.240  1.0558  0.1155  1.6500
 4768SOL     OW25939   3.258   1.884   5.698 -0.1372  0.0365 -0.0594
 4768SOL    HW125940   3.267   1.840   5.783  1.9434 -0.2315 -0.4260
 4768SOL    HW225941   3.307   1.819   5.646 -0.7738  0.3382 -1.0303
 4769SOL     OW25942   1.798   1.278  12.323  0.5372 -0.1786 -0.2489
 4769SOL    HW125943   1.813   1.225  12.244  0.1741  0.3935 -0.7062
 4769SOL    HW225944   1.860   1.350  12.308 -0.0233  0.1860 -0.8353
 4770SOL     OW25945   2.606   0.197   3.598  0.2586  0.2591 -0.0363
 4770SOL    HW125946   2.625   0.250   3.676  0.1323  0.1137  0.0934
 4770SOL    HW225947   2.674   0.129   3.597 -1.4279 -1.4599  1.6352
 4771SOL     OW25948   0.615   2.267  10.915  0.1759 -0.4006  0.3939
 4771SOL    HW125949   0.625   2.357  10.883  0.9761 -0.1235  1.4103
 4771SOL    HW225950   0.707   2.242  10.906 -0.4905 -2.9925  0.8757
 4772SOL     OW25951   2.383   1.418   5.288  0.4310  0.2463  0.0041
 4772SOL    HW125952   2.334   1.475   5.228  1.2607  1.1959  0.2502
 4772SOL    HW225953   2.386   1.339   5.233  4.0004  0.2975  0.1296
 4773SOL     OW25954   2.093   1.315  12.267 -0.3029 -0.2745  0.1578
 4773SOL    HW125955   2.183   1.301  12.295 -1.2460 -0.1200  3.2607
 4773SOL    HW225956   2.090   1.398  12.219 -3.0087 -0.2606  0.3713
 4774SOL     OW25957   2.504   0.503   4.083 -0.1249  0.0311  0.0349
 4774SOL    HW125958   2.521   0.517   3.990 -0.4592  0.0416 -0.0255
 4774SOL    HW225959   2.581   0.544   4.123  1.4503 -1.7572 -1.1609
 4775SOL     OW25960   1.939   0.262   9.385 -0.0026 -0.2221 -0.1856
 4775SOL    HW125961   2.008   0.326   9.404 -1.1924  1.0673 -0.2514
 4775SOL    HW225962   1.975   0.186   9.432 -1.9586 -0.3070  1.1525
 4776SOL     OW25963   3.646   0.950   1.932  0.3494 -0.3659 -0.0645
 4776SOL    HW125964   3.630   0.882   1.997  3.5172 -1.6814 -0.6963
 4776SOL    HW225965   3.733   0.924   1.902  0.9402  0.3739  0.9878
 4777SOL     OW25966   0.066   3.600   7.882  0.6913 -0.6751  0.0104
 4777SOL    HW125967   0.069   3.508   7.908 -0.2326 -1.0833 -1.3289
 4777SOL    HW225968   0.127   3.615   7.810  1.5788 -2.4279  0.3871
 4778SOL     OW25969   2.779   0.178   6.903  0.2516  0.4897  0.4675
 4778SOL    HW125970   2.836   0.132   6.841 -2.0487 -1.4438 -0.2370
 4778SOL    HW225971   2.840   0.202   6.973 -0.6492 -1.0302  1.7597
 4779SOL     OW25972   1.431   2.992   2.441  0.3677  0.1714  0.0994
 4779SOL    HW125973   1.456   3.084   2.428 -0.6481  0.2535 -1.2867
 4779SOL    HW225974   1.515   2.956   2.470  1.0988  0.8107 -1.1957
 4780SOL     OW25975   1.083   1.109   5.744  0.0744 -0.6205 -0.4610
 4780SOL    HW125976   1.062   1.182   5.686 -1.6209 -0.6764  0.0902
 4780SOL    HW225977   1.095   1.154   5.827 -0.0906  0.0004 -0.7708
 4781SOL     OW25978   3.378   2.443   4.185  0.1043  0.4564 -1.0130
 4781SOL    HW125979   3.325   2.372   4.150 -0.1641  0.1580  0.0169
 4781SOL    HW225980   3.321   2.476   4.254  0.7571  0.6205 -0.5524
 4782SOL     OW25981   2.504   3.801  14.090  0.4525  0.0759 -0.5691
 4782SOL    HW125982   2.505   3.830  13.999  1.3694  0.4170 -0.4458
 4782SOL    HW225983   2.487   3.885  14.131  1.4936  0.1579 -0.3039
 4783SOL     OW25984   3.166   4.096   9.962 -0.0712 -0.0793  0.2076
 4783SOL    HW125985   3.255   4.064   9.964 -0.8570 -2.1783  1.1314
 4783SOL    HW225986   3.128   4.031   9.902  0.9988 -0.3364 -0.1879
 4784SOL     OW25987   2.997   2.837   4.104  0.2601 -0.6863  0.0472
 4784SOL    HW125988   2.944   2.843   4.183 -0.6624  0.2017 -0.6305
 4784SOL    HW225989   2.976   2.924   4.070 -0.0636  0.2147  2.5907
 4785SOL     OW25990   0.031   3.918   4.088 -0.1956 -0.0971 -0.0027
 4785SOL    HW125991   0.046   3.975   4.013  1.1476 -1.2384 -0.5988
 4785SOL    HW225992   4.706   3.976   4.135  0.6511  1.4908 -0.9143
 4786SOL     OW25993   2.148   1.641  16.668 -0.3892 -0.0351 -0.0398
 4786SOL    HW125994   2.095   1.617  16.591 -0.8783  2.4254 -0.4523
 4786SOL    HW225995   2.234   1.650  16.626  0.6601 -0.3222  2.0726
 4787SOL     OW25996   2.829   1.939   0.958 -0.8862  0.3920 -0.3835
 4787SOL    HW125997   2.781   1.989   0.892 -1.7829 -1.0018 -0.7985
 4787SOL    HW225998   2.835   1.858   0.908  0.4270 -0.0076  0.4245
 4788SOL     OW25999   3.571   2.241  13.691  0.6078 -0.5520  0.1049
 4788SOL    HW126000   3.625   2.244  13.612  1.6073  1.0722  0.8442
 4788SOL    HW226001   3.557   2.146  13.699 -0.3208 -0.1988  2.6224
 4789SOL     OW26002   3.643   2.240   6.396  0.6807 -0.1935 -0.0552
 4789SOL    HW126003   3.584   2.311   6.370  1.0257 -1.2590 -3.8150
 4789SOL    HW226004   3.727   2.259   6.353 -0.8362  2.4683 -1.8311
 4790SOL     OW26005   0.953   3.163   6.033 -0.3132 -0.0966  0.0353
 4790SOL    HW126006   1.024   3.227   6.039  1.0416 -1.6001 -0.1067
 4790SOL    HW226007   0.971   3.104   6.107  0.2523 -0.6059 -0.5077
 4791SOL     OW26008   3.576   0.539  14.938 -0.0246 -0.4822 -0.3386
 4791SOL    HW126009   3.608   0.615  14.889  0.6206 -0.5015  0.0442
 4791SOL    HW226010   3.533   0.589  15.007  3.0482  1.1114  0.4202
 4792SOL     OW26011   0.532   3.001  13.064 -0.4796 -0.4795 -1.3709
 4792SOL    HW126012   0.510   2.928  13.007  0.2889 -1.8657  0.1143
 4792SOL    HW226013   0.475   2.986  13.139  1.0119 -0.5682 -0.2583
 4793SOL     OW26014   0.524   3.294   3.307 -0.6081  0.5249 -0.6446
 4793SOL    HW126015   0.618   3.301   3.323 -0.2369  0.5715 -2.8699
 4793SOL    HW226016   0.535   3.240   3.229 -0.4824  0.6134 -0.6887
 4794SOL     OW26017   0.827   2.190  11.593 -0.1587 -0.1766 -0.3526
 4794SOL    HW126018   0.916   2.158  11.584 -0.7375 -1.8591 -0.0193
 4794SOL    HW226019   0.818   2.214  11.501  3.0874  0.8562 -0.4120
 4795SOL     OW26020   3.435   3.763  17.456  0.5332  0.3922 -0.0580
 4795SOL    HW126021   3.473   3.768  17.369 -2.7404 -0.3674 -1.5504
 4795SOL    HW226022   3.348   3.798  17.435  0.1934 -0.8386 -0.7553
 4796SOL     OW26023   0.970   2.041   5.792 -0.4975 -0.4900  0.3615
 4796SOL    HW126024   0.949   1.963   5.741 -1.3588  0.5441 -0.8691
 4796SOL    HW226025   0.984   2.118   5.736  0.8270 -2.3263 -1.8206
 4797SOL     OW26026   0.262   2.763  13.044 -0.6659 -0.6269 -0.7198
 4797SOL    HW126027   0.279   2.812  12.964  1.8110 -3.6694 -2.1085
 4797SOL    HW226028   0.199   2.701  13.006 -0.9219  0.9708 -2.8979
 4798SOL     OW26029   4.573   2.175   4.440 -0.2894  0.7631  0.7016
 4798SOL    HW126030   4.521   2.211   4.512  0.7659 -0.3693  2.0383
 4798SOL    HW226031   4.659   2.173   4.482 -0.5736  1.5704  1.3026
 4799SOL     OW26032   3.858   3.317   7.976  0.5535 -0.3297  0.1593
 4799SOL    HW126033   3.850   3.298   7.882 -1.5474 -0.3073  0.3354
 4799SOL    HW226034   3.774   3.357   7.996  0.4967  0.2900 -1.3466
 4800SOL     OW26035   0.317   4.212   7.594 -0.4687 -0.1026  0.0622
 4800SOL    HW126036   0.326   4.178   7.683  0.8200 -2.0067 -0.8100
 4800SOL    HW226037   0.334   4.125   7.559  1.4701  1.5883 -3.1804
 4801SOL     OW26038   1.530   3.635   9.778  0.1693 -0.2685 -0.0144
 4801SOL    HW126039   1.527   3.639   9.683  1.5553  2.6289  0.0657
 4801SOL    HW226040   1.608   3.689   9.795 -0.4183  0.6079 -0.1105
 4802SOL     OW26041   3.310   0.239   8.107 -0.3762  0.4639 -0.3527
 4802SOL    HW126042   3.298   0.292   8.029  1.2089 -1.2212 -1.7402
 4802SOL    HW226043   3.401   0.260   8.127 -0.1754  0.2057 -0.9824
 4803SOL     OW26044   0.221   2.555   6.224  0.6816 -0.3800 -0.2701
 4803SOL    HW126045   0.250   2.588   6.139  3.2867 -1.2180  0.2894
 4803SOL    HW226046   0.188   2.467   6.206 -2.5063  0.2861  2.4864
 4804SOL     OW26047   2.247   3.522   2.606 -0.4240 -0.1223  0.1156
 4804SOL    HW126048   2.169   3.578   2.598  0.5530  1.4081  1.1176
 4804SOL    HW226049   2.240   3.468   2.528  0.9883 -1.9095  1.2273
 4805SOL     OW26050   0.200   1.181   6.239  0.4679  0.2287  0.6559
 4805SOL    HW126051   0.294   1.192   6.227  0.5808 -0.5819  0.8015
 4805SOL    HW226052   0.187   1.173   6.333  2.8325  1.4362  1.0761
 4806SOL     OW26053   4.350   4.011  15.308  0.0752  0.1961  0.1135
 4806SOL    HW126054   4.393   4.060  15.378  1.5215  0.8571 -1.2076
 4806SOL    HW226055   4.263   4.025  15.343  0.4788  1.5932  0.5695
 4807SOL     OW26056   0.623   0.026   1.174 -0.5326 -0.1580 -0.3710
 4807SOL    HW126057   0.529   0.029   1.159 -0.3153 -1.0772 -1.8653
 4807SOL    HW226058   0.635   0.106   1.225  1.2373 -0.8389  0.3048
 4808SOL     OW26059   1.315   1.831   6.031 -0.0827  0.1536 -0.2614
 4808SOL    HW126060   1.404   1.804   6.009  0.6219  3.5219 -1.6433
 4808SOL    HW226061   1.321   1.927   6.029 -2.5922  0.2845 -0.9189
 4809SOL     OW26062   2.573   3.976  14.399  0.0124  0.7478 -0.3479
 4809SOL    HW126063   2.479   3.988  14.416  0.1198 -1.1517  1.5762
 4809SOL    HW226064   2.613   3.990  14.485 -0.0107  1.3951 -0.4392
 4810SOL     OW26065   1.497   0.760   3.313 -0.2517  0.3662 -0.8016
 4810SOL    HW126066   1.408   0.787   3.336 -0.6672 -0.6143 -1.2438
 4810SOL    HW226067   1.521   0.843   3.272 -1.3862  0.7984 -0.5776
 4811SOL     OW26068   0.559   1.152   7.200  1.0884  0.4945 -0.3360
 4811SOL    HW126069   0.587   1.242   7.215  1.4373  0.2169  0.6813
 4811SOL    HW226070   0.484   1.149   7.260  1.9029 -0.2084  0.6505
 4812SOL     OW26071   1.353   1.836   4.473  0.2329  0.2872  0.4509
 4812SOL    HW126072   1.352   1.927   4.444  0.9392  0.7500  1.8929
 4812SOL    HW226073   1.397   1.804   4.394  1.2785 -0.7760  1.4578
 4813SOL     OW26074   1.258   2.519   7.782 -0.4679  0.0821  0.6722
 4813SOL    HW126075   1.285   2.497   7.870  0.0608 -0.7072  0.3092
 4813SOL    HW226076   1.167   2.490   7.777 -0.4047  0.0922 -0.6147
 4814SOL     OW26077   4.692   1.468   5.719 -0.3549  0.1400 -0.6125
 4814SOL    HW126078   4.673   1.509   5.804  1.6085 -1.9509  0.8330
 4814SOL    HW226079   0.050   1.444   5.732 -0.3362 -0.6355 -2.2773
 4815SOL     OW26080   1.949   1.070  15.435  0.2113 -0.4560 -0.3291
 4815SOL    HW126081   2.042   1.047  15.438 -0.2742 -2.4178 -0.0298
 4815SOL    HW226082   1.948   1.124  15.514 -1.0727 -0.7110 -0.1790
 4816SOL     OW26083   0.972   1.906   0.079 -0.0953  0.1863 -0.3221
 4816SOL    HW126084   0.919   1.941   0.151  1.5590  0.2082  0.8718
 4816SOL    HW226085   1.026   1.844   0.128  0.5757  0.7822 -0.3241
 4817SOL     OW26086   0.442   3.010   7.326  0.5946  0.0843  0.1079
 4817SOL    HW126087   0.356   2.999   7.285  0.8480 -0.7531 -0.1823
 4817SOL    HW226088   0.448   2.930   7.378  0.9935 -0.2037 -0.3922
 4818SOL     OW26089   4.673   3.883   3.591  0.2039 -0.4370 -0.1866
 4818SOL    HW126090   4.632   3.804   3.625 -2.1407  1.0753  0.4810
 4818SOL    HW226091   0.024   3.839   3.594  0.0223 -0.8866 -1.6546
 4819SOL     OW26092   0.048   2.354   8.956 -0.3833 -0.3322 -0.5070
 4819SOL    HW126093   4.713   2.296   8.927 -1.9913  0.1102  2.4597
 4819SOL    HW226094   0.011   2.441   8.940 -0.2726 -0.5350 -1.8572
 4820SOL     OW26095   2.368   2.844   7.096 -0.1559 -0.5284 -0.0413
 4820SOL    HW126096   2.276   2.840   7.118 -0.3480 -1.9515 -1.0803
 4820SOL    HW226097   2.346   2.843   7.003  3.2783  0.7483 -0.8842
 4821SOL     OW26098   4.241   3.144   0.087 -0.0285 -0.0285 -0.5645
 4821SOL    HW126099   4.204   3.222   0.128 -0.9031 -0.0412 -1.3360
 4821SOL    HW226100   4.305   3.186   0.030 -0.3519  0.0341 -0.8783
 4822SOL     OW26101   1.682   2.039   2.080 -0.5539  0.0568  0.0058
 4822SOL    HW126102   1.677   2.038   2.176 -0.0727  1.9827  0.0495
 4822SOL    HW226103   1.592   2.016   2.056  0.0520 -1.5583 -0.7153
 4823SOL     OW26104   2.705   4.601  10.762 -0.6603 -0.3686  0.0413
 4823SOL    HW126105   2.629   4.551  10.791  0.3334 -0.6448  2.1839
 4823SOL    HW226106   2.705   4.608  10.666  1.2002 -3.1659 -0.1684
 4824SOL     OW26107   4.469   4.312   6.626  0.0010 -0.1926  0.0829
 4824SOL    HW126108   4.529   4.259   6.574 -0.0183  0.3674 -0.5110
 4824SOL    HW226109   4.505   4.301   6.713 -1.7827 -2.1996  0.5728
 4825SOL     OW26110   2.628   1.557  16.269  0.5264 -0.4524 -0.1603
 4825SOL    HW126111   2.581   1.516  16.341 -0.9201  0.4610 -0.5791
 4825SOL    HW226112   2.566   1.620  16.231 -0.6426 -0.7793  1.2059
 4826SOL     OW26113   1.270   4.600   2.915 -0.4163 -0.7509 -0.0426
 4826SOL    HW126114   1.350   4.549   2.929 -0.3667 -0.1059  1.9153
 4826SOL    HW226115   1.212   4.542   2.864 -2.9689  1.2716  0.5833
 4827SOL     OW26116   2.659   3.696   4.215  0.0305  0.3532  0.0122
 4827SOL    HW126117   2.722   3.696   4.143  0.2305 -2.3861  0.1809
 4827SOL    HW226118   2.698   3.750   4.283 -0.6201 -0.3526  0.9410
 4828SOL     OW26119   1.010   1.348   0.301  0.2169 -0.6991  0.4480
 4828SOL    HW126120   0.928   1.388   0.329 -1.3424 -1.5680 -2.7977
 4828SOL    HW226121   1.059   1.416   0.255  2.8111 -1.6861  1.8197
 4829SOL     OW26122   1.486   4.546   0.017  0.2006  0.0926  0.7447
 4829SOL    HW126123   1.524   4.633   0.006  0.7418  0.0905  2.7106
 4829SOL    HW226124   1.508   4.499  17.672 -2.1798  2.7359 -1.4683
 4830SOL     OW26125   4.380   1.009   1.810 -0.4903 -0.1305 -0.1961
 4830SOL    HW126126   4.423   0.937   1.857  0.2716 -0.0878 -0.8123
 4830SOL    HW226127   4.351   1.073   1.874  0.9637  1.7319 -1.4031
 4831SOL     OW26128   1.804   0.788   2.534  0.1661  0.1153 -0.1363
 4831SOL    HW126129   1.822   0.698   2.559 -3.1424 -1.1216 -2.2099
 4831SOL    HW226130   1.784   0.785   2.441 -2.3695 -0.5850  0.4311
 4832SOL     OW26131   0.262   0.540  16.892  0.0449  0.2592  0.2988
 4832SOL    HW126132   0.210   0.461  16.873 -1.6604  1.8787 -1.7221
 4832SOL    HW226133   0.245   0.556  16.985 -0.1206 -1.1210  0.5121
 4833SOL     OW26134   4.213   0.925   0.529 -1.0490 -0.0883  0.5841
 4833SOL    HW126135   4.120   0.947   0.525 -0.6211  1.2514 -2.0732
 4833SOL    HW226136   4.246   0.975   0.454  0.2968 -3.0275 -0.7946
 4834SOL     OW26137   4.018   2.123   2.696  0.5618 -0.5514 -0.5096
 4834SOL    HW126138   4.105   2.152   2.665  0.2908  1.7465  0.8596
 4834SOL    HW226139   3.984   2.082   2.617  0.2284 -1.1353 -0.0669
 4835SOL     OW26140   0.168   4.333   6.636 -0.2061 -0.2712 -0.4321
 4835SOL    HW126141   0.077   4.305   6.641 -1.2594  3.4686  1.3726
 4835SOL    HW226142   0.196   4.282   6.712  0.2355  0.1010 -0.3464
 4836SOL     OW26143   3.039   2.157   5.368 -0.0385  0.5826  0.0784
 4836SOL    HW126144   3.114   2.151   5.427  0.3419 -0.6146 -0.5126
 4836SOL    HW226145   3.047   2.073   5.321  2.3161 -0.1161  1.7241
 4837SOL     OW26146   1.444   1.738   9.082 -0.7130  0.6133  0.0966
 4837SOL    HW126147   1.453   1.689   9.000 -3.4488 -0.0798  0.2188
 4837SOL    HW226148   1.403   1.815   9.044  0.2440  1.0271 -0.1066
 4838SOL     OW26149   3.096   2.687   5.211  0.1581  0.3549  0.2266
 4838SOL    HW126150   3.178   2.726   5.243  1.4466 -0.5018 -1.9996
 4838SOL    HW226151   3.136   2.602   5.189  0.0503  0.2585  0.4081
 4839SOL     OW26152   0.087   3.658   2.111 -0.6765  0.4740  0.2438
 4839SOL    HW126153   4.726   3.664   2.104 -0.8125  0.8469  2.4405
 4839SOL    HW226154   0.117   3.749   2.104 -1.0187  0.4469 -1.6430
 4840SOL     OW26155   1.744   3.761   3.069  0.4375  0.0006 -0.4479
 4840SOL    HW126156   1.833   3.751   3.102  0.1080 -2.0610 -0.1626
 4840SOL    HW226157   1.745   3.737   2.976 -0.6363  1.1855 -0.7708
 4841SOL     OW26158   2.331   3.669   2.076 -0.0476 -0.0259 -0.0920
 4841SOL    HW126159   2.354   3.702   2.163 -1.0950 -3.0816  1.3450
 4841SOL    HW226160   2.397   3.599   2.072  0.3521  0.3337  0.1797
 4842SOL     OW26161   4.642   1.807   0.701 -0.0943 -0.1941  0.2493
 4842SOL    HW126162   4.570   1.754   0.736  0.2382 -0.4310  0.5644
 4842SOL    HW226163   4.670   1.844   0.784  0.2861 -0.3266  0.1806
 4843SOL     OW26164   1.548   2.634   8.987  0.1447 -0.2093 -0.2781
 4843SOL    HW126165   1.610   2.681   9.042  0.4924 -2.6458  1.4049
 4843SOL    HW226166   1.582   2.545   8.979  1.2383  0.3475 -1.8175
 4844SOL     OW26167   4.057   3.391   2.194  0.1344  0.0608 -0.5416
 4844SOL    HW126168   4.060   3.299   2.167  1.9247 -0.4822  1.4764
 4844SOL    HW226169   3.979   3.397   2.250 -1.3460 -0.1300 -2.5993
 4845SOL     OW26170   2.282   1.131   3.160  0.1526  0.1328  0.1129
 4845SOL    HW126171   2.323   1.134   3.246 -1.0051 -0.6831  0.6842
 4845SOL    HW226172   2.335   1.064   3.117 -0.3710 -0.9497  1.1545
 4846SOL     OW26173   2.776   3.378   6.158 -0.3550  0.5634  0.1368
 4846SOL    HW126174   2.852   3.321   6.152 -0.0317  1.0544 -0.5009
 4846SOL    HW226175   2.743   3.344   6.241  0.8495 -1.1128 -0.0847
 4847SOL     OW26176   3.055   1.159   8.539  0.1048 -0.2501 -0.4732
 4847SOL    HW126177   3.047   1.249   8.507  3.0766 -0.4907 -1.8625
 4847SOL    HW226178   2.960   1.147   8.544  0.1421 -0.4776 -0.3256
 4848SOL     OW26179   2.631   3.575   8.872 -1.0233  0.4343  0.2921
 4848SOL    HW126180   2.592   3.656   8.837  0.3024  0.4949 -1.0123
 4848SOL    HW226181   2.576   3.568   8.950 -0.9096  0.8200  0.4099
 4849SOL     OW26182   3.234   2.718  10.383 -0.2653 -0.2253  0.8231
 4849SOL    HW126183   3.239   2.804  10.339  1.4523  0.1555  1.7774
 4849SOL    HW226184   3.141   2.708  10.403 -0.5126  0.3743  0.0167
 4850SOL     OW26185   2.000   1.459   3.756  0.2837  0.3759  0.3303
 4850SOL    HW126186   1.921   1.461   3.702 -0.2335  1.2646  1.1212
 4850SOL    HW226187   2.057   1.460   3.679  0.2174  1.1153  0.2853
 4851SOL     OW26188   0.500   3.915  16.654 -0.4835 -0.3068  0.5417
 4851SOL    HW126189   0.504   3.998  16.701 -1.3595 -0.3794  0.7488
 4851SOL    HW226190   0.585   3.873  16.669  0.6513  1.4851 -0.8289
 4852SOL     OW26191   3.501   0.900   7.631  0.4393 -0.2423 -0.4978
 4852SOL    HW126192   3.550   0.920   7.551 -0.3011 -0.4646 -0.9997
 4852SOL    HW226193   3.461   0.820   7.597 -2.0495  1.1337 -0.7894
 4853SOL     OW26194   2.417   1.402   4.884 -0.4692  0.4283  0.1947
 4853SOL    HW126195   2.322   1.392   4.882 -0.5195  0.4051  2.5372
 4853SOL    HW226196   2.455   1.318   4.856 -0.3274  0.8112 -0.7470
 4854SOL     OW26197   4.434   4.274   3.035  0.1996 -0.1777  0.1422
 4854SOL    HW126198   4.440   4.296   3.128  1.3018 -0.4946  0.1487
 4854SOL    HW226199   4.359   4.215   3.035 -0.8085  1.1021  1.1206
 4855SOL     OW26200   4.159   1.119  15.771 -0.2784  0.8807  0.4548
 4855SOL    HW126201   4.154   1.075  15.686 -0.1442  2.8727 -0.5847
 4855SOL    HW226202   4.254   1.131  15.774 -0.3729  2.0396 -1.1686
 4856SOL     OW26203   2.041   4.677   1.670  0.3138 -0.0139 -0.2717
 4856SOL    HW126204   2.029   0.035   1.689 -1.3282 -0.8510  2.7194
 4856SOL    HW226205   2.062   4.687   1.577 -1.4021 -0.4887 -0.7203
 4857SOL     OW26206   1.312   1.604   5.060  0.2880  0.7593  0.6550
 4857SOL    HW126207   1.360   1.540   5.112  0.3609  0.3395  0.0755
 4857SOL    HW226208   1.237   1.611   5.119  0.4856 -0.3957  1.0340
 4858SOL     OW26209   4.570   1.971   2.443 -1.3185 -0.5684  0.2621
 4858SOL    HW126210   4.548   2.024   2.519  1.4341 -1.0457  1.3764
 4858SOL    HW226211   4.500   2.004   2.386 -0.1695 -0.6498 -1.2026
 4859SOL     OW26212   2.368   4.434   4.425  0.5088  1.0615 -0.1001
 4859SOL    HW126213   2.425   4.469   4.493  0.5327  0.8184  0.0063
 4859SOL    HW226214   2.296   4.495   4.410 -2.7797 -2.5996  0.8854
 4860SOL     OW26215   2.483   1.890  16.418  0.1796  0.2411  0.2569
 4860SOL    HW126216   2.437   1.823  16.468  1.1754  0.8391  1.9759
 4860SOL    HW226217   2.445   1.973  16.448 -1.8467 -1.1175  1.4530
 4861SOL     OW26218   1.926   0.497   1.790 -0.4131 -0.4064  0.0459
 4861SOL    HW126219   1.903   0.457   1.706 -1.8571  0.0203  0.2370
 4861SOL    HW226220   2.004   0.550   1.771 -0.1930  0.2305  2.7627
 4862SOL     OW26221   1.535   3.253   4.178 -0.1817  0.3561  0.7796
 4862SOL    HW126222   1.550   3.328   4.120  2.3622 -0.9045 -0.1961
 4862SOL    HW226223   1.601   3.202   4.131 -0.4101  0.5239  0.2698
 4863SOL     OW26224   2.786   2.905   5.115  0.8339 -0.1787  0.2942
 4863SOL    HW126225   2.825   2.886   5.200 -0.6550 -1.0802  0.7762
 4863SOL    HW226226   2.696   2.925   5.140  0.2919 -1.0823 -0.9202
 4864SOL     OW26227   3.712   0.194   5.526 -0.2371 -0.3392  0.4644
 4864SOL    HW126228   3.671   0.215   5.610 -1.4625 -1.0238  0.0569
 4864SOL    HW226229   3.760   0.115   5.550  1.0416  0.3108  0.0100
 4865SOL     OW26230   1.324   4.289   1.320 -0.3273  0.2323  0.7035
 4865SOL    HW126231   1.364   4.222   1.264 -0.4297  0.6451  0.1366
 4865SOL    HW226232   1.322   4.368   1.267 -1.2918  1.2756  2.3111
 4866SOL     OW26233   4.041   0.720  11.298  0.6575  0.1736  0.4736
 4866SOL    HW126234   4.006   0.807  11.279 -0.4017  0.6595  4.7323
 4866SOL    HW226235   3.997   0.666  11.232 -0.2306  0.0227  1.1893
 4867SOL     OW26236   0.330   4.718   8.164 -0.3878  0.9667 -0.2095
 4867SOL    HW126237   0.327   0.052   8.097 -2.7906  1.5044  0.4174
 4867SOL    HW226238   0.289   0.020   8.243 -4.5812 -1.8047 -1.1069
 4868SOL     OW26239   0.603   3.104  10.959  0.6245 -0.0836  0.4463
 4868SOL    HW126240   0.580   3.193  10.983 -1.1893 -0.4865  0.2411
 4868SOL    HW226241   0.680   3.094  11.014 -0.5554 -0.0032  2.0997
 4869SOL     OW26242   3.258   3.514   7.395  0.2595 -0.0710  0.5039
 4869SOL    HW126243   3.260   3.427   7.435 -0.1455 -0.3869 -0.1501
 4869SOL    HW226244   3.346   3.520   7.358 -0.2512  0.4491 -0.6474
 4870SOL     OW26245   3.134   2.767   8.391 -0.2162 -0.9818  0.3281
 4870SOL    HW126246   3.150   2.760   8.485  0.4635 -1.9051  0.1381
 4870SOL    HW226247   3.039   2.760   8.380 -0.3061  2.4770 -1.3192
 4871SOL     OW26248   2.207   3.806   2.531  0.1813 -0.2350 -0.0730
 4871SOL    HW126249   2.193   3.892   2.570 -0.2202 -1.0359  1.5472
 4871SOL    HW226250   2.158   3.812   2.448  1.2506 -0.4227 -0.7211
 4872SOL     OW26251   3.825   2.595  10.596 -0.1242  0.6996 -0.1508
 4872SOL    HW126252   3.865   2.517  10.634 -0.5072  0.9317  0.7160
 4872SOL    HW226253   3.803   2.657  10.665 -2.3373  1.8302 -1.8666
 4873SOL     OW26254   0.406   1.314   9.227 -0.3295  0.1627  0.0278
 4873SOL    HW126255   0.465   1.386   9.249 -1.3532  0.9625  0.1248
 4873SOL    HW226256   0.469   1.242   9.232  1.0479  1.4337  1.1324
 4874SOL     OW26257   1.989   3.846   1.657  0.1131  0.2593 -0.3329
 4874SOL    HW126258   2.071   3.881   1.691  0.4762 -0.7633 -0.1644
 4874SOL    HW226259   1.980   3.768   1.712  1.0652  0.0253 -0.5172
 4875SOL     OW26260   0.821   0.709  10.325 -0.0248  0.0459  0.1324
 4875SOL    HW126261   0.885   0.644  10.354 -0.3153 -1.0630 -1.7369
 4875SOL    HW226262   0.846   0.773  10.391 -0.3637  1.4564 -1.1125
 4876SOL     OW26263   2.829   1.315  16.949  0.2118 -0.6457 -0.0365
 4876SOL    HW126264   2.834   1.347  16.858 -0.3346 -0.3838  0.0290
 4876SOL    HW226265   2.828   1.401  16.991 -0.6772 -0.5516 -0.2573
 4877SOL     OW26266   3.529   3.507  13.069  0.0009  0.8613  0.0405
 4877SOL    HW126267   3.508   3.493  12.977  0.1014 -3.2178  0.6219
 4877SOL    HW226268   3.599   3.447  13.095 -0.6732 -0.0053 -0.1161
 4878SOL     OW26269   3.879   0.373   9.400 -0.3302  0.5481  0.5921
 4878SOL    HW126270   3.936   0.413   9.467  4.4776 -1.9621 -2.0348
 4878SOL    HW226271   3.914   0.284   9.391 -2.0154  0.0153 -0.5501
 4879SOL     OW26272   2.164   1.858   6.038  0.0961  0.3727 -0.1475
 4879SOL    HW126273   2.237   1.828   5.984 -0.7618 -3.1581  0.6507
 4879SOL    HW226274   2.213   1.915   6.097 -0.5493 -0.1749  0.9159
 4880SOL     OW26275   4.402   0.886   3.379 -0.1046 -0.2632  0.1600
 4880SOL    HW126276   4.432   0.911   3.466 -0.5480 -1.3403  0.6266
 4880SOL    HW226277   4.468   0.821   3.356  0.1309  0.9743 -2.6690
 4881SOL     OW26278   4.233   4.161   6.626 -0.4267  0.1072  0.2180
 4881SOL    HW126279   4.313   4.213   6.618 -0.4121  0.0681  0.1019
 4881SOL    HW226280   4.189   4.194   6.704  1.6470  1.3929  0.8342
 4882SOL     OW26281   2.473   1.420  16.423 -0.2037  0.0304  0.4197
 4882SOL    HW126282   2.382   1.394  16.436 -0.9392  1.7706 -1.1875
 4882SOL    HW226283   2.517   1.347  16.466 -0.2843 -0.4628 -0.3299
 4883SOL     OW26284   2.473   0.231   3.375  0.2241 -0.7442 -0.3558
 4883SOL    HW126285   2.530   0.215   3.450  0.6418  1.4499 -0.2106
 4883SOL    HW226286   2.517   0.296   3.320 -0.4240 -0.7461 -0.8703
 4884SOL     OW26287   3.747   3.608   0.621 -0.1207 -0.3728  0.2872
 4884SOL    HW126288   3.668   3.589   0.672 -0.0784  1.1394  0.9017
 4884SOL    HW226289   3.704   3.656   0.550 -0.2951  1.6067  1.7388
 4885SOL     OW26290   4.287   3.480  14.513 -0.2997  0.0697  0.0538
 4885SOL    HW126291   4.318   3.556  14.463 -0.7817  0.2525  0.0368
 4885SOL    HW226292   4.228   3.435  14.453  0.8760  0.5959 -1.5255
 4886SOL     OW26293   4.237   0.445  17.551 -0.7249  0.1974  0.1381
 4886SOL    HW126294   4.210   0.533  17.578 -0.3861 -0.0849  1.3741
 4886SOL    HW226295   4.182   0.390  17.607 -1.4620 -0.2319 -1.0052
 4887SOL     OW26296   4.363   0.973   9.540  0.2104 -0.6347  0.3888
 4887SOL    HW126297   4.363   0.889   9.587 -0.8804 -0.1420  1.2507
 4887SOL    HW226298   4.415   1.031   9.594 -0.0673 -0.0942  0.0807
 4888SOL     OW26299   1.196   0.615   2.054  0.3690  0.8677 -0.4090
 4888SOL    HW126300   1.251   0.677   2.007  3.3646 -1.3621  0.1352
 4888SOL    HW226301   1.122   0.616   1.994  1.3831  1.8747 -1.6602
 4889SOL     OW26302   2.299   1.192  17.255 -0.1747 -0.3033  0.1429
 4889SOL    HW126303   2.292   1.114  17.199  3.1843 -0.5579  0.0733
 4889SOL    HW226304   2.250   1.258  17.206 -0.7470  1.6365  3.3393
 4890SOL     OW26305   4.497   1.458   1.950  0.4740 -0.5193  0.0677
 4890SOL    HW126306   4.475   1.552   1.954 -0.0827 -0.6080 -0.8218
 4890SOL    HW226307   4.538   1.459   1.863  0.9260 -2.3206  0.2587
 4891SOL     OW26308   3.226   0.661   3.855  0.1133 -0.2321  0.4541
 4891SOL    HW126309   3.203   0.577   3.894  0.3443 -0.7831 -0.6135
 4891SOL    HW226310   3.306   0.637   3.808 -1.3218 -1.3468 -1.3872
 4892SOL     OW26311   4.568   0.790   4.774  0.5769  0.1428  0.3977
 4892SOL    HW126312   4.615   0.808   4.855 -1.5095  0.7577  1.4745
 4892SOL    HW226313   4.482   0.768   4.812  0.1985  1.1788  0.1364
 4893SOL     OW26314   4.589   0.821   9.306 -0.4550 -0.1800  0.5779
 4893SOL    HW126315   4.507   0.773   9.317 -1.1546  0.3130 -2.4726
 4893SOL    HW226316   4.613   0.828   9.398  2.2818 -2.6398  0.0262
 4894SOL     OW26317   1.574   1.233  12.719  0.5820  0.0167  0.1457
 4894SOL    HW126318   1.622   1.153  12.696  0.5568  0.1969 -0.5483
 4894SOL    HW226319   1.494   1.225  12.668  0.9713 -0.9568 -0.3095
 4895SOL     OW26320   2.399   3.593   9.330 -0.0383 -0.5486  0.0144
 4895SOL    HW126321   2.473   3.585   9.269 -0.5675  0.8459 -0.8155
 4895SOL    HW226322   2.356   3.516   9.292  0.1797  1.7013 -4.8835
 4896SOL     OW26323   0.687   0.450   9.968 -0.3569 -0.3145  0.0749
 4896SOL    HW126324   0.739   0.462  10.047 -1.6393 -0.2634  0.9076
 4896SOL    HW226325   0.684   0.534   9.923 -2.0559  0.0390  0.8560
 4897SOL     OW26326   4.440   0.292   1.106  0.6592 -0.0852 -0.6665
 4897SOL    HW126327   4.385   0.348   1.052  2.7725  1.0031 -1.6803
 4897SOL    HW226328   4.487   0.362   1.150  0.8453 -1.1465  0.8282
 4898SOL     OW26329   0.189   3.601   5.416 -0.0364 -0.6524  0.4079
 4898SOL    HW126330   0.094   3.607   5.418 -0.1174 -2.2195  1.2998
 4898SOL    HW226331   0.212   3.690   5.442 -1.2445 -0.8918  2.3239
 4899SOL     OW26332   1.134   2.660  13.997  0.5496 -0.2007 -0.3373
 4899SOL    HW126333   1.221   2.642  13.961  0.4298 -0.2625 -0.5957
 4899SOL    HW226334   1.083   2.594  13.952  0.0593 -0.7528  1.0202
 4900SOL     OW26335   3.710   0.797   5.614  0.3625  0.4038  0.5632
 4900SOL    HW126336   3.795   0.812   5.657  1.0762 -0.0021 -0.7130
 4900SOL    HW226337   3.728   0.819   5.523  0.8156  0.8710  0.7652
 4901SOL     OW26338   0.699   0.738  10.071  0.7581  0.1376  0.2512
 4901SOL    HW126339   0.730   0.744  10.162  1.8371  0.0190 -0.1067
 4901SOL    HW226340   0.634   0.808  10.064  2.2610  1.3887 -1.1669
 4902SOL     OW26341   3.987   2.049   7.314 -1.0217 -0.9686  0.0260
 4902SOL    HW126342   3.919   2.115   7.332  0.1572  0.3593 -0.3780
 4902SOL    HW226343   3.940   1.967   7.303 -3.1583  0.6283 -2.7841
 4903SOL     OW26344   2.556   2.070   3.788 -0.0288  0.2706  0.4987
 4903SOL    HW126345   2.546   2.110   3.702  0.4510 -3.4167 -1.2937
 4903SOL    HW226346   2.477   2.093   3.837  0.1092  0.7813  0.4809
 4904SOL     OW26347   2.940   0.384   7.607  0.5324 -0.0173 -0.2181
 4904SOL    HW126348   3.028   0.348   7.601  0.9119  0.8041  0.3520
 4904SOL    HW226349   2.884   0.328   7.553 -1.6621  2.9687 -1.0797
 4905SOL     OW26350   1.327   4.124   8.023  0.0995 -0.3793  0.3300
 4905SOL    HW126351   1.370   4.117   8.108 -2.1609  1.9156  1.6524
 4905SOL    HW226352   1.240   4.146   8.056  0.1890 -0.2615  0.4898
 4906SOL     OW26353   4.073   1.917   5.925 -0.0834  0.3102  0.0575
 4906SOL    HW126354   4.009   1.985   5.905 -1.3640 -1.4258 -1.6096
 4906SOL    HW226355   4.046   1.878   6.008  1.0841 -0.5126  0.0509
 4907SOL     OW26356   0.409   2.711   9.993 -0.6363 -0.4161  0.1598
 4907SOL    HW126357   0.360   2.731  10.073  1.2200 -1.0054  1.4380
 4907SOL    HW226358   0.349   2.668   9.932  0.0503 -0.6502 -0.3415
 4908SOL     OW26359   3.358   1.396   6.581  0.0784  0.0858 -0.2472
 4908SOL    HW126360   3.271   1.405   6.544 -0.4374  0.3689  1.0603
 4908SOL    HW226361   3.398   1.474   6.541 -1.1771  0.9808  0.2694
 4909SOL     OW26362   3.318   3.883   6.236 -0.2447 -0.3064  0.1625
 4909SOL    HW126363   3.321   3.944   6.162 -1.6748 -0.2936  0.1215
 4909SOL    HW226364   3.413   3.880   6.246 -0.2761 -0.0127  0.5689
 4910SOL     OW26365   0.765   2.878  12.453 -0.2784 -0.2081 -0.1166
 4910SOL    HW126366   0.762   2.880  12.548 -0.2225 -1.3833 -0.0908
 4910SOL    HW226367   0.808   2.960  12.429 -0.6873 -1.1186 -3.9444
 4911SOL     OW26368   3.441   0.143   5.785  1.0611  0.4939  0.1092
 4911SOL    HW126369   3.451   0.084   5.711 -0.5977  0.1882  0.1298
 4911SOL    HW226370   3.410   0.081   5.852  0.3074 -1.0124 -1.6367
 4912SOL     OW26371   3.461   3.277   5.979 -0.4718  0.0815 -0.1277
 4912SOL    HW126372   3.383   3.289   6.033 -0.6749 -3.1683  0.2585
 4912SOL    HW226373   3.523   3.276   6.052  0.4516  0.5034 -0.8991
 4913SOL     OW26374   4.530   0.135   4.476 -0.7395  0.1119 -0.0732
 4913SOL    HW126375   4.439   0.105   4.479 -0.4446 -0.5517  2.5307
 4913SOL    HW226376   4.548   0.145   4.570  1.0547  0.6318 -0.4674
 4914SOL     OW26377   2.404   2.568   3.780 -0.0990  0.3850 -0.5681
 4914SOL    HW126378   2.348   2.622   3.724 -0.6684 -0.7164 -1.0635
 4914SOL    HW226379   2.389   2.480   3.748  0.4273  0.5111 -1.1634
 4915SOL     OW26380   1.704   0.351   9.583 -0.1230  0.2719 -0.0587
 4915SOL    HW126381   1.734   0.313   9.501  1.0421  0.6114  0.2049
 4915SOL    HW226382   1.779   0.367   9.641 -2.5327 -0.1296  3.1700
 4916SOL     OW26383   2.537   4.503  14.578 -0.1643 -0.3304 -0.5770
 4916SOL    HW126384   2.468   4.519  14.642 -0.6880 -0.6272 -1.0659
 4916SOL    HW226385   2.587   4.585  14.581  1.0141 -1.1183  1.3482
 4917SOL     OW26386   4.216   0.377   6.420 -0.1397 -0.3039  0.0230
 4917SOL    HW126387   4.302   0.376   6.463  0.1364 -1.0561 -0.5600
 4917SOL    HW226388   4.190   0.286   6.432 -0.3557 -0.3574 -0.8476
 4918SOL     OW26389   1.843   2.243   4.588  0.0743  0.3948 -0.1360
 4918SOL    HW126390   1.834   2.217   4.680  2.8072  0.9223  0.2879
 4918SOL    HW226391   1.749   2.247   4.570 -0.2352 -1.1825  1.1458
 4919SOL     OW26392   3.882   1.289   8.469 -0.0522 -0.0007  0.0102
 4919SOL    HW126393   3.967   1.248   8.452  0.9490  1.8656  0.4442
 4919SOL    HW226394   3.833   1.229   8.414  0.0859 -0.9913  0.9699
 4920SOL     OW26395   4.413   3.957   0.190  0.7325 -0.7002  0.4241
 4920SOL    HW126396   4.371   4.004   0.118 -0.5033 -2.4491 -0.0257
 4920SOL    HW226397   4.466   4.015   0.244  0.3201  0.3765 -0.3370
 4921SOL     OW26398   2.772   0.904   2.565 -0.7256 -0.4608 -0.0205
 4921SOL    HW126399   2.688   0.871   2.595 -0.1233 -1.4044  0.6354
 4921SOL    HW226400   2.773   0.870   2.476  0.8496  1.1488 -0.6162
 4922SOL     OW26401   1.869   0.659   8.619  0.2128 -0.0540 -0.0735
 4922SOL    HW126402   1.803   0.702   8.566 -0.7337 -2.7241 -1.0687
 4922SOL    HW226403   1.937   0.651   8.552 -2.6454  1.7977 -3.2074
 4923SOL     OW26404   0.037   1.522   4.815  0.5247  0.0611 -0.5459
 4923SOL    HW126405   0.133   1.518   4.813  0.5415 -0.7024  1.6824
 4923SOL    HW226406   0.005   1.447   4.865  2.0997 -0.0800  0.2635
 4924SOL     OW26407   3.193   4.359   9.915 -0.4841  0.6858  0.0821
 4924SOL    HW126408   3.180   4.371  10.009  0.5192  0.2000  0.2851
 4924SOL    HW226409   3.170   4.266   9.915 -0.5054  0.6899 -0.5324
 4925SOL     OW26410   0.287   3.300   3.589  0.1250 -0.3978 -0.0276
 4925SOL    HW126411   0.354   3.308   3.521 -0.3060 -1.7315 -0.5968
 4925SOL    HW226412   0.208   3.280   3.539 -0.2024 -1.9032  1.0905
 4926SOL     OW26413   3.758   3.024  11.102 -0.4303 -0.1604  0.5851
 4926SOL    HW126414   3.834   2.990  11.057 -2.0428 -0.9362 -1.5383
 4926SOL    HW226415   3.801   3.069  11.175 -0.6726  1.3819 -0.2252
 4927SOL     OW26416   0.460   4.185   1.863 -0.2240  0.6672  0.1112
 4927SOL    HW126417   0.503   4.102   1.886  1.8019  1.5264 -0.5225
 4927SOL    HW226418   0.401   4.161   1.792  1.9749 -2.6210 -0.6066
 4928SOL     OW26419   3.913   1.432   7.091  0.8141  0.4389  0.0250
 4928SOL    HW126420   3.999   1.396   7.068  0.7088 -1.2902  2.3977
 4928SOL    HW226421   3.856   1.375   7.039 -1.1800  3.0553 -0.6774
 4929SOL     OW26422   2.592   2.411   6.752  0.1906  0.5711  0.1083
 4929SOL    HW126423   2.657   2.392   6.684  0.1641  0.7443  0.0365
 4929SOL    HW226424   2.579   2.504   6.738  0.6490  0.4228 -1.3227
 4930SOL     OW26425   1.448   3.264   9.534  0.7187  0.2561 -0.2103
 4930SOL    HW126426   1.433   3.176   9.499 -1.2436  0.7467 -0.5994
 4930SOL    HW226427   1.525   3.253   9.590  0.4320 -1.3994 -0.1322
 4931SOL     OW26428   1.502   1.641   5.657 -0.1594 -0.0837  0.1806
 4931SOL    HW126429   1.487   1.548   5.674  0.0575  0.2234  2.0702
 4931SOL    HW226430   1.594   1.639   5.631 -0.3554 -1.1233 -0.4547
 4932SOL     OW26431   0.488   4.591   9.263 -0.5869  0.0288 -0.4753
 4932SOL    HW126432   0.542   4.597   9.342 -0.0482  1.8749 -0.9866
 4932SOL    HW226433   0.454   4.680   9.263 -1.4766 -0.3049  0.1740
 4933SOL     OW26434   1.106   4.706  13.622 -0.1793 -0.0311  0.0217
 4933SOL    HW126435   1.030   4.732  13.570  0.2722 -1.2894 -1.2832
 4933SOL    HW226436   1.078   4.729  13.710 -2.8930  0.0952 -0.9021
 4934SOL     OW26437   4.580   1.334  12.461  0.1511  0.3671  0.2630
 4934SOL    HW126438   4.534   1.262  12.417 -1.1302  1.3329  0.0289
 4934SOL    HW226439   4.637   1.364  12.390  0.8507 -2.3170 -0.3170
 4935SOL     OW26440   1.855   2.695   5.621 -0.5348  0.6945  0.1464
 4935SOL    HW126441   1.824   2.771   5.670  2.8560  2.8163 -1.0479
 4935SOL    HW226442   1.947   2.718   5.608 -0.3668  1.5640  2.9809
 4936SOL     OW26443   2.936   0.980  15.259  0.2023  0.3643  0.7416
 4936SOL    HW126444   2.968   0.990  15.348 -0.7593 -2.3261  1.3937
 4936SOL    HW226445   2.925   1.072  15.235 -1.3183  0.1164  0.4598
 4937SOL     OW26446   2.070   2.706   0.568 -0.2509 -0.3545 -0.0898
 4937SOL    HW126447   2.061   2.795   0.603  0.2402 -0.8685  1.3530
 4937SOL    HW226448   2.120   2.666   0.640  3.4536  0.1335 -2.3751
 4938SOL     OW26449   0.799   3.715  12.970 -0.0345  0.4275 -0.0989
 4938SOL    HW126450   0.767   3.714  12.880 -1.9400 -0.3235  0.5741
 4938SOL    HW226451   0.751   3.643  13.013  0.0508  0.0539 -0.6381
 4939SOL     OW26452   1.396   2.716   6.999  0.0851  0.2701 -0.0028
 4939SOL    HW126453   1.425   2.750   6.914  0.4023  0.6847  0.2728
 4939SOL    HW226454   1.408   2.787   7.061 -1.7773  1.0937 -0.5819
 4940SOL     OW26455   3.822   1.414   1.561  0.7539  0.3001 -0.0738
 4940SOL    HW126456   3.777   1.392   1.642  2.0965 -0.9755  0.3236
 4940SOL    HW226457   3.864   1.498   1.581  0.7434  0.7787 -2.0453
 4941SOL     OW26458   4.064   1.481   3.228 -0.0143 -0.2697 -0.5916
 4941SOL    HW126459   4.104   1.395   3.215 -1.7962 -1.0480 -0.9071
 4941SOL    HW226460   4.134   1.533   3.269 -0.0380 -1.1503  0.5525
 4942SOL     OW26461   0.208   3.202  14.308  0.3072 -1.0111  0.1779
 4942SOL    HW126462   0.212   3.167  14.397  0.5813  0.9304  0.9269
 4942SOL    HW226463   0.130   3.155  14.278 -0.4655 -0.4857  1.3751
 4943SOL     OW26464   1.271   4.477   5.770 -0.3442 -0.3616 -0.0358
 4943SOL    HW126465   1.365   4.465   5.755 -0.1152  0.1085  1.0004
 4943SOL    HW226466   1.281   4.538   5.843 -3.4423 -0.4762  0.4824
 4944SOL     OW26467   2.568   1.863   8.981  0.3124  0.0343 -0.3592
 4944SOL    HW126468   2.491   1.810   8.962 -0.9318  2.3484 -1.8986
 4944SOL    HW226469   2.572   1.865   9.076 -2.0159  1.9955 -0.3160
 4945SOL     OW26470   0.637   1.393  12.186  0.0223  0.4875 -0.7501
 4945SOL    HW126471   0.664   1.395  12.278 -1.3211  1.2008 -0.3715
 4945SOL    HW226472   0.553   1.347  12.189  0.2311 -0.0175 -2.5468
 4946SOL     OW26473   4.463   3.043   9.866 -0.2691 -0.3176  0.5350
 4946SOL    HW126474   4.529   3.110   9.882  0.4873 -0.5499 -1.7469
 4946SOL    HW226475   4.468   3.046   9.771  1.3162 -4.0038  0.5227
 4947SOL     OW26476   0.649   0.089  16.464  0.4173  0.7817 -0.3460
 4947SOL    HW126477   0.617   4.733  16.461  0.8191  0.6086  0.7617
 4947SOL    HW226478   0.723   0.081  16.403  0.9772  1.4796  0.2388
 4948SOL     OW26479   1.331   3.054   7.495 -0.1648  0.0161 -0.4671
 4948SOL    HW126480   1.281   2.976   7.517  0.4605  0.4835  2.6699
 4948SOL    HW226481   1.326   3.117   7.568 -1.4253  0.6241 -1.0743
 4949SOL     OW26482   2.746   1.493   2.112 -0.2621 -0.2052  0.0588
 4949SOL    HW126483   2.703   1.563   2.064  1.3638  0.6270 -0.1956
 4949SOL    HW226484   2.745   1.527   2.202  1.2424  2.0548 -0.7767
 4950SOL     OW26485   2.326   1.695   6.314  0.3327  0.0926  0.0083
 4950SOL    HW126486   2.304   1.785   6.294 -1.7496 -0.5772 -0.6244
 4950SOL    HW226487   2.369   1.708   6.399  0.6400 -0.4409 -0.0633
 4951SOL     OW26488   0.470   1.093  13.203 -0.0660  0.5453 -0.2226
 4951SOL    HW126489   0.493   1.000  13.210  0.5149  0.7501  0.5476
 4951SOL    HW226490   0.549   1.122  13.157 -0.8656  1.7345 -0.8335
 4952SOL     OW26491   4.535   2.626   4.303 -0.1874 -0.3288 -0.5464
 4952SOL    HW126492   4.442   2.638   4.322  0.0014 -0.1413  0.2515
 4952SOL    HW226493   4.560   2.575   4.380  0.7790  0.9228 -0.0384
 4953SOL     OW26494   4.668   1.798   8.522  0.1417  0.1075  0.7787
 4953SOL    HW126495   4.618   1.718   8.508 -1.2585  1.1265 -0.1123
 4953SOL    HW226496   4.602   1.864   8.499 -0.6255 -1.0514 -0.3353
 4954SOL     OW26497   1.655   1.931   8.338  0.7669  0.3650 -0.2610
 4954SOL    HW126498   1.657   2.019   8.301  3.6384  0.5222  0.2125
 4954SOL    HW226499   1.728   1.930   8.400  1.4778 -1.1416 -1.1020
 4955SOL     OW26500   3.162   2.792   7.792  0.0832  0.0604 -0.8459
 4955SOL    HW126501   3.150   2.712   7.842  2.5403  0.2508  0.0304
 4955SOL    HW226502   3.148   2.858   7.860 -1.9488 -1.5594  0.3112
 4956SOL     OW26503   3.511   1.510   4.318  0.3587  0.5575  0.6547
 4956SOL    HW126504   3.469   1.436   4.363 -1.5986  1.0396 -0.3731
 4956SOL    HW226505   3.583   1.467   4.272  0.0978  0.3755  0.4182
 4957SOL     OW26506   1.794   3.729   9.134 -0.1091  0.0159  0.5179
 4957SOL    HW126507   1.773   3.666   9.203 -1.8284  0.0046 -0.0159
 4957SOL    HW226508   1.811   3.804   9.190 -0.0480  0.8555 -0.6187
 4958SOL     OW26509   3.137   2.523  16.115  0.1053 -0.2188 -0.5048
 4958SOL    HW126510   3.219   2.488  16.080  0.1960 -0.0874 -0.4264
 4958SOL    HW226511   3.148   2.614  16.090  0.0675 -0.8188 -2.6429
 4959SOL     OW26512   3.821   3.273   2.583  0.4225 -0.4732 -0.2274
 4959SOL    HW126513   3.899   3.237   2.539  2.0376 -0.7596  2.9141
 4959SOL    HW226514   3.806   3.202   2.645 -0.8489 -0.1604 -0.1946
 4960SOL     OW26515   4.710   1.674   6.480  0.2254 -0.7693 -0.5737
 4960SOL    HW126516   0.043   1.739   6.498 -0.8906  0.4849 -0.9288
 4960SOL    HW226517   0.023   1.592   6.466  1.5762 -0.4022  1.9556
 4961SOL     OW26518   1.035   1.503   6.679  0.3042 -0.4608 -0.6066
 4961SOL    HW126519   1.071   1.522   6.765 -2.2374 -0.9631  0.5769
 4961SOL    HW226520   0.947   1.471   6.701  0.4831  0.0074  0.7666
 4962SOL     OW26521   3.711   3.018   2.713 -0.5902  0.6541 -0.4019
 4962SOL    HW126522   3.695   2.945   2.773  0.9033 -0.2679 -1.1326
 4962SOL    HW226523   3.662   2.984   2.639 -0.8803 -2.6257  1.3249
 4963SOL     OW26524   0.985   3.178   7.257 -0.1310 -0.2029  0.0800
 4963SOL    HW126525   0.941   3.221   7.329  2.8174 -0.1647  1.8545
 4963SOL    HW226526   1.066   3.229   7.258  0.0980 -0.5219 -1.4194
 4964SOL     OW26527   2.213   4.090  17.660  0.3494  0.5636 -0.3419
 4964SOL    HW126528   2.185   4.062   0.011  0.9770  1.4501  0.1495
 4964SOL    HW226529   2.145   4.156  17.641 -0.4504 -0.4987 -1.1778
 4965SOL     OW26530   2.977   2.475  13.095 -0.7922  0.2459  0.3763
 4965SOL    HW126531   2.944   2.418  13.026  4.0376 -0.6771 -1.2211
 4965SOL    HW226532   2.953   2.563  13.067  0.7234  0.7480  0.6175
 4966SOL     OW26533   4.338   1.353   8.973  0.5471 -0.0907  0.1318
 4966SOL    HW126534   4.349   1.448   8.961  0.9161 -0.0423  0.8515
 4966SOL    HW226535   4.340   1.347   9.069 -1.7788 -0.4963  0.1405
 4967SOL     OW26536   1.428   2.007   1.508  0.1321  0.4673  0.0608
 4967SOL    HW126537   1.340   2.002   1.545  0.3513 -1.4522  0.3289
 4967SOL    HW226538   1.488   1.987   1.579  1.1315  0.6206 -0.7462
 4968SOL     OW26539   3.844   3.592  15.698 -0.0868 -0.5865 -0.4092
 4968SOL    HW126540   3.800   3.512  15.725 -1.2492  0.0157 -0.5138
 4968SOL    HW226541   3.932   3.590  15.736 -0.2116  0.2293 -0.0583
 4969SOL     OW26542   4.077   1.672  17.651 -0.1872  0.4908 -0.1869
 4969SOL    HW126543   4.130   1.616  17.594 -0.5267 -1.2456  1.2300
 4969SOL    HW226544   4.142   1.723  17.701 -1.0740 -0.9394  2.4114
 4970SOL     OW26545   2.848   2.089  13.095 -0.1653 -0.2471  0.0153
 4970SOL    HW126546   2.908   2.053  13.161  0.0731  0.3568  0.1321
 4970SOL    HW226547   2.852   2.009  13.043  0.1630 -0.0015 -0.3350
 4971SOL     OW26548   3.510   3.781  15.387  0.1334  0.3123  0.3638
 4971SOL    HW126549   3.453   3.708  15.363 -2.6128  2.2266  1.0674
 4971SOL    HW226550   3.478   3.804  15.474 -1.3871  0.5990 -0.2851
 4972SOL     OW26551   2.762   4.409   5.398 -0.8497  0.4865 -0.4136
 4972SOL    HW126552   2.709   4.467   5.452  3.0660  2.0845  1.7523
 4972SOL    HW226553   2.693   4.371   5.344 -1.0908  0.7773 -0.3080
 4973SOL     OW26554   3.388   2.495   3.402  0.6312  0.1415  0.3864
 4973SOL    HW126555   3.423   2.578   3.433  2.2011 -0.2719 -0.2946
 4973SOL    HW226556   3.316   2.533   3.353  0.2060  0.5979  1.3580
 4974SOL     OW26557   1.674   1.143   6.207 -0.6926 -0.0773  0.0931
 4974SOL    HW126558   1.759   1.174   6.239 -0.1595 -0.8929 -0.5481
 4974SOL    HW226559   1.690   1.158   6.114  1.3842 -3.6993 -0.1504
 4975SOL     OW26560   1.879   4.413  14.846  0.3254  0.0456  0.1744
 4975SOL    HW126561   1.899   4.346  14.910  0.7230  0.9176  0.9638
 4975SOL    HW226562   1.804   4.462  14.880 -1.0907 -1.3370 -0.9690
 4976SOL     OW26563   4.586   3.382   0.589  0.1468 -0.1183  0.5284
 4976SOL    HW126564   4.573   3.291   0.562 -0.8777 -0.1825  1.2329
 4976SOL    HW226565   4.629   3.420   0.513 -0.3294 -2.8996 -1.1529
 4977SOL     OW26566   0.248   3.072   8.820  0.5903  0.1190 -0.6849
 4977SOL    HW126567   0.228   3.130   8.894  2.8226  1.7025 -1.2783
 4977SOL    HW226568   0.194   3.000   8.850 -1.4679  2.0107  0.1905
 4978SOL     OW26569   0.231   3.213   0.678  0.0558 -0.2188  0.1124
 4978SOL    HW126570   0.263   3.283   0.735  3.0527 -0.3394 -1.4061
 4978SOL    HW226571   0.317   3.197   0.638  0.0792 -0.4885  0.2697
 4979SOL     OW26572   1.270   0.791   6.819 -0.1002  0.1395  0.4495
 4979SOL    HW126573   1.321   0.850   6.763  1.2810 -2.3214 -0.8626
 4979SOL    HW226574   1.263   0.841   6.900  0.0336 -0.4449  0.8148
 4980SOL     OW26575   2.758   2.053   2.394  0.0483  0.5283 -0.5223
 4980SOL    HW126576   2.670   2.018   2.377 -0.8526  0.9029  3.3002
 4980SOL    HW226577   2.741   2.142   2.364 -0.1238  0.8553  0.5230
 4981SOL     OW26578   3.229   4.058   2.454 -0.2174 -0.1299 -0.3471
 4981SOL    HW126579   3.158   4.118   2.477  0.4207  0.3456  0.4001
 4981SOL    HW226580   3.198   4.026   2.369 -0.3154  2.6407 -1.3847
 4982SOL     OW26581   0.562   2.448   0.701  0.0445 -0.8314 -0.1767
 4982SOL    HW126582   0.548   2.486   0.788  2.1942 -2.5557  0.9314
 4982SOL    HW226583   0.491   2.492   0.654  0.4949  0.3474  0.2541
 4983SOL     OW26584   3.248   0.537  14.489 -0.4632 -0.0787  0.3321
 4983SOL    HW126585   3.330   0.487  14.482 -0.8708 -0.5434 -1.0691
 4983SOL    HW226586   3.204   0.499  14.413  0.0391  1.2630 -0.6266
 4984SOL     OW26587   2.069   2.212   1.602  0.1121 -0.2544 -0.0460
 4984SOL    HW126588   2.059   2.141   1.666 -1.5283 -0.3216 -0.3766
 4984SOL    HW226589   2.046   2.292   1.649  0.4007  0.9756 -2.0172
 4985SOL     OW26590   4.162   2.622   7.025 -0.2987  0.3101  0.6183
 4985SOL    HW126591   4.074   2.590   7.047  0.1480 -1.3438 -0.0507
 4985SOL    HW226592   4.183   2.634   7.118 -2.0788  3.2956  0.6346
 4986SOL     OW26593   2.349   3.737   2.790 -0.0267  0.1778  0.1309
 4986SOL    HW126594   2.279   3.784   2.745  0.8433  0.9500 -0.4228
 4986SOL    HW226595   2.331   3.645   2.770  3.6853 -0.1423 -1.6876
 4987SOL     OW26596   4.288   2.492   9.144 -0.3907  0.1500 -0.4688
 4987SOL    HW126597   4.197   2.466   9.135  0.4627 -2.3520 -1.7792
 4987SOL    HW226598   4.338   2.411   9.133 -0.6633  0.0082 -0.6571
 4988SOL     OW26599   2.915   1.825   2.376  0.1151  0.3041 -0.0934
 4988SOL    HW126600   2.943   1.822   2.285 -1.5974  2.2011 -0.6912
 4988SOL    HW226601   2.866   1.907   2.385 -0.9439 -0.0657 -2.6308
 4989SOL     OW26602   3.546   1.179   5.330  0.3593  0.0123  0.7700
 4989SOL    HW126603   3.550   1.125   5.251  0.3409  3.1780 -1.3760
 4989SOL    HW226604   3.598   1.254   5.302 -1.9522  0.4353 -2.2738
 4990SOL     OW26605   1.019   1.142   0.889 -0.1243  0.3289  0.1307
 4990SOL    HW126606   1.041   1.063   0.939  1.3311  1.8159  1.8355
 4990SOL    HW226607   0.936   1.112   0.854  0.9143 -1.1892 -1.0368
 4991SOL     OW26608   1.642   3.499   7.955  0.4424 -0.1646 -0.3284
 4991SOL    HW126609   1.718   3.557   7.959  0.5150 -0.2297 -0.7600
 4991SOL    HW226610   1.584   3.550   8.012  1.7800 -0.3128  1.1613
 4992SOL     OW26611   4.100   0.275   5.390 -0.1127  0.3775  0.3985
 4992SOL    HW126612   4.070   0.359   5.354 -0.1879 -0.0056 -0.4467
 4992SOL    HW226613   4.030   0.218   5.361  1.4999 -0.5452 -1.6848
 4993SOL     OW26614   0.379   3.688   1.043  0.1983 -0.3092 -0.2866
 4993SOL    HW126615   0.442   3.714   0.975  0.5521  1.2330  0.6333
 4993SOL    HW226616   0.300   3.663   0.995 -0.4844 -0.0609  0.7069
 4994SOL     OW26617   1.491   1.120   9.385 -0.5910  0.3771  0.2141
 4994SOL    HW126618   1.521   1.030   9.371 -0.2843  0.7388 -1.4591
 4994SOL    HW226619   1.415   1.134   9.327 -2.4329 -0.0179  2.5141
 4995SOL     OW26620   3.245   2.098   4.955 -0.4226 -0.0673  0.0051
 4995SOL    HW126621   3.314   2.082   4.890  0.1027  1.8933  0.0805
 4995SOL    HW226622   3.229   2.012   4.993 -1.1499 -0.5170 -1.3244
 4996SOL     OW26623   1.730   1.071   1.450 -0.0675  0.0280 -0.7426
 4996SOL    HW126624   1.704   1.156   1.416 -1.1557 -0.1335 -0.3022
 4996SOL    HW226625   1.782   1.041   1.376 -2.2500  0.1824 -2.3373
 4997SOL     OW26626   2.548   4.134   2.081 -0.4698 -0.2589  0.1804
 4997SOL    HW126627   2.591   4.218   2.099 -0.1275 -0.0046 -1.8479
 4997SOL    HW226628   2.622   4.078   2.102 -0.0721  0.7358  1.4725
 4998SOL     OW26629   3.619   2.735   6.669 -0.3036 -0.8575  0.5432
 4998SOL    HW126630   3.592   2.785   6.746 -0.1115  0.2120 -0.0907
 4998SOL    HW226631   3.668   2.795   6.613 -0.6837 -0.8351  0.2395
 4999SOL     OW26632   2.421   1.568   1.672 -0.0944  0.4488 -0.0906
 4999SOL    HW126633   2.354   1.527   1.617 -0.2090 -1.1407  1.2218
 4999SOL    HW226634   2.489   1.502   1.665 -1.9167 -1.2625 -1.5571
 5000SOL     OW26635   2.415   4.204   5.476 -0.1928 -0.1644  0.4385
 5000SOL    HW126636   2.496   4.232   5.518  0.7032  0.6739 -1.8994
 5000SOL    HW226637   2.409   4.116   5.514  0.9786  1.2366  3.8565
 5001SOL     OW26638   1.041   2.784   4.251 -0.5663 -0.3612  0.7121
 5001SOL    HW126639   1.075   2.874   4.253 -1.4896 -0.0159  0.6079
 5001SOL    HW226640   1.119   2.744   4.291  0.9395 -0.4408 -2.3241
 5002SOL     OW26641   4.226   0.274   4.246 -0.5614  0.5601  0.2864
 5002SOL    HW126642   4.278   0.328   4.187  0.1028  0.8791  1.1656
 5002SOL    HW226643   4.147   0.328   4.248 -1.2952 -0.4817 -0.4936
 5003SOL     OW26644   0.144   4.372  12.071  0.0623  0.6818 -0.3302
 5003SOL    HW126645   0.206   4.322  12.124 -1.4626 -1.2150 -0.3114
 5003SOL    HW226646   0.196   4.380  11.991  1.7784 -0.0853  0.7176
 5004SOL     OW26647   4.655   3.691   6.589  0.2895 -0.2556  0.2016
 5004SOL    HW126648   4.577   3.649   6.553  1.1830 -2.1336  0.4316
 5004SOL    HW226649   4.724   3.644   6.542 -0.8541  0.9793 -2.7329
 5005SOL     OW26650   3.424   0.944  11.981 -0.5051  0.3324  0.6034
 5005SOL    HW126651   3.384   1.027  12.005 -1.9137 -0.5602  1.3228
 5005SOL    HW226652   3.455   0.919  12.068  1.0857 -1.1838 -0.4022
 5006SOL     OW26653   0.984   4.238  16.366 -0.6052  0.1690  0.0015
 5006SOL    HW126654   0.910   4.250  16.426  0.5195  0.5528  1.3250
 5006SOL    HW226655   0.976   4.144  16.351  0.5923  0.1344 -0.4059
 5007SOL     OW26656   2.828   4.663  16.334 -0.6487 -0.0901 -0.6200
 5007SOL    HW126657   2.901   4.627  16.282 -0.2734  0.2459 -0.3225
 5007SOL    HW226658   2.760   4.653  16.267 -0.4477 -0.8680 -0.7180
 5008SOL     OW26659   3.368   2.888  11.526  0.0077  0.2337  0.3387
 5008SOL    HW126660   3.445   2.939  11.501  0.0576 -0.0276 -0.0363
 5008SOL    HW226661   3.312   2.936  11.464 -0.7777 -1.1771 -0.0392
 5009SOL     OW26662   1.705   1.022   8.079  0.1658  0.3827  0.2782
 5009SOL    HW126663   1.763   1.012   8.004  1.8505  1.3546  1.4506
 5009SOL    HW226664   1.642   0.954   8.054 -0.2749  0.2597  1.7427
 5010SOL     OW26665   0.807   4.055   2.883 -0.4192 -0.1594  0.2691
 5010SOL    HW126666   0.779   4.109   2.957  1.1437  1.3107 -0.1967
 5010SOL    HW226667   0.858   3.988   2.929  0.1569  0.9369  1.2246
 5011SOL     OW26668   2.674   4.475   0.833 -0.3606 -0.3067 -0.0793
 5011SOL    HW126669   2.730   4.540   0.875  0.2588 -0.8624 -0.0490
 5011SOL    HW226670   2.659   4.419   0.910 -1.1567 -0.8081 -0.5888
 5012SOL     OW26671   2.056   4.290   2.388  0.3399  0.3147  0.0937
 5012SOL    HW126672   2.028   4.381   2.381 -0.8894 -0.0837 -0.1533
 5012SOL    HW226673   2.027   4.267   2.477  3.4086  1.8288  1.4874
 5013SOL     OW26674   2.246   1.704   4.710 -0.0982  0.2293 -0.4889
 5013SOL    HW126675   2.319   1.724   4.652 -0.0744 -2.2971 -1.3034
 5013SOL    HW226676   2.235   1.611   4.689  1.1494 -0.4773  2.0210
 5014SOL     OW26677   4.576   0.088   1.271  0.0104  0.1286 -0.3955
 5014SOL    HW126678   4.492   0.134   1.266 -0.6849 -1.0786  0.2668
 5014SOL    HW226679   4.618   0.152   1.213 -0.1063  0.0492 -0.5698
 5015SOL     OW26680   4.112   0.706  12.273 -0.7079 -0.1867 -0.3767
 5015SOL    HW126681   4.107   0.676  12.182  1.4156 -1.0932 -0.1907
 5015SOL    HW226682   4.028   0.752  12.283 -0.5403  0.1551 -0.5288
 5016SOL     OW26683   3.927   2.585   5.388 -0.2429 -0.2085 -0.0586
 5016SOL    HW126684   4.001   2.533   5.420 -2.3331 -3.3464 -0.3970
 5016SOL    HW226685   3.960   2.627   5.308 -1.0645 -0.2072 -0.3950
 5017SOL     OW26686   4.413   2.679   1.805 -0.2163 -0.1763 -0.1625
 5017SOL    HW126687   4.376   2.642   1.884  1.0416 -0.9222  0.0778
 5017SOL    HW226688   4.374   2.616   1.744  1.1671 -0.8343 -0.3694
 5018SOL     OW26689   4.590   0.384  12.541  0.0366 -0.3364 -0.4096
 5018SOL    HW126690   4.573   0.372  12.634 -0.1915 -2.4322 -0.7274
 5018SOL    HW226691   4.646   0.462  12.542  1.1967 -1.1709 -0.8129
 5019SOL     OW26692   2.450   0.642   3.471  0.0918 -0.5951  0.4982
 5019SOL    HW126693   2.536   0.602   3.483  0.3515 -0.2527 -0.2504
 5019SOL    HW226694   2.419   0.588   3.399 -0.6981 -1.7557  1.7052
 5020SOL     OW26695   0.914   2.659   7.247 -0.2065  0.2814  0.2368
 5020SOL    HW126696   0.842   2.604   7.216  1.3651  0.0540 -2.9450
 5020SOL    HW226697   0.861   2.718   7.300  0.4514  2.5696 -1.6954
 5021SOL     OW26698   3.271   0.856   2.204 -0.3070  0.4948 -0.2466
 5021SOL    HW126699   3.216   0.792   2.249  0.9877  1.0103  2.0322
 5021SOL    HW226700   3.320   0.877   2.283  1.0424  1.0551 -1.2442
 5022SOL     OW26701   0.389   0.017  12.611  0.2449  0.2263  0.6060
 5022SOL    HW126702   0.297   0.043  12.614  0.1898  0.4307 -2.6026
 5022SOL    HW226703   0.420   0.106  12.595  0.8068 -0.1963 -0.6379
 5023SOL     OW26704   2.460   1.295   2.669 -0.4651  0.3324  0.0524
 5023SOL    HW126705   2.491   1.322   2.582  0.7496 -0.5433  0.2151
 5023SOL    HW226706   2.532   1.241   2.702 -1.0423 -0.7770 -0.4708
 5024SOL     OW26707   0.068   0.175   5.517  0.1891 -0.0120  0.4672
 5024SOL    HW126708   0.006   0.226   5.568 -0.3487 -2.4381  2.2338
 5024SOL    HW226709   0.099   0.130   5.596  0.9162 -0.4909 -0.0893
 5025SOL     OW26710   3.656   2.782   2.869 -0.0152 -0.8610 -0.2263
 5025SOL    HW126711   3.679   2.813   2.956  0.2387  1.3967 -1.0804
 5025SOL    HW226712   3.690   2.694   2.882  0.5378 -0.7874 -1.1179
 5026SOL     OW26713   1.601   3.721  13.473  0.0255  0.2883 -0.7490
 5026SOL    HW126714   1.590   3.814  13.495 -0.3234 -0.5874  2.8213
 5026SOL    HW226715   1.514   3.682  13.469 -0.0792  0.3759  0.4692
 5027SOL     OW26716   2.017   0.451   3.870  0.9151 -0.1458  0.1270
 5027SOL    HW126717   2.101   0.496   3.868 -0.5044  2.4282 -0.9922
 5027SOL    HW226718   1.962   0.523   3.901  1.7090  0.6291 -0.2585
 5028SOL     OW26719   1.805   2.305   1.185 -0.4801  0.5196  0.7376
 5028SOL    HW126720   1.818   2.333   1.094 -2.7415  1.6317  0.7581
 5028SOL    HW226721   1.794   2.211   1.168  1.2648  0.2858  0.8677
 5029SOL     OW26722   1.111   3.671  15.615 -0.0642 -0.4906 -0.8177
 5029SOL    HW126723   1.176   3.740  15.601 -0.2893 -0.2598 -0.7426
 5029SOL    HW226724   1.030   3.723  15.620 -0.7408 -1.6723  0.6682
 5030SOL     OW26725   0.638   1.206   9.469 -0.1557  0.0290  0.7085
 5030SOL    HW126726   0.626   1.287   9.520 -0.8515  1.7798 -2.2542
 5030SOL    HW226727   0.725   1.219   9.431 -0.2691 -0.1726  0.3823
 5031SOL     OW26728   1.741   0.861   1.638  0.3174  0.1337  0.0684
 5031SOL    HW126729   1.760   0.786   1.582  0.7443  1.2298 -1.2391
 5031SOL    HW226730   1.738   0.936   1.579  1.3094 -0.8675 -1.2617
 5032SOL     OW26731   2.413   4.160   3.884  0.1246  0.1560 -0.6190
 5032SOL    HW126732   2.459   4.234   3.843 -0.2908 -0.7663 -2.7592
 5032SOL    HW226733   2.436   4.183   3.974  0.2464 -0.7619 -0.4214
 5033SOL     OW26734   2.366   1.454   4.126 -0.1002 -0.1091 -0.3645
 5033SOL    HW126735   2.395   1.514   4.194  2.1592  0.6076 -1.9819
 5033SOL    HW226736   2.345   1.515   4.055 -4.8582 -0.2030  0.9405
 5034SOL     OW26737   1.079   4.303   7.549  0.3170 -0.3321 -0.1903
 5034SOL    HW126738   1.068   4.226   7.605  3.2522  0.2290  1.1727
 5034SOL    HW226739   0.998   4.349   7.572  0.5444 -0.5412  1.0191
 5035SOL     OW26740   3.444   0.416  15.235 -0.2728 -0.3411  0.2798
 5035SOL    HW126741   3.494   0.495  15.258  1.4527 -2.1780  2.7208
 5035SOL    HW226742   3.358   0.442  15.267 -0.1498  0.9669 -0.4313
 5036SOL     OW26743   4.499   2.764   0.272 -0.5187 -0.1127  0.3491
 5036SOL    HW126744   4.589   2.754   0.301  1.1592  1.4681 -4.3124
 5036SOL    HW226745   4.494   2.729   0.183 -1.1709  0.6305  0.0957
 5037SOL     OW26746   2.610   0.069   7.702  0.8392  0.1550  0.1321
 5037SOL    HW126747   2.585   0.018   7.779 -1.8568  0.5522 -0.4740
 5037SOL    HW226748   2.645   0.146   7.746 -1.8115  0.5644  1.4955
 5038SOL     OW26749   0.284   1.537  12.361  0.3531  0.0696 -0.4585
 5038SOL    HW126750   0.230   1.544  12.440 -0.1987  0.2851 -0.8503
 5038SOL    HW226751   0.254   1.616  12.315  0.8700  1.0314  0.8692
 5039SOL     OW26752   1.687   2.397  14.724  0.5247 -0.1505 -1.1895
 5039SOL    HW126753   1.772   2.429  14.693  1.1529 -0.0866  0.6159
 5039SOL    HW226754   1.722   2.357  14.803  1.2666  2.1647 -0.3476
 5040SOL     OW26755   1.067   1.258  10.475  0.5516  0.2226 -0.0018
 5040SOL    HW126756   1.149   1.240  10.429 -0.2422  0.2773 -1.4546
 5040SOL    HW226757   1.104   1.256  10.563  2.1059 -5.7222 -0.7837
 5041SOL     OW26758   1.568   2.167   6.965  0.2320  0.3140 -0.8371
 5041SOL    HW126759   1.535   2.095   6.912  1.3350 -0.5784 -0.3212
 5041SOL    HW226760   1.486   2.207   6.995 -0.2367 -0.7386 -0.7161
 5042SOL     OW26761   3.996   2.380   7.415 -0.5244  0.8480  0.0842
 5042SOL    HW126762   4.050   2.323   7.469 -1.2895 -2.6614 -2.8748
 5042SOL    HW226763   3.918   2.383   7.470 -0.5841 -0.5864  0.0568
 5043SOL     OW26764   3.120   0.553  10.358 -0.0512 -0.5803 -0.0934
 5043SOL    HW126765   3.072   0.554  10.441  1.0920  0.4039  0.5503
 5043SOL    HW226766   3.208   0.559  10.395 -0.1885  3.0916 -0.3713
 5044SOL     OW26767   4.176   2.303   9.475  0.2874  0.5936  0.3593
 5044SOL    HW126768   4.190   2.388   9.516 -2.9700  2.2442 -1.8434
 5044SOL    HW226769   4.261   2.260   9.479  0.2441  0.9143  4.2189
 5045SOL     OW26770   4.640   0.348   7.916 -0.0267  0.0400  0.5593
 5045SOL    HW126771   4.683   0.264   7.933 -0.2022 -0.5981 -2.1965
 5045SOL    HW226772   4.712   0.406   7.941  1.4756 -0.2140 -3.1412
 5046SOL     OW26773   0.236   0.778   4.505  0.3047 -0.0855 -0.5926
 5046SOL    HW126774   0.320   0.740   4.480 -0.5171 -1.6031 -1.0670
 5046SOL    HW226775   0.178   0.775   4.430  0.0807  0.8005 -0.4509
 5047SOL     OW26776   2.144   2.618  14.858 -0.0041  0.3963 -0.1019
 5047SOL    HW126777   2.198   2.698  14.859 -1.0296  1.1043 -1.0613
 5047SOL    HW226778   2.220   2.560  14.850  0.3017  0.8307 -0.3523
 5048SOL     OW26779   1.930   4.157   2.214  0.1916  0.7377  0.0184
 5048SOL    HW126780   1.961   4.221   2.150  0.6091 -0.2072 -0.7210
 5048SOL    HW226781   1.987   4.192   2.284  1.1056 -2.9466  1.1577
 5049SOL     OW26782   0.728   0.613   3.089  0.3519 -0.0116  0.0351
 5049SOL    HW126783   0.758   0.654   3.170 -0.0715  1.0803 -0.3567
 5049SOL    HW226784   0.638   0.647   3.091 -0.2240 -1.5548  1.1051
 5050SOL     OW26785   1.244   1.514  12.292 -0.4087 -0.3089  0.5745
 5050SOL    HW126786   1.275   1.591  12.340  2.5864 -1.2918  0.1649
 5050SOL    HW226787   1.324   1.474  12.260 -1.3619 -0.2737 -1.8657
 5051SOL     OW26788   3.837   3.367   3.141  0.6462 -0.4250 -0.1499
 5051SOL    HW126789   3.780   3.399   3.071 -0.9046  1.4574  1.9478
 5051SOL    HW226790   3.845   3.273   3.123  0.6777  0.3475 -4.0573
 5052SOL     OW26791   1.312   2.272   7.060 -0.1939 -0.1809 -0.2279
 5052SOL    HW126792   1.295   2.362   7.089  1.2247  0.2643 -0.7741
 5052SOL    HW226793   1.310   2.230   7.146  3.4310  2.6372  1.2339
 5053SOL     OW26794   4.391   4.067   7.363 -0.3290  0.0239  0.0460
 5053SOL    HW126795   4.464   4.051   7.424 -0.2319 -2.9764 -0.8462
 5053SOL    HW226796   4.371   3.978   7.333 -1.2594  0.7598 -1.5137
 5054SOL     OW26797   1.442   4.149   2.548 -0.0035 -0.2478  0.0391
 5054SOL    HW126798   1.413   4.160   2.458 -2.0242  0.5231  0.7950
 5054SOL    HW226799   1.427   4.236   2.585  0.5679  1.1595 -3.0885
 5055SOL     OW26800   1.708   1.599   4.578 -0.2904  0.4404  0.0172
 5055SOL    HW126801   1.702   1.573   4.669  0.9590 -0.1484 -0.0673
 5055SOL    HW226802   1.714   1.694   4.581 -0.8251  0.5008 -0.7598
 5056SOL     OW26803   1.128   3.797  13.751 -0.1343  0.5447  0.1781
 5056SOL    HW126804   1.101   3.830  13.665 -3.6174 -0.6200  0.8494
 5056SOL    HW226805   1.043   3.780  13.791  0.3271 -2.1622 -0.0354
 5057SOL     OW26806   1.536   4.274   7.928 -0.4141  0.0218  0.4008
 5057SOL    HW126807   1.477   4.203   7.951 -1.2299  0.5917  0.0934
 5057SOL    HW226808   1.521   4.278   7.833 -1.9743 -1.1202  0.5977
 5058SOL     OW26809   3.476   1.634  14.320 -0.1845  0.4363  0.7773
 5058SOL    HW126810   3.509   1.631  14.231 -0.6971 -0.8861  0.6261
 5058SOL    HW226811   3.520   1.713  14.351  0.5471  0.3611 -0.0629
 5059SOL     OW26812   0.283   0.870   3.495  0.9133 -0.7471 -0.1128
 5059SOL    HW126813   0.283   0.849   3.589  0.6956  3.0604  0.7466
 5059SOL    HW226814   0.359   0.923   3.475  0.0682  0.5343  0.0694
 5060SOL     OW26815   4.421   3.770   3.082  0.8545  0.1044  0.1736
 5060SOL    HW126816   4.509   3.734   3.088 -0.3768 -2.6747  1.5187
 5060SOL    HW226817   4.382   3.746   3.166  1.4590 -0.4622  0.2894
 5061SOL     OW26818   4.644   0.015  12.458 -0.8320  0.3913 -0.2117
 5061SOL    HW126819   4.692   4.671  12.485 -0.5652 -0.2978 -2.6802
 5061SOL    HW226820   4.629   0.049  12.546  1.6331 -0.1366  0.4253
 5062SOL     OW26821   4.112   3.883  17.612  0.2696  0.5638  0.3693
 5062SOL    HW126822   4.023   3.849  17.610 -0.2593  1.9982 -0.1993
 5062SOL    HW226823   4.155   3.806  17.573  2.0802  1.4931  0.5318
 5063SOL     OW26824   0.227   4.658  16.865 -0.0276  0.5132  0.1167
 5063SOL    HW126825   0.247   0.016  16.881  0.3970  0.3183  0.7581
 5063SOL    HW226826   0.302   4.615  16.906 -2.0759 -2.2525  0.9503
 5064SOL     OW26827   2.180   4.623   4.350 -0.4085  0.1730  0.4086
 5064SOL    HW126828   2.167   4.574   4.268 -3.4687 -0.8121  1.4852
 5064SOL    HW226829   2.245   4.692   4.338 -0.9235 -0.1437 -4.2911
 5065SOL     OW26830   1.077   3.902   9.088 -0.5195  0.1205 -0.0374
 5065SOL    HW126831   1.025   3.975   9.055 -2.6763 -1.2126  0.4404
 5065SOL    HW226832   1.144   3.952   9.136 -1.5274  0.5744  0.8881
 5066SOL     OW26833   4.060   4.473   1.739  0.1768 -0.2523 -0.0866
 5066SOL    HW126834   4.043   4.429   1.656  0.1493 -0.5746  0.0891
 5066SOL    HW226835   4.023   4.560   1.725  0.7175  0.2039  1.3130
 5067SOL     OW26836   3.170   2.275   8.221  0.1216  0.4392  0.3680
 5067SOL    HW126837   3.093   2.300   8.272 -0.7161 -0.4122 -0.4817
 5067SOL    HW226838   3.229   2.320   8.282 -0.8450  0.3213  1.4000
 5068SOL     OW26839   1.116   3.548   9.626 -0.3611  0.2930  0.2716
 5068SOL    HW126840   1.071   3.625   9.660  1.0166  0.4660  1.7353
 5068SOL    HW226841   1.153   3.584   9.546  0.0391 -0.1583  0.2535
 5069SOL     OW26842   2.317   3.244   1.867  0.0352 -0.3184  0.1998
 5069SOL    HW126843   2.377   3.169   1.860 -0.3229 -0.7396  1.6487
 5069SOL    HW226844   2.319   3.250   1.963 -1.8256  1.3199  0.1362
 5070SOL     OW26845   1.258   0.319   6.540 -0.0691  0.6100  0.0838
 5070SOL    HW126846   1.282   0.236   6.581  0.0969  0.4966 -0.2471
 5070SOL    HW226847   1.282   0.309   6.448 -1.3168 -0.0412 -0.1734
 5071SOL     OW26848   4.079   4.541   5.728 -0.6790 -0.1852 -0.9696
 5071SOL    HW126849   4.009   4.475   5.734  1.4941 -2.2618  1.2406
 5071SOL    HW226850   4.152   4.496   5.685 -0.3879 -0.7504  0.1355
 5072SOL     OW26851   0.769   1.394  13.146  0.7868 -0.4093 -0.1009
 5072SOL    HW126852   0.729   1.470  13.104  0.6017 -1.2197 -1.3752
 5072SOL    HW226853   0.860   1.405  13.118  0.0448  1.2224 -1.8491
 5073SOL     OW26854   0.103   1.985   8.927  0.3868 -0.4826  0.8032
 5073SOL    HW126855   0.160   2.054   8.892  0.8627 -1.0707  0.4125
 5073SOL    HW226856   0.157   1.968   9.004  1.4025 -2.5860 -0.3756
 5074SOL     OW26857   3.706   1.712   2.537 -0.1555 -0.3791  0.5622
 5074SOL    HW126858   3.701   1.626   2.578 -0.7509 -0.1617  0.9564
 5074SOL    HW226859   3.734   1.686   2.450 -1.9462  0.8659 -0.3662
 5075SOL     OW26860   0.047   4.551   3.173  0.6726  0.0590  0.4920
 5075SOL    HW126861   0.103   4.488   3.127  0.3387  1.6632 -2.1065
 5075SOL    HW226862   0.056   4.628   3.116  1.5058 -0.5357 -0.1901
 5076SOL     OW26863   3.510   0.490   0.755  0.2164 -0.6312 -0.6279
 5076SOL    HW126864   3.596   0.517   0.786 -0.5490 -0.6415  1.4793
 5076SOL    HW226865   3.535   0.399   0.768 -2.6917 -1.3984 -0.5070
 5077SOL     OW26866   0.343   0.779   7.706 -0.1117 -0.2026  0.7312
 5077SOL    HW126867   0.313   0.712   7.644 -1.0415  1.3364 -0.4873
 5077SOL    HW226868   0.437   0.768   7.693  0.2063  2.4451  0.8874
 5078SOL     OW26869   2.858   1.677   5.856  0.4851  0.4393 -0.0926
 5078SOL    HW126870   2.766   1.698   5.839  0.2143  0.6215  1.5992
 5078SOL    HW226871   2.846   1.582   5.859  1.3067  0.3107 -0.9809
 5079SOL     OW26872   1.597   3.912   3.253 -0.7817  0.0475  0.0417
 5079SOL    HW126873   1.518   3.959   3.227 -0.2882 -0.2565 -2.0009
 5079SOL    HW226874   1.614   3.883   3.164  0.0491  1.4966 -0.2807
 5080SOL     OW26875   3.521   1.243  12.823 -0.7669  0.5479 -0.2266
 5080SOL    HW126876   3.480   1.180  12.883 -0.1306 -0.9492 -1.3391
 5080SOL    HW226877   3.573   1.302  12.877 -1.6640  1.7129 -0.6563
 5081SOL     OW26878   1.900   0.626   7.259 -0.5176 -0.2931 -0.1266
 5081SOL    HW126879   1.839   0.567   7.214 -0.4624  0.3296 -1.0097
 5081SOL    HW226880   1.857   0.638   7.344 -1.3704 -3.5848 -0.1051
 5082SOL     OW26881   1.572   2.763  13.429 -0.1459  0.4306  0.1183
 5082SOL    HW126882   1.666   2.770  13.447 -0.1038  0.0065  0.0485
 5082SOL    HW226883   1.562   2.831  13.362 -2.2677 -0.5264 -0.5242
 5083SOL     OW26884   3.047   3.064   3.621 -0.2533  0.7715 -0.1883
 5083SOL    HW126885   3.048   2.980   3.667  3.4983  1.1190  0.3713
 5083SOL    HW226886   3.018   3.029   3.536 -1.1998 -0.8915  0.8106
 5084SOL     OW26887   0.569   0.319  12.148  0.1500  0.0171  0.1348
 5084SOL    HW126888   0.572   0.351  12.239 -0.9188  0.6776 -0.0754
 5084SOL    HW226889   0.487   0.270  12.147  0.4748 -0.4990 -1.0332
 5085SOL     OW26890   2.772   4.072   3.113  0.0698  0.7131 -0.3326
 5085SOL    HW126891   2.848   4.086   3.057  0.2076 -0.1626 -0.3496
 5085SOL    HW226892   2.805   3.992   3.151 -2.8296 -0.5342 -0.4108
 5086SOL     OW26893   3.517   1.737   1.823  0.3324 -0.6289 -0.5215
 5086SOL    HW126894   3.481   1.810   1.872  1.3426 -0.1826 -0.4318
 5086SOL    HW226895   3.550   1.682   1.894 -1.4720 -2.6747 -1.2551
 5087SOL     OW26896   0.062   4.587   7.013  0.1240 -0.2208  0.3996
 5087SOL    HW126897   0.137   4.577   6.955  0.1273  1.5142  0.1126
 5087SOL    HW226898   4.728   4.615   6.952  0.5599  0.2158  0.1142
 5088SOL     OW26899   2.656   3.875   7.805  0.7066 -0.0470  0.0909
 5088SOL    HW126900   2.700   3.864   7.721 -0.6697 -0.4423 -0.5664
 5088SOL    HW226901   2.627   3.965   7.792 -1.7751 -1.0300 -1.1150
 5089SOL     OW26902   2.522   0.213   4.553 -0.0772  0.0788  0.3902
 5089SOL    HW126903   2.544   0.249   4.467 -1.5380  1.7536  0.7277
 5089SOL    HW226904   2.428   0.199   4.553 -0.0306 -0.2389  0.2640
 5090SOL     OW26905   0.100   3.426   2.939  0.4594 -0.5643  0.0109
 5090SOL    HW126906   0.019   3.432   2.888 -0.1294 -1.4548  0.8282
 5090SOL    HW226907   0.080   3.414   3.032  1.4564 -0.3117  0.2534
 5091SOL     OW26908   0.985   2.108   6.956  0.1893  0.2833  0.5537
 5091SOL    HW126909   0.904   2.106   6.905 -1.7104  0.3439  3.5632
 5091SOL    HW226910   1.009   2.201   6.960  0.4322  0.2659 -0.5250
 5092SOL     OW26911   1.344   1.621   0.466 -0.2550 -0.1342  0.0727
 5092SOL    HW126912   1.331   1.527   0.476  1.0766 -0.6520 -2.8131
 5092SOL    HW226913   1.397   1.639   0.544  1.1177  0.1206 -0.9200
 5093SOL     OW26914   0.132   3.576   6.431 -0.1989  0.2948 -0.5550
 5093SOL    HW126915   0.182   3.649   6.469 -1.1736  1.1111 -0.8543
 5093SOL    HW226916   0.187   3.542   6.361  0.4693  1.0240 -0.3934
 5094SOL     OW26917   4.458   4.507  14.703 -0.1708  0.3096 -0.4725
 5094SOL    HW126918   4.380   4.558  14.725  1.1764  2.3788 -0.4570
 5094SOL    HW226919   4.432   4.426  14.747  1.7028 -0.6822 -1.2236
 5095SOL     OW26920   4.460   3.596  10.744 -0.3386  0.0377 -0.0872
 5095SOL    HW126921   4.463   3.690  10.729  0.2616  0.6117  3.5517
 5095SOL    HW226922   4.368   3.585  10.720 -0.5037 -0.2689  0.6804
 5096SOL     OW26923   3.625   0.356   1.850  0.1472 -0.3187  0.0805
 5096SOL    HW126924   3.711   0.359   1.891 -0.4610  1.5967  1.1972
 5096SOL    HW226925   3.579   0.318   1.925  0.9682 -1.0824  0.1877
 5097SOL     OW26926   4.717   4.275   5.308  0.0970 -0.5960 -0.6310
 5097SOL    HW126927   0.007   4.185   5.333 -1.4616 -0.4890  1.3043
 5097SOL    HW226928   0.023   4.321   5.382 -0.6187 -1.0972  0.0754
 5098SOL     OW26929   0.520   0.093   4.600 -0.1281 -0.1073 -0.4942
 5098SOL    HW126930   0.478   0.070   4.683  1.4275  2.2393  0.9363
 5098SOL    HW226931   0.446   0.076   4.542 -0.3891 -0.7070  0.0188
 5099SOL     OW26932   1.617   1.518   2.661 -0.7576 -0.3875  0.1335
 5099SOL    HW126933   1.574   1.603   2.669  0.7618  0.3119  0.9162
 5099SOL    HW226934   1.676   1.527   2.586  0.3166 -0.2088  1.0007
 5100SOL     OW26935   0.032   3.169  15.549  0.1085  0.2946  0.0990
 5100SOL    HW126936   4.715   3.112  15.492 -1.2484  0.5651  1.0682
 5100SOL    HW226937   0.113   3.118  15.552 -0.8538 -1.0728  2.6646
 5101SOL     OW26938   0.561   1.030   0.564 -0.2673  0.0326 -0.0044
 5101SOL    HW126939   0.505   0.991   0.497  0.5760 -0.7975 -0.2126
 5101SOL    HW226940   0.619   0.958   0.589  0.2096  0.4542  0.1223
 5102SOL     OW26941   4.301   1.434   5.477  0.3558 -0.0064  0.3167
 5102SOL    HW126942   4.230   1.431   5.413  0.6936  0.2826 -0.0740
 5102SOL    HW226943   4.261   1.389   5.551 -1.2983 -0.8729 -1.1104
 5103SOL     OW26944   2.815   0.905   2.258  0.1392 -0.1708 -0.1699
 5103SOL    HW126945   2.747   0.952   2.209 -0.4050 -0.0952  0.6656
 5103SOL    HW226946   2.889   0.962   2.239 -0.5213  0.2832 -1.4096
 5104SOL     OW26947   2.118   1.534   5.549 -0.3933  0.0546  0.2134
 5104SOL    HW126948   2.214   1.531   5.544 -0.4463 -0.3967 -0.4360
 5104SOL    HW226949   2.088   1.455   5.596 -2.6560  1.4551  1.1147
 5105SOL     OW26950   1.797   3.047   7.653  0.5413  0.4785 -0.1588
 5105SOL    HW126951   1.745   3.082   7.581  2.5226  2.3471 -0.6871
 5105SOL    HW226952   1.862   2.989   7.612  0.3144  1.5958 -2.1482
 5106SOL     OW26953   4.618   2.704   9.539  0.1623 -0.7153 -0.4820
 5106SOL    HW126954   4.692   2.648   9.514  1.1090  0.2426  0.1569
 5106SOL    HW226955   4.609   2.752   9.457  0.7092  0.2670  0.0337
 5107SOL     OW26956   0.563   0.694  13.047 -0.1923 -0.1889  0.0592
 5107SOL    HW126957   0.621   0.656  13.114 -0.1203 -1.3946 -0.6827
 5107SOL    HW226958   0.484   0.641  13.057 -1.2147  1.3341 -0.0204
 5108SOL     OW26959   1.792   2.499   3.212 -0.6640 -0.0441  0.5770
 5108SOL    HW126960   1.811   2.516   3.120  1.3104 -0.3590  0.9063
 5108SOL    HW226961   1.722   2.564   3.223 -1.4421 -0.5556 -1.4580
 5109SOL     OW26962   3.032   3.457  15.050 -0.4914  0.8996 -0.3991
 5109SOL    HW126963   2.997   3.437  14.964  3.6875 -1.2778 -1.5998
 5109SOL    HW226964   3.050   3.551  15.042 -0.1524  0.8270 -0.4694
 5110SOL     OW26965   3.902   3.080   4.269  0.0086 -0.7813  0.3741
 5110SOL    HW126966   3.834   3.041   4.324 -1.9596 -0.5244 -1.8596
 5110SOL    HW226967   3.913   3.165   4.311  2.2911 -1.2319  0.6831
 5111SOL     OW26968   0.797   4.684   7.365 -0.3417 -0.0937 -0.1594
 5111SOL    HW126969   0.703   4.691   7.377 -0.2476  1.8912 -0.6114
 5111SOL    HW226970   0.814   0.040   7.338  0.7760  0.6523  3.0571
 5112SOL     OW26971   1.271   1.216   8.052  0.0702 -0.3798  0.6037
 5112SOL    HW126972   1.227   1.302   8.058  0.7896  0.0071  0.2886
 5112SOL    HW226973   1.337   1.213   8.121  2.1885  1.0201 -1.3401
 5113SOL     OW26974   1.250   1.284   9.060 -0.5680  0.7403  0.5269
 5113SOL    HW126975   1.256   1.254   8.969  1.7991  0.3449  0.8250
 5113SOL    HW226976   1.299   1.222   9.115 -2.5613 -0.3948  1.0549
 5114SOL     OW26977   3.998   1.471   5.399 -0.0302 -0.2068 -0.5023
 5114SOL    HW126978   3.947   1.495   5.476 -0.4202  0.6743 -1.0381
 5114SOL    HW226979   3.989   1.376   5.390  3.0411 -0.4344 -1.1895
 5115SOL     OW26980   1.842   3.098   8.433 -0.5824  0.0597 -0.3742
 5115SOL    HW126981   1.904   3.026   8.436 -0.9675 -0.2081  1.1509
 5115SOL    HW226982   1.810   3.095   8.343  0.9128 -0.2003 -0.8856
 5116SOL     OW26983   4.264   1.925   2.605  0.1148 -0.3213  0.4471
 5116SOL    HW126984   4.283   1.977   2.683  0.2256  1.0950 -0.5317
 5116SOL    HW226985   4.296   1.840   2.638  2.5543  1.3915  2.4654
 5117SOL     OW26986   1.042   0.380   6.732 -0.1218  0.1422 -0.0657
 5117SOL    HW126987   1.051   0.475   6.743 -0.5168 -0.0504  1.8053
 5117SOL    HW226988   1.083   0.379   6.645  0.7089 -2.1358  0.3502
 5118SOL     OW26989   3.921   1.191   5.819  0.1072  0.5411 -0.1004
 5118SOL    HW126990   3.913   1.203   5.914 -1.9140 -1.2312 -0.0322
 5118SOL    HW226991   4.014   1.172   5.810 -0.3276 -0.7518 -1.9076
 5119SOL     OW26992   4.341   1.046   2.510  0.2245 -0.4349  0.2029
 5119SOL    HW126993   4.269   1.100   2.543 -0.2433 -0.5534 -0.6268
 5119SOL    HW226994   4.351   1.085   2.423 -1.5255 -0.2937  0.0680
 5120SOL     OW26995   2.662   0.206  17.715  0.6640  0.3691  0.1056
 5120SOL    HW126996   2.657   0.192  17.620 -2.3537  0.2359  0.2813
 5120SOL    HW226997   2.569   0.222  17.733  0.2762  1.0516 -2.4813
 5121SOL     OW26998   0.534   4.086  16.996 -0.2040 -0.1292 -0.8573
 5121SOL    HW126999   0.448   4.045  16.994 -0.2972  0.0845 -1.1442
 5121SOL    HW227000   0.591   4.023  16.951  0.4679 -0.7971  0.9170
 5122SOL     OW27001   2.886   0.959   5.544  0.5656  0.5957 -0.1054
 5122SOL    HW127002   2.904   1.053   5.550  0.7579  0.6418 -1.5021
 5122SOL    HW227003   2.837   0.954   5.626  0.8155 -1.5775 -0.1034
 5123SOL     OW27004   4.481   3.775   4.003 -0.5360 -0.2502 -0.7664
 5123SOL    HW127005   4.572   3.748   4.013 -0.0650  1.5677 -0.1094
 5123SOL    HW227006   4.481   3.786   3.908  1.8253  0.6970 -0.6545
 5124SOL     OW27007   4.043   2.815   9.723 -0.3375  0.8039 -0.1472
 5124SOL    HW127008   4.135   2.837   9.735 -0.2554 -0.3829  1.3860
 5124SOL    HW227009   4.053   2.720   9.710 -1.0080  0.7809 -0.4905
 5125SOL     OW27010   3.699   4.082  13.325 -0.2176 -0.1875  0.1803
 5125SOL    HW127011   3.708   3.992  13.355  0.3259  0.5029  2.0954
 5125SOL    HW227012   3.605   4.073  13.307  0.0169  0.5320 -1.4041
 5126SOL     OW27013   0.334   4.471   6.458 -0.6306 -0.0205 -0.0790
 5126SOL    HW127014   0.286   4.409   6.514  2.2561 -0.2533  2.1422
 5126SOL    HW227015   0.416   4.472   6.507 -1.5534 -0.2769  1.4586
 5127SOL     OW27016   0.779   1.631   4.941 -0.2179  0.1792 -0.5122
 5127SOL    HW127017   0.773   1.540   4.967 -1.5609  0.6670  0.8994
 5127SOL    HW227018   0.751   1.619   4.850 -1.0572  1.8236 -0.4738
 5128SOL     OW27019   4.612   2.600  16.520  0.3156  0.0562  0.3980
 5128SOL    HW127020   4.626   2.693  16.539  0.3533 -0.3058  2.1758
 5128SOL    HW227021   4.700   2.563  16.506 -0.2881 -1.1053 -0.3074
 5129SOL     OW27022   0.174   3.110   5.378  0.2692  0.3084 -0.6316
 5129SOL    HW127023   0.204   3.196   5.407 -0.7412  0.4535 -0.0007
 5129SOL    HW227024   0.220   3.067   5.450 -1.4073 -0.0997  0.2128
 5130SOL     OW27025   3.062   4.163   7.718 -0.2449 -1.0324 -0.3542
 5130SOL    HW127026   3.118   4.170   7.795  1.2106  0.2129 -1.5188
 5130SOL    HW227027   2.981   4.130   7.756 -0.1444  1.4819  2.0462
 5131SOL     OW27028   3.547   4.332  11.776 -0.0851 -0.0538 -0.0645
 5131SOL    HW127029   3.642   4.327  11.788  0.2458  0.5095 -2.4621
 5131SOL    HW227030   3.545   4.424  11.802 -1.8424 -0.2973  0.6521
 5132SOL     OW27031   1.127   2.315  11.364 -0.0891 -0.1610  0.2815
 5132SOL    HW127032   1.091   2.230  11.392  3.0297 -2.6864 -3.3172
 5132SOL    HW227033   1.181   2.335  11.441 -0.8304 -0.4792  0.8920
 5133SOL     OW27034   2.596   2.141  10.785 -0.3131 -0.3385 -0.3860
 5133SOL    HW127035   2.519   2.149  10.729 -0.5838 -0.2031  0.0083
 5133SOL    HW227036   2.656   2.206  10.749  0.6601 -1.7645 -1.3661
 5134SOL     OW27037   0.261   3.335   5.469 -0.1766 -0.3152  0.1105
 5134SOL    HW127038   0.250   3.429   5.454 -0.0805 -0.4641 -0.8712
 5134SOL    HW227039   0.355   3.349   5.482  0.1892 -1.2944 -1.5574
 5135SOL     OW27040   3.948   4.235  17.205 -0.4734  0.1840  0.4051
 5135SOL    HW127041   3.956   4.185  17.123 -0.0123  1.4929 -0.3589
 5135SOL    HW227042   3.926   4.321  17.167  1.1904  0.0076 -0.9828
 5136SOL     OW27043   0.135   4.727  14.370  0.0924 -0.0638  0.0261
 5136SOL    HW127044   0.160   4.636  14.385 -1.3258 -0.3588  0.6845
 5136SOL    HW227045   0.205   0.039  14.416 -1.1237  0.4899  1.3442
 5137SOL     OW27046   0.592   4.645   3.990  0.0613 -0.1602  0.2843
 5137SOL    HW127047   0.570   4.622   4.081  1.4699  3.3873  1.5285
 5137SOL    HW227048   0.552   4.732   3.990 -1.3123 -0.7757 -2.4949
 5138SOL     OW27049   0.322   4.443   4.774 -0.0319 -0.3308  0.1823
 5138SOL    HW127050   0.330   4.351   4.800  1.6578  0.0890  1.1608
 5138SOL    HW227051   0.416   4.452   4.789  0.4130 -1.5892 -1.7892
 5139SOL     OW27052   3.269   0.324  10.693  0.3959 -0.3778  0.0478
 5139SOL    HW127053   3.320   0.393  10.651 -0.0217  0.1158  0.3410
 5139SOL    HW227054   3.252   0.274  10.613 -2.4559  2.8030 -1.3588
 5140SOL     OW27055   1.758   0.316   3.699 -0.2125 -0.5917 -0.1657
 5140SOL    HW127056   1.831   0.298   3.639  0.2471  1.5846 -0.2402
 5140SOL    HW227057   1.792   0.348   3.782 -0.2818 -1.2858  0.1307
 5141SOL     OW27058   0.378   2.413   9.745 -0.3272  0.2984 -0.4481
 5141SOL    HW127059   0.453   2.412   9.686  1.0990 -0.0394  1.3551
 5141SOL    HW227060   0.369   2.321   9.767 -0.4848  0.7297  1.2858
 5142SOL     OW27061   3.874   4.067   5.594  0.2113  0.0338 -0.2498
 5142SOL    HW127062   3.953   4.111   5.564  0.8075 -0.7008  0.2527
 5142SOL    HW227063   3.825   4.038   5.516  0.3833  1.6612 -0.9640
 5143SOL     OW27064   4.590   4.602  16.919  0.4848 -0.3176 -0.4608
 5143SOL    HW127065   4.626   4.661  16.984 -4.6421  0.9189  1.2703
 5143SOL    HW227066   4.641   4.623  16.840  0.9012 -0.8432 -0.3354
 5144SOL     OW27067   3.916   1.363   7.379 -0.1232 -0.2931  0.2235
 5144SOL    HW127068   3.881   1.396   7.297 -0.2278  1.3764  0.9518
 5144SOL    HW227069   3.913   1.270   7.356 -0.1255  0.0941 -1.3574
 5145SOL     OW27070   0.493   2.551   9.202  0.0184 -0.6532 -0.0377
 5145SOL    HW127071   0.457   2.470   9.239 -0.5713 -0.0695  0.6743
 5145SOL    HW227072   0.441   2.626   9.233  1.8812  0.4590  0.4221
 5146SOL     OW27073   2.971   4.457   1.119  0.1065 -0.0214  0.5200
 5146SOL    HW127074   3.044   4.520   1.121  0.2862 -0.1987 -0.8716
 5146SOL    HW227075   2.920   4.502   1.186  0.3591 -2.2652  2.2320
 5147SOL     OW27076   2.138   1.373   8.303  0.1776  0.4913 -0.0864
 5147SOL    HW127077   2.172   1.294   8.261  0.2607  1.4114 -1.7794
 5147SOL    HW227078   2.064   1.389   8.245  0.3154 -0.4838 -0.5233
 5148SOL     OW27079   0.294   0.908   3.224 -0.0248  0.2139  0.3094
 5148SOL    HW127080   0.269   0.869   3.308 -0.9269 -0.7465 -0.4118
 5148SOL    HW227081   0.270   1.000   3.240  1.9834  1.0755 -1.7749
 5149SOL     OW27082   4.138   4.479   8.455  0.6187 -0.7170 -0.5236
 5149SOL    HW127083   4.186   4.559   8.480  3.0193 -2.2218 -0.2917
 5149SOL    HW227084   4.051   4.518   8.448  0.4323 -1.3202 -1.4188
 5150SOL     OW27085   4.523   2.619   0.044  0.0749 -0.0599 -0.2443
 5150SOL    HW127086   4.595   2.556   0.049  0.3810  0.0448 -3.0436
 5150SOL    HW227087   4.462   2.569  17.725 -0.8358  0.8334 -0.0573
 5151SOL     OW27088   0.558   1.001  16.423 -0.2483  0.0720  0.1181
 5151SOL    HW127089   0.551   0.992  16.518 -0.8219  1.3239  0.1956
 5151SOL    HW227090   0.629   0.939  16.407 -0.0770 -0.3206  2.3361
 5152SOL     OW27091   4.535   2.002   7.198 -0.5180  0.0232  0.4454
 5152SOL    HW127092   4.601   1.969   7.260 -0.3674  0.6027  0.5995
 5152SOL    HW227093   4.467   1.939   7.221 -0.9133  0.5008  0.5715
 5153SOL     OW27094   0.117   3.829  16.331 -0.0529  0.4958 -0.3822
 5153SOL    HW127095   0.053   3.879  16.381  0.8278 -0.4119  1.6576
 5153SOL    HW227096   0.199   3.865  16.366  0.3011 -0.0808 -0.6082
 5154SOL     OW27097   2.172   1.960  16.539 -0.4439 -0.1697 -0.0469
 5154SOL    HW127098   2.239   2.028  16.531  1.2358 -1.7354  0.4684
 5154SOL    HW227099   2.147   1.966  16.631  1.6170 -2.6799  0.6972
 5155SOL     OW27100   3.852   1.084   5.040  0.0892  0.4498 -0.0969
 5155SOL    HW127101   3.872   0.997   5.007  0.1222  0.1617  0.6752
 5155SOL    HW227102   3.773   1.112   4.995  0.5944  1.7142 -0.1962
 5156SOL     OW27103   1.564   0.847   9.301 -0.0340 -0.3564  0.0757
 5156SOL    HW127104   1.553   0.839   9.206 -0.3867 -0.9581  0.1653
 5156SOL    HW227105   1.537   0.759   9.328 -1.0586  0.4003  1.5171
 5157SOL     OW27106   2.590   0.654  14.541 -0.1544  0.4024 -0.3940
 5157SOL    HW127107   2.605   0.718  14.611 -2.9140  0.6195  0.0268
 5157SOL    HW227108   2.525   0.593  14.575  0.2968  0.8925  1.4098
 5158SOL     OW27109   4.321   3.359  14.759  0.0953 -0.0125  0.3472
 5158SOL    HW127110   4.330   3.415  14.682  0.5413  0.5393  0.7928
 5158SOL    HW227111   4.269   3.287  14.723  1.5624 -0.9972  0.1820
 5159SOL     OW27112   1.112   3.598   5.797  0.2685 -0.3618 -0.1347
 5159SOL    HW127113   1.186   3.562   5.747 -1.7642 -0.1506 -3.2990
 5159SOL    HW227114   1.143   3.589   5.887  1.6098 -0.0232 -0.5656
 5160SOL     OW27115   0.134   0.400  17.519 -0.4335 -0.1916  0.1533
 5160SOL    HW127116   0.135   0.339  17.592 -2.7849  1.9709  1.9983
 5160SOL    HW227117   0.192   0.474  17.537  1.9008 -1.9291 -0.2486
 5161SOL     OW27118   2.946   2.695   3.469  0.9052 -0.1585  0.1544
 5161SOL    HW127119   2.917   2.717   3.558  0.8617 -0.5080  0.2245
 5161SOL    HW227120   2.935   2.777   3.420 -0.2536 -1.1845 -1.2844
 5162SOL     OW27121   1.759   3.734  10.283  0.6258 -0.1439  0.0675
 5162SOL    HW127122   1.704   3.699  10.213 -1.2131 -0.7171  1.7894
 5162SOL    HW227123   1.780   3.818  10.243  1.5112  1.2500  3.4194
 5163SOL     OW27124   3.508   3.152   8.009 -0.1369  0.0539 -0.2939
 5163SOL    HW127125   3.500   3.247   8.002  1.5787  0.0712 -2.2045
 5163SOL    HW227126   3.478   3.135   8.098 -0.2836 -1.3985 -0.6285
 5164SOL     OW27127   2.280   0.861   4.146  0.1551  0.4048 -0.1156
 5164SOL    HW127128   2.266   0.955   4.157  1.9626  0.4094  2.1559
 5164SOL    HW227129   2.313   0.855   4.056 -2.1481 -0.7140 -0.8849
 5165SOL     OW27130   3.081   2.877   6.311 -0.8247 -0.2428 -0.4341
 5165SOL    HW127131   3.146   2.928   6.359 -0.9253  1.3547 -2.0207
 5165SOL    HW227132   3.007   2.937   6.311  1.3141  2.3710 -0.5902
 5166SOL     OW27133   3.764   0.413  15.570 -0.1847 -0.2378  0.3425
 5166SOL    HW127134   3.850   0.376  15.593 -0.4167 -0.6246  0.6021
 5166SOL    HW227135   3.754   0.375  15.483  0.7780 -0.0235  0.1476
 5167SOL     OW27136   0.773   1.343   2.109  0.1242  0.0179  0.1248
 5167SOL    HW127137   0.840   1.383   2.053  0.2212 -1.8994 -1.1456
 5167SOL    HW227138   0.824   1.318   2.186 -0.9678 -1.3302  0.4166
 5168SOL     OW27139   3.001   3.517  11.503  0.7822 -0.7386  0.1543
 5168SOL    HW127140   2.919   3.470  11.487 -1.1771  2.7518 -0.0868
 5168SOL    HW227141   3.035   3.494  11.416  2.2718  2.6582 -0.1628
 5169SOL     OW27142   0.080   0.913   9.171  0.1159  0.3312 -0.2554
 5169SOL    HW127143   0.106   1.003   9.186  1.5167 -0.2599  0.9265
 5169SOL    HW227144   0.027   0.894   9.249  0.9111 -1.6415 -0.1916
 5170SOL     OW27145   3.687   4.245   3.414  0.2673  0.0956 -0.3582
 5170SOL    HW127146   3.650   4.208   3.494 -1.4739  0.5058 -0.9630
 5170SOL    HW227147   3.775   4.207   3.406  0.6825  1.1084 -0.6343
 5171SOL     OW27148   0.462   0.490   5.082  0.4544 -0.4183 -0.0377
 5171SOL    HW127149   0.424   0.480   4.994  1.6330 -1.0401 -0.4818
 5171SOL    HW227150   0.442   0.412   5.134 -1.4439 -0.9351 -1.5546
 5172SOL     OW27151   0.153   0.309   7.092 -0.5281  0.2582  0.2044
 5172SOL    HW127152   0.058   0.309   7.090 -0.4778  0.9285 -2.2666
 5172SOL    HW227153   0.177   0.355   7.173  0.8633 -0.1149  0.0171
 5173SOL     OW27154   1.770   1.277  11.595 -0.4425 -0.2181  0.4127
 5173SOL    HW127155   1.810   1.363  11.602 -0.4915 -0.1766  0.1784
 5173SOL    HW227156   1.756   1.246  11.685 -3.3289 -2.8186 -0.9306
 5174SOL     OW27157   2.729   4.058   1.059 -0.0588 -0.2757 -0.0905
 5174SOL    HW127158   2.779   4.039   1.138  2.8276  0.6597 -1.6906
 5174SOL    HW227159   2.788   4.018   0.995  2.0600 -1.0527  2.3409
 5175SOL     OW27160   2.277   1.639  15.407 -0.0174  0.2749 -0.1636
 5175SOL    HW127161   2.364   1.673  15.428  1.9590 -3.7340 -1.8814
 5175SOL    HW227162   2.218   1.707  15.439  1.3643  0.9785  0.8729
 5176SOL     OW27163   4.715   1.613   9.172 -0.0187  0.2759 -0.4228
 5176SOL    HW127164   4.728   1.690   9.117  0.2571  1.6007  1.4801
 5176SOL    HW227165   4.628   1.639   9.203  0.4809  1.5433 -0.1042
 5177SOL     OW27166   4.310   2.469   3.476 -0.4521 -0.1878  0.2751
 5177SOL    HW127167   4.286   2.548   3.524  3.5708  0.5663  1.0558
 5177SOL    HW227168   4.268   2.402   3.530 -1.3802  1.2717  1.3655
 5178SOL     OW27169   1.660   3.788   8.902  0.0806  0.0977 -0.1057
 5178SOL    HW127170   1.726   3.764   8.836  1.2131 -0.3344  1.1917
 5178SOL    HW227171   1.712   3.771   8.980 -2.0619 -1.9979  0.8732
 5179SOL     OW27172   4.298   0.418   4.816 -0.2792  0.0027  0.0287
 5179SOL    HW127173   4.246   0.491   4.851 -0.1574  0.3316 -0.4793
 5179SOL    HW227174   4.387   0.455   4.820  0.1965 -0.8735 -2.5794
 5180SOL     OW27175   4.429   4.077   8.294  0.0918 -0.2738 -0.6036
 5180SOL    HW127176   4.387   4.139   8.354 -1.1129 -1.3113 -0.3669
 5180SOL    HW227177   4.495   4.024   8.340 -0.1730  0.1216  0.2379
 5181SOL     OW27178   1.702   2.666   2.424 -0.0178 -0.3742  0.5038
 5181SOL    HW127179   1.714   2.618   2.342  1.7832 -1.3632  1.3355
 5181SOL    HW227180   1.608   2.650   2.433 -0.4149  1.2710 -0.7359
 5182SOL     OW27181   1.174   0.023   2.005  0.1368  0.1288 -0.5965
 5182SOL    HW127182   1.241   4.700   2.043 -2.4296 -2.0397  0.6069
 5182SOL    HW227183   1.228   0.101   1.988  0.3324 -0.0749 -0.8909
 5183SOL     OW27184   0.639   0.444   2.037 -0.3597  0.1680  1.0284
 5183SOL    HW127185   0.683   0.497   1.971  2.4094 -1.4193  1.5951
 5183SOL    HW227186   0.570   0.393   1.994  1.2176  1.1592 -2.6427
 5184SOL     OW27187   2.711   2.595  14.113 -0.2653 -0.7255  0.4009
 5184SOL    HW127188   2.668   2.654  14.051  1.7314  0.9929  0.6789
 5184SOL    HW227189   2.709   2.513  14.064 -2.5614 -0.3830 -0.0918
 5185SOL     OW27190   3.045   2.163   8.565 -0.3424  0.3746 -0.1378
 5185SOL    HW127191   2.975   2.184   8.628  2.5595  2.7135  2.3126
 5185SOL    HW227192   3.119   2.211   8.602 -0.2969  0.0864  0.1503
 5186SOL     OW27193   2.878   2.829   6.626 -0.4944  0.0597  0.4539
 5186SOL    HW127194   2.904   2.915   6.594 -0.2409  0.6536  2.2622
 5186SOL    HW227195   2.828   2.853   6.705 -1.1295  0.7929 -0.1670
 5187SOL     OW27196   3.323   0.159   5.052 -0.6019 -0.8261 -0.1757
 5187SOL    HW127197   3.296   0.250   5.069  2.0095 -0.0317 -0.1504
 5187SOL    HW227198   3.383   0.177   4.979  0.9194  0.1714  1.3025
 5188SOL     OW27199   0.925   3.238  17.154 -0.1594 -0.0419  0.1216
 5188SOL    HW127200   0.838   3.213  17.122  0.7049 -0.8704 -1.6103
 5188SOL    HW227201   0.948   3.299  17.083 -1.1303 -0.4598 -0.5584
 5189SOL     OW27202   2.159   1.232   4.837 -0.0216  0.2385  0.2818
 5189SOL    HW127203   2.224   1.167   4.864 -0.0097  0.2757  0.3416
 5189SOL    HW227204   2.076   1.190   4.860 -0.6724  0.6725 -1.2597
 5190SOL     OW27205   4.647   0.566  14.388  0.1995  0.0628  0.1195
 5190SOL    HW127206   4.608   0.490  14.345  1.0314  0.7446 -1.8176
 5190SOL    HW227207   4.713   0.509  14.428 -1.5395  0.0932  3.0259
 5191SOL     OW27208   2.822   1.843   6.924 -0.2970  0.4359 -0.5419
 5191SOL    HW127209   2.781   1.796   6.852  1.9784 -0.4234 -1.2818
 5191SOL    HW227210   2.909   1.863   6.890 -0.3801  2.5174  0.4827
 5192SOL     OW27211   3.801   2.395   2.293 -0.1039 -0.6746  0.0984
 5192SOL    HW127212   3.828   2.305   2.275  0.1531 -0.7930  1.0666
 5192SOL    HW227213   3.732   2.409   2.228  1.9634  0.3756 -1.8708
 5193SOL     OW27214   1.990   1.673   8.969 -0.4546  0.0316  0.1870
 5193SOL    HW127215   1.982   1.620   9.048  0.4873  1.4618  1.2471
 5193SOL    HW227216   1.986   1.605   8.902 -0.5653 -0.3159  0.5455
 5194SOL     OW27217   0.851   1.111   9.673 -0.2596  0.2643  0.1948
 5194SOL    HW127218   0.869   1.146   9.587 -0.4136  0.3826  0.2111
 5194SOL    HW227219   0.757   1.094   9.666 -0.3510  2.0584 -2.5050
 5195SOL     OW27220   2.552   0.742   6.827 -0.3168 -0.1021 -0.0653
 5195SOL    HW127221   2.596   0.800   6.889 -0.5645 -1.8955  1.7586
 5195SOL    HW227222   2.607   0.664   6.828  0.9792  0.8309  2.2985
 5196SOL     OW27223   0.563   2.591   2.090 -0.1155  0.3380  0.1806
 5196SOL    HW127224   0.473   2.573   2.117  0.4834 -2.3099  0.3551
 5196SOL    HW227225   0.583   2.662   2.151 -0.0650  0.4526  0.0330
 5197SOL     OW27226   3.412   1.605  10.688 -0.1004 -0.6310  0.5553
 5197SOL    HW127227   3.470   1.553  10.744 -0.8255  2.0768  3.7635
 5197SOL    HW227228   3.439   1.695  10.702 -0.4682 -0.1845 -1.5816
 5198SOL     OW27229   0.679   1.805  12.209  0.1998 -0.0321  0.5218
 5198SOL    HW127230   0.739   1.839  12.275 -0.2258  1.8373 -0.0417
 5198SOL    HW227231   0.737   1.753  12.152 -1.5706 -2.1996  0.7014
 5199SOL     OW27232   2.659   3.767   0.274 -0.0934  0.2198 -0.7686
 5199SOL    HW127233   2.678   3.841   0.216  1.8390  0.6424  0.3976
 5199SOL    HW227234   2.739   3.772   0.326  0.5245 -0.1150 -1.6982
 5200SOL     OW27235   1.027   1.205   7.704 -0.1847  0.5040 -0.5815
 5200SOL    HW127236   0.968   1.211   7.779  0.2339  3.6613 -0.4987
 5200SOL    HW227237   0.967   1.186   7.632  0.5210 -1.0818 -0.7528
 5201SOL     OW27238   0.484   0.008   5.571  0.2030  0.5212  0.0536
 5201SOL    HW127239   0.562   0.062   5.557 -0.5216  0.8369 -2.7872
 5201SOL    HW227240   0.523   4.667   5.614  0.9530  1.7854  1.5877
 5202SOL     OW27241   0.379   2.923   6.027  0.1618 -0.2637 -0.1940
 5202SOL    HW127242   0.379   2.874   6.108 -1.0059  1.6684  0.9809
 5202SOL    HW227243   0.284   2.919   6.013 -0.2605  0.7941  2.3420
 5203SOL     OW27244   4.118   0.173   7.783 -0.1782 -0.5134 -0.3881
 5203SOL    HW127245   4.199   0.180   7.833 -0.4837  1.4837 -0.1512
 5203SOL    HW227246   4.084   0.263   7.787 -1.0059 -0.7857 -1.2648
 5204SOL     OW27247   4.676   2.924  10.045  0.1496  0.4206  0.2843
 5204SOL    HW127248   4.709   2.839  10.015 -0.9923  0.5787 -1.4222
 5204SOL    HW227249   4.606   2.946   9.983  0.8110 -2.1076 -1.3573
 5205SOL     OW27250   0.546   1.180  16.242  0.0777  0.1325  0.5315
 5205SOL    HW127251   0.634   1.163  16.208 -0.6011 -0.0783 -1.1265
 5205SOL    HW227252   0.540   1.112  16.308 -0.2248 -1.6325 -1.3066
 5206SOL     OW27253   1.158   2.105   7.684  0.3373 -0.7634 -0.4026
 5206SOL    HW127254   1.175   2.199   7.682 -0.9180 -0.4927  1.9636
 5206SOL    HW227255   1.242   2.072   7.715  0.2750 -0.1131  0.4663
 5207SOL     OW27256   4.032   3.944  10.441 -0.1364 -0.2273  0.0304
 5207SOL    HW127257   4.076   3.891  10.508  1.5671  1.7620  0.4980
 5207SOL    HW227258   4.010   4.025  10.487  0.9438  0.1189 -0.0491
 5208SOL     OW27259   1.404   1.599   8.428  0.0916  0.2928 -0.1715
 5208SOL    HW127260   1.343   1.528   8.447 -0.9198  1.1542 -0.2030
 5208SOL    HW227261   1.342   1.667   8.455 -1.2616 -1.7199  1.7348
 5209SOL     OW27262   1.692   0.345   0.561  0.3762 -0.4722  0.4693
 5209SOL    HW127263   1.637   0.277   0.523  0.1215 -1.2085  2.1413
 5209SOL    HW227264   1.767   0.355   0.502  0.3337 -0.6708  0.3839
 5210SOL     OW27265   1.252   0.957   1.167 -0.2357 -0.0812 -0.1600
 5210SOL    HW127266   1.190   0.955   1.094 -0.1080 -1.0999 -0.2357
 5210SOL    HW227267   1.178   0.971   1.227  0.3497  3.6138 -0.3010
 5211SOL     OW27268   1.976   1.355   1.433 -0.4368 -0.0946  0.4557
 5211SOL    HW127269   1.882   1.370   1.426  0.1624  2.7038 -1.4741
 5211SOL    HW227270   1.983   1.261   1.450  1.9422 -0.1069 -0.6102
 5212SOL     OW27271   2.694   2.630   1.592 -0.2744 -0.7289  0.0035
 5212SOL    HW127272   2.788   2.634   1.577 -0.0013 -3.3752  1.0184
 5212SOL    HW227273   2.671   2.663   1.679 -0.8455 -0.7003 -0.1569
 5213SOL     OW27274   1.999   3.102   3.415 -0.0363  0.2155 -0.0516
 5213SOL    HW127275   2.083   3.058   3.403  0.7358  1.6845  0.0316
 5213SOL    HW227276   1.969   3.043   3.485 -0.8442  1.3437  0.5438
 5214SOL     OW27277   0.702   4.187   8.542 -0.1274 -0.2382 -0.7286
 5214SOL    HW127278   0.757   4.202   8.619 -2.6384 -3.4230  1.6535
 5214SOL    HW227279   0.739   4.105   8.510  1.2426 -0.0679  0.4260
 5215SOL     OW27280   4.008   2.080   8.569 -0.4282  0.6725 -0.0229
 5215SOL    HW127281   4.027   2.159   8.519 -0.9371  2.2056  2.1927
 5215SOL    HW227282   3.987   2.016   8.501  0.0418 -1.3093  1.7070
 5216SOL     OW27283   1.648   1.973   4.499  0.0966  0.4638 -0.6259
 5216SOL    HW127284   1.605   2.057   4.484  2.1722  1.3068 -1.8052
 5216SOL    HW227285   1.608   1.944   4.581 -0.7293  0.2557 -1.0948
 5217SOL     OW27286   4.058   1.695  13.977 -0.3551 -0.1069  0.1668
 5217SOL    HW127287   4.114   1.633  14.024  1.4422  2.0118  0.8254
 5217SOL    HW227288   4.047   1.641  13.899  2.5950  1.1899 -1.1724
 5218SOL     OW27289   2.527   3.068   1.886 -0.0384 -0.3847  0.9658
 5218SOL    HW127290   2.600   3.112   1.930  0.9869  0.3261 -1.4079
 5218SOL    HW227291   2.542   2.979   1.919 -2.5967 -0.9116  0.7112
 5219SOL     OW27292   4.494   3.939   7.996 -0.0135 -0.1849 -0.2669
 5219SOL    HW127293   4.568   3.982   8.038  0.4120 -1.7727  0.6171
 5219SOL    HW227294   4.484   3.863   8.053 -1.9346  0.9000  0.8617
 5220SOL     OW27295   2.651   2.610   1.328 -0.1360 -0.3545 -0.2156
 5220SOL    HW127296   2.688   2.633   1.413  0.2969  0.6322 -0.6741
 5220SOL    HW227297   2.729   2.615   1.273  1.9506 -1.8189  2.6286
 5221SOL     OW27298   2.910   1.085   4.005  0.1392  0.2568 -0.5954
 5221SOL    HW127299   2.816   1.076   4.024 -0.0909  0.1482 -1.7935
 5221SOL    HW227300   2.920   1.052   3.916  1.4452  0.8645 -0.6665
 5222SOL     OW27301   2.919   0.376   3.918  0.5706  0.1233 -0.6364
 5222SOL    HW127302   2.992   0.314   3.928  0.3997  0.0272  0.0083
 5222SOL    HW227303   2.861   0.326   3.860  1.8168 -1.0957 -0.8242
 5223SOL     OW27304   3.173   1.727   0.746 -0.1565  0.2326  0.0281
 5223SOL    HW127305   3.186   1.792   0.815 -0.4314  0.6428 -0.3017
 5223SOL    HW227306   3.112   1.665   0.788  1.2672 -2.1240 -1.3774
 5224SOL     OW27307   0.449   2.002   7.939 -0.0789  0.1904  0.5949
 5224SOL    HW127308   0.453   1.916   7.980  1.0556  0.1237  0.3325
 5224SOL    HW227309   0.415   1.975   7.854  1.6764 -2.3110  0.6939
 5225SOL     OW27310   4.476   3.941   6.543  0.4000  0.1113  0.9932
 5225SOL    HW127311   4.524   3.902   6.615 -0.1507 -3.2694 -0.4573
 5225SOL    HW227312   4.390   3.907   6.569  0.0451 -0.0659 -0.3931
 5226SOL     OW27313   1.147   3.547   6.108 -0.7895  0.2982 -0.2699
 5226SOL    HW127314   1.217   3.560   6.172 -1.3864 -0.9086  0.6355
 5226SOL    HW227315   1.151   3.451   6.108 -1.9447  0.2528 -0.8816
 5227SOL     OW27316   2.662   2.775  12.235  0.2198  0.7226 -0.4692
 5227SOL    HW127317   2.670   2.741  12.325  0.0120 -1.7717 -1.3848
 5227SOL    HW227318   2.755   2.794  12.224 -0.1727  2.2613 -1.0419
 5228SOL     OW27319   0.474   4.217   2.965  0.1966  0.7806  0.3881
 5228SOL    HW127320   0.428   4.243   3.044  0.3210 -2.7101  1.5842
 5228SOL    HW227321   0.451   4.124   2.957 -1.2197  1.0938  0.9440
 5229SOL     OW27322   3.481   3.966   0.065  0.4555 -0.1004  0.1668
 5229SOL    HW127323   3.512   3.883   0.028  1.2714 -0.0311  0.7054
 5229SOL    HW227324   3.557   3.976   0.121 -0.8237  0.5894  1.7854
 5230SOL     OW27325   0.311   2.311  10.504 -0.6407  0.1763 -0.0522
 5230SOL    HW127326   0.372   2.275  10.569  0.0716  1.6848  0.1229
 5230SOL    HW227327   0.356   2.395  10.493  1.1862 -0.7394  0.4697
 5231SOL     OW27328   4.017   1.592  16.044 -0.5184 -0.6885  0.6819
 5231SOL    HW127329   4.079   1.537  15.996 -2.0040 -0.0209 -1.9515
 5231SOL    HW227330   3.942   1.595  15.985 -0.3096 -1.1626  0.3913
 5232SOL     OW27331   0.417   1.233  11.932 -0.6028  0.3238 -0.2005
 5232SOL    HW127332   0.386   1.314  11.973 -0.3704  0.1287  0.3549
 5232SOL    HW227333   0.358   1.163  11.958 -1.0225  0.5594 -0.5152
 5233SOL     OW27334   3.353   2.637   6.405 -0.5540 -0.2827  0.3247
 5233SOL    HW127335   3.428   2.697   6.407  0.9793 -2.2336  0.6560
 5233SOL    HW227336   3.324   2.639   6.496 -0.5446 -1.3831  0.3511
 5234SOL     OW27337   1.488   4.270   7.681  0.0792 -0.0875 -0.0075
 5234SOL    HW127338   1.494   4.250   7.587  0.2720 -0.1587  0.0197
 5234SOL    HW227339   1.407   4.226   7.707 -0.4181  0.6552 -0.2947
 5235SOL     OW27340   4.083   3.722  10.629  0.2819  0.2549 -0.2982
 5235SOL    HW127341   4.134   3.643  10.647 -0.7901 -0.4596 -0.4105
 5235SOL    HW227342   3.997   3.680  10.627  1.6961 -2.7143  0.1196
 5236SOL     OW27343   1.603   1.249  11.191  0.7276 -0.0035 -0.1911
 5236SOL    HW127344   1.582   1.168  11.145  0.7731  0.0981 -0.3889
 5236SOL    HW227345   1.691   1.234  11.227  0.8499  1.7912  0.2483
 5237SOL     OW27346   2.513   1.967   5.750 -0.1952  0.0220  0.2453
 5237SOL    HW127347   2.505   1.966   5.655  1.5617 -2.5649  0.1390
 5237SOL    HW227348   2.431   2.009   5.777 -1.5818 -2.9917  0.6679
 5238SOL     OW27349   4.013   0.047   3.713  0.0278  0.0699 -0.1710
 5238SOL    HW127350   4.034   0.037   3.806 -0.0768 -1.8199 -0.3484
 5238SOL    HW227351   4.029   4.692   3.681  0.3184 -0.3571  1.1811
 5239SOL     OW27352   1.853   3.668   8.728  0.3326 -0.6677 -0.3817
 5239SOL    HW127353   1.941   3.631   8.736  0.3613 -0.8122 -1.3913
 5239SOL    HW227354   1.847   3.672   8.632  2.5290  0.0611 -0.4829
 5240SOL     OW27355   2.868   2.366  11.367 -0.3468  0.1731 -0.0496
 5240SOL    HW127356   2.940   2.400  11.314  0.1095  2.4071  1.9940
 5240SOL    HW227357   2.849   2.444  11.420 -0.2084 -0.2410  0.6111
 5241SOL     OW27358   1.498   3.324   8.229 -0.3532  0.4161 -0.3419
 5241SOL    HW127359   1.497   3.381   8.306 -0.8383  1.7126 -1.2898
 5241SOL    HW227360   1.512   3.397   8.168 -0.3647  0.1578 -0.6516
 5242SOL     OW27361   2.827   0.001   3.140  0.1269  0.4528  0.3658
 5242SOL    HW127362   2.911   4.700   3.112 -0.2932 -1.3256  1.3606
 5242SOL    HW227363   2.816   4.697   3.227  1.2292  1.2481  0.8564
 5243SOL     OW27364   2.586   2.887   7.539 -0.5274  0.2070  0.2623
 5243SOL    HW127365   2.593   2.872   7.445 -0.1061  0.2901  0.2812
 5243SOL    HW227366   2.627   2.806   7.570 -0.1039  0.4788  0.4075
 5244SOL     OW27367   2.551   2.957   6.080 -0.0642  0.5098  0.1867
 5244SOL    HW127368   2.546   2.933   6.172  0.8951 -1.3521 -0.2490
 5244SOL    HW227369   2.592   2.891   6.025 -1.6025 -2.4324  2.6232
 5245SOL     OW27370   2.446   1.851  15.843  0.0208 -0.4827 -0.0551
 5245SOL    HW127371   2.362   1.884  15.874 -0.2036 -0.6359 -0.4948
 5245SOL    HW227372   2.440   1.873  15.750 -1.2149 -0.9950 -0.0894
 5246SOL     OW27373   1.440   1.372  10.442  0.5616 -0.6086  0.1957
 5246SOL    HW127374   1.386   1.451  10.454 -0.2118 -1.1816  0.5272
 5246SOL    HW227375   1.529   1.404  10.458  0.9171 -2.1133  1.1823
 5247SOL     OW27376   1.103   4.694  16.478 -0.4603  0.1314  0.0042
 5247SOL    HW127377   1.168   4.628  16.503  0.7902  1.5462  0.4512
 5247SOL    HW227378   1.155   0.039  16.464 -0.4094 -0.4985 -3.5156
 5248SOL     OW27379   2.622   3.759   4.821  0.2602  0.2099 -0.0079
 5248SOL    HW127380   2.557   3.697   4.855  2.5914 -1.6785  1.0019
 5248SOL    HW227381   2.702   3.706   4.821  1.4224  1.9863  0.2293
 5249SOL     OW27382   2.590   3.120  17.274  0.3796  0.2169  0.0098
 5249SOL    HW127383   2.640   3.063  17.333 -0.0466  0.6174  0.7521
 5249SOL    HW227384   2.545   3.172  17.340  1.6636  0.7521  0.4553
 5250SOL     OW27385   4.108   3.913  10.823 -0.4258 -0.1696  0.0205
 5250SOL    HW127386   4.111   3.840  10.885  0.9122  1.6571  2.1011
 5250SOL    HW227387   4.091   3.860  10.745 -0.1284 -1.0036  0.5112
 5251SOL     OW27388   1.392   1.877   5.760  0.2336  0.1581  0.3994
 5251SOL    HW127389   1.320   1.841   5.709 -1.3876 -0.8261  3.3908
 5251SOL    HW227390   1.462   1.816   5.736  0.6240 -0.0249  2.0000
 5252SOL     OW27391   1.464   3.069   5.375  0.5015  0.6891  0.5618
 5252SOL    HW127392   1.371   3.052   5.388  0.6723  0.7423  1.8807
 5252SOL    HW227393   1.458   3.116   5.292  0.6599  1.2999  0.8944
 5253SOL     OW27394   3.048   1.092   5.986  0.1953 -0.1506  0.1002
 5253SOL    HW127395   3.106   1.054   6.052 -1.5570 -1.7828  0.6850
 5253SOL    HW227396   3.068   1.022   5.923  2.0216  0.6188 -0.1767
 5254SOL     OW27397   0.559   3.717   0.846  0.1584  0.1838 -0.3105
 5254SOL    HW127398   0.636   3.747   0.894 -0.0396  1.4875 -0.8042
 5254SOL    HW227399   0.600   3.693   0.763 -0.3286 -3.3031  0.4400
 5255SOL     OW27400   2.750   2.346   2.266 -0.5722  0.0048  0.0857
 5255SOL    HW127401   2.704   2.430   2.277 -2.4833 -1.1831  1.1196
 5255SOL    HW227402   2.715   2.332   2.178  0.2022 -0.0769 -0.2075
 5256SOL     OW27403   0.276   1.916   2.050 -0.0672  0.3217 -0.0456
 5256SOL    HW127404   0.228   1.915   2.133  1.4139 -0.8550  0.7989
 5256SOL    HW227405   0.236   1.849   1.993  1.1417 -0.1965 -0.2878
 5257SOL     OW27406   3.951   0.516   7.976 -0.5370  0.0018  0.4006
 5257SOL    HW127407   3.928   0.560   7.894  0.9522  1.1101  0.5754
 5257SOL    HW227408   3.917   0.431   7.946 -1.9371  0.6218  0.2138
 5258SOL     OW27409   0.278   3.108  15.707 -0.0059 -0.7248  0.3317
 5258SOL    HW127410   0.235   3.023  15.705 -0.3766 -0.4163 -3.5236
 5258SOL    HW227411   0.351   3.092  15.648 -0.9760 -0.8197 -0.8296
 5259SOL     OW27412   1.934   2.397   9.251 -0.3292 -0.0405 -0.3024
 5259SOL    HW127413   1.993   2.452   9.303 -1.7422 -0.1111  1.3591
 5259SOL    HW227414   1.988   2.320   9.236  0.3409  0.2986  0.3596
 5260SOL     OW27415   2.729   0.575   5.861 -0.6266 -0.5846  0.3098
 5260SOL    HW127416   2.748   0.517   5.935 -0.7700  0.9287  1.5130
 5260SOL    HW227417   2.684   0.507   5.810 -1.8294 -0.4132  1.1337
 5261SOL     OW27418   3.929   1.971  16.910 -0.1213  0.3413 -0.3050
 5261SOL    HW127419   3.876   1.946  16.985  0.6009  0.9262  0.3986
 5261SOL    HW227420   3.877   1.936  16.837  0.0504  1.6786 -1.0696
 5262SOL     OW27421   2.716   1.250   6.953 -0.2580  0.7017 -0.4288
 5262SOL    HW127422   2.736   1.338   6.921 -0.8321 -0.2285 -3.3845
 5262SOL    HW227423   2.696   1.269   7.044  0.7516 -0.5086  0.0384
 5263SOL     OW27424   2.774   4.573  10.328 -0.0229 -0.2611 -0.4607
 5263SOL    HW127425   2.804   4.508  10.264  1.1425 -0.4940  0.3087
 5263SOL    HW227426   2.804   4.526  10.407 -0.4076  0.2828  0.0108
 5264SOL     OW27427   2.090   4.104  14.080  0.1328 -0.1777 -0.1986
 5264SOL    HW127428   2.161   4.070  14.135  1.0889  0.1017 -1.2571
 5264SOL    HW227429   2.035   4.145  14.147 -1.0162 -3.2106  0.7188
 5265SOL     OW27430   2.713   3.314   8.097  0.7014 -0.1272 -0.2908
 5265SOL    HW127431   2.667   3.357   8.025  1.2445  0.9689  0.0206
 5265SOL    HW227432   2.737   3.387   8.155 -2.5284 -0.8783  1.9958
 5266SOL     OW27433   3.121   0.665   9.056 -0.1275  0.1718 -0.0262
 5266SOL    HW127434   3.204   0.637   9.017  1.4053  1.1317  2.4858
 5266SOL    HW227435   3.146   0.722   9.129  0.6296 -1.4062  0.9423
 5267SOL     OW27436   3.920   2.109   5.351  0.0980 -0.0287 -0.3111
 5267SOL    HW127437   3.966   2.112   5.435  0.0269  1.8089 -0.3399
 5267SOL    HW227438   3.953   2.190   5.311 -1.3499  1.0687  0.7189
 5268SOL     OW27439   2.026   3.805   0.624 -0.5002 -0.6378  0.0222
 5268SOL    HW127440   2.039   3.710   0.630  0.3962 -0.5247  0.0058
 5268SOL    HW227441   1.959   3.825   0.689  0.6312  1.4752  0.5465
 5269SOL     OW27442   1.683   2.431   9.321  0.6211 -0.5382  0.1762
 5269SOL    HW127443   1.726   2.384   9.392 -1.0965 -0.2633  1.3983
 5269SOL    HW227444   1.764   2.436   9.271  1.4131 -0.0073  1.4997
 5270SOL     OW27445   3.557   0.399  10.569 -0.0099 -0.1774  0.2276
 5270SOL    HW127446   3.639   0.446  10.552  0.3949 -1.2377 -0.7496
 5270SOL    HW227447   3.587   0.352  10.647 -0.3251 -1.0834 -0.1974
 5271SOL     OW27448   0.477   3.609   7.545 -0.8189  0.5774  0.2414
 5271SOL    HW127449   0.560   3.627   7.501 -0.7795  1.4272  0.6579
 5271SOL    HW227450   0.499   3.521   7.576  0.6343 -0.1502 -2.8528
 5272SOL     OW27451   3.523   2.567   5.253  0.3356  0.2256  0.0834
 5272SOL    HW127452   3.597   2.577   5.193 -0.6870  2.4972 -0.8413
 5272SOL    HW227453   3.553   2.627   5.321  0.3872  0.3163 -0.0198
 5273SOL     OW27454   0.016   4.620   6.482 -0.2483  0.4731 -0.0893
 5273SOL    HW127455   0.088   4.653   6.428 -0.5884 -0.2996 -0.9892
 5273SOL    HW227456   4.699   4.700   6.472 -0.2832  0.6157  1.2315
 5274SOL     OW27457   1.884   2.508   7.990  0.1943  0.4189  0.9470
 5274SOL    HW127458   1.923   2.595   7.988  0.4194  0.3065  0.5917
 5274SOL    HW227459   1.801   2.528   7.948  0.0240  1.6760  1.8693
 5275SOL     OW27460   2.470   1.938   1.897  0.6374 -0.2586 -0.1898
 5275SOL    HW127461   2.538   1.993   1.858  0.3023  0.7657  0.6721
 5275SOL    HW227462   2.394   1.973   1.850  3.3155  2.2346 -2.7022
 5276SOL     OW27463   4.350   0.715   7.066 -0.4515 -0.2136  0.4456
 5276SOL    HW127464   4.370   0.802   7.101 -1.0611 -0.1476  0.6257
 5276SOL    HW227465   4.282   0.684   7.126 -0.6770  0.4279  0.5188
 5277SOL     OW27466   1.045   0.168   3.989  0.4810  0.5505 -0.4656
 5277SOL    HW127467   1.038   0.145   3.896 -0.0546 -0.1756 -0.2489
 5277SOL    HW227468   0.963   0.132   4.023  1.2592  0.4548  1.2686
 5278SOL     OW27469   0.426   4.524   1.447  0.1813  0.3161  0.3089
 5278SOL    HW127470   0.357   4.531   1.513  0.4053  2.4948  0.3288
 5278SOL    HW227471   0.394   4.583   1.378 -0.4168 -0.9167 -0.4603
 5279SOL     OW27472   1.654   3.861  10.505  0.4146  0.0496 -0.7721
 5279SOL    HW127473   1.681   3.843  10.415 -0.3572  2.4055 -1.4580
 5279SOL    HW227474   1.559   3.864  10.502  0.3545 -2.4809 -1.8357
 5280SOL     OW27475   4.383   1.703  15.251 -0.2174  0.1391 -0.3231
 5280SOL    HW127476   4.464   1.752  15.232 -0.3015 -0.1402 -1.4065
 5280SOL    HW227477   4.330   1.770  15.294  0.2603 -0.3154  0.9593
 5281SOL     OW27478   0.242   4.355   3.062 -1.0725 -0.2775  0.1704
 5281SOL    HW127479   0.254   4.425   2.998 -1.6558 -1.0999 -0.8357
 5281SOL    HW227480   0.159   4.314   3.036 -2.0600 -0.3589  3.4904
 5282SOL     OW27481   1.096   3.451   8.754 -0.2566  0.0726 -0.2954
 5282SOL    HW127482   1.108   3.544   8.737 -1.6304  0.4719  0.9742
 5282SOL    HW227483   1.182   3.420   8.725 -1.0960 -1.8433 -0.7557
 5283SOL     OW27484   1.270   1.159   3.411 -0.1862 -0.3546 -0.0796
 5283SOL    HW127485   1.271   1.255   3.408  0.1699 -0.4203 -2.0280
 5283SOL    HW227486   1.206   1.135   3.478 -1.0646  0.5916 -0.5758
 5284SOL     OW27487   3.353   0.339   3.848  0.0489 -0.2815  0.6917
 5284SOL    HW127488   3.413   0.406   3.815 -0.9547  0.0453 -0.4492
 5284SOL    HW227489   3.415   0.268   3.831 -1.0709 -0.8763 -0.9418
 5285SOL     OW27490   2.671   3.191   7.347 -0.5708  0.0917  0.0422
 5285SOL    HW127491   2.656   3.162   7.437 -0.8454  2.7918  0.8366
 5285SOL    HW227492   2.592   3.165   7.300  0.3842  0.0907 -1.5714
 5286SOL     OW27493   1.304   0.444  17.415 -0.6309 -0.2058  0.5425
 5286SOL    HW127494   1.269   0.402  17.337 -1.1678  0.6490  0.3205
 5286SOL    HW227495   1.224   0.487  17.445 -0.6626 -0.9189  1.5111
 5287SOL     OW27496   1.889   3.180   7.012  0.2111  0.4770 -0.5532
 5287SOL    HW127497   1.918   3.250   7.070  2.0487  1.0790 -2.1797
 5287SOL    HW227498   1.970   3.168   6.962 -0.3668 -1.8703 -0.9499
 5288SOL     OW27499   3.674   0.586  12.663 -0.3921  0.3014  0.0654
 5288SOL    HW127500   3.726   0.514  12.626 -1.0535 -0.4018  0.4892
 5288SOL    HW227501   3.742   0.651  12.648  0.7296 -0.8452  0.1477
 5289SOL     OW27502   4.617   2.010   3.701  0.0940  0.4735 -1.0532
 5289SOL    HW127503   4.585   1.988   3.788  0.6373  2.4886 -0.3456
 5289SOL    HW227504   4.667   1.931   3.677 -0.2865 -0.1635  0.2789
 5290SOL     OW27505   4.088   2.860   6.026 -0.1565  0.1658  0.4247
 5290SOL    HW127506   4.090   2.937   5.970  0.3415 -0.7842 -0.8635
 5290SOL    HW227507   4.147   2.896   6.093 -0.0421 -0.3661  0.6135
 5291SOL     OW27508   1.876   0.791   7.951 -0.2781  0.1508 -0.0052
 5291SOL    HW127509   1.899   0.874   7.909  1.1205  0.5408  1.5211
 5291SOL    HW227510   1.956   0.774   8.000  0.2359 -0.9614 -1.2418
 5292SOL     OW27511   3.506   0.405  13.535  0.0695  0.4696  0.2519
 5292SOL    HW127512   3.556   0.432  13.613  0.7988 -2.1920  0.6913
 5292SOL    HW227513   3.500   0.489  13.488 -0.3964  0.9159  1.1067
 5293SOL     OW27514   4.372   3.260   2.023  0.0039 -0.0875 -0.2138
 5293SOL    HW127515   4.357   3.342   2.069 -0.7788 -0.1389 -0.3756
 5293SOL    HW227516   4.285   3.225   2.005  0.7253 -0.4381 -3.0717
 5294SOL     OW27517   1.306   1.476   3.323 -0.2043 -0.0621  0.5767
 5294SOL    HW127518   1.372   1.524   3.272 -0.7760 -0.6805 -0.7562
 5294SOL    HW227519   1.331   1.488   3.414  1.9430  1.2331 -0.1741
 5295SOL     OW27520   0.023   4.499   3.634  0.2683 -0.4647  0.5491
 5295SOL    HW127521   0.101   4.512   3.581 -1.9614 -1.5777 -2.9812
 5295SOL    HW227522   0.033   4.404   3.647 -2.9815 -0.9128 -0.2436
 5296SOL     OW27523   4.239   2.716  10.650 -0.2880  0.1422  0.3473
 5296SOL    HW127524   4.254   2.626  10.678  2.3915 -0.2506 -2.3405
 5296SOL    HW227525   4.216   2.704  10.558 -2.4047  1.7522  0.6553
 5297SOL     OW27526   0.249   2.181   5.771 -0.6238 -0.7591  0.3831
 5297SOL    HW127527   0.204   2.205   5.691  0.1373  0.3091  0.2677
 5297SOL    HW227528   0.273   2.259   5.822  0.2661 -1.7724  1.5046
 5298SOL     OW27529   0.387   1.504   4.146  0.5987  0.1378  0.0194
 5298SOL    HW127530   0.330   1.471   4.076 -0.8630 -2.3503  2.3822
 5298SOL    HW227531   0.338   1.584   4.166  0.0410 -0.1893 -0.0215
 5299SOL     OW27532   3.165   1.758   1.581 -0.3557  0.0460  0.0764
 5299SOL    HW127533   3.103   1.739   1.511 -1.2057 -0.9595  1.1060
 5299SOL    HW227534   3.238   1.699   1.559 -0.3275  0.0945  0.0370
 5300SOL     OW27535   0.247   3.367   0.276  0.1547 -0.4094  0.0533
 5300SOL    HW127536   0.177   3.369   0.211 -0.9137  1.6059  1.2566
 5300SOL    HW227537   0.226   3.444   0.328 -1.6040 -0.4690 -0.5851
 5301SOL     OW27538   4.519   1.092   2.724  0.7760  0.4889 -0.8460
 5301SOL    HW127539   4.446   1.083   2.663 -0.7929 -0.5424  1.2391
 5301SOL    HW227540   4.561   1.175   2.698 -1.5491  2.1164  0.6514
 5302SOL     OW27541   2.118   4.115  11.724  0.1954 -0.3267  0.6672
 5302SOL    HW127542   2.028   4.147  11.723 -0.6750 -2.7298  1.7757
 5302SOL    HW227543   2.102   4.040  11.782  0.8977  0.8248  2.3562
 5303SOL     OW27544   2.379   0.998   6.200  0.4139 -0.1691 -0.2609
 5303SOL    HW127545   2.459   1.041   6.230  1.8469 -0.9869 -2.9400
 5303SOL    HW227546   2.404   0.948   6.122 -0.9474 -0.1539 -0.6988
 5304SOL     OW27547   3.005   3.289   2.790 -0.4818 -0.0184 -0.4029
 5304SOL    HW127548   3.051   3.251   2.715 -0.8979 -1.1370 -0.1026
 5304SOL    HW227549   2.969   3.369   2.753  1.8472  1.4478  0.5287
 5305SOL     OW27550   3.074   3.404   8.297 -0.2618  0.3798 -0.7998
 5305SOL    HW127551   3.067   3.453   8.380 -1.9926  0.3571 -0.9151
 5305SOL    HW227552   2.987   3.421   8.261 -1.4323  1.7486  2.6295
 5306SOL     OW27553   4.020   3.542  11.625  0.0127  0.2116 -0.2512
 5306SOL    HW127554   3.974   3.458  11.621  0.5311 -0.1922  2.2264
 5306SOL    HW227555   3.951   3.609  11.615 -1.1894 -0.8673  0.8218
 5307SOL     OW27556   0.884   3.365   7.501  0.2678  0.0854  0.3930
 5307SOL    HW127557   0.899   3.423   7.426 -1.8782 -0.4121 -0.4280
 5307SOL    HW227558   0.865   3.430   7.568  0.3483 -1.3711  1.8274
 5308SOL     OW27559   3.267   2.944   4.594 -0.3315  0.4625 -0.0525
 5308SOL    HW127560   3.283   2.854   4.621 -2.4085 -0.3485 -1.4848
 5308SOL    HW227561   3.194   2.967   4.652 -0.5926 -2.2348  0.6531
 5309SOL     OW27562   1.402   1.965   0.323  0.5951  0.5185 -0.6136
 5309SOL    HW127563   1.452   1.883   0.318  0.7077  0.5036  0.9639
 5309SOL    HW227564   1.377   1.988   0.233 -0.1009 -0.1581 -0.5921
 5310SOL     OW27565   0.832   2.767   5.065  0.1153  0.4988 -0.1896
 5310SOL    HW127566   0.747   2.805   5.089 -0.0209 -0.2395  0.4956
 5310SOL    HW227567   0.875   2.845   5.032  2.8096 -0.7993  0.3028
 5311SOL     OW27568   4.039   2.690   8.340 -0.1077 -0.1932  0.8497
 5311SOL    HW127569   4.028   2.763   8.402  2.5957  0.9307 -0.0124
 5311SOL    HW227570   4.079   2.740   8.269 -0.7075 -0.6224  0.2126
 5312SOL     OW27571   1.222   0.112   3.172 -0.1077 -0.0080  0.0959
 5312SOL    HW127572   1.281   0.118   3.097 -1.7789 -0.6665 -1.2557
 5312SOL    HW227573   1.171   0.038   3.139 -1.9185 -0.0985  3.0986
 5313SOL     OW27574   2.931   4.616   5.771  0.1200  0.0690 -0.1713
 5313SOL    HW127575   2.890   4.531   5.786  0.4861 -0.1381 -0.3485
 5313SOL    HW227576   2.973   4.636   5.855  1.3438 -1.7483 -0.3568
 5314SOL     OW27577   4.150   0.221   2.752  0.3058  0.1540  0.4129
 5314SOL    HW127578   4.242   0.199   2.767 -0.3437 -2.2297  0.7952
 5314SOL    HW227579   4.163   0.305   2.707  0.5270 -0.1755 -0.1387
 5315SOL     OW27580   3.514   1.903   2.603 -0.1205 -0.4547 -0.1325
 5315SOL    HW127581   3.596   1.855   2.589 -0.3059 -0.3059 -1.7956
 5315SOL    HW227582   3.483   1.858   2.681 -0.5569 -1.0598 -0.6525
 5316SOL     OW27583   0.136   1.418   3.555 -0.1590  0.2175 -0.1166
 5316SOL    HW127584   0.048   1.395   3.526  0.5630 -2.3382 -0.2993
 5316SOL    HW227585   0.122   1.506   3.591 -1.5597  0.5584 -1.5251
 5317SOL     OW27586   1.250   4.540  17.238  0.1265 -0.5841 -0.2318
 5317SOL    HW127587   1.234   4.625  17.197  0.5476  0.2771  1.4284
 5317SOL    HW227588   1.239   4.560  17.330 -0.1192 -1.4843 -0.0630
 5318SOL     OW27589   2.868   3.035   6.264 -0.6578  0.5363 -0.1323
 5318SOL    HW127590   2.906   3.119   6.238  1.4872 -0.5010 -0.3944
 5318SOL    HW227591   2.784   3.060   6.302 -0.7397 -0.0435  0.0596
 5319SOL     OW27592   2.105   1.613   3.962 -0.0340  0.4886  0.3466
 5319SOL    HW127593   2.069   1.554   3.896 -0.6447 -0.5660  1.6177
 5319SOL    HW227594   2.056   1.579   4.038  0.4596 -1.0609 -0.0338
 5320SOL     OW27595   4.274   1.461  13.917  0.4816  0.1116 -0.4938
 5320SOL    HW127596   4.315   1.504  13.842  1.3061  2.8598  1.5174
 5320SOL    HW227597   4.323   1.511  13.982  0.9768  3.6203 -3.5409
 5321SOL     OW27598   0.365   1.367   7.541  0.3081 -0.1727 -0.8563
 5321SOL    HW127599   0.399   1.431   7.604 -0.6889 -1.4109  0.9299
 5321SOL    HW227600   0.272   1.356   7.559 -0.0603  0.9570 -2.1153
 5322SOL     OW27601   1.041   1.293   5.534  0.0874 -0.6332  0.3320
 5322SOL    HW127602   1.010   1.324   5.448  2.8902  1.2528 -0.0044
 5322SOL    HW227603   1.034   1.375   5.583  1.9673 -0.0466 -0.3756
 5323SOL     OW27604   2.527   0.018   8.651 -0.3550 -0.5643 -0.4393
 5323SOL    HW127605   2.462   0.046   8.715 -1.1672 -1.5203 -0.8464
 5323SOL    HW227606   2.582   4.692   8.701  0.3643 -0.2791 -0.8966
 5324SOL     OW27607   0.890   2.331   1.448  0.0565  0.1575 -0.2284
 5324SOL    HW127608   0.932   2.260   1.401  0.3481 -1.1026  1.9440
 5324SOL    HW227609   0.892   2.288   1.533  4.6753  0.1812 -0.3014
 5325SOL     OW27610   3.161   3.423  16.467 -0.0550  0.3043  0.0928
 5325SOL    HW127611   3.197   3.494  16.414 -1.6361 -0.0559 -1.4810
 5325SOL    HW227612   3.140   3.358  16.399 -1.1816 -0.3079  1.0303
 5326SOL     OW27613   1.341   1.171   4.647  0.1618  0.4062 -0.7619
 5326SOL    HW127614   1.399   1.207   4.713 -1.4807 -0.8329  1.3525
 5326SOL    HW227615   1.280   1.123   4.702  0.0925 -1.5432 -2.5151
 5327SOL     OW27616   0.545   1.838   7.311 -0.1719  0.5720 -0.1186
 5327SOL    HW127617   0.582   1.786   7.382 -0.1989 -0.2000 -0.6703
 5327SOL    HW227618   0.473   1.883   7.354 -2.2217 -3.5373  0.7642
 5328SOL     OW27619   4.552   3.679   7.804  0.2164 -0.2162  0.2764
 5328SOL    HW127620   4.637   3.700   7.842  1.2006  0.5160 -2.3292
 5328SOL    HW227621   4.589   3.628   7.731 -0.7670  0.0358 -0.3925
 5329SOL     OW27622   0.721   3.383  15.004 -0.5134  0.2342  0.8306
 5329SOL    HW127623   0.655   3.315  15.016 -1.1413  0.9130  1.2140
 5329SOL    HW227624   0.658   3.446  14.969 -0.6227  0.2059  0.9753
 5330SOL     OW27625   2.460   1.179   7.681  0.5190  0.5546 -0.0137
 5330SOL    HW127626   2.414   1.202   7.762 -0.7694  0.0114 -0.6046
 5330SOL    HW227627   2.393   1.190   7.614 -0.6258 -0.6749  0.9268
 5331SOL     OW27628   4.008   1.791  11.875  0.2807  0.9829 -0.4589
 5331SOL    HW127629   3.999   1.831  11.789 -0.9892 -0.4892 -1.0202
 5331SOL    HW227630   3.943   1.723  11.857  2.1957 -1.2487  1.0323
 5332SOL     OW27631   2.815   1.748   1.238 -0.2204 -0.4490  0.4555
 5332SOL    HW127632   2.789   1.840   1.234  3.3264  0.5980  0.9074
 5332SOL    HW227633   2.736   1.701   1.213 -0.3501 -0.6254  1.1940
 5333SOL     OW27634   0.950   3.380   3.602 -0.2566 -0.1083  0.0429
 5333SOL    HW127635   0.925   3.428   3.681 -0.8556  0.2647 -0.3687
 5333SOL    HW227636   0.986   3.298   3.635  0.2188  0.2037  0.2894
 5334SOL     OW27637   0.150   0.971   7.705  0.4031 -0.0177  0.4293
 5334SOL    HW127638   0.142   0.957   7.611  0.5165  0.0180  0.4145
 5334SOL    HW227639   0.215   0.904   7.726 -2.2254 -2.3325  1.0992
 5335SOL     OW27640   3.126   4.209  17.461  0.2685  0.7043  0.0307
 5335SOL    HW127641   3.034   4.212  17.490  0.8559  1.4530  1.8407
 5335SOL    HW227642   3.149   4.299  17.484  0.1624  0.2990  1.7356
 5336SOL     OW27643   1.072   1.446   8.147 -0.4511  0.2073  0.1387
 5336SOL    HW127644   0.987   1.476   8.115 -0.4458  1.2671  1.1234
 5336SOL    HW227645   1.094   1.514   8.210  1.3006  1.1756 -1.5226
 5337SOL     OW27646   2.102   1.218   5.433 -0.4402 -0.1751 -0.3933
 5337SOL    HW127647   2.075   1.222   5.524 -0.4884  0.8448 -0.4497
 5337SOL    HW227648   2.193   1.188   5.438 -0.0558  0.9028 -0.7493
 5338SOL     OW27649   3.847   1.442   7.772  1.0299 -0.1876 -0.0595
 5338SOL    HW127650   3.925   1.485   7.739  1.3890 -0.4888  0.3954
 5338SOL    HW227651   3.877   1.375   7.834 -0.2490 -1.7361 -1.1119
 5339SOL     OW27652   1.791   3.958   7.941 -0.0125 -0.1353 -0.2523
 5339SOL    HW127653   1.857   4.027   7.938  0.7317 -0.9324 -2.4223
 5339SOL    HW227654   1.731   4.024   7.975  0.3544  0.1318 -0.1241
 5340SOL     OW27655   1.846   3.237   3.248 -0.1586  0.4784  0.0436
 5340SOL    HW127656   1.757   3.202   3.251 -0.1791  0.3892 -1.5853
 5340SOL    HW227657   1.893   3.172   3.300 -1.1090 -0.5235 -0.3434
 5341SOL     OW27658   4.361   2.577   8.612 -0.1191 -0.2463 -0.0324
 5341SOL    HW127659   4.432   2.622   8.565 -0.5089 -0.1684 -0.5395
 5341SOL    HW227660   4.399   2.494   8.639 -1.1851 -0.3278  1.1477
 5342SOL     OW27661   0.726   4.015  16.467 -0.0644 -0.7632 -0.2855
 5342SOL    HW127662   0.734   4.110  16.479 -1.0796 -0.8759  1.3341
 5342SOL    HW227663   0.815   3.982  16.473  0.1516 -0.2420 -0.6503
 5343SOL     OW27664   0.529   2.112   9.514 -0.4633  0.0286 -0.1529
 5343SOL    HW127665   0.507   2.142   9.426  0.0777  0.8632 -0.0027
 5343SOL    HW227666   0.622   2.134   9.514 -0.7343  1.1387  1.5701
 5344SOL     OW27667   3.360   1.169  14.924  0.2095  0.0508  0.0073
 5344SOL    HW127668   3.316   1.250  14.948  1.2282  0.6285 -0.0806
 5344SOL    HW227669   3.366   1.132  15.012 -1.0368 -1.3017 -0.4670
 5345SOL     OW27670   4.653   2.996   5.405  0.4710  0.1695  0.2995
 5345SOL    HW127671   4.724   3.061   5.398  0.2463  0.1831 -2.1161
 5345SOL    HW227672   4.570   3.042   5.414 -2.2549 -5.3954  3.0291
 5346SOL     OW27673   1.428   4.109   8.686  0.7769  0.1380 -0.2038
 5346SOL    HW127674   1.342   4.105   8.728  0.8732 -1.8868 -0.1937
 5346SOL    HW227675   1.441   4.202   8.672 -1.4200  0.5027  0.0917
 5347SOL     OW27676   1.546   1.115   6.460  0.3938  1.2185 -0.4543
 5347SOL    HW127677   1.630   1.125   6.504 -0.5351  1.8786  1.1391
 5347SOL    HW227678   1.574   1.130   6.369  1.6149  2.0129  0.0512
 5348SOL     OW27679   3.437   1.794   4.627 -0.4071  0.2501  0.4951
 5348SOL    HW127680   3.440   1.705   4.659 -0.0981 -0.8074 -2.4170
 5348SOL    HW227681   3.494   1.780   4.551 -1.9657 -0.4465 -0.5447
 5349SOL     OW27682   3.684   3.693   3.518  0.4805 -0.8266 -0.0352
 5349SOL    HW127683   3.601   3.673   3.474  0.4376 -2.1641  0.6687
 5349SOL    HW227684   3.652   3.752   3.586 -1.2334 -0.9185 -0.7474
 5350SOL     OW27685   1.314   2.453   1.231  0.4435  0.4857 -0.2356
 5350SOL    HW127686   1.398   2.406   1.229  0.0795 -0.1101 -1.0691
 5350SOL    HW227687   1.292   2.444   1.139  2.1466  0.9120 -0.6913
 5351SOL     OW27688   0.269   3.359  15.824 -0.6688 -0.6425  0.0657
 5351SOL    HW127689   0.237   3.284  15.875  4.1450 -2.0354  0.9806
 5351SOL    HW227690   0.296   3.319  15.742  0.6205  1.1706 -0.3905
 5352SOL     OW27691   0.506   3.874   3.870 -0.3053  0.3353  0.7593
 5352SOL    HW127692   0.533   3.932   3.799 -0.8973 -2.2593 -1.5978
 5352SOL    HW227693   0.488   3.955   3.919 -0.0987 -0.2012  1.7198
 5353SOL     OW27694   3.734   1.278   8.055 -0.7342 -0.1723 -0.1143
 5353SOL    HW127695   3.771   1.361   8.084 -0.2870 -0.6728  0.7680
 5353SOL    HW227696   3.656   1.307   8.008 -0.1949  1.7085  0.1567
 5354SOL     OW27697   4.733   2.623   1.781  0.0888  0.3989 -0.1918
 5354SOL    HW127698   0.041   2.608   1.865 -0.2320  1.8478  0.2358
 5354SOL    HW227699   4.655   2.569   1.794  0.6245 -0.9958 -2.8259
 5355SOL     OW27700   3.455   3.160   2.917 -0.3631  0.3871 -0.1475
 5355SOL    HW127701   3.420   3.140   3.004  0.0247  2.5473  0.5095
 5355SOL    HW227702   3.398   3.099   2.870 -0.9624 -0.5049  1.7274
 5356SOL     OW27703   2.611   3.963  16.138 -0.0591  0.4252 -1.1939
 5356SOL    HW127704   2.702   3.959  16.108  0.4031 -0.7054  0.3221
 5356SOL    HW227705   2.569   3.976  16.054 -0.8027  0.9191 -0.7398
 5357SOL     OW27706   3.795   2.318   5.166 -0.2281  0.9980 -0.1561
 5357SOL    HW127707   3.786   2.338   5.073  2.6510 -0.6111 -0.7692
 5357SOL    HW227708   3.726   2.252   5.179 -1.5188  2.2916 -0.3619
 5358SOL     OW27709   4.177   4.474   8.177 -0.0579 -0.5849  0.2187
 5358SOL    HW127710   4.175   4.446   8.269 -0.9744  1.5469  0.8517
 5358SOL    HW227711   4.212   4.563   8.181  0.2744 -0.7698  1.5000
 5359SOL     OW27712   2.326   4.611   1.701 -0.2791 -0.6601 -0.1393
 5359SOL    HW127713   2.338   4.522   1.669  3.0432 -0.0219 -0.6041
 5359SOL    HW227714   2.239   4.630   1.666 -1.1291  0.2916  2.4806
 5360SOL     OW27715   3.467   2.894   1.885  0.2956  0.3320  0.2866
 5360SOL    HW127716   3.541   2.940   1.924  1.3024 -0.6621 -0.4685
 5360SOL    HW227717   3.513   2.825   1.839 -3.4353 -1.9094 -0.0738
 5361SOL     OW27718   4.526   1.722   7.496  0.2950 -0.3082  0.5358
 5361SOL    HW127719   4.508   1.692   7.407 -2.4927  0.4609  0.8222
 5361SOL    HW227720   4.576   1.798   7.466 -0.0094 -0.8537 -1.3766
 5362SOL     OW27721   2.966   3.645   9.433  0.1996 -0.3493  0.0126
 5362SOL    HW127722   3.002   3.693   9.507 -0.3036 -0.2821  0.2153
 5362SOL    HW227723   2.894   3.590   9.465 -0.1688  0.4577  0.5684
 5363SOL     OW27724   0.991   3.747   7.892 -0.4205 -0.0888 -0.4298
 5363SOL    HW127725   1.002   3.842   7.887 -1.6269  0.1448  1.3163
 5363SOL    HW227726   0.896   3.740   7.881 -0.7411  1.2968  1.4161
 5364SOL     OW27727   0.264   3.634  12.062  0.5401 -1.1239 -0.3669
 5364SOL    HW127728   0.235   3.713  12.108  1.5664  0.3661 -2.2680
 5364SOL    HW227729   0.187   3.578  12.064 -0.0377 -0.2471  2.0502
 5365SOL     OW27730   2.868   3.640  14.020  0.0482  0.4576 -0.4648
 5365SOL    HW127731   2.909   3.722  13.993 -0.3548  0.7323 -0.2494
 5365SOL    HW227732   2.808   3.614  13.950 -0.0040  0.6709 -0.4977
 5366SOL     OW27733   1.377   0.850   4.405  0.3577  0.5081  0.7623
 5366SOL    HW127734   1.415   0.762   4.398  2.5375  1.5998 -1.2356
 5366SOL    HW227735   1.315   0.829   4.475 -1.6375  1.0559 -0.8555
 5367SOL     OW27736   0.993   2.877   2.121  0.5874 -0.2922  0.0770
 5367SOL    HW127737   0.973   2.803   2.064 -2.0271  0.0844  0.4747
 5367SOL    HW227738   0.967   2.950   2.064  1.6667  0.7153  0.8664
 5368SOL     OW27739   2.807   3.875   2.552  0.0538  0.2793  0.1426
 5368SOL    HW127740   2.719   3.837   2.557  0.9246 -1.7583 -0.0697
 5368SOL    HW227741   2.812   3.932   2.628 -2.3031 -0.0434  0.5366
 5369SOL     OW27742   4.466   2.067   8.673 -0.4007 -0.5190  0.1858
 5369SOL    HW127743   4.444   2.088   8.583 -0.6703 -0.7072  0.2076
 5369SOL    HW227744   4.381   2.046   8.712 -0.3402 -0.1851  0.4955
 5370SOL     OW27745   2.159   2.081  15.812  0.1115  0.5202  0.4676
 5370SOL    HW127746   2.113   2.161  15.835  4.3042  3.2013 -0.5409
 5370SOL    HW227747   2.170   2.060  15.905  2.0418  0.3325  0.1871
 5371SOL     OW27748   1.878   4.581   5.324 -0.5948  0.2133 -0.6243
 5371SOL    HW127749   1.882   4.670   5.359 -1.9529 -0.4902  1.2860
 5371SOL    HW227750   1.829   4.602   5.244  0.7215  0.5864 -1.3390
 5372SOL     OW27751   3.590   3.928   6.301  0.2197 -0.1454  0.0819
 5372SOL    HW127752   3.661   3.864   6.303  0.6715  0.4285  1.7666
 5372SOL    HW227753   3.642   3.991   6.252 -0.5830  0.4108 -0.0496
 5373SOL     OW27754   4.508   1.146   6.119 -0.0192  0.1250  0.2390
 5373SOL    HW127755   4.489   1.076   6.057 -0.0733  1.9238 -1.7510
 5373SOL    HW227756   4.439   1.141   6.185 -0.1095  0.0245  0.1358
 5374SOL     OW27757   4.042   1.498   2.576 -0.5726  0.2652 -0.4837
 5374SOL    HW127758   4.074   1.578   2.534  0.8895 -0.7550 -1.2961
 5374SOL    HW227759   3.998   1.533   2.653  1.4942 -3.9337  2.5700
 5375SOL     OW27760   0.031   3.796   5.159  0.4995 -0.0510  0.1229
 5375SOL    HW127761   0.029   3.712   5.114  0.4506  0.5172 -0.9606
 5375SOL    HW227762   0.119   3.833   5.152 -0.5778  2.3738 -0.6365
 5376SOL     OW27763   3.469   2.483  15.523 -0.0736 -0.6665 -0.4708
 5376SOL    HW127764   3.563   2.501  15.522  0.0630 -1.2974  0.6742
 5376SOL    HW227765   3.451   2.505  15.432 -2.3345  0.8201  0.3305
 5377SOL     OW27766   1.976   1.759   8.372  0.4491  0.4500 -0.7261
 5377SOL    HW127767   1.933   1.836   8.409  1.2349  1.6471 -2.2697
 5377SOL    HW227768   1.957   1.775   8.279 -1.1616 -0.5869 -0.5645
 5378SOL     OW27769   0.241   2.922  11.434  0.1264 -0.3119  0.2712
 5378SOL    HW127770   0.325   2.947  11.473 -1.2889  1.3158  2.2917
 5378SOL    HW227771   0.267   2.908  11.343  1.4714 -1.2927  0.7955
 5379SOL     OW27772   2.432   0.807   4.959  0.2523 -0.0367  0.1633
 5379SOL    HW127773   2.456   0.721   4.995  2.4996  0.3856 -0.3451
 5379SOL    HW227774   2.369   0.772   4.896  0.3231  3.0203 -1.5933
 5380SOL     OW27775   1.824   2.882  11.981  0.0394 -0.1945  0.0719
 5380SOL    HW127776   1.737   2.921  11.974  0.1050 -0.2462 -0.9462
 5380SOL    HW227777   1.796   2.798  12.016  0.4531  0.1756  1.3062
 5381SOL     OW27778   4.357   2.433  11.551  0.1188 -0.5554  0.2551
 5381SOL    HW127779   4.371   2.512  11.602 -0.1056  1.0774 -2.1955
 5381SOL    HW227780   4.448   2.403  11.543 -0.0951 -1.6868  2.2196
 5382SOL     OW27781   3.128   4.031   5.091  0.5109 -0.7208  0.3247
 5382SOL    HW127782   3.184   4.089   5.143  2.1769 -0.9845 -1.2095
 5382SOL    HW227783   3.163   4.041   5.003 -0.6148 -2.1641 -0.2760
 5383SOL     OW27784   3.268   1.095  16.168 -0.4310  0.1546 -0.3116
 5383SOL    HW127785   3.355   1.074  16.202 -0.1216  0.0679 -1.1736
 5383SOL    HW227786   3.224   1.143  16.239  0.9765  2.1125 -0.7534
 5384SOL     OW27787   1.830   1.363  10.689 -0.0953  0.1482  0.1625
 5384SOL    HW127788   1.845   1.353  10.783  0.0506  2.4139  0.3605
 5384SOL    HW227789   1.840   1.275  10.652 -0.6976  0.1894 -0.1035
 5385SOL     OW27790   2.476   3.440   1.329  0.1760  0.2647  0.2029
 5385SOL    HW127791   2.569   3.419   1.322 -0.1683 -0.9464 -0.7639
 5385SOL    HW227792   2.464   3.407   1.418  0.5135 -1.0419 -0.2407
 5386SOL     OW27793   4.467   0.041   4.737 -0.2914  0.0332 -0.9558
 5386SOL    HW127794   4.506   4.710   4.794 -3.6244 -0.2596  1.0304
 5386SOL    HW227795   4.397   0.072   4.794  1.3551 -0.0693  1.1051
 5387SOL     OW27796   1.468   4.221   7.423 -0.2705  0.3854  0.5307
 5387SOL    HW127797   1.390   4.274   7.407  0.1701 -0.0192 -2.9681
 5387SOL    HW227798   1.445   4.150   7.364  0.2102  1.8426 -1.4310
 5388SOL     OW27799   4.148   1.218  13.903 -0.0191  0.5250  0.0824
 5388SOL    HW127800   4.055   1.236  13.888  0.1428  0.3953 -1.0713
 5388SOL    HW227801   4.194   1.302  13.912  0.4558  0.3392 -0.6060
 5389SOL     OW27802   0.679   2.584   7.163  0.1023 -0.7960  0.1383
 5389SOL    HW127803   0.616   2.517   7.136  1.7437 -1.4838 -2.0258
 5389SOL    HW227804   0.630   2.666   7.153  2.0096  0.4746  1.2522
 5390SOL     OW27805   3.699   4.023   0.223  0.0717 -0.3341  0.1131
 5390SOL    HW127806   3.736   4.096   0.273 -0.4024 -0.1504  0.1937
 5390SOL    HW227807   3.778   3.994   0.178 -1.1997 -0.0787 -2.2900
 5391SOL     OW27808   2.478   2.056   8.019  0.0997 -0.2807  0.8340
 5391SOL    HW127809   2.451   2.002   7.946 -1.4527  1.9190 -0.2041
 5391SOL    HW227810   2.551   2.013   8.064  0.1425 -0.5820  0.4742
 5392SOL     OW27811   1.027   0.678  14.931 -0.0495 -0.2437 -0.1270
 5392SOL    HW127812   0.933   0.694  14.936 -0.2118 -1.3790  0.4766
 5392SOL    HW227813   1.039   0.587  14.958  0.5008  0.0172  0.5234
 5393SOL     OW27814   4.211   2.999   4.485  0.3253 -0.3760  0.1634
 5393SOL    HW127815   4.256   3.005   4.401  1.4463 -0.4893  0.7522
 5393SOL    HW227816   4.151   3.074   4.481  0.6076 -0.1901 -0.5304
 5394SOL     OW27817   3.945   2.643  14.097 -0.0262 -0.0234  0.4070
 5394SOL    HW127818   4.002   2.666  14.023 -2.2233  0.2586 -1.2073
 5394SOL    HW227819   3.920   2.556  14.065 -0.1860  0.1120  0.1578
 5395SOL     OW27820   1.613   4.093   8.480 -0.1629 -0.4115  0.1554
 5395SOL    HW127821   1.547   4.086   8.549 -1.3303  0.4061 -0.8874
 5395SOL    HW227822   1.687   4.052   8.524  1.5625  1.8228 -0.6909
 5396SOL     OW27823   0.155   3.624  16.162 -0.7492  0.3709  0.1781
 5396SOL    HW127824   0.177   3.548  16.215  1.5543  0.6403 -0.3597
 5396SOL    HW227825   0.148   3.694  16.227  1.0416 -1.5537  2.4491
 5397SOL     OW27826   1.166   0.429  16.949  0.1477 -0.2492  0.2884
 5397SOL    HW127827   1.166   0.346  16.902 -0.3341  1.3099 -2.5405
 5397SOL    HW227828   1.248   0.462  16.912  0.1071  2.5863  2.7368
 5398SOL     OW27829   3.149   4.043   1.124 -0.2913 -0.1704 -0.0684
 5398SOL    HW127830   3.087   4.023   1.194  0.9841 -0.5207  0.9518
 5398SOL    HW227831   3.092   4.092   1.064  0.4670 -2.2238 -2.4619
 5399SOL     OW27832   3.223   3.174   7.755 -0.5399  0.2658 -0.5364
 5399SOL    HW127833   3.302   3.224   7.733 -0.4137  1.5394  2.8060
 5399SOL    HW227834   3.154   3.230   7.720  0.4426  1.0164 -1.2585
 5400SOL     OW27835   3.875   1.608  16.504 -0.6613 -0.3192 -0.3336
 5400SOL    HW127836   3.883   1.574  16.415  0.0130 -2.1398  0.4233
 5400SOL    HW227837   3.907   1.698  16.504  0.4040 -0.6963  0.2267
 5401SOL     OW27838   3.747   3.144   6.626  0.6242  0.2265 -0.2818
 5401SOL    HW127839   3.813   3.084   6.660 -0.0672 -0.6102 -0.4151
 5401SOL    HW227840   3.802   3.190   6.562  1.8288  1.8427  1.9046
 5402SOL     OW27841   0.835   3.756   8.357  0.0288  0.2308 -0.1852
 5402SOL    HW127842   0.902   3.754   8.290  0.6731  1.5336  0.4302
 5402SOL    HW227843   0.751   3.767   8.313  0.3881  2.3740 -0.3216
 5403SOL     OW27844   3.957   0.981   0.518 -0.5054 -0.1642  0.3280
 5403SOL    HW127845   3.954   0.957   0.611 -1.5280 -1.4795 -0.0506
 5403SOL    HW227846   3.896   1.056   0.516 -0.0438  0.1831 -0.9112
 5404SOL     OW27847   1.513   3.414   1.332  0.3099 -0.3276  0.6163
 5404SOL    HW127848   1.442   3.390   1.392 -1.8080  1.1616 -1.2501
 5404SOL    HW227849   1.583   3.437   1.393 -0.6364  1.9156  0.8957
 5405SOL     OW27850   1.197   1.794   2.503 -0.1935  0.4420  0.2010
 5405SOL    HW127851   1.206   1.789   2.598  0.3735  0.1670  0.1313
 5405SOL    HW227852   1.116   1.844   2.499  0.1576  0.8531 -1.5885
 5406SOL     OW27853   2.008   2.065   5.524  0.1540  0.2339  0.3978
 5406SOL    HW127854   1.988   1.976   5.553  0.9431 -0.8393 -2.3598
 5406SOL    HW227855   1.923   2.094   5.492 -0.1109 -1.1713 -0.1549
 5407SOL     OW27856   3.516   2.186   2.560 -0.2491  0.3033  0.3213
 5407SOL    HW127857   3.489   2.191   2.468  0.1887  2.1473  0.2857
 5407SOL    HW227858   3.515   2.091   2.561 -0.4994  0.3024  0.0696
 5408SOL     OW27859   0.411   0.297   1.924  0.8297  0.0101  0.1346
 5408SOL    HW127860   0.406   0.231   1.855 -1.6943  0.5040 -0.1566
 5408SOL    HW227861   0.379   0.245   1.998  0.7268  1.2056  0.9501
 5409SOL     OW27862   4.056   1.186  14.833  0.0667  0.5309  0.6574
 5409SOL    HW127863   3.977   1.212  14.787  0.7666  0.2846 -0.6893
 5409SOL    HW227864   4.119   1.217  14.768 -0.9479  0.4268 -0.3782
 5410SOL     OW27865   3.197   3.211  10.720 -0.1597  0.3312  0.0293
 5410SOL    HW127866   3.182   3.199  10.814  0.2517  0.5955  0.1263
 5410SOL    HW227867   3.116   3.168  10.691  0.0617 -1.8277  2.6326
 5411SOL     OW27868   0.024   2.980  15.110  0.2124  0.8495 -0.1534
 5411SOL    HW127869   4.702   3.050  15.142  1.3712  1.6143  0.2339
 5411SOL    HW227870   0.038   2.931  15.191 -0.7551  0.5842 -0.1528
 5412SOL     OW27871   3.941   2.087   6.614 -0.8219  0.3848 -0.0955
 5412SOL    HW127872   4.025   2.069   6.656 -1.0579  2.1308  1.1404
 5412SOL    HW227873   3.946   2.181   6.632  1.7334  0.2448 -0.0278
 5413SOL     OW27874   4.263   0.191   1.701 -0.3237 -0.0223  0.2187
 5413SOL    HW127875   4.287   0.280   1.675 -1.4383  0.6012  1.3401
 5413SOL    HW227876   4.232   0.202   1.790  2.7519  0.2925  1.2438
 5414SOL     OW27877   2.237   4.296  13.440 -0.2279  0.1993 -0.0583
 5414SOL    HW127878   2.155   4.265  13.480  0.8115 -1.2882  0.9504
 5414SOL    HW227879   2.284   4.213  13.427 -0.0822  0.2666  0.0367
 5415SOL     OW27880   1.079   4.594   1.306 -0.5440 -0.2764 -0.8130
 5415SOL    HW127881   0.991   4.564   1.286 -0.9292 -0.2135  0.7638
 5415SOL    HW227882   1.075   4.583   1.401  4.8376  2.2167 -0.2917
 5416SOL     OW27883   1.555   1.635   5.335  0.4049  0.3991  0.0646
 5416SOL    HW127884   1.559   1.543   5.357  1.0705  0.0300 -1.5935
 5416SOL    HW227885   1.607   1.643   5.255 -1.3249 -0.5469 -1.1789
 5417SOL     OW27886   3.028   1.992   0.043  0.5006 -1.0627  0.5976
 5417SOL    HW127887   2.991   2.062  17.724  0.5293 -0.7476  0.9873
 5417SOL    HW227888   3.117   2.020   0.064  1.4796 -1.9618 -2.3591
 5418SOL     OW27889   0.433   2.621   3.286  0.1555  0.5547 -0.9401
 5418SOL    HW127890   0.505   2.613   3.348  0.8940  1.9022 -1.6188
 5418SOL    HW227891   0.448   2.548   3.226  0.8063  0.2497 -0.4093
 5419SOL     OW27892   3.086   0.163   3.098  0.2214 -0.0342 -0.5204
 5419SOL    HW127893   2.995   0.187   3.079 -0.0694  0.5926  1.7593
 5419SOL    HW227894   3.078   0.070   3.121 -0.6286  0.5659  1.5475
 5420SOL     OW27895   0.451   3.272   4.712 -0.1533  0.0843 -0.1500
 5420SOL    HW127896   0.468   3.341   4.647  1.0438 -1.0052 -0.9921
 5420SOL    HW227897   0.412   3.328   4.779 -1.2162 -0.4642 -0.2959
 5421SOL     OW27898   2.815   2.370   3.930  0.1288  0.4242  0.0235
 5421SOL    HW127899   2.847   2.429   3.998 -0.5902  2.1176 -1.1151
 5421SOL    HW227900   2.744   2.330   3.981 -2.7576  4.9508 -0.4707
 5422SOL     OW27901   0.758   1.010  16.143  0.1352  0.3790  0.2286
 5422SOL    HW127902   0.699   1.004  16.069 -0.0352  1.2675  0.2908
 5422SOL    HW227903   0.753   0.923  16.182 -0.4122  0.7972  1.0919
 5423SOL     OW27904   2.501   0.787   8.012 -0.5742  0.4493 -0.0610
 5423SOL    HW127905   2.411   0.814   7.996 -0.6936  0.1889  0.1622
 5423SOL    HW227906   2.552   0.867   8.002  0.6732 -0.5037 -1.3627
 5424SOL     OW27907   2.875   3.027   3.924 -0.0130 -0.6233 -0.0846
 5424SOL    HW127908   2.947   3.069   3.971  0.1006 -0.6747 -0.2140
 5424SOL    HW227909   2.822   3.106   3.917 -1.2984 -1.2106  2.9758
 5425SOL     OW27910   3.595   3.544  16.346  0.3326 -0.3461  0.1098
 5425SOL    HW127911   3.677   3.587  16.321  0.6158 -0.6972  0.4090
 5425SOL    HW227912   3.615   3.450  16.342  3.4767  0.4114 -1.6838
 5426SOL     OW27913   0.398   4.728   4.330 -0.6717 -0.5347 -0.2642
 5426SOL    HW127914   0.381   4.684   4.414  0.9246 -2.6605 -1.0597
 5426SOL    HW227915   0.434   4.652   4.286 -2.7764  0.1684 -3.1722
 5427SOL     OW27916   4.091   4.161  15.976  0.5197 -0.1133  0.1421
 5427SOL    HW127917   4.026   4.111  16.026  0.2127  0.2860  0.1528
 5427SOL    HW227918   4.161   4.096  15.972 -1.9386 -2.8065  1.1676
 5428SOL     OW27919   1.417   1.734   6.274 -0.1482  0.1738 -0.4289
 5428SOL    HW127920   1.442   1.817   6.315  1.4997 -0.1944 -0.6886
 5428SOL    HW227921   1.362   1.769   6.204 -1.1590 -1.9441 -0.6830
 5429SOL     OW27922   3.787   0.027   4.669 -0.1145  1.0134 -0.1110
 5429SOL    HW127923   3.819   4.675   4.694 -0.4221  0.6333 -1.0132
 5429SOL    HW227924   3.723   4.726   4.607 -1.6310 -1.3988  2.7669
 5430SOL     OW27925   2.443   0.700   6.267  0.3075  0.0230 -0.6554
 5430SOL    HW127926   2.495   0.656   6.335 -1.5893 -3.4051 -1.4288
 5430SOL    HW227927   2.467   0.793   6.270 -0.0618  0.0415  1.6280
 5431SOL     OW27928   0.188   2.336  14.718  0.3117 -0.3002  0.1584
 5431SOL    HW127929   0.136   2.283  14.778 -1.9343 -0.2956 -1.7757
 5431SOL    HW227930   0.168   2.303  14.631  3.1297 -1.8348  0.0973
 5432SOL     OW27931   3.486   3.524   1.652  0.2315  0.6790 -0.1879
 5432SOL    HW127932   3.486   3.514   1.557 -2.8171 -1.0989 -0.0104
 5432SOL    HW227933   3.530   3.442   1.673 -2.1224 -0.7997 -0.9537
 5433SOL     OW27934   0.368   0.154  13.255  0.2421  0.1288  0.4910
 5433SOL    HW127935   0.301   0.126  13.318 -0.9433  1.2397 -0.2887
 5433SOL    HW227936   0.444   0.142  13.313  0.5778 -0.4025 -0.0679
 5434SOL     OW27937   0.842   3.542  15.773 -0.8029  0.2015  0.8910
 5434SOL    HW127938   0.772   3.495  15.727  0.3741  0.0686 -0.7732
 5434SOL    HW227939   0.833   3.624  15.724  0.8114  1.1533  2.2241
 5435SOL     OW27940   1.497   1.441   4.105 -0.2294 -0.5557  0.4721
 5435SOL    HW127941   1.564   1.438   4.174  0.1269  1.9105  0.2574
 5435SOL    HW227942   1.554   1.435   4.029  1.6219  0.5108  1.7566
 5436SOL     OW27943   3.460   1.411   6.272  0.2934  0.0273 -0.0510
 5436SOL    HW127944   3.536   1.468   6.280 -0.2452  0.5561  1.2541
 5436SOL    HW227945   3.458   1.395   6.177 -0.6823 -0.8279  0.1155
 5437SOL     OW27946   1.812   0.687   1.428  0.0830 -0.0817  0.3791
 5437SOL    HW127947   1.720   0.662   1.422 -0.6472  2.5661  0.6347
 5437SOL    HW227948   1.853   0.602   1.442 -0.3998 -0.1314  1.4630
 5438SOL     OW27949   3.843   2.171  10.459 -0.6205  0.1548  0.4776
 5438SOL    HW127950   3.763   2.126  10.487  0.0283  0.1365  2.3174
 5438SOL    HW227951   3.856   2.134  10.372  0.4519  0.5932  0.4569
 5439SOL     OW27952   4.687   2.161   3.985 -0.2258  0.1765  0.6083
 5439SOL    HW127953   4.671   2.245   3.940  3.9656  0.4128 -0.4647
 5439SOL    HW227954   4.602   2.119   3.997 -0.6818  0.5523 -1.2614
 5440SOL     OW27955   0.090   3.347  14.653  0.7062  0.1968 -0.2006
 5440SOL    HW127956   4.732   3.365  14.638  1.0091  1.1004 -0.9756
 5440SOL    HW227957   0.102   3.276  14.590 -2.5975 -0.2854 -0.2835
 5441SOL     OW27958   3.144   4.477  16.811 -0.0240  0.2281  0.0130
 5441SOL    HW127959   3.055   4.443  16.800  0.0027  0.8411 -2.0113
 5441SOL    HW227960   3.160   4.538  16.740 -0.8426 -0.4199 -0.7251
 5442SOL     OW27961   1.705   0.329   4.439 -0.1878 -0.4786  0.5272
 5442SOL    HW127962   1.752   0.406   4.471  1.1537 -0.6531 -0.9944
 5442SOL    HW227963   1.697   0.354   4.347  0.7101 -1.4697  0.1767
 5443SOL     OW27964   0.958   4.621   9.563 -0.1936 -0.0719 -0.1683
 5443SOL    HW127965   0.988   4.706   9.533  2.7447 -0.9856  0.2079
 5443SOL    HW227966   0.873   4.646   9.600  1.3018  0.1776  3.1641
 5444SOL     OW27967   2.224   2.908  15.713  0.3352 -0.5060  0.1885
 5444SOL    HW127968   2.181   2.823  15.718 -1.1951  0.1625 -1.6084
 5444SOL    HW227969   2.150   2.969  15.722  0.9513  0.3698 -0.6603
 5445SOL     OW27970   4.693   2.392  11.505  0.0566 -0.3885 -0.3717
 5445SOL    HW127971   4.659   2.304  11.522 -0.2169  0.1942  2.0664
 5445SOL    HW227972   0.015   2.412  11.580  1.8590  0.4504 -1.9444
 5446SOL     OW27973   0.466   2.969   3.614 -0.8485  0.0988 -0.8505
 5446SOL    HW127974   0.386   2.923   3.589 -0.2363 -1.4487  0.0558
 5446SOL    HW227975   0.467   2.956   3.708 -2.2711 -0.3761 -0.9150
 5447SOL     OW27976   4.267   2.618   0.333 -0.1131  0.4881 -0.0743
 5447SOL    HW127977   4.356   2.650   0.322  0.4347 -1.0202 -0.0979
 5447SOL    HW227978   4.255   2.631   0.427 -2.0567 -1.6167 -0.0186
 5448SOL     OW27979   2.714   0.545  17.119 -0.0560 -0.3758 -0.5465
 5448SOL    HW127980   2.648   0.579  17.058  1.7366  1.8817 -1.2014
 5448SOL    HW227981   2.786   0.608  17.115  0.3838 -0.7971  0.7714
 5449SOL     OW27982   1.202   3.029   5.756  0.0962 -0.9464  0.1335
 5449SOL    HW127983   1.240   3.084   5.824  1.6698 -1.3508 -0.4031
 5449SOL    HW227984   1.283   3.018   5.706 -0.3186  2.7182 -1.3707
 5450SOL     OW27985   4.229   4.149   1.960 -0.0314 -0.3722 -0.9195
 5450SOL    HW127986   4.271   4.212   2.018 -0.6584 -2.2178  1.5267
 5450SOL    HW227987   4.138   4.152   1.989  0.0365 -1.4202 -0.6165
 5451SOL     OW27988   2.267   2.896   0.446 -0.2311 -0.4735 -0.0781
 5451SOL    HW127989   2.230   2.809   0.434 -0.3417 -0.5349  0.7258
 5451SOL    HW227990   2.185   2.945   0.432  0.0504  0.0249  0.0320
 5452SOL     OW27991   2.240   2.005   9.077 -0.3001 -0.3764 -0.4147
 5452SOL    HW127992   2.165   2.037   9.128 -0.7594 -0.7347 -0.8676
 5452SOL    HW227993   2.250   1.920   9.118  0.3572 -0.0124  0.1776
 5453SOL     OW27994   0.817   4.398   3.693  0.5186 -0.1835  0.0913
 5453SOL    HW127995   0.854   4.480   3.726  0.8339  0.2973 -1.4998
 5453SOL    HW227996   0.899   4.352   3.677  1.6997  1.4395  1.4847
 5454SOL     OW27997   1.064   4.271   4.084  0.0673 -0.4284  0.1027
 5454SOL    HW127998   1.134   4.259   4.148  0.5661 -4.5675 -1.1955
 5454SOL    HW227999   1.112   4.314   4.013 -1.9581 -1.2574 -1.7668
 5455SOL     OW28000   4.286   3.562   1.157  0.4981 -0.1570  0.0866
 5455SOL    HW128001   4.195   3.538   1.174 -0.1907  2.7708  0.4614
 5455SOL    HW228002   4.322   3.496   1.215  1.3048 -0.1357 -0.3930
 5456SOL     OW28003   0.316   3.608   9.193  0.2351  0.0436 -0.3445
 5456SOL    HW128004   0.262   3.656   9.129 -1.0199  1.2494  1.6175
 5456SOL    HW228005   0.261   3.596   9.270  2.2615  0.9501  1.2635
 5457SOL     OW28006   1.790   0.391   3.115  0.0045  0.1438 -0.0112
 5457SOL    HW128007   1.703   0.427   3.132  0.8969 -0.0246  4.8596
 5457SOL    HW228008   1.785   0.321   3.180 -3.0477  0.3777 -0.0112
 5458SOL     OW28009   1.223   4.269   5.051 -1.1885  0.1546 -0.2542
 5458SOL    HW128010   1.169   4.313   5.116 -2.5460  1.6619 -2.4448
 5458SOL    HW228011   1.296   4.330   5.059 -0.1364 -0.9237 -1.6552
 5459SOL     OW28012   1.268   4.378   6.453 -0.7131  0.2039 -0.3740
 5459SOL    HW128013   1.257   4.367   6.548  1.5261 -2.0170 -0.3790
 5459SOL    HW228014   1.308   4.297   6.422 -1.1020  0.4142 -1.4054
 5460SOL     OW28015   1.333   4.546   1.154 -0.1598 -0.5590  0.7851
 5460SOL    HW128016   1.310   4.547   1.061 -1.2280 -0.0911  1.0534
 5460SOL    HW228017   1.247   4.570   1.190 -1.0064 -0.3910 -1.3363
 5461SOL     OW28018   4.298   4.544   3.066  0.6966 -0.1220  0.4965
 5461SOL    HW128019   4.222   4.520   3.119 -0.1233  1.9085  0.2151
 5461SOL    HW228020   4.309   4.471   3.004 -0.1530  0.4669 -0.3488
 5462SOL     OW28021   3.723   4.583   8.199  0.2086  0.3577  0.4024
 5462SOL    HW128022   3.651   4.547   8.147  0.1480 -0.7552  1.2374
 5462SOL    HW228023   3.797   4.551   8.147 -0.3394 -3.0534  1.6837
 5463SOL     OW28024   3.021   3.045  13.727 -0.1490  0.0144 -0.3063
 5463SOL    HW128025   3.064   2.970  13.767 -0.5736  0.0526  0.2306
 5463SOL    HW228026   2.961   3.068  13.798  2.8909  1.0852  1.8784
 5464SOL     OW28027   0.889   0.266   8.667  0.1432 -0.0320 -0.0880
 5464SOL    HW128028   0.955   0.311   8.615  0.7459 -1.4317 -0.5616
 5464SOL    HW228029   0.858   0.195   8.610  0.6526 -0.5907  0.3218
 5465SOL     OW28030   4.372   3.142   0.582  0.2104  0.2509 -0.4219
 5465SOL    HW128031   4.423   3.080   0.634  0.5069  2.5765  2.0648
 5465SOL    HW228032   4.381   3.101   0.496  0.8258 -0.1574 -0.1632
 5466SOL     OW28033   1.026   4.546   3.827  0.1945 -0.6124  0.5145
 5466SOL    HW128034   1.114   4.528   3.859  0.1017 -0.0456  1.0673
 5466SOL    HW228035   1.059   4.551   3.737  0.1207  1.0295  0.5872
 5467SOL     OW28036   0.435   2.115   8.997  0.4839  0.0374 -1.0493
 5467SOL    HW128037   0.409   2.204   9.022  0.7680  0.1675 -1.2230
 5467SOL    HW228038   0.365   2.073   9.048  1.2455 -1.7872 -1.5025
 5468SOL     OW28039   3.222   0.410   5.090  0.0598 -0.0967  0.2682
 5468SOL    HW128040   3.192   0.421   5.180 -0.3413  0.9283  0.0064
 5468SOL    HW228041   3.134   0.414   5.052 -0.1963 -0.7148  0.7759
 5469SOL     OW28042   4.538   1.296   2.536 -0.3636 -0.0422  0.5626
 5469SOL    HW128043   4.467   1.280   2.474  1.3050 -3.2857 -0.5254
 5469SOL    HW228044   4.599   1.341   2.478 -0.2905 -0.5716  0.2273
 5470SOL     OW28045   2.138   1.421   7.114  0.0422  0.5520  0.4449
 5470SOL    HW128046   2.077   1.408   7.187  1.3468  0.1029  1.4562
 5470SOL    HW228047   2.222   1.419   7.158  1.3131 -1.7773 -2.1262
 5471SOL     OW28048   2.083   1.551   8.503  0.3007  0.1374  0.3005
 5471SOL    HW128049   2.041   1.626   8.460 -0.5358 -1.2153 -1.2546
 5471SOL    HW228050   2.107   1.500   8.427  0.6346 -0.9061  1.1119
 5472SOL     OW28051   4.337   1.326   3.338  0.6267 -1.0967 -0.7256
 5472SOL    HW128052   4.282   1.271   3.283  1.1084 -0.5357 -1.7559
 5472SOL    HW228053   4.311   1.293   3.424  2.8967 -0.1121  0.3564
 5473SOL     OW28054   4.319   0.139   0.450 -0.0895  0.2364 -0.0833
 5473SOL    HW128055   4.343   0.046   0.453 -1.9885 -0.2457 -0.0746
 5473SOL    HW228056   4.326   0.153   0.544  1.8297  0.3550 -0.2310
 5474SOL     OW28057   0.676   3.523   0.659 -0.1511  0.5115  0.4105
 5474SOL    HW128058   0.698   3.466   0.733  3.4413  0.5128 -0.6324
 5474SOL    HW228059   0.702   3.458   0.593 -0.4098  1.5492 -0.7154
 5475SOL     OW28060   3.635   0.279  14.981  0.0070  0.0282  0.0612
 5475SOL    HW128061   3.731   0.276  14.977  0.1456 -1.1332  3.8708
 5475SOL    HW228062   3.608   0.371  14.983  0.2408  0.1257 -1.1337
 5476SOL     OW28063   4.519   2.546   2.287  0.4246 -0.5988  0.0583
 5476SOL    HW128064   4.436   2.576   2.323 -0.1574 -2.0160 -0.1144
 5476SOL    HW228065   4.537   2.459   2.324  1.1628 -1.2341 -1.8251
 5477SOL     OW28066   4.057   1.089   8.369  0.0177 -0.3255 -0.2387
 5477SOL    HW128067   3.980   1.044   8.336 -0.5407 -0.2613  0.9738
 5477SOL    HW228068   4.119   1.068   8.299 -2.8358 -1.5764 -2.3488
 5478SOL     OW28069   3.234   4.207   6.723 -0.0670  0.0705 -0.5155
 5478SOL    HW128070   3.237   4.129   6.667  1.5005 -0.4841  0.3317
 5478SOL    HW228071   3.235   4.171   6.812 -2.1871  0.9012 -0.1665
 5479SOL     OW28072   0.253   0.121   3.387  1.1632  0.1114  0.0976
 5479SOL    HW128073   0.291   0.177   3.455 -0.2239  1.4150 -0.2040
 5479SOL    HW228074   0.172   0.163   3.357  0.8416  0.3303  1.2578
 5480SOL     OW28075   2.029   3.567   3.412 -0.5775  0.1304  0.1428
 5480SOL    HW128076   2.062   3.633   3.351 -1.3436  0.1942 -0.2089
 5480SOL    HW228077   1.947   3.609   3.439 -0.2007  0.5474  0.6322
 5481SOL     OW28078   4.561   0.099   2.222  0.1097  0.0967  0.0302
 5481SOL    HW128079   4.558   0.159   2.148  0.5694 -0.1906 -0.2163
 5481SOL    HW228080   4.537   0.016   2.182 -1.8728  0.0660  1.2501
 5482SOL     OW28081   3.529   2.738   4.093  0.0404  0.5664  0.1120
 5482SOL    HW128082   3.570   2.655   4.067  0.0721  0.5083  0.3527
 5482SOL    HW228083   3.437   2.722   4.116  1.3342 -4.1096  2.0212
 5483SOL     OW28084   0.176   0.743   7.923 -0.4009  0.2215 -0.2403
 5483SOL    HW128085   0.156   0.651   7.942 -1.1312  0.3885 -0.2013
 5483SOL    HW228086   0.244   0.732   7.857 -0.0214 -1.4941  0.4292
 5484SOL     OW28087   3.958   1.918  11.368 -0.1962 -0.0424  0.8397
 5484SOL    HW128088   3.950   1.883  11.279 -1.1118  0.8056  0.5834
 5484SOL    HW228089   3.966   2.013  11.358  2.0254 -0.2094  1.0815
 5485SOL     OW28090   1.793   3.950   1.937 -0.1379  0.3428  0.0662
 5485SOL    HW128091   1.724   3.964   2.003  0.6110  0.8468  0.7366
 5485SOL    HW228092   1.859   4.012   1.966 -1.2289  0.8149  1.5707
 5486SOL     OW28093   1.254   0.336   9.472 -0.5430 -0.0386  0.1101
 5486SOL    HW128094   1.166   0.334   9.509 -0.0507  0.9867  1.3416
 5486SOL    HW228095   1.292   0.259   9.514  0.3949  0.7759  0.7587
 5487SOL     OW28096   1.845   2.463   5.938 -0.4750  0.1519 -0.0956
 5487SOL    HW128097   1.887   2.546   5.962  0.2421  0.2019 -1.5190
 5487SOL    HW228098   1.757   2.496   5.919 -0.8377 -1.0804 -0.5101
 5488SOL     OW28099   1.488   3.775   5.559  0.0177 -0.3989 -0.3892
 5488SOL    HW128100   1.478   3.830   5.481  1.7588 -1.2265 -1.1818
 5488SOL    HW228101   1.483   3.843   5.626  0.4666  0.9745 -1.7325
 5489SOL     OW28102   4.240   2.284   2.640  0.0336  0.0406 -0.0830
 5489SOL    HW128103   4.220   2.317   2.727  0.0564  0.3586 -0.2008
 5489SOL    HW228104   4.296   2.208   2.657  0.0398  0.4809  1.7831
 5490SOL     OW28105   2.832   3.564   5.448  0.5613 -0.6430 -0.4492
 5490SOL    HW128106   2.765   3.554   5.516  0.5108  2.1309 -0.0763
 5490SOL    HW228107   2.769   3.563   5.376  0.6420  2.1088 -0.5600
 5491SOL     OW28108   4.514   0.639   4.016 -0.1121 -0.1812 -0.1057
 5491SOL    HW128109   4.562   0.682   3.945  1.4105 -1.0992  0.3565
 5491SOL    HW228110   4.586   0.631   4.079 -0.0999 -0.1370 -0.1138
 5492SOL     OW28111   1.390   2.249   1.577  0.2250 -0.2839  0.5479
 5492SOL    HW128112   1.413   2.160   1.552 -0.3858 -0.1729 -0.3988
 5492SOL    HW228113   1.398   2.245   1.672  1.7035  0.9077  0.4807
 5493SOL     OW28114   4.692   3.000   1.420  0.7437 -0.0713 -0.1240
 5493SOL    HW128115   4.627   2.966   1.482  0.8020 -0.9759 -0.5576
 5493SOL    HW228116   4.704   2.920   1.368  0.3598  2.2293 -3.7319
 5494SOL     OW28117   4.511   3.075   8.660  0.3707  0.3542  0.1626
 5494SOL    HW128118   4.474   2.987   8.664  0.0352  0.5448  1.1820
 5494SOL    HW228119   4.442   3.112   8.716 -1.7209  0.1507 -2.2535
 5495SOL     OW28120   0.033   3.078   0.254  0.2094 -0.1633  0.1665
 5495SOL    HW128121   0.024   3.122   0.339  0.1870  1.9229 -0.9168
 5495SOL    HW228122   0.128   3.065   0.254  0.3973  1.3233 -3.2064
 5496SOL     OW28123   0.658   2.329   3.511  0.2285  0.0762 -0.0561
 5496SOL    HW128124   0.602   2.275   3.455 -0.3213 -0.5975  1.1191
 5496SOL    HW228125   0.660   2.276   3.591 -2.7600  1.9362  1.2721
 5497SOL     OW28126   3.789   3.369   3.453 -0.4226 -0.2832 -0.0547
 5497SOL    HW128127   3.793   3.441   3.515 -0.8467  1.1702 -1.7227
 5497SOL    HW228128   3.853   3.396   3.387  2.0765 -2.4503  1.4475
 5498SOL     OW28129   2.624   2.732   3.177 -0.4695  0.0792  0.4994
 5498SOL    HW128130   2.653   2.693   3.260  0.9760  0.6332  0.2511
 5498SOL    HW228131   2.608   2.655   3.123 -0.3914  0.9173 -0.7101
 5499SOL     OW28132   2.614   4.345   6.686 -0.2311 -0.5472 -0.0599
 5499SOL    HW128133   2.652   4.267   6.644  1.3654 -0.5228  1.3590
 5499SOL    HW228134   2.637   4.335   6.778 -1.8208  1.0766  0.5087
 5500SOL     OW28135   1.389   2.921   5.108  0.2584  0.1109  0.2421
 5500SOL    HW128136   1.446   2.903   5.182 -1.2327 -0.3840  1.2526
 5500SOL    HW228137   1.323   2.852   5.116  1.3345 -0.7196  1.9454
 5501SOL     OW28138   3.576   2.770  11.799 -0.3756  0.3363 -0.6048
 5501SOL    HW128139   3.655   2.746  11.847 -0.2047 -0.2019 -1.1596
 5501SOL    HW228140   3.561   2.704  11.731  1.5717  0.2339 -0.9457
 5502SOL     OW28141   2.946   0.410   0.447  0.1313 -0.3305  0.6723
 5502SOL    HW128142   3.033   0.443   0.423  0.3323 -0.2068  1.5652
 5502SOL    HW228143   2.960   0.397   0.541  0.6937 -0.4270  0.5782
 5503SOL     OW28144   3.843   4.527   4.776  0.2675  0.5444 -0.3263
 5503SOL    HW128145   3.868   4.470   4.849  0.8074  0.4884 -0.5532
 5503SOL    HW228146   3.842   4.455   4.712  0.1557  1.1531 -1.0124
 5504SOL     OW28147   4.283   3.317   5.565  0.0451 -0.3519 -0.2267
 5504SOL    HW128148   4.230   3.392   5.594  0.5804 -0.2147  0.4156
 5504SOL    HW228149   4.369   3.356   5.577 -0.1374 -0.1979  0.6366
 5505SOL     OW28150   0.534   0.066   0.573  0.2140  0.2506  0.2970
 5505SOL    HW128151   0.492   0.024   0.648  1.7253  0.1935  1.1160
 5505SOL    HW228152   0.629   0.062   0.590  0.0354  1.1891  1.5524
 5506SOL     OW28153   2.679   2.182  14.835 -0.2287  0.5180 -0.2192
 5506SOL    HW128154   2.665   2.266  14.792 -0.4648  0.3419 -0.4860
 5506SOL    HW228155   2.679   2.212  14.925 -2.3328 -1.2596  0.3788
 5507SOL     OW28156   1.882   4.274   4.095  0.3134  0.2319  0.0811
 5507SOL    HW128157   1.833   4.259   4.014  0.0759 -1.1269  0.4771
 5507SOL    HW228158   1.963   4.229   4.074  0.3509  0.0764  0.5649
 5508SOL     OW28159   1.186   0.195   3.475  0.0171 -0.5278  0.8328
 5508SOL    HW128160   1.252   0.164   3.537  0.8239  0.1147  0.2940
 5508SOL    HW228161   1.218   0.157   3.393 -1.0085 -0.8768  0.5954
 5509SOL     OW28162   1.390   1.295   7.255  0.1293  0.4015  0.3066
 5509SOL    HW128163   1.466   1.312   7.199 -0.1076 -0.5402 -0.3064
 5509SOL    HW228164   1.436   1.311   7.337 -0.5519 -0.9271  0.9471
 5510SOL     OW28165   3.547   4.444   3.746  0.3776 -0.3240 -0.4380
 5510SOL    HW128166   3.547   4.349   3.738  0.0673 -0.4281  0.8114
 5510SOL    HW228167   3.592   4.462   3.663  1.5394  0.4426  0.3473
 5511SOL     OW28168   3.226   2.305   2.486  0.2526  0.6568  0.6513
 5511SOL    HW128169   3.160   2.366   2.517 -0.4993  0.3296 -0.2825
 5511SOL    HW228170   3.232   2.353   2.403 -1.4270  0.2260  0.2765
 5512SOL     OW28171   1.848   2.919  10.917 -0.0920 -0.2609 -0.2016
 5512SOL    HW128172   1.861   2.981  10.989 -2.3113  1.2186 -1.0708
 5512SOL    HW228173   1.932   2.898  10.877  1.2306 -0.8608  2.9083
 5513SOL     OW28174   1.646   4.357  11.185  0.0307  0.4665  0.6859
 5513SOL    HW128175   1.707   4.429  11.168 -1.3395  1.6226  0.7002
 5513SOL    HW228176   1.576   4.395  11.238 -2.7821  0.3969 -2.9750
 5514SOL     OW28177   0.329   4.264   5.362 -0.0220  0.2319  0.5651
 5514SOL    HW128178   0.413   4.289   5.399 -0.1470  0.9997  0.3271
 5514SOL    HW228179   0.324   4.303   5.274  1.7842 -0.5880  0.0956
 5515SOL     OW28180   0.314   0.536   2.713 -0.0162  0.6955  0.2592
 5515SOL    HW128181   0.382   0.597   2.686  0.3254 -0.1039 -0.6735
 5515SOL    HW228182   0.366   0.487   2.777 -0.2678  1.1475  0.8076
 5516SOL     OW28183   0.751   4.045  17.698  0.1450  0.1046  0.1635
 5516SOL    HW128184   0.660   4.016  17.690 -0.1171  0.6881  1.0261
 5516SOL    HW228185   0.793   3.994  17.629 -3.1732 -1.1370 -0.9397
 5517SOL     OW28186   2.698   0.400   8.129  0.4099 -0.4229  0.1131
 5517SOL    HW128187   2.726   0.474   8.075 -1.8231  1.4078  1.4783
 5517SOL    HW228188   2.765   0.333   8.117  1.2273  0.4280 -0.0969
 5518SOL     OW28189   3.825   0.264   7.957 -0.4492 -0.5912  0.1637
 5518SOL    HW128190   3.871   0.208   8.019 -0.4884 -0.1583  0.5805
 5518SOL    HW228191   3.827   0.198   7.888 -0.8654 -1.2272  0.7591
 5519SOL     OW28192   2.487   0.605  12.131  0.1306 -0.2579  0.4765
 5519SOL    HW128193   2.491   0.597  12.226 -0.6689 -0.4650  0.4906
 5519SOL    HW228194   2.396   0.582  12.113 -0.0086  0.8689 -0.2716
 5520SOL     OW28195   0.991   3.104   0.955 -0.3064 -0.7038  0.2179
 5520SOL    HW128196   1.008   3.143   1.041 -2.2813  0.8271 -0.0778
 5520SOL    HW228197   1.073   3.118   0.908 -0.2252  0.2956  0.6521
 5521SOL     OW28198   4.569   3.131   7.518  0.0385 -0.2016 -0.3076
 5521SOL    HW128199   4.574   3.226   7.533 -1.2929 -0.6431  2.8960
 5521SOL    HW228200   4.474   3.115   7.520  0.1639 -1.1463 -1.8394
 5522SOL     OW28201   2.192   3.586   3.908 -0.2822 -0.0533  0.2083
 5522SOL    HW128202   2.232   3.542   3.833 -0.5191  0.1534 -0.0402
 5522SOL    HW228203   2.100   3.562   3.896 -0.7064  1.5018  0.3886
 5523SOL     OW28204   2.544   3.722  11.710 -0.3632  0.1720 -1.0842
 5523SOL    HW128205   2.532   3.817  11.709  1.4100  0.3985 -0.2916
 5523SOL    HW228206   2.558   3.709  11.803 -1.9725  0.9878 -0.7133
 5524SOL     OW28207   2.913   1.580   5.246  0.0364 -0.1203 -0.0517
 5524SOL    HW128208   2.826   1.577   5.208  0.5894 -0.3821 -1.3014
 5524SOL    HW228209   2.940   1.490   5.228  0.2215  0.1144 -0.9436
 5525SOL     OW28210   2.108   3.675   1.894 -0.3539  0.3021  0.2909
 5525SOL    HW128211   2.154   3.667   1.977 -0.6203  0.7072  0.4753
 5525SOL    HW228212   2.134   3.763   1.867 -1.0350  1.0053  1.9090
 5526SOL     OW28213   0.949   2.912   7.395  0.1923  0.1790  0.0296
 5526SOL    HW128214   0.901   2.972   7.452 -2.0245 -0.4750 -1.1488
 5526SOL    HW228215   0.983   2.977   7.335 -1.4737  2.7464  1.8657
 5527SOL     OW28216   2.765   3.902  13.629 -0.0761 -0.1505  0.1815
 5527SOL    HW128217   2.835   3.870  13.685 -0.8872  1.5816  2.1708
 5527SOL    HW228218   2.797   3.992  13.639  0.2480 -0.3009  0.4745
 5528SOL     OW28219   2.433   1.944   7.754 -0.1891 -0.1762  0.0409
 5528SOL    HW128220   2.473   1.860   7.731  0.8844  0.7711 -1.5638
 5528SOL    HW228221   2.399   1.977   7.671 -0.0231  2.7124  1.1156
 5529SOL     OW28222   0.292   2.129  15.456 -0.0313  0.0242 -0.2482
 5529SOL    HW128223   0.253   2.043  15.466  0.6907 -0.2439  0.2606
 5529SOL    HW228224   0.359   2.100  15.394  0.1339  0.1498 -0.1317
 5530SOL     OW28225   1.512   1.009   5.926  0.2329  0.0309  0.2001
 5530SOL    HW128226   1.480   1.016   6.016  0.3171 -1.6204  0.3614
 5530SOL    HW228227   1.493   0.917   5.906 -1.7647  0.6118 -0.5220
 5531SOL     OW28228   0.949   4.685  17.573  0.2846 -0.1886  0.0422
 5531SOL    HW128229   1.018   4.627  17.606 -0.6551 -1.0161  0.5330
 5531SOL    HW228230   0.961   0.032  17.623 -2.5630  1.0066 -1.2407
 5532SOL     OW28231   2.701   4.505   8.287 -0.2089  0.4845 -0.3633
 5532SOL    HW128232   2.744   4.457   8.358 -0.1912 -0.0440 -0.7313
 5532SOL    HW228233   2.760   4.577   8.266  0.7598 -0.3058 -0.3703
 5533SOL     OW28234   3.472   4.435   2.214  0.3233  1.3810  0.3380
 5533SOL    HW128235   3.442   4.344   2.221  0.4150  1.3471  0.2764
 5533SOL    HW228236   3.523   4.433   2.133 -0.9870 -0.6320 -0.4392
 5534SOL     OW28237   4.026   4.521  10.701  0.4352 -0.0638  0.8043
 5534SOL    HW128238   3.955   4.499  10.761  0.2496  0.6742  0.8548
 5534SOL    HW228239   3.987   4.492  10.618  0.3606  0.9840  0.4794
 5535SOL     OW28240   3.179   1.368   5.420 -0.0751  0.2186  0.1055
 5535SOL    HW128241   3.159   1.408   5.505  1.0884 -0.2823  0.6076
 5535SOL    HW228242   3.268   1.399   5.406 -0.3705 -0.1471 -2.5756
 5536SOL     OW28243   3.634   0.056   7.221  0.2644  0.5070 -1.0295
 5536SOL    HW128244   3.635   0.076   7.127  1.3243  1.4411 -0.8227
 5536SOL    HW228245   3.648   4.696   7.224 -0.7619  0.3595 -0.8446
 5537SOL     OW28246   0.497   1.935   3.450  0.2780 -0.0928  0.5091
 5537SOL    HW128247   0.487   1.869   3.381 -0.7266  1.3055 -0.6975
 5537SOL    HW228248   0.419   1.915   3.502  0.7154  2.1162  1.9955
 5538SOL     OW28249   1.112   3.360   3.154 -0.0445  0.3473  0.5259
 5538SOL    HW128250   1.112   3.265   3.142 -0.9222 -0.0200  3.2859
 5538SOL    HW228251   1.143   3.362   3.245 -4.0461 -0.5077  1.9248
 5539SOL     OW28252   2.842   1.818  10.155  0.5170 -0.2349 -0.1904
 5539SOL    HW128253   2.864   1.888  10.216  0.6390 -1.8341  1.5843
 5539SOL    HW228254   2.917   1.762  10.175  0.8684 -0.4220 -1.9834
 5540SOL     OW28255   0.747   1.102   5.427 -0.2214  0.3284 -0.5192
 5540SOL    HW128256   0.792   1.176   5.467  0.0250 -0.7448  1.2044
 5540SOL    HW228257   0.817   1.037   5.434 -0.5137  0.1256  0.5611
 5541SOL     OW28258   2.635   3.665   9.196 -0.2210  0.4560 -0.1599
 5541SOL    HW128259   2.657   3.574   9.213 -1.3309  0.7501  2.9214
 5541SOL    HW228260   2.720   3.710   9.194  0.7170 -1.4041 -1.4282
 5542SOL     OW28261   0.505   3.827  17.255 -0.0769 -0.6515 -0.0046
 5542SOL    HW128262   0.521   3.770  17.181  0.1736 -0.5144 -0.0551
 5542SOL    HW228263   0.588   3.844  17.300  0.1066 -2.0385  0.1745
 5543SOL     OW28264   2.140   1.399   4.391  0.4732  0.2164 -0.3319
 5543SOL    HW128265   2.074   1.382   4.324  1.7092  1.5790 -1.8885
 5543SOL    HW228266   2.137   1.495   4.393 -0.3937  0.1631  1.1638
 5544SOL     OW28267   0.121   3.590  14.136  0.2277  0.2521 -0.6171
 5544SOL    HW128268   0.043   3.605  14.082  0.0713 -1.6452 -0.9354
 5544SOL    HW228269   0.163   3.676  14.135 -3.0706  1.8793 -0.5831
 5545SOL     OW28270   1.666   2.314   5.590 -0.4260 -0.3427  0.1594
 5545SOL    HW128271   1.701   2.256   5.523 -3.1567 -1.2837 -0.4789
 5545SOL    HW228272   1.677   2.250   5.661  0.9509  0.4161  0.6313
 5546SOL     OW28273   4.688   1.703  12.808  0.2118  0.3082  0.2093
 5546SOL    HW128274   4.645   1.651  12.741  2.3939 -2.5244  0.9810
 5546SOL    HW228275   4.672   1.646  12.883 -0.1376 -1.3729 -1.1408
 5547SOL     OW28276   1.797   2.352   7.730 -0.3951 -0.5401 -0.1924
 5547SOL    HW128277   1.770   2.260   7.726  0.7015 -0.8851  0.2989
 5547SOL    HW228278   1.878   2.346   7.781 -0.0593  0.4739 -0.6128
 5548SOL     OW28279   0.228   2.038   7.239  0.1453 -0.1213  0.5801
 5548SOL    HW128280   0.238   2.122   7.284 -0.8480 -0.4597  1.4404
 5548SOL    HW228281   0.265   1.985   7.309  1.0321  0.1346  0.3010
 5549SOL     OW28282   0.801   2.144   9.531 -0.7085 -0.5791 -0.3073
 5549SOL    HW128283   0.846   2.089   9.595 -0.9284  0.2967  0.6108
 5549SOL    HW228284   0.862   2.150   9.457 -2.6332 -0.2682 -1.8590
 5550SOL     OW28285   1.940   4.496   4.954  0.1290 -0.6495  0.0296
 5550SOL    HW128286   1.923   4.557   4.882 -1.6975 -1.4579 -0.2237
 5550SOL    HW228287   2.035   4.492   4.951  0.1909 -0.0241  1.1858
 5551SOL     OW28288   4.556   2.552   6.906 -0.0857 -0.8474 -0.0417
 5551SOL    HW128289   4.557   2.458   6.927 -0.0929 -1.0869 -1.1499
 5551SOL    HW228290   4.611   2.557   6.828  0.0161  2.7748  0.2573
 5552SOL     OW28291   4.318   0.430   1.618  0.1005  0.1876 -0.3147
 5552SOL    HW128292   4.396   0.479   1.639  0.2993  0.7216 -2.2644
 5552SOL    HW228293   4.278   0.498   1.563 -1.0482 -0.1264  0.1326
 5553SOL     OW28294   4.588   3.104  11.526  0.0697 -0.0936  0.1923
 5553SOL    HW128295   4.555   3.193  11.528  1.0727  0.2757  0.2098
 5553SOL    HW228296   4.613   3.101  11.433 -0.4218  0.5822  0.0433
 5554SOL     OW28297   0.125   2.553   9.481  0.3085  0.1757 -0.2492
 5554SOL    HW128298   0.199   2.522   9.430  1.3142 -0.1967  1.4399
 5554SOL    HW228299   0.118   2.474   9.535 -0.8395  1.8216  2.0485
 5555SOL     OW28300   4.529   2.942   4.846 -0.5735  0.3966  0.5202
 5555SOL    HW128301   4.543   2.883   4.920  0.8930 -2.0096 -1.6660
 5555SOL    HW228302   4.468   2.885   4.799  1.0790  1.0772 -2.4925
 5556SOL     OW28303   4.113   4.265  12.575 -0.1997 -0.1986  0.4704
 5556SOL    HW128304   4.159   4.346  12.549 -2.0556  0.5580 -0.4727
 5556SOL    HW228305   4.179   4.205  12.540  0.9313  2.4196 -1.9745
 5557SOL     OW28306   4.287   2.191   5.113 -0.3846 -0.4673  0.4568
 5557SOL    HW128307   4.321   2.179   5.024 -3.7928 -1.9485 -0.6517
 5557SOL    HW228308   4.209   2.240   5.088  0.0969  0.2352  0.3560
 5558SOL     OW28309   1.149   1.861   9.695  0.4921 -0.1232 -0.3423
 5558SOL    HW128310   1.081   1.928   9.699  0.6268 -0.1335  1.7121
 5558SOL    HW228311   1.169   1.847   9.787  1.3896  3.6721  0.0228
 5559SOL     OW28312   0.765   2.362   4.174 -0.1323  0.3886 -0.1060
 5559SOL    HW128313   0.690   2.353   4.114  0.7238  0.9464 -1.2524
 5559SOL    HW228314   0.772   2.456   4.191 -1.1733  0.4036  0.2541
 5560SOL     OW28315   2.246   2.285   7.252 -0.4272 -0.7011  0.2310
 5560SOL    HW128316   2.303   2.207   7.248 -1.7756 -1.6677 -0.0420
 5560SOL    HW228317   2.164   2.240   7.233 -0.2904 -0.4158 -1.0269
 5561SOL     OW28318   3.033   2.812   4.984 -0.6289  0.0534 -0.2370
 5561SOL    HW128319   2.940   2.818   5.002  0.0459  0.7809  3.0668
 5561SOL    HW228320   3.058   2.764   5.064 -0.0712  1.7508  0.6071
 5562SOL     OW28321   1.316   0.889   3.656 -0.0964  0.0602  0.0184
 5562SOL    HW128322   1.262   0.831   3.710 -1.0898  2.1951  1.3177
 5562SOL    HW228323   1.407   0.860   3.661  0.3887  1.8052  1.2586
 5563SOL     OW28324   2.530   1.503   4.385  0.3007 -0.4025 -0.8967
 5563SOL    HW128325   2.489   1.419   4.403  1.5555 -0.7536  0.3381
 5563SOL    HW228326   2.623   1.479   4.384  0.2487 -0.5935 -2.9016
 5564SOL     OW28327   0.331   0.169   7.413 -0.4285  0.7150 -0.0603
 5564SOL    HW128328   0.279   0.124   7.347  0.5807 -0.5144 -0.0123
 5564SOL    HW228329   0.329   0.258   7.376 -1.3573  1.3270  1.4351
 5565SOL     OW28330   3.714   3.933   7.345 -0.1292 -0.1048 -0.5673
 5565SOL    HW128331   3.711   3.854   7.398  0.2292 -1.0641 -1.9835
 5565SOL    HW228332   3.808   3.937   7.327 -0.0547 -0.3639 -0.2287
 5566SOL     OW28333   0.023   4.583   7.850 -0.0459 -0.3973  0.2891
 5566SOL    HW128334   4.706   4.607   7.772  0.9201 -1.5017 -0.6887
 5566SOL    HW228335   4.708   4.519   7.900  2.5028 -1.7741  1.0023
 5567SOL     OW28336   4.511   3.713   8.175 -0.0185 -0.5141  0.1952
 5567SOL    HW128337   4.453   3.637   8.180 -1.3301  0.5203  0.5190
 5567SOL    HW228338   4.582   3.679   8.229  0.3218 -0.1048  0.0081
 5568SOL     OW28339   2.928   1.578   4.109  0.5021 -0.1603 -0.0016
 5568SOL    HW128340   2.890   1.519   4.044  1.6352  0.5106 -1.2732
 5568SOL    HW228341   2.876   1.555   4.186  0.4348  1.6158  0.5035
 5569SOL     OW28342   3.640   1.326   2.995 -0.1162 -0.5153 -0.1079
 5569SOL    HW128343   3.711   1.385   2.973 -0.5792  0.9454  2.3860
 5569SOL    HW228344   3.636   1.328   3.090 -1.2191 -1.3430 -0.1326
 5570SOL     OW28345   4.600   2.830   1.679 -0.0763  0.2326 -0.6535
 5570SOL    HW128346   4.677   2.777   1.697  1.0030  2.5952  1.6839
 5570SOL    HW228347   4.543   2.786   1.742  1.2404 -2.3235 -1.2761
 5571SOL     OW28348   1.104   2.411   2.744  0.2577 -0.3376  0.3450
 5571SOL    HW128349   1.048   2.402   2.667 -1.1319  1.7485  1.1083
 5571SOL    HW228350   1.193   2.384   2.723 -0.9261 -2.3677 -2.0809
 5572SOL     OW28351   3.739   1.289  11.736 -0.4045  0.3007  0.8574
 5572SOL    HW128352   3.821   1.260  11.774 -0.5338 -0.0980  0.8402
 5572SOL    HW228353   3.685   1.209  11.734 -2.0381  1.5319 -3.9016
 5573SOL     OW28354   1.690   2.102   7.655  0.1719  0.2106  0.4156
 5573SOL    HW128355   1.742   2.023   7.640 -0.9383 -0.3255 -0.5725
 5573SOL    HW228356   1.625   2.093   7.585  0.8544  1.8910 -0.4361
 5574SOL     OW28357   4.431   2.463   0.579 -0.1691  0.1954 -0.0480
 5574SOL    HW128358   4.365   2.521   0.617 -0.4428 -0.1315 -0.0264
 5574SOL    HW228359   4.384   2.434   0.501  1.2153  1.9657 -1.5507
 5575SOL     OW28360   0.975   2.580   1.528  0.2171  0.4464  0.3364
 5575SOL    HW128361   0.929   2.497   1.527 -0.9795  1.1456 -2.3300
 5575SOL    HW228362   1.061   2.539   1.519  0.6077  1.1859  0.6786
 5576SOL     OW28363   1.923   0.103   7.603 -0.3093  0.7604 -0.8275
 5576SOL    HW128364   1.990   0.107   7.535  0.9241  1.0415  0.4153
 5576SOL    HW228365   1.988   0.103   7.672  1.0365 -0.9849 -2.1067
 5577SOL     OW28366   1.527   0.823   2.585 -0.0910  0.3749  0.4898
 5577SOL    HW128367   1.530   0.918   2.586  0.5873  0.3545  0.6059
 5577SOL    HW228368   1.619   0.798   2.595 -0.2198  0.0613  0.8912
 5578SOL     OW28369   2.766   4.716   5.190  0.3753 -0.3499 -0.2378
 5578SOL    HW128370   2.685   4.666   5.189  0.4497 -0.4523 -0.7200
 5578SOL    HW228371   2.752   0.022   5.104 -0.1269 -0.6472 -0.2956
 5579SOL     OW28372   1.256   2.510   6.811  0.8997 -0.0349 -0.3754
 5579SOL    HW128373   1.231   2.488   6.901 -2.9258 -0.9886 -1.6865
 5579SOL    HW228374   1.341   2.552   6.826  0.3018  1.3789 -0.9506
 5580SOL     OW28375   3.739   0.467  13.681 -0.5088  0.4971 -0.3702
 5580SOL    HW128376   3.827   0.433  13.699 -0.0475  0.8659 -1.8634
 5580SOL    HW228377   3.703   0.476  13.769  2.5998 -1.4752  1.1283
 5581SOL     OW28378   2.655   1.659  12.565 -0.2065 -0.3224  0.1510
 5581SOL    HW128379   2.678   1.750  12.548 -0.1378  0.1500  2.7945
 5581SOL    HW228380   2.709   1.618  12.498  0.4088  1.3989 -0.4090
 5582SOL     OW28381   2.566   4.156   8.025 -0.4380 -0.4774  0.2184
 5582SOL    HW128382   2.650   4.197   8.043 -0.2645 -1.3893  1.4610
 5582SOL    HW228383   2.533   4.149   8.115  0.0613  0.3769  0.4725
 5583SOL     OW28384   0.327   0.172   7.930  0.2575 -0.2964 -0.4602
 5583SOL    HW128385   0.368   0.255   7.955 -3.0569  1.7256 -1.6634
 5583SOL    HW228386   0.310   0.186   7.836 -0.2380  1.7663 -0.0773
 5584SOL     OW28387   4.105   3.439   3.151 -0.1344  0.2680 -0.1495
 5584SOL    HW128388   4.010   3.441   3.143 -0.2817  2.8971  2.2599
 5584SOL    HW228389   4.131   3.370   3.090 -2.1088 -0.4852 -0.1235
 5585SOL     OW28390   0.863   2.810   7.908  0.2679  0.1494 -0.2121
 5585SOL    HW128391   0.945   2.849   7.877  0.0464  1.1796  0.4909
 5585SOL    HW228392   0.846   2.866   7.983 -3.5619  0.4788 -1.3489
 5586SOL     OW28393   2.858   2.236   8.749  0.4221 -0.2369  0.2725
 5586SOL    HW128394   2.885   2.322   8.782  2.4948 -0.4245 -0.9114
 5586SOL    HW228395   2.842   2.190   8.831  2.1735 -0.4637  0.4800
 5587SOL     OW28396   1.908   0.896  16.472  0.0357 -0.5834 -0.1127
 5587SOL    HW128397   1.923   0.849  16.390  3.6217  1.6177 -0.7487
 5587SOL    HW228398   1.879   0.827  16.531 -1.0573 -0.8371 -0.9413
 5588SOL     OW28399   0.729   2.960   5.723 -0.2915  0.3318  0.2732
 5588SOL    HW128400   0.820   2.933   5.738 -0.9963 -1.5945  1.1122
 5588SOL    HW228401   0.704   2.970   5.815 -3.2434  0.1973 -0.5332
 5589SOL     OW28402   4.692   0.914  16.417 -0.5120 -0.3982  0.6437
 5589SOL    HW128403   4.671   0.894  16.326  0.8444 -2.3073  0.7520
 5589SOL    HW228404   0.023   0.982  16.397  0.6116 -1.7557 -0.3836
 5590SOL     OW28405   4.577   3.799  16.615  0.1521 -0.4261  0.4376
 5590SOL    HW128406   4.557   3.886  16.650  1.7383  0.9027 -1.9768
 5590SOL    HW228407   4.672   3.795  16.605  0.2473 -1.7484  1.9901
 5591SOL     OW28408   4.410   2.838   4.598  0.1818  0.3381  0.7396
 5591SOL    HW128409   4.382   2.750   4.623  1.6477 -0.3268  0.0338
 5591SOL    HW228410   4.334   2.876   4.554 -0.7032 -0.8175  1.2879
 5592SOL     OW28411   1.628   2.914   3.503  0.3952 -0.2440 -0.4237
 5592SOL    HW128412   1.585   2.842   3.457  1.4366 -0.8643 -0.4298
 5592SOL    HW228413   1.584   2.930   3.587  1.7826  1.0298  0.0650
 5593SOL     OW28414   3.430   2.601   5.783 -0.7218  0.2042 -0.1728
 5593SOL    HW128415   3.433   2.508   5.805 -0.0187  0.3741  0.4658
 5593SOL    HW228416   3.340   2.601   5.752  0.0895 -0.8598 -2.4752
 5594SOL     OW28417   1.926   3.972   2.422  0.0130 -0.3408 -0.0589
 5594SOL    HW128418   1.832   3.953   2.424  0.3583 -1.6866  2.2243
 5594SOL    HW228419   1.923   4.021   2.340  0.8294  0.2401  0.2505
 5595SOL     OW28420   1.792   3.771   4.781  0.2877 -0.7433 -0.5034
 5595SOL    HW128421   1.836   3.823   4.849 -1.5677 -0.0640  0.1844
 5595SOL    HW228422   1.825   3.813   4.702 -1.0623  0.7111 -0.2902
 5596SOL     OW28423   1.184   3.470   7.547 -0.2511 -0.3751  0.2862
 5596SOL    HW128424   1.120   3.467   7.476 -1.0028 -2.1363  1.0332
 5596SOL    HW228425   1.124   3.463   7.621 -0.0846 -2.3200  0.2348
 5597SOL     OW28426   0.211   2.464  11.983  0.1697  0.3117 -0.2467
 5597SOL    HW128427   0.240   2.373  11.991 -0.3304  0.2750  1.2526
 5597SOL    HW228428   0.146   2.469  11.914 -1.7078  1.1388  1.5960
 5598SOL     OW28429   2.177   0.576  17.590 -0.1185 -1.3289  0.0513
 5598SOL    HW128430   2.265   0.608  17.607 -0.5359 -1.2824  2.0392
 5598SOL    HW228431   2.123   0.618  17.657 -0.0517 -1.5948  0.2669
 5599SOL     OW28432   4.035   2.976   4.065  0.1423 -0.4381 -0.5143
 5599SOL    HW128433   4.096   3.049   4.069 -0.7791  0.3507 -0.8361
 5599SOL    HW228434   3.989   2.975   4.149  1.1014 -1.5816 -0.0071
 5600SOL     OW28435   3.794   3.087   3.154  0.1944 -0.4382 -0.2075
 5600SOL    HW128436   3.749   3.003   3.143  1.2788 -0.8318 -1.5419
 5600SOL    HW228437   3.883   3.055   3.139  0.8509  1.7213 -0.8977
 5601SOL     OW28438   1.409   1.689   1.524  0.3199 -0.2403  0.1185
 5601SOL    HW128439   1.348   1.734   1.584  0.8100 -0.0079  0.4417
 5601SOL    HW228440   1.441   1.765   1.475  1.7467 -0.2868  0.9942
 5602SOL     OW28441   3.375   3.953   1.544 -0.4704 -0.3066 -0.3210
 5602SOL    HW128442   3.347   4.044   1.539  0.3555 -0.0216  0.2368
 5602SOL    HW228443   3.409   3.927   1.458  0.3614  0.1850 -0.1344
 5603SOL     OW28444   0.747   1.732   7.963 -0.7828  0.3341 -0.2603
 5603SOL    HW128445   0.814   1.800   7.968 -0.9164  0.7570 -3.9777
 5603SOL    HW228446   0.699   1.776   7.893 -1.3438 -3.9708 -2.5849
 5604SOL     OW28447   0.785   2.029   8.680  0.2019  0.4350 -0.4026
 5604SOL    HW128448   0.746   2.069   8.602 -0.3298 -2.4736 -1.6278
 5604SOL    HW228449   0.839   1.955   8.651  0.5503  0.9211 -1.0083
 5605SOL     OW28450   3.824   3.993   8.113 -0.6876 -0.1473 -0.3033
 5605SOL    HW128451   3.860   4.021   8.198 -0.4219  0.7498 -0.7189
 5605SOL    HW228452   3.772   3.917   8.140  1.6557 -1.6039  0.1330
 5606SOL     OW28453   2.435   3.761   9.543 -0.6299 -0.2003  0.2595
 5606SOL    HW128454   2.421   3.703   9.618 -1.0947  1.1667  1.2327
 5606SOL    HW228455   2.417   3.699   9.473  0.6065  1.6287 -1.6592
 5607SOL     OW28456   4.247   0.618   3.100  0.1422 -0.1056  0.5048
 5607SOL    HW128457   4.296   0.673   3.038  1.3602  0.9575  2.4337
 5607SOL    HW228458   4.202   0.570   3.030  0.8643  0.0800 -0.0829
 5608SOL     OW28459   4.439   2.197   5.826  0.4167 -0.5607 -0.1268
 5608SOL    HW128460   4.392   2.279   5.835 -0.0028 -0.8353  0.2054
 5608SOL    HW228461   4.409   2.155   5.907  4.1796  0.2217  1.6641
 5609SOL     OW28462   3.863   3.442   1.596  0.7733 -0.2373 -0.3735
 5609SOL    HW128463   3.866   3.431   1.501  0.7900 -2.1170 -0.1547
 5609SOL    HW228464   3.772   3.444   1.625  0.2032 -0.5682 -2.0966
 5610SOL     OW28465   4.306   1.085   6.314 -0.0303  0.0872  0.3895
 5610SOL    HW128466   4.250   1.007   6.314 -1.4934  1.1434 -0.0214
 5610SOL    HW228467   4.279   1.136   6.390  1.0832  2.1428 -0.6060
 5611SOL     OW28468   1.937   2.535   6.913 -0.2148 -0.4218  0.0983
 5611SOL    HW128469   1.883   2.594   6.966  0.2968 -0.4625  0.6605
 5611SOL    HW228470   1.890   2.452   6.924 -2.7699  0.4514 -4.1333
 5612SOL     OW28471   0.386   0.482   4.610  0.1859 -0.2420  0.2357
 5612SOL    HW128472   0.379   0.577   4.620  0.6689 -0.0311 -1.3245
 5612SOL    HW228473   0.379   0.487   4.514  1.7291  0.4929  0.1746
 5613SOL     OW28474   2.193   1.132   6.502 -0.5963  0.2817 -0.0198
 5613SOL    HW128475   2.156   1.155   6.416 -2.6381 -1.0398  0.5125
 5613SOL    HW228476   2.198   1.037   6.501 -1.8561  0.2245 -0.2622
 5614SOL     OW28477   4.628   2.068   8.146  0.2826 -0.0491  0.5943
 5614SOL    HW128478   4.713   2.092   8.181 -0.1846  0.5944  1.2815
 5614SOL    HW228479   4.608   2.145   8.093 -0.3275  0.3203  1.3407
 5615SOL     OW28480   0.124   0.178   9.125  0.1351 -0.6083  0.1458
 5615SOL    HW128481   0.120   0.262   9.079 -0.3853  0.0165  1.3442
 5615SOL    HW228482   0.034   0.143   9.122 -0.7717  1.7661 -0.1948
 5616SOL     OW28483   2.062   4.608  11.356  0.1252  0.1221 -0.1760
 5616SOL    HW128484   2.086   4.695  11.389  0.7494 -0.7055  1.5768
 5616SOL    HW228485   2.148   4.570  11.376 -0.2171 -1.2788 -1.4104
 5617SOL     OW28486   0.154   4.590  13.294  0.3932 -0.0835  0.4002
 5617SOL    HW128487   0.190   4.575  13.207 -2.0775  0.8110 -0.7610
 5617SOL    HW228488   0.134   4.500  13.319  1.0006 -0.4105 -0.2753
 5618SOL     OW28489   2.808   3.725   2.017 -0.1064 -0.3313  0.2402
 5618SOL    HW128490   2.897   3.690   2.020  0.6026  1.3208 -1.2053
 5618SOL    HW228491   2.769   3.697   2.100  1.0122 -1.8352  0.2610
 5619SOL     OW28492   1.009   2.533   2.997 -0.0373  0.4738  0.2722
 5619SOL    HW128493   1.025   2.515   2.905  1.3281 -1.1310  0.8336
 5619SOL    HW228494   1.094   2.519   3.037  0.6851 -1.0872 -1.7703
 5620SOL     OW28495   0.180   4.076   6.407 -0.2323  0.3308  0.0499
 5620SOL    HW128496   0.167   4.032   6.323  0.1295  0.8371 -0.2771
 5620SOL    HW228497   0.273   4.098   6.413 -0.4499  1.9598 -2.4544
 5621SOL     OW28498   2.629   3.728   4.537 -1.0470 -0.1213  0.2479
 5621SOL    HW128499   2.595   3.813   4.510  0.4420  0.5116  0.3604
 5621SOL    HW228500   2.612   3.729   4.631 -3.0810  1.7746 -0.1497
 5622SOL     OW28501   1.451   0.373  17.089 -0.0230  0.1340 -0.3101
 5622SOL    HW128502   1.427   0.425  17.012  1.4222  0.3620 -0.6146
 5622SOL    HW228503   1.387   0.302  17.088 -0.4751  0.5252  0.8127
 5623SOL     OW28504   3.072   3.678  11.702  0.0109 -0.3173  0.0588
 5623SOL    HW128505   3.141   3.647  11.759 -0.2617 -2.4621 -0.8021
 5623SOL    HW228506   3.057   3.606  11.641  1.3114 -1.9829  1.7172
 5624SOL     OW28507   1.139   3.125  11.418 -0.5050 -0.0121  0.6532
 5624SOL    HW128508   1.085   3.047  11.428 -0.8470  0.0437 -0.6745
 5624SOL    HW228509   1.072   3.188  11.393  1.6108  2.3412  0.9145
 5625SOL     OW28510   0.842   4.370   5.522  0.5215 -0.1185 -0.3505
 5625SOL    HW128511   0.885   4.307   5.464  1.0776  1.1605 -1.3317
 5625SOL    HW228512   0.919   4.401   5.569 -0.5037 -1.0464  1.9200
 5626SOL     OW28513   4.129   4.322   2.898  0.3656 -0.5688 -0.4978
 5626SOL    HW128514   4.166   4.256   2.840  1.7242  0.5882 -0.9491
 5626SOL    HW228515   4.126   4.281   2.984 -1.5180  0.5074 -0.0498
 5627SOL     OW28516   2.159   2.982  10.128  0.0817  0.1599  0.1893
 5627SOL    HW128517   2.246   2.965  10.166 -0.1859  1.6094  1.4881
 5627SOL    HW228518   2.135   3.031  10.207  2.2925 -1.4363  1.8564
 5628SOL     OW28519   4.599   3.018  15.363  0.5685  0.3999 -0.3370
 5628SOL    HW128520   4.609   2.925  15.384  0.5449  1.0087  2.4281
 5628SOL    HW228521   4.512   3.021  15.324  0.2041 -0.1417  0.4240
 5629SOL     OW28522   3.203   1.895   1.211  0.3430  0.0866  0.6726
 5629SOL    HW128523   3.165   1.969   1.164 -0.9445 -0.5674  0.6960
 5629SOL    HW228524   3.203   1.933   1.299  2.0523  0.7596  0.3819
 5630SOL     OW28525   4.046   0.472  10.391  0.4858  0.1607  0.3908
 5630SOL    HW128526   4.060   0.452  10.298 -1.8207 -1.3212  0.3764
 5630SOL    HW228527   4.073   0.386  10.423  0.0372 -1.4782 -3.6444
 5631SOL     OW28528   3.201   2.016   1.440  0.3581  1.0246  0.3083
 5631SOL    HW128529   3.111   1.987   1.453  1.2723 -2.1031 -0.3413
 5631SOL    HW228530   3.240   2.015   1.528  1.2535  2.1135 -0.0832
 5632SOL     OW28531   4.411   1.879   8.426  0.3777 -0.3161 -0.4496
 5632SOL    HW128532   4.377   1.969   8.431  0.6796 -0.1787 -0.8019
 5632SOL    HW228533   4.416   1.879   8.330  0.1698 -0.7234 -0.4600
 5633SOL     OW28534   3.469   3.677   7.285 -0.1687 -0.9886  0.9469
 5633SOL    HW128535   3.477   3.772   7.275 -2.3075 -0.7360  1.5837
 5633SOL    HW228536   3.545   3.653   7.232  0.6360  4.0182 -0.1856
 5634SOL     OW28537   0.853   3.812  15.687 -0.3694 -0.0260 -0.7250
 5634SOL    HW128538   0.773   3.841  15.731 -0.6685 -3.8532  1.2099
 5634SOL    HW228539   0.877   3.902  15.666  3.3164 -1.1611 -1.2653
 5635SOL     OW28540   3.517   2.439   4.779  0.0127  0.4787 -0.3955
 5635SOL    HW128541   3.500   2.402   4.866 -0.8581  1.0188 -0.3362
 5635SOL    HW228542   3.432   2.416   4.741 -0.0165  2.4458 -1.5062
 5636SOL     OW28543   0.136   4.344   2.483  0.3728 -0.2071 -0.6934
 5636SOL    HW128544   0.227   4.335   2.512  0.4185 -1.3630 -1.1883
 5636SOL    HW228545   0.162   4.369   2.394  1.0092 -0.2296 -0.5122
 5637SOL     OW28546   1.593   1.805   2.678  0.4647 -0.0383 -0.3813
 5637SOL    HW128547   1.642   1.883   2.651 -0.7053  0.8149 -0.0482
 5637SOL    HW228548   1.555   1.832   2.762  2.2640  1.4034 -0.0244
 5638SOL     OW28549   2.090   4.676   3.433 -0.1945  0.3488 -0.4374
 5638SOL    HW128550   2.116   0.030   3.408  0.5698  0.4042  0.5419
 5638SOL    HW228551   2.050   4.645   3.352 -0.4179 -1.0616  0.2137
 5639SOL     OW28552   0.174   3.944  15.550 -0.2664  0.1593  0.2845
 5639SOL    HW128553   0.254   3.972  15.595  1.4216 -1.7149 -1.5534
 5639SOL    HW228554   0.211   3.886  15.484  0.5267 -0.1189  0.9677
 5640SOL     OW28555   3.241   3.378  13.000 -0.1612  0.5812 -0.6432
 5640SOL    HW128556   3.254   3.307  12.937 -1.5953 -2.1770  2.1811
 5640SOL    HW228557   3.276   3.342  13.082  0.0994 -1.6766 -1.7441
 5641SOL     OW28558   2.935   4.147   2.916 -0.0604 -0.3069  0.3981
 5641SOL    HW128559   3.031   4.141   2.921  0.2028  4.1041  0.0471
 5641SOL    HW228560   2.918   4.233   2.880 -0.3667  0.1379  1.6115
 5642SOL     OW28561   2.752   4.226   4.491  0.5338  0.0759 -0.1642
 5642SOL    HW128562   2.763   4.207   4.584  1.1607 -0.6401 -0.3842
 5642SOL    HW228563   2.833   4.276   4.474  0.7926 -0.6204 -0.9796
 5643SOL     OW28564   4.226   4.649  16.466  0.1242 -0.0540  0.4494
 5643SOL    HW128565   4.271   4.685  16.389 -1.3911  0.4128 -0.2035
 5643SOL    HW228566   4.153   4.616  16.414  1.6475 -1.6077 -0.7197
 5644SOL     OW28567   4.231   1.369   6.759 -0.1342  0.6070  0.0435
 5644SOL    HW128568   4.256   1.367   6.667  1.6630  1.3521  0.5284
 5644SOL    HW228569   4.265   1.452   6.792  1.3828 -0.0491  0.1389
 5645SOL     OW28570   2.041   1.998   4.147  0.1933  0.0113  0.5587
 5645SOL    HW128571   2.128   1.968   4.172  0.9110 -0.6238 -2.6579
 5645SOL    HW228572   2.023   2.064   4.214  0.2440 -1.8194  2.3818
 5646SOL     OW28573   2.522   3.454   9.677  0.0074  0.1390  0.4563
 5646SOL    HW128574   2.464   3.498   9.740  0.8730  2.4691 -0.3728
 5646SOL    HW228575   2.474   3.372   9.667 -0.1690  0.4030 -0.8621
 5647SOL     OW28576   3.673   2.869   8.211  0.8493 -0.2020  0.2309
 5647SOL    HW128577   3.758   2.909   8.224  1.1192 -0.4001 -0.9460
 5647SOL    HW228578   3.627   2.932   8.156  1.0534 -0.1891  0.0770
 5648SOL     OW28579   3.276   3.207   2.028 -0.0929  0.7367 -0.1055
 5648SOL    HW128580   3.189   3.183   1.995  1.8143 -0.7862 -4.0598
 5648SOL    HW228581   3.302   3.130   2.079 -0.9994  0.4275 -0.1083
 5649SOL     OW28582   3.848   3.317   5.646 -0.0727 -0.1590  0.5822
 5649SOL    HW128583   3.853   3.274   5.561 -0.2304  2.7260 -0.9066
 5649SOL    HW228584   3.774   3.264   5.675  0.3247  1.3849  4.4044
 5650SOL     OW28585   2.905   3.775   8.828  0.4263 -0.5684  0.1633
 5650SOL    HW128586   2.894   3.680   8.821  0.3208 -0.5428 -0.0427
 5650SOL    HW228587   2.862   3.795   8.911 -0.5494 -1.6762 -0.0643
 5651SOL     OW28588   0.898   4.170  15.346 -0.2928 -0.0857 -0.1484
 5651SOL    HW128589   0.981   4.157  15.301 -0.4321 -0.8498 -0.1874
 5651SOL    HW228590   0.831   4.164  15.278 -1.9160  0.0577  1.4282
 5652SOL     OW28591   1.889   3.468   6.290  0.3240  0.7614 -0.2786
 5652SOL    HW128592   1.949   3.509   6.228  1.0020  1.1575  0.6425
 5652SOL    HW228593   1.813   3.447   6.236 -0.1840 -0.8282  1.0629
 5653SOL     OW28594   3.477   3.636   5.985  0.3541  0.2128  0.0782
 5653SOL    HW128595   3.399   3.611   6.034 -0.9061 -0.3923 -2.1853
 5653SOL    HW228596   3.499   3.568   5.921 -1.6629 -0.7671  0.4377
 5654SOL     OW28597   4.336   2.578   5.352  0.5503  0.3888 -0.0148
 5654SOL    HW128598   4.308   2.560   5.441  1.4610  2.6996  0.7418
 5654SOL    HW228599   4.358   2.671   5.362  2.1325 -0.2407  2.1664
 5655SOL     OW28600   3.650   2.283   8.324  0.4989 -0.0178  0.3284
 5655SOL    HW128601   3.712   2.277   8.251 -0.7241  0.5529 -0.7453
 5655SOL    HW228602   3.566   2.278   8.279 -0.2184  1.5178  1.5155
 5656SOL     OW28603   1.344   4.213  13.343 -0.6863 -0.6860  0.5806
 5656SOL    HW128604   1.401   4.158  13.397  0.6912 -0.6391 -0.8289
 5656SOL    HW228605   1.304   4.258  13.417  1.3036 -0.4571  1.5319
 5657SOL     OW28606   2.358   1.039   1.317  0.1786  0.4129 -0.0732
 5657SOL    HW128607   2.427   1.067   1.256 -0.7402 -0.2163 -1.3802
 5657SOL    HW228608   2.348   1.119   1.368 -0.8514  0.0794  0.2440
 5658SOL     OW28609   4.139   0.412   6.737  0.4579  0.2761 -0.3866
 5658SOL    HW128610   4.227   0.393   6.706 -0.0653 -2.8062  0.0122
 5658SOL    HW228611   4.149   0.508   6.740  0.6457  0.2377  0.0960
 5659SOL     OW28612   0.438   2.974   8.081 -0.6271 -0.0137 -0.6033
 5659SOL    HW128613   0.519   2.927   8.101 -1.0085 -0.1068  0.7609
 5659SOL    HW228614   0.378   2.903   8.057  1.3077 -1.7404 -0.3227
 5660SOL     OW28615   3.278   2.750   6.667 -0.2045 -0.4515 -0.2747
 5660SOL    HW128616   3.295   2.834   6.709  0.4948 -0.2537 -0.9665
 5660SOL    HW228617   3.304   2.684   6.732 -0.7706  1.6280  2.0584
 5661SOL     OW28618   2.703   0.297   0.392  0.3782 -0.4557 -0.2696
 5661SOL    HW128619   2.788   0.341   0.398  1.5568 -2.5084 -2.1321
 5661SOL    HW228620   2.643   0.368   0.368  0.1879 -0.1800  0.9840
 5662SOL     OW28621   4.477   4.002   4.590 -0.0858  0.3160 -0.0407
 5662SOL    HW128622   4.453   4.037   4.675  1.6411  0.7282  0.2765
 5662SOL    HW228623   4.548   4.063   4.570 -2.5676  2.6849 -1.5764
 5663SOL     OW28624   2.027   0.977   6.874  0.0316 -0.1214  0.8857
 5663SOL    HW128625   2.021   0.900   6.930  1.3790  0.3195  1.6228
 5663SOL    HW228626   2.117   0.964   6.844 -0.1995  1.2824 -0.4342
 5664SOL     OW28627   1.184   1.545   2.737  0.5701 -0.6396  0.3322
 5664SOL    HW128628   1.093   1.532   2.709  0.2369 -1.2805  1.6819
 5664SOL    HW228629   1.232   1.462   2.736  0.4012 -0.7064 -1.2388
 5665SOL     OW28630   3.342   1.927   6.791  0.7137 -0.3480  0.1764
 5665SOL    HW128631   3.274   1.869   6.827 -0.7361 -0.1973 -2.3194
 5665SOL    HW228632   3.302   1.957   6.710  0.2532  0.2390  0.6182
 5666SOL     OW28633   0.777   3.793   0.990  0.0861  0.7139 -0.1274
 5666SOL    HW128634   0.814   3.774   1.076 -1.7497  2.2682  0.9958
 5666SOL    HW228635   0.742   3.881   1.004 -0.3048  0.3993  0.8589
 5667SOL     OW28636   2.414   4.589   7.485 -0.4223  0.1654  0.8036
 5667SOL    HW128637   2.388   4.569   7.575  2.1038 -0.2280  1.4534
 5667SOL    HW228638   2.455   4.674   7.502  1.2265 -0.4675  0.0483
 5668SOL     OW28639   3.460   1.390  11.473  0.3350  0.1670  0.1054
 5668SOL    HW128640   3.407   1.319  11.438 -1.5541  0.9090  1.4463
 5668SOL    HW228641   3.545   1.386  11.428 -0.3645 -1.0828 -1.0855
 5669SOL     OW28642   4.698   2.056   6.195 -0.5552  0.1580 -0.5037
 5669SOL    HW128643   4.720   1.974   6.240  0.8847  1.0335  0.3777
 5669SOL    HW228644   4.725   2.025   6.108  1.0406  0.3342 -0.0598
 5670SOL     OW28645   0.795   0.712   9.502 -0.1115 -0.0825  0.1501
 5670SOL    HW128646   0.803   0.633   9.448  0.4082  1.2211 -1.6294
 5670SOL    HW228647   0.843   0.682   9.579  0.4588 -0.5588 -0.3905
 5671SOL     OW28648   2.954   1.294   5.270 -0.1089  0.0848  0.6367
 5671SOL    HW128649   2.952   1.199   5.257 -1.2556  0.1767  0.1681
 5671SOL    HW228650   3.034   1.309   5.321  0.5912  1.6115 -0.9213
 5672SOL     OW28651   4.172   0.410   7.054  0.0282 -0.7412 -0.8877
 5672SOL    HW128652   4.122   0.414   6.973  0.3721 -0.9673 -1.1112
 5672SOL    HW228653   4.233   0.341   7.030  0.5221 -0.3919 -0.6297
 5673SOL     OW28654   1.986   0.149  17.592  0.2525 -0.4079  0.2952
 5673SOL    HW128655   1.921   0.219  17.590  3.1498  2.2502 -1.8826
 5673SOL    HW228656   2.066   0.202  17.587 -1.5772  2.3270  0.0335
 5674SOL     OW28657   1.932   0.722   2.924  0.0048  0.4464  0.5275
 5674SOL    HW128658   1.997   0.662   2.888  0.6827 -0.0917  2.6434
 5674SOL    HW228659   1.855   0.704   2.870  0.1176 -0.2191  0.5963
 5675SOL     OW28660   0.687   4.642   4.991  0.1807 -0.2271 -0.1869
 5675SOL    HW128661   0.611   4.700   4.981 -0.1107 -0.8102 -1.3342
 5675SOL    HW228662   0.739   4.700   5.046 -0.8119 -0.1703  0.6911
 5676SOL     OW28663   2.830   1.142  16.391 -0.4766 -0.4539 -1.0992
 5676SOL    HW128664   2.869   1.065  16.349  1.7888  1.2159 -2.0938
 5676SOL    HW228665   2.803   1.111  16.477  1.1669 -0.1087 -0.4520
 5677SOL     OW28666   0.109   0.350   4.524 -0.2353 -0.6558  0.1609
 5677SOL    HW128667   0.184   0.330   4.468 -1.5797  0.2514 -1.9305
 5677SOL    HW228668   0.141   0.429   4.567 -1.8726  0.5705 -0.9074
 5678SOL     OW28669   4.314   3.568  12.665  0.3926 -0.2364 -0.8084
 5678SOL    HW128670   4.361   3.600  12.741  1.0825  1.6801 -2.0236
 5678SOL    HW228671   4.255   3.644  12.664 -1.1590 -1.4328  0.2186
 5679SOL     OW28672   3.811   1.068   3.301  0.3169  0.0626  0.4780
 5679SOL    HW128673   3.784   1.049   3.391  1.0636  2.3216  1.1766
 5679SOL    HW228674   3.724   1.060   3.262  0.7227 -1.1209 -0.1661
 5680SOL     OW28675   2.465   0.355  14.517 -0.0333  0.1085 -0.2641
 5680SOL    HW128676   2.427   0.268  14.505 -0.1115  0.3195 -1.4968
 5680SOL    HW228677   2.541   0.327  14.569 -0.3853  0.5380  0.4948
 5681SOL     OW28678   3.105   2.993  17.184  0.5204  0.5708  0.2583
 5681SOL    HW128679   3.026   2.982  17.130  0.6819 -2.5107  0.6440
 5681SOL    HW228680   3.167   2.958  17.121 -1.0674 -0.3197 -0.8283
 5682SOL     OW28681   4.689   0.452  13.525 -0.3598  0.3000 -0.6910
 5682SOL    HW128682   4.615   0.500  13.563  0.4975  1.7155 -0.7973
 5682SOL    HW228683   0.015   0.457  13.599  0.2682  0.5082 -1.2120
 5683SOL     OW28684   2.828   3.043   8.393 -0.5695 -0.0959 -0.1227
 5683SOL    HW128685   2.789   3.083   8.471  0.0731  2.1069 -0.9110
 5683SOL    HW228686   2.891   2.984   8.436 -0.7685 -0.7152 -0.6820
 5684SOL     OW28687   1.063   2.173   4.246 -0.3431 -0.0593  0.6834
 5684SOL    HW128688   1.080   2.084   4.215 -0.7451 -0.4237  1.5253
 5684SOL    HW228689   1.122   2.187   4.320  1.5953  0.0869 -0.8790
 5685SOL     OW28690   1.481   2.019   7.469 -0.5363  0.0013 -0.1305
 5685SOL    HW128691   1.453   1.932   7.499  0.4181  0.3015  1.6432
 5685SOL    HW228692   1.533   1.993   7.392  0.6454  1.1105  0.3003
 5686SOL     OW28693   2.206   4.402   5.010 -0.1347 -0.1629  0.1406
 5686SOL    HW128694   2.176   4.386   5.099 -0.5461 -4.6243 -0.8315
 5686SOL    HW228695   2.240   4.492   5.018  1.3113 -0.4103 -2.9419
 5687SOL     OW28696   2.831   3.809   7.525  0.4743 -0.0269 -0.1203
 5687SOL    HW128697   2.870   3.834   7.441  0.6079  2.2132  0.5934
 5687SOL    HW228698   2.898   3.745   7.546  0.9710  0.6653  0.4271
 5688SOL     OW28699   4.273   0.890  15.319 -0.0350  0.4287  0.5538
 5688SOL    HW128700   4.348   0.861  15.266 -1.0559 -2.2152  0.5604
 5688SOL    HW228701   4.207   0.848  15.265  1.4944 -0.1131 -0.8935
 5689SOL     OW28702   2.891   3.385  14.832 -0.2460  0.0795  0.2994
 5689SOL    HW128703   2.866   3.311  14.777  2.8876  0.3394 -1.4354
 5689SOL    HW228704   2.879   3.455  14.768 -1.5634 -1.2380 -0.9023
 5690SOL     OW28705   1.082   1.661  17.444  0.4439  0.5382  0.5789
 5690SOL    HW128706   1.080   1.754  17.420  2.5022 -0.1655 -2.3101
 5690SOL    HW228707   1.165   1.636  17.404 -1.3356 -0.6656 -2.4284
 5691SOL     OW28708   0.866   3.522  13.507  0.0976  0.1553 -0.2142
 5691SOL    HW128709   0.945   3.481  13.474 -0.7444 -2.0777  0.5179
 5691SOL    HW228710   0.891   3.531  13.599  2.3083 -0.7019 -0.7340
 5692SOL     OW28711   1.054   2.506   1.822 -0.8855 -0.2782 -0.5244
 5692SOL    HW128712   1.104   2.425   1.819  1.7420  1.4133 -2.2866
 5692SOL    HW228713   1.003   2.493   1.741  1.8733 -1.6541 -2.0414
 5693SOL     OW28714   0.412   3.591  13.239 -0.1835  0.7872 -0.1129
 5693SOL    HW128715   0.482   3.560  13.297  0.3470  0.0865 -1.1179
 5693SOL    HW228716   0.457   3.610  13.157  1.6661  2.1341  1.2098
 5694SOL     OW28717   3.655   4.537   9.415 -0.0517 -0.3059 -0.1278
 5694SOL    HW128718   3.613   4.496   9.340  1.0767 -2.3217  0.3561
 5694SOL    HW228719   3.637   4.631   9.406  1.5154 -0.0927 -0.8859
 5695SOL     OW28720   3.435   1.403   1.838 -0.3760 -0.1702 -0.3955
 5695SOL    HW128721   3.356   1.351   1.825 -2.1199  2.2523  0.4895
 5695SOL    HW228722   3.403   1.492   1.855 -0.8871 -0.1964 -1.1972
 5696SOL     OW28723   0.962   3.785   9.323 -0.4535  0.3623  0.3844
 5696SOL    HW128724   0.989   3.803   9.233  0.1404 -1.4823  0.1883
 5696SOL    HW228725   1.050   3.789   9.362  0.1494  1.2361 -1.0733
 5697SOL     OW28726   1.286   3.795  17.138  0.6106  0.2603 -0.0574
 5697SOL    HW128727   1.242   3.876  17.111 -1.0332 -0.7493 -0.4551
 5697SOL    HW228728   1.333   3.824  17.216  1.4546  1.5584 -1.0537
 5698SOL     OW28729   0.671   1.054   5.867 -0.4250  0.6723 -0.1956
 5698SOL    HW128730   0.713   1.129   5.827 -0.3799  0.5793 -0.3217
 5698SOL    HW228731   0.577   1.074   5.866 -1.0073 -2.1896 -1.6287
 5699SOL     OW28732   1.622   3.486   0.013  0.0388 -0.5950  0.3554
 5699SOL    HW128733   1.618   3.538   0.093 -0.0466 -0.0431 -0.0082
 5699SOL    HW228734   1.572   3.531  17.680  1.7319 -1.2664 -1.3353
 5700SOL     OW28735   1.304   0.418   9.206  0.2892 -0.3669 -0.0466
 5700SOL    HW128736   1.266   0.390   9.290 -2.0687 -1.8761 -1.6251
 5700SOL    HW228737   1.286   0.339   9.156 -1.1351  0.5306 -0.9643
 5701SOL     OW28738   1.421   0.965   8.961 -0.9597  0.4160 -0.0499
 5701SOL    HW128739   1.484   0.893   8.966 -1.7306 -0.2377  0.2220
 5701SOL    HW228740   1.383   0.968   9.049 -0.7831 -0.4269  0.0525
 5702SOL     OW28741   2.091   2.885  17.720 -0.7830  0.3496 -0.0061
 5702SOL    HW128742   2.094   2.818  17.651 -3.0321 -0.1646  0.4177
 5702SOL    HW228743   2.182   2.915  17.711 -0.1792 -1.4025  0.3272
 5703SOL     OW28744   1.468   1.986   3.973  0.0337 -0.3545  0.1854
 5703SOL    HW128745   1.546   1.931   3.965  0.8766  0.6217  1.8225
 5703SOL    HW228746   1.405   1.919   3.998  1.4441 -1.1644  1.5603
 5704SOL     OW28747   2.223   0.167   1.971 -0.3602  0.5718  0.4277
 5704SOL    HW128748   2.227   0.140   1.879 -2.5065  2.3230 -0.2019
 5704SOL    HW228749   2.137   0.209   1.972 -0.5724  0.1628 -0.2763
 5705SOL     OW28750   0.665   4.008   7.843  0.0659 -0.5925 -0.5425
 5705SOL    HW128751   0.578   3.995   7.880 -0.6560  0.0348 -1.9819
 5705SOL    HW228752   0.705   4.009   7.929  1.7089  3.2959 -1.3764
 5706SOL     OW28753   2.593   0.061   0.335 -0.1791 -0.1296  0.0918
 5706SOL    HW128754   2.531   0.084   0.266 -0.1602 -1.9235 -0.5351
 5706SOL    HW228755   2.643   0.141   0.349  0.7146 -0.1813 -2.7509
 5707SOL     OW28756   2.030   2.921   5.203 -0.1286  0.7077 -0.3548
 5707SOL    HW128757   1.992   2.943   5.118 -1.8472  1.0661  0.4911
 5707SOL    HW228758   2.029   3.006   5.247 -0.0898  0.0590  0.9033
 5708SOL     OW28759   1.202   2.452   1.486 -0.2226 -0.0922 -0.8999
 5708SOL    HW128760   1.252   2.446   1.404 -0.3451 -0.0939 -0.9732
 5708SOL    HW228761   1.254   2.407   1.553 -0.3723 -0.6965 -1.1939
 5709SOL     OW28762   2.195   0.185   3.360 -1.1247 -0.1647  0.1362
 5709SOL    HW128763   2.153   0.197   3.275 -1.7969  1.6602  0.7201
 5709SOL    HW228764   2.275   0.236   3.360 -0.7058 -0.8472  2.0702
 5710SOL     OW28765   2.952   4.201   5.352  0.1058 -0.2590 -0.4231
 5710SOL    HW128766   3.022   4.263   5.371  1.9743 -2.0018 -1.5283
 5710SOL    HW228767   2.874   4.256   5.351 -0.6814 -1.3484  1.4418
 5711SOL     OW28768   3.851   3.692   4.799  0.9263  0.1977  0.2698
 5711SOL    HW128769   3.889   3.690   4.887 -0.8200 -0.8919  1.0095
 5711SOL    HW228770   3.765   3.666   4.833 -0.0898 -0.2415 -2.6853
 5712SOL     OW28771   3.895   4.688   5.550 -0.4929 -0.2504 -0.8627
 5712SOL    HW128772   3.907   4.623   5.619 -1.5879  0.8720  0.3693
 5712SOL    HW228773   3.951   0.026   5.580  0.4069 -1.1154 -0.4599
 5713SOL     OW28774   2.696   1.590   8.523 -0.3152 -0.0572 -0.8052
 5713SOL    HW128775   2.684   1.580   8.428 -0.6095 -0.0264 -0.7708
 5713SOL    HW228776   2.791   1.585   8.531 -0.4698 -0.8945  0.5954
 5714SOL     OW28777   1.814   1.307   4.699  0.1832  0.6221  0.3643
 5714SOL    HW128778   1.872   1.234   4.720  1.9479  2.8680  3.4080
 5714SOL    HW228779   1.832   1.302   4.605 -2.7659  0.6297 -0.2011
 5715SOL     OW28780   3.837   0.844  13.504 -0.0692  0.1577  0.0470
 5715SOL    HW128781   3.800   0.787  13.437  1.1327  0.2681 -0.7183
 5715SOL    HW228782   3.807   0.934  13.489 -0.0037  0.2433  0.4419
 5716SOL     OW28783   0.584   4.032  16.249 -0.2014  0.2865  0.1006
 5716SOL    HW128784   0.630   3.971  16.191  1.6281  0.7654  1.0369
 5716SOL    HW228785   0.637   4.029  16.329  0.1866 -0.9639 -0.2002
 5717SOL     OW28786   4.714   1.354  10.110 -0.0104 -0.3971 -0.3523
 5717SOL    HW128787   4.651   1.400  10.165 -1.0096 -0.4823 -1.4371
 5717SOL    HW228788   0.035   1.318  10.180  2.2857  0.6480 -1.6039
 5718SOL     OW28789   4.457   1.904   0.477  0.7453 -0.4282  0.3424
 5718SOL    HW128790   4.467   1.831   0.416  0.5749 -2.4633  2.7081
 5718SOL    HW228791   4.464   1.856   0.560  0.2542 -1.8200 -0.4299
 5719SOL     OW28792   3.788   1.560   7.496 -0.4673 -0.1579  0.1029
 5719SOL    HW128793   3.818   1.553   7.587 -0.0187 -2.0383 -0.1899
 5719SOL    HW228794   3.838   1.488   7.458 -0.4047 -0.5414  0.8956
 5720SOL     OW28795   3.638   0.405   7.791  0.3054  0.1651  0.8677
 5720SOL    HW128796   3.589   0.470   7.842  1.1477  1.7655 -0.3513
 5720SOL    HW228797   3.680   0.354   7.860  0.1402 -1.4113 -0.1908
 5721SOL     OW28798   3.865   2.332   6.252 -0.2064  0.6046  0.0938
 5721SOL    HW128799   3.821   2.417   6.249  1.3231  1.4253  0.7191
 5721SOL    HW228800   3.914   2.341   6.170  1.4573  0.0883  1.0303
 5722SOL     OW28801   4.648   2.844  13.533  0.1546 -0.1343  0.4434
 5722SOL    HW128802   4.660   2.765  13.481 -2.6553  0.1458 -0.6119
 5722SOL    HW228803   4.574   2.890  13.493 -0.0398  0.3669  1.3750
 5723SOL     OW28804   1.063   3.125  11.702 -0.1738  0.1778 -0.5687
 5723SOL    HW128805   1.069   3.051  11.643 -4.1663 -1.1718  0.7255
 5723SOL    HW228806   0.968   3.135  11.708 -0.2054  0.4724 -1.6458
 5724SOL     OW28807   4.038   1.407   3.627  0.0667  0.6425  0.3684
 5724SOL    HW128808   3.964   1.438   3.575  1.9241  2.9077 -0.9022
 5724SOL    HW228809   4.018   1.454   3.708 -0.3318 -0.6669  1.0439
 5725SOL     OW28810   3.354   1.835   7.790 -0.6914  0.7691  0.3855
 5725SOL    HW128811   3.377   1.815   7.881 -1.3479  1.1305  0.6310
 5725SOL    HW228812   3.403   1.769   7.742  2.5786  2.2591  1.7037
 5726SOL     OW28813   2.954   4.106  12.134  0.2699  0.1901 -0.4893
 5726SOL    HW128814   3.034   4.158  12.121 -0.2900  1.0474 -0.5384
 5726SOL    HW228815   2.928   4.135  12.222 -2.9546 -0.3566 -1.2894
 5727SOL     OW28816   0.379   4.246   8.952 -0.2096  0.1669  0.2767
 5727SOL    HW128817   0.391   4.152   8.942  1.4524  0.4189 -0.2146
 5727SOL    HW228818   0.455   4.272   9.005 -0.7060  0.8761  0.6531
 5728SOL     OW28819   1.868   4.118   1.711  0.2711 -0.1805  0.2547
 5728SOL    HW128820   1.906   4.178   1.775 -0.3443  0.4261  0.0526
 5728SOL    HW228821   1.934   4.048   1.707 -1.3779 -1.7054 -0.6022
 5729SOL     OW28822   1.401   3.249   3.357 -0.1635 -0.1255  0.0921
 5729SOL    HW128823   1.412   3.303   3.436  1.0941 -0.1234 -0.0766
 5729SOL    HW228824   1.326   3.195   3.381  0.5555 -0.1923  2.1623
 5730SOL     OW28825   3.857   2.437   2.562  0.0758  0.3378 -0.1157
 5730SOL    HW128826   3.819   2.430   2.475 -1.8710 -1.8097  0.8891
 5730SOL    HW228827   3.945   2.430   2.526  0.5520  0.6615  0.9627
 5731SOL     OW28828   0.068   4.299  12.971 -0.0227  0.1717  0.4018
 5731SOL    HW128829   0.125   4.371  12.945 -0.2578  1.3727  3.1893
 5731SOL    HW228830   0.079   4.236  12.900  0.0357 -1.5010  1.8714
 5732SOL     OW28831   0.597   3.916  14.246  0.1014  0.3099  0.3799
 5732SOL    HW128832   0.533   3.987  14.252 -1.0375 -0.6900  0.1824
 5732SOL    HW228833   0.599   3.894  14.339  1.1787  0.9606  0.5047
 5733SOL     OW28834   0.934   0.359   1.434 -0.5671 -0.3570 -0.3364
 5733SOL    HW128835   0.966   0.280   1.391 -0.3426 -0.8258  0.6850
 5733SOL    HW228836   0.977   0.351   1.519 -1.2938  0.0384  0.0720
 5734SOL     OW28837   4.492   1.449   2.754  0.0110 -0.0515 -0.4920
 5734SOL    HW128838   4.524   1.393   2.684 -0.0467  0.0938 -0.6347
 5734SOL    HW228839   4.424   1.395   2.795  0.7209 -0.9650 -0.5489
 5735SOL     OW28840   4.164   0.883   6.103  0.4978 -0.1148 -0.1317
 5735SOL    HW128841   4.117   0.965   6.086  2.1894  0.4911 -1.9348
 5735SOL    HW228842   4.159   0.873   6.198  0.0165 -0.0573 -0.1484
 5736SOL     OW28843   2.108   2.631   8.417 -0.0500 -0.2180 -0.4699
 5736SOL    HW128844   2.112   2.542   8.383  3.5710 -0.1023 -0.3722
 5736SOL    HW228845   2.141   2.615   8.506  0.5253  3.6667 -0.0023
 5737SOL     OW28846   3.205   1.169   4.641  0.2829  0.0208  0.3846
 5737SOL    HW128847   3.250   1.148   4.722  0.6359  0.6263  0.3460
 5737SOL    HW228848   3.143   1.097   4.633  1.1136 -0.6818  0.2610
 5738SOL     OW28849   0.139   0.829   6.806 -0.1173  0.0324  0.0647
 5738SOL    HW128850   0.212   0.883   6.777  0.6860 -2.1326 -1.9284
 5738SOL    HW228851   0.072   0.869   6.750 -0.3348  0.0670  0.3454
 5739SOL     OW28852   2.895   1.454   2.495  0.1407  0.1069  0.2325
 5739SOL    HW128853   2.964   1.520   2.481  2.8380 -2.7377  0.0356
 5739SOL    HW228854   2.912   1.376   2.442 -2.7978  0.7967 -1.7009
 5740SOL     OW28855   2.149   0.373   9.836  0.1721  0.9990  0.6305
 5740SOL    HW128856   2.167   0.317   9.912 -1.1482  0.5111  0.5738
 5740SOL    HW228857   2.169   0.461   9.869 -1.3742  1.4247  0.4564
 5741SOL     OW28858   1.627   1.977   0.510 -0.3267  0.1832  0.0163
 5741SOL    HW128859   1.594   2.017   0.590 -0.5081  0.2238 -0.0789
 5741SOL    HW228860   1.556   1.991   0.447  0.0740 -1.2966 -0.7704
 5742SOL     OW28861   1.195   2.986   2.553 -0.0388  0.0888  0.2179
 5742SOL    HW128862   1.278   2.988   2.506  0.2365  0.2483  0.7063
 5742SOL    HW228863   1.209   3.053   2.621 -1.3935  0.0657  0.5158
 5743SOL     OW28864   0.711   1.065   9.205  0.0346 -0.1281  0.3431
 5743SOL    HW128865   0.700   1.008   9.282 -0.6725 -0.4606  0.0004
 5743SOL    HW228866   0.640   1.029   9.151 -0.1739 -0.7134  1.0092
 5744SOL     OW28867   1.612   1.418  17.710  0.1303  0.2164  0.5404
 5744SOL    HW128868   1.595   1.326  17.686 -0.8061  0.5348 -0.0413
 5744SOL    HW228869   1.693   1.434  17.662  0.0360  1.6322  0.8771
 5745SOL     OW28870   3.913   3.128   3.498 -0.3064 -0.1694  0.2723
 5745SOL    HW128871   3.857   3.123   3.575  3.7618  0.2798  3.2948
 5745SOL    HW228872   3.896   3.217   3.466 -0.6445  0.5262  2.4139
 5746SOL     OW28873   0.191   3.602   3.636 -0.1722 -0.3320 -0.8753
 5746SOL    HW128874   0.266   3.588   3.578  1.2491 -0.0570  0.9178
 5746SOL    HW228875   0.184   3.521   3.685  0.4337  0.3805  0.3851
 5747SOL     OW28876   3.160   1.601   6.772  0.0393  0.0418  0.2360
 5747SOL    HW128877   3.218   1.542   6.723 -0.9318  0.4113 -1.3677
 5747SOL    HW228878   3.110   1.635   6.698  1.2322  0.7670 -0.2450
 5748SOL     OW28879   1.616   3.780  12.008  0.5441 -0.4065  0.0465
 5748SOL    HW128880   1.546   3.799  12.070 -0.2860  1.4365 -1.4400
 5748SOL    HW228881   1.694   3.794  12.062  1.4353 -2.0390 -0.8098
 5749SOL     OW28882   3.075   1.972   9.519 -0.4013 -0.4707  0.6183
 5749SOL    HW128883   3.017   1.956   9.445  0.4122  3.0774 -0.7968
 5749SOL    HW228884   3.081   1.892   9.570  0.8749 -0.7301  0.0584
 5750SOL     OW28885   4.264   2.660   5.915 -0.1102  0.0602 -0.1167
 5750SOL    HW128886   4.185   2.694   5.959 -1.6036 -0.5586 -2.3207
 5750SOL    HW228887   4.289   2.736   5.862 -0.2183  0.1656 -0.0182
 5751SOL     OW28888   1.989   1.511   6.816  0.0093 -0.2684  0.3565
 5751SOL    HW128889   2.046   1.447   6.772  1.9167  0.5812  1.5843
 5751SOL    HW228890   1.989   1.580   6.750  0.2026 -1.2526 -0.6793
 5752SOL     OW28891   1.169   0.081   2.605 -0.2583  0.5640  0.0059
 5752SOL    HW128892   1.237   0.032   2.559  2.6681  2.9792  1.8017
 5752SOL    HW228893   1.160   0.025   2.682 -0.0324 -0.1464 -0.4923
 5753SOL     OW28894   3.297   2.499   7.489  0.1955  0.1360  0.0376
 5753SOL    HW128895   3.220   2.544   7.525  0.4725  0.1026  0.6812
 5753SOL    HW228896   3.258   2.419   7.455 -0.1633  0.9164 -1.3618
 5754SOL     OW28897   0.790   2.274   6.794  0.1029 -0.0425  0.0084
 5754SOL    HW128898   0.835   2.358   6.784  1.8603 -1.3414 -2.9492
 5754SOL    HW228899   0.698   2.298   6.787  0.4068  0.3837 -2.6959
 5755SOL     OW28900   2.771   4.362   0.036  0.2426  0.3326  0.3847
 5755SOL    HW128901   2.860   4.393   0.056  0.7583 -1.2152  0.5245
 5755SOL    HW228902   2.796   4.294  17.709  1.4386  2.5594 -1.5965
 5756SOL     OW28903   4.293   4.720   5.076  0.1790 -0.4265 -0.2793
 5756SOL    HW128904   4.310   0.076   5.049 -0.0142 -1.2870 -3.1865
 5756SOL    HW228905   4.201   4.711   5.050 -0.0309  2.0437 -0.3671
 5757SOL     OW28906   2.772   0.834   6.197 -0.9733 -0.2255 -0.8308
 5757SOL    HW128907   2.827   0.774   6.248 -0.1908 -0.1460 -1.5747
 5757SOL    HW228908   2.785   0.796   6.109  1.6474 -1.4225  0.0743
 5758SOL     OW28909   4.429   1.971  14.698  0.7516  0.0761  0.6380
 5758SOL    HW128910   4.412   1.880  14.674  2.4715 -0.0052 -0.3145
 5758SOL    HW228911   4.355   2.010  14.652  1.3116 -0.2363 -0.5326
 5759SOL     OW28912   1.431   2.177   8.954  0.0503 -0.0460  0.8175
 5759SOL    HW128913   1.456   2.154   8.865 -0.4147  1.3550  0.3281
 5759SOL    HW228914   1.340   2.148   8.952  0.3269 -0.7939 -0.6325
 5760SOL     OW28915   1.795   3.654  16.008  0.3422  0.1056 -0.0163
 5760SOL    HW128916   1.807   3.625  15.917 -1.9586 -1.7035  0.2527
 5760SOL    HW228917   1.787   3.567  16.046 -0.2895 -1.0576 -2.7592
 5761SOL     OW28918   2.791   4.640   1.738 -0.1299  0.0115 -0.1504
 5761SOL    HW128919   2.791   4.544   1.743 -0.1356 -0.1192 -3.0314
 5761SOL    HW228920   2.730   4.672   1.804  1.2939  2.8748 -0.2497
 5762SOL     OW28921   0.772   4.680   9.005  0.3783  0.1708  0.2500
 5762SOL    HW128922   0.862   4.693   8.973  0.8224 -0.1134  1.3914
 5762SOL    HW228923   0.778   4.687   9.100  1.6184 -2.0481  0.3499
 5763SOL     OW28924   3.784   4.289   6.615  0.6856 -0.5639 -0.8327
 5763SOL    HW128925   3.751   4.210   6.657 -0.3462  0.6366  0.6038
 5763SOL    HW228926   3.863   4.287   6.670 -1.2060  2.0151  1.9945
 5764SOL     OW28927   3.767   1.512  15.925  0.4009  0.0293  0.3840
 5764SOL    HW128928   3.760   1.599  15.886  1.1785 -0.0213  0.1333
 5764SOL    HW228929   3.681   1.481  15.952 -0.2610  0.5220 -1.1975
 5765SOL     OW28930   4.705   4.581   4.521  0.0011 -0.4231  0.1501
 5765SOL    HW128931   4.675   4.671   4.538 -0.1046 -0.2716 -0.8172
 5765SOL    HW228932   4.624   4.530   4.516  0.1123 -0.8351  2.3998
 5766SOL     OW28933   1.905   1.280   2.867  0.0003 -0.2160 -0.2642
 5766SOL    HW128934   1.992   1.240   2.876  0.4345  0.2984 -2.2047
 5766SOL    HW228935   1.866   1.212   2.812 -1.8998  1.8507 -1.4841
 5767SOL     OW28936   0.010   3.974  13.756 -0.2059 -0.8233  0.2714
 5767SOL    HW128937   4.695   4.054  13.774  2.8533  0.6713  1.9508
 5767SOL    HW228938   0.095   4.007  13.785 -2.1083  1.2685  3.4905
 5768SOL     OW28939   2.449   0.342   3.840  0.6855  0.4498 -0.4717
 5768SOL    HW128940   2.413   0.281   3.776 -1.4032 -0.7737  1.8479
 5768SOL    HW228941   2.387   0.415   3.835 -0.1455 -0.0564  2.2623
 5769SOL     OW28942   1.917   1.014  11.280  0.1387 -0.9014  0.1949
 5769SOL    HW128943   1.853   0.960  11.235 -1.7648  2.1443 -0.7612
 5769SOL    HW228944   1.891   1.002  11.371 -1.2874 -1.7920 -0.3300
 5770SOL     OW28945   1.446   1.101   4.395 -0.5685 -0.2650 -0.4788
 5770SOL    HW128946   1.429   1.008   4.383  1.9661 -0.9200  0.8549
 5770SOL    HW228947   1.400   1.121   4.477 -3.3560 -1.9151 -1.6548
 5771SOL     OW28948   1.071   3.914   3.281  0.8287  0.2783 -0.3493
 5771SOL    HW128949   1.003   3.967   3.322  0.3248 -0.0443 -0.7599
 5771SOL    HW228950   1.030   3.873   3.204  1.7204 -0.6605 -0.3405
 5772SOL     OW28951   0.460   2.344   4.738 -0.9569  0.6949 -0.7879
 5772SOL    HW128952   0.411   2.413   4.694  0.2043  0.9863 -1.6472
 5772SOL    HW228953   0.522   2.323   4.668 -2.6818  2.2230 -2.7583
 5773SOL     OW28954   1.529   2.126   4.908  0.1937 -0.1298 -0.2708
 5773SOL    HW128955   1.516   2.068   4.833 -1.7374  1.2429 -0.9899
 5773SOL    HW228956   1.449   2.174   4.884 -1.7597 -4.5285 -2.6446
 5774SOL     OW28957   0.740   0.711   9.822  0.1088 -0.0476  0.6992
 5774SOL    HW128958   0.814   0.759   9.784 -0.9909 -0.0537 -1.4385
 5774SOL    HW228959   0.744   0.733   9.915 -0.7789  0.4983  0.6047
 5775SOL     OW28960   3.124   1.501   3.039 -0.3461  0.7543  0.6971
 5775SOL    HW128961   3.202   1.446   3.049 -0.3222  0.3328 -1.9242
 5775SOL    HW228962   3.152   1.593   3.044  0.7669  0.5084 -0.9894
 5776SOL     OW28963   2.407   0.231   0.057  0.4477  0.3654  0.7890
 5776SOL    HW128964   2.398   0.316   0.014  0.3289 -0.5944 -1.1125
 5776SOL    HW228965   2.378   0.171  17.723  0.1380  0.8486  0.4981
 5777SOL     OW28966   3.616   2.735   1.189 -0.1900 -0.1924 -0.5358
 5777SOL    HW128967   3.538   2.773   1.229 -0.1185 -3.1966  2.4196
 5777SOL    HW228968   3.649   2.815   1.149  1.4616 -0.7779 -0.3533
 5778SOL     OW28969   3.263   4.673   6.438  0.6570 -0.1084 -0.2716
 5778SOL    HW128970   3.313   0.002   6.387 -2.5799  1.7226 -1.1593
 5778SOL    HW228971   3.331   4.607   6.451  1.5265  0.5887 -1.3380
 5779SOL     OW28972   4.604   2.881   8.270  0.6256  1.1746 -0.3315
 5779SOL    HW128973   4.661   2.954   8.247  1.2563  0.4882 -0.9621
 5779SOL    HW228974   4.522   2.902   8.226 -0.1817 -0.8235  0.1918
 5780SOL     OW28975   0.911   3.492   1.413  0.8812 -0.2098  0.1393
 5780SOL    HW128976   0.831   3.447   1.387  1.1738 -0.3073 -0.6007
 5780SOL    HW228977   0.918   3.475   1.507 -0.9067  0.6319  0.4244
 5781SOL     OW28978   3.061   1.410  11.311  0.5709  0.2819 -0.0924
 5781SOL    HW128979   3.054   1.498  11.272  0.4385 -0.7586 -2.4047
 5781SOL    HW228980   2.980   1.364  11.288  0.3531  1.0651 -0.9124
 5782SOL     OW28981   4.274   3.448  17.324 -0.1150  0.2935 -0.0094
 5782SOL    HW128982   4.356   3.414  17.287 -1.1193  0.0543 -2.0212
 5782SOL    HW228983   4.209   3.384  17.296  1.1457 -0.8678 -0.2877
 5783SOL     OW28984   1.858   0.249  14.764  0.1256  0.4411  0.3960
 5783SOL    HW128985   1.810   0.301  14.827 -0.1418  0.4556  0.1790
 5783SOL    HW228986   1.883   0.321  14.706 -0.6817  0.4217  0.0247
 5784SOL     OW28987   0.216   0.131   1.644  0.2354  0.7129  0.4678
 5784SOL    HW128988   0.171   0.063   1.694  2.1363  0.6836  2.1439
 5784SOL    HW228989   0.155   0.143   1.572 -0.5695 -0.9848  0.8919
 5785SOL     OW28990   2.951   2.115  15.513  0.9621  0.1284  0.0001
 5785SOL    HW128991   2.927   2.178  15.581  2.4829  0.3393  0.3445
 5785SOL    HW228992   2.947   2.043  15.576 -0.5629  0.7231  0.5793
 5786SOL     OW28993   1.201   0.766  17.297  0.9727  0.1202 -0.2908
 5786SOL    HW128994   1.171   0.715  17.372 -0.1564  1.1155 -0.0721
 5786SOL    HW228995   1.119   0.775  17.248  1.4364 -0.8671 -1.2662
 5787SOL     OW28996   1.266   3.269   6.787 -0.1988 -0.4635  0.2672
 5787SOL    HW128997   1.207   3.325   6.736 -0.0446 -1.7979 -1.3597
 5787SOL    HW228998   1.249   3.303   6.875  3.0452 -0.7232  0.9932
 5788SOL     OW28999   3.930   4.383   8.082  0.0870  0.1851  0.3311
 5788SOL    HW129000   3.887   4.348   8.160  0.8269 -3.2273 -0.7906
 5788SOL    HW229001   4.018   4.400   8.115  0.3805  1.3454 -1.0622
 5789SOL     OW29002   1.665   3.637  11.639 -0.1725 -0.1291 -0.2355
 5789SOL    HW129003   1.649   3.724  11.677  0.5152  1.4388 -3.4466
 5789SOL    HW229004   1.601   3.582  11.683  0.0455  1.3990  1.9802
 5790SOL     OW29005   3.463   1.738   2.805  0.9604 -0.2797 -0.3050
 5790SOL    HW129006   3.525   1.739   2.878 -0.3521  2.7342  0.7649
 5790SOL    HW229007   3.430   1.648   2.806  1.9100 -0.6245 -0.7296
 5791SOL     OW29008   3.110   1.048   7.609 -0.3218 -0.1456  0.0232
 5791SOL    HW129009   3.172   1.065   7.538 -0.9559 -0.9151 -0.7239
 5791SOL    HW229010   3.028   1.034   7.561  0.9707 -1.7376 -1.7151
 5792SOL     OW29011   1.924   2.287  12.669  0.1208 -0.2988  0.1699
 5792SOL    HW129012   1.873   2.254  12.596 -1.9258  0.8405  1.0884
 5792SOL    HW229013   1.973   2.362  12.634  0.6410 -0.0790  1.3424
 5793SOL     OW29014   3.957   0.405   4.847  0.0482 -0.2522  0.2887
 5793SOL    HW129015   3.867   0.422   4.821 -0.5906  0.9076  3.2972
 5793SOL    HW229016   3.997   0.417   4.761 -1.5806 -0.4068 -0.4765
 5794SOL     OW29017   2.399   4.418  17.451 -0.1842 -0.4485 -0.5104
 5794SOL    HW129018   2.395   4.344  17.391  4.2412 -1.5072  0.5481
 5794SOL    HW229019   2.487   4.447  17.428 -1.0489  1.0046 -1.9534
 5795SOL     OW29020   2.353   2.672   5.852 -0.1460 -0.1456  0.4925
 5795SOL    HW129021   2.410   2.597   5.833 -0.9896 -0.3424 -1.2845
 5795SOL    HW229022   2.295   2.655   5.777 -1.0749  0.0017  1.1810
 5796SOL     OW29023   0.265   0.626  17.622 -0.2941  0.3724  0.2851
 5796SOL    HW129024   0.249   0.718  17.605  0.8002  0.9085  2.1866
 5796SOL    HW229025   0.343   0.606  17.571  0.6897  0.5772  1.7017
 5797SOL     OW29026   0.852   2.819  15.908 -0.2954 -0.5303  0.0515
 5797SOL    HW129027   0.911   2.777  15.971  0.3249 -0.1336 -0.2643
 5797SOL    HW229028   0.813   2.882  15.969  1.7134  0.4043  0.3797
 5798SOL     OW29029   1.697   2.525   9.815  0.0966 -0.0630  0.8729
 5798SOL    HW129030   1.744   2.563   9.889 -1.7689 -1.6268  2.8413
 5798SOL    HW229031   1.679   2.598   9.756 -0.3424  1.5779  3.0343
 5799SOL     OW29032   1.068   0.270   2.281  0.4816  0.1347  0.4088
 5799SOL    HW129033   1.163   0.259   2.275  0.3458 -0.6438 -0.2191
 5799SOL    HW229034   1.079   0.349   2.335 -2.2922 -0.6189  2.0585
 5800SOL     OW29035   0.470   2.197  10.693 -0.4040 -0.0387  0.9852
 5800SOL    HW129036   0.502   2.215  10.781  0.5257  1.1431  0.4141
 5800SOL    HW229037   0.551   2.175  10.646 -0.7384 -2.1646  1.4117
 5801SOL     OW29038   3.588   1.004   1.641  0.5331  0.7523 -0.4099
 5801SOL    HW129039   3.610   1.028   1.731  2.1709  2.2356 -1.2160
 5801SOL    HW229040   3.676   0.971   1.626 -0.0836 -0.1695 -1.9596
 5802SOL     OW29041   3.199   4.133   7.025 -0.0892  0.4176  0.5307
 5802SOL    HW129042   3.292   4.154   7.038  0.5835 -1.5795 -1.0386
 5802SOL    HW229043   3.161   4.140   7.113  0.6107  1.0545  0.7836
 5803SOL     OW29044   3.135   4.142   7.291 -0.2326 -0.0203 -0.3761
 5803SOL    HW129045   3.058   4.141   7.349 -1.4521 -0.6699 -2.0233
 5803SOL    HW229046   3.180   4.077   7.344 -0.3258  0.7066  0.6070
 5804SOL     OW29047   0.489   0.633   6.050 -0.3330 -0.6555  0.8044
 5804SOL    HW129048   0.399   0.663   6.033 -0.3583 -1.8470 -1.1665
 5804SOL    HW229049   0.524   0.665   5.968 -0.4159 -0.6511  0.7703
 5805SOL     OW29050   0.873   1.126  12.838  0.4673  0.5627 -0.4849
 5805SOL    HW129051   0.936   1.175  12.785 -0.1799  0.1324 -1.6763
 5805SOL    HW229052   0.935   1.094  12.903 -2.8860  0.2406  2.5722
 5806SOL     OW29053   3.389   3.153   3.194  0.4750 -0.1970 -0.7320
 5806SOL    HW129054   3.465   3.191   3.238  1.1349 -0.6519 -1.4863
 5806SOL    HW229055   3.364   3.070   3.236 -1.4499  1.2208  0.9482
 5807SOL     OW29056   1.776   1.902   4.184 -0.1732 -0.0892 -0.0077
 5807SOL    HW129057   1.870   1.905   4.167 -0.0712 -1.2014  0.3292
 5807SOL    HW229058   1.775   1.952   4.266  0.5275 -0.2078  0.0675
 5808SOL     OW29059   4.701   2.035  14.433  0.0041  0.1703  0.4579
 5808SOL    HW129060   4.614   2.074  14.444 -1.1030 -2.0726 -0.5310
 5808SOL    HW229061   4.705   2.058  14.340 -1.5744 -1.1971  0.0744
 5809SOL     OW29062   2.815   3.892  14.648 -0.0007  0.4982 -0.5052
 5809SOL    HW129063   2.859   3.976  14.652  0.5316  0.0022  3.6770
 5809SOL    HW229064   2.724   3.916  14.665 -0.2240  0.9434 -2.3003
 5810SOL     OW29065   2.325   3.093   1.442  0.8300 -0.6846  0.7273
 5810SOL    HW129066   2.388   3.029   1.407 -2.2237 -3.2588 -0.0298
 5810SOL    HW229067   2.379   3.130   1.512 -0.9974  1.0692  1.2012
 5811SOL     OW29068   3.562   1.006   3.184 -0.6806 -0.0379  0.3124
 5811SOL    HW129069   3.567   0.912   3.203 -1.1922 -0.3840 -1.3402
 5811SOL    HW229070   3.527   1.021   3.097  3.4214 -2.3870 -1.7626
 5812SOL     OW29071   3.512   2.593   1.955  0.0936  0.2011 -0.0652
 5812SOL    HW129072   3.565   2.634   1.887 -0.2472 -0.7491 -0.9034
 5812SOL    HW229073   3.425   2.588   1.915  1.5301 -0.3346 -3.1276
 5813SOL     OW29074   0.722   0.845   8.655  0.0391  0.2860  0.1031
 5813SOL    HW129075   0.760   0.768   8.611 -0.3754  0.6952 -0.9758
 5813SOL    HW229076   0.761   0.919   8.608  0.4716 -1.0889 -1.7304
 5814SOL     OW29077   4.698   0.253  16.210  0.2377  0.3102  0.6358
 5814SOL    HW129078   4.632   0.284  16.147 -0.3219 -0.5400  0.8097
 5814SOL    HW229079   4.706   0.338  16.253  1.1909 -0.3350  1.7132
 5815SOL     OW29080   1.844   0.067   3.100  0.7355  0.5591 -0.4614
 5815SOL    HW129081   1.884   0.008   3.164  0.4728  0.8730 -0.0096
 5815SOL    HW229082   1.787   0.119   3.156  0.0453  0.4003 -1.0188
 5816SOL     OW29083   0.521   1.817   2.441 -0.4163  0.0401 -0.2025
 5816SOL    HW129084   0.609   1.833   2.475 -0.0986 -1.8405 -0.1430
 5816SOL    HW229085   0.490   1.905   2.463  0.1317  0.2354 -0.2014
 5817SOL     OW29086   3.226   2.800  11.760 -0.1333 -0.3321  0.0588
 5817SOL    HW129087   3.286   2.836  11.695  0.1834 -1.1549 -0.1053
 5817SOL    HW229088   3.226   2.707  11.737 -1.4106 -0.0354 -1.0995
 5818SOL     OW29089   1.893   2.920   3.595  0.1927  0.5080 -0.4479
 5818SOL    HW129090   1.802   2.920   3.566 -0.2437  0.6913  0.9183
 5818SOL    HW229091   1.940   2.853   3.545 -1.5542 -0.8139 -0.3055
 5819SOL     OW29092   4.385   3.150   6.797  0.7025 -0.3630 -0.1885
 5819SOL    HW129093   4.432   3.224   6.759 -0.8527  0.9850  0.5116
 5819SOL    HW229094   4.462   3.093   6.797  0.6315 -0.4527 -0.8655
 5820SOL     OW29095   1.196   2.077   8.295 -0.3029  0.2666  0.5118
 5820SOL    HW129096   1.267   2.013   8.299  0.1908  0.8102  0.4211
 5820SOL    HW229097   1.217   2.108   8.207 -0.5932  1.2386  0.7873
 5821SOL     OW29098   2.195   1.444   4.672  0.1470  0.1269 -0.4923
 5821SOL    HW129099   2.182   1.368   4.729  1.2708 -0.3676 -0.8778
 5821SOL    HW229100   2.207   1.398   4.589  0.3769 -1.8972  0.6659
 5822SOL     OW29101   1.127   2.331   8.429 -0.1255 -0.5782  0.1361
 5822SOL    HW129102   1.182   2.367   8.499 -0.6384  1.6108 -0.5708
 5822SOL    HW229103   1.195   2.321   8.363  0.0111  0.1221  0.1657
 5823SOL     OW29104   1.783   3.469   4.772 -0.0422 -0.2731 -0.4171
 5823SOL    HW129105   1.724   3.459   4.698  1.4041  2.0759 -1.8781
 5823SOL    HW229106   1.794   3.564   4.768 -0.3695 -0.3334 -2.5958
 5824SOL     OW29107   0.377   0.367   0.919  0.2748 -0.2788  0.5292
 5824SOL    HW129108   0.363   0.459   0.893 -0.8576 -0.9488 -1.2362
 5824SOL    HW229109   0.290   0.346   0.953 -0.8297  2.3585 -0.5838
 5825SOL     OW29110   1.469   2.410   5.836 -0.7764 -0.2636  0.4114
 5825SOL    HW129111   1.394   2.438   5.785 -0.9921 -0.4497  0.6239
 5825SOL    HW229112   1.462   2.314   5.830 -1.1362 -0.1281 -1.2505
 5826SOL     OW29113   3.045   3.926   4.515 -0.2768 -0.4345  0.6354
 5826SOL    HW129114   3.137   3.905   4.497 -0.1803  0.8991 -0.4102
 5826SOL    HW229115   3.032   3.886   4.601  0.4170 -0.3673  0.7781
 5827SOL     OW29116   0.361   3.274   2.677 -0.0952 -0.6337  0.0545
 5827SOL    HW129117   0.400   3.307   2.758 -3.6796 -0.3861  1.7129
 5827SOL    HW229118   0.276   3.240   2.708  0.4187 -0.9511  1.1282
 5828SOL     OW29119   2.742   3.730   3.746  0.4963  0.1711 -0.1648
 5828SOL    HW129120   2.687   3.789   3.798  1.4934  1.3157 -0.4072
 5828SOL    HW229121   2.702   3.745   3.660  0.8720 -1.2763 -0.6023
 5829SOL     OW29122   3.375   1.068   3.745  0.0236  0.5971  0.4822
 5829SOL    HW129123   3.344   1.085   3.834 -0.5983  0.8518  0.2162
 5829SOL    HW229124   3.431   1.145   3.744  0.1636  0.4784 -1.2906
 5830SOL     OW29125   0.295   3.052   5.632 -0.3136 -0.0049  0.1313
 5830SOL    HW129126   0.314   3.129   5.686  1.8506 -0.1798 -0.3711
 5830SOL    HW229127   0.379   3.010   5.650  0.6337  1.0440 -1.8442
 5831SOL     OW29128   3.307   1.336   4.432 -0.3813  0.3425  0.3884
 5831SOL    HW129129   3.248   1.331   4.357 -0.8965 -1.0587  0.8833
 5831SOL    HW229130   3.298   1.248   4.469 -0.7132  1.6380  3.3583
 5832SOL     OW29131   2.645   1.086   9.948 -0.7226  0.1386 -0.2093
 5832SOL    HW129132   2.732   1.127   9.948  0.0803 -1.5567  0.4083
 5832SOL    HW229133   2.598   1.142   9.886  2.4662  1.6200 -1.2826
 5833SOL     OW29134   1.578   4.392   6.396 -0.1347 -0.1825  0.2106
 5833SOL    HW129135   1.622   4.361   6.475  1.2650  0.5405 -0.2911
 5833SOL    HW229136   1.492   4.423   6.424 -0.1490  0.0441 -0.0803
 5834SOL     OW29137   1.099   3.480   7.812 -0.0536  0.2757 -0.1876
 5834SOL    HW129138   1.189   3.460   7.840  0.3399  0.6700 -1.1941
 5834SOL    HW229139   1.085   3.559   7.865 -3.1128 -1.4571  1.6086
 5835SOL     OW29140   0.512   4.564  16.946  0.1222  0.1984  0.4554
 5835SOL    HW129141   0.561   4.482  16.947  2.8189  1.7966 -0.6709
 5835SOL    HW229142   0.588   4.623  16.947 -0.5988  1.1281 -0.1709
 5836SOL     OW29143   2.143   4.611   0.855  0.0634 -0.0256  0.1775
 5836SOL    HW129144   2.214   4.564   0.811 -0.0983 -0.3278  0.2399
 5836SOL    HW229145   2.197   4.641   0.929  0.4077 -1.4650  0.4990
 5837SOL     OW29146   1.665   3.877  11.036 -0.7295  0.1752 -0.2719
 5837SOL    HW129147   1.616   3.801  11.065  1.7577 -0.7325  1.5163
 5837SOL    HW229148   1.662   3.933  11.114 -1.6851  0.9523 -0.8675
 5838SOL     OW29149   3.229   0.674   4.452  0.7816  0.2909 -0.7928
 5838SOL    HW129150   3.292   0.739   4.422 -0.6586  1.4325 -1.3580
 5838SOL    HW229151   3.152   0.730   4.453  1.3161  0.9822  0.7485
 5839SOL     OW29152   0.453   3.819   7.915 -0.4424  1.1283 -1.0266
 5839SOL    HW129153   0.413   3.775   7.990 -1.8517 -1.8690 -3.5378
 5839SOL    HW229154   0.416   3.776   7.838 -0.9124  0.9821 -0.7242
 5840SOL     OW29155   2.650   4.206   8.289 -0.2799  0.4622  0.5952
 5840SOL    HW129156   2.680   4.115   8.296 -2.2444 -0.4282 -2.5571
 5840SOL    HW229157   2.712   4.255   8.343  0.9172  1.6865 -1.9043
 5841SOL     OW29158   4.276   3.059  14.375  0.2276 -0.1740  0.0059
 5841SOL    HW129159   4.234   2.989  14.326 -1.2783  0.6280  0.1177
 5841SOL    HW229160   4.224   3.135  14.347 -1.9924 -1.5800  0.2753
 5842SOL     OW29161   2.112   0.946   0.214 -0.0615 -0.5219  0.0719
 5842SOL    HW129162   2.093   1.039   0.211 -0.3760 -0.6185 -0.8193
 5842SOL    HW229163   2.179   0.941   0.283 -0.1701 -0.3415  0.1902
 5843SOL     OW29164   3.629   0.659   4.158 -0.3023  0.0809 -0.1891
 5843SOL    HW129165   3.593   0.643   4.245 -0.5384  0.7636 -0.1638
 5843SOL    HW229166   3.555   0.695   4.111 -0.6293  0.7311  0.8225
 5844SOL     OW29167   3.353   3.697  10.458 -0.0540  0.1125 -0.2199
 5844SOL    HW129168   3.366   3.753  10.534  0.4046 -0.7685  0.3507
 5844SOL    HW229169   3.324   3.623  10.512 -1.0023  0.6840  0.0412
 5845SOL     OW29170   2.065   3.090   2.034  0.0439 -0.6267 -0.3032
 5845SOL    HW129171   2.028   3.078   1.947  1.0628  0.0663 -0.8352
 5845SOL    HW229172   2.013   3.042   2.098  1.8961 -1.3172  0.6715
 5846SOL     OW29173   3.189   0.935   8.644  0.3035 -0.0087 -0.5854
 5846SOL    HW129174   3.238   0.952   8.725 -0.0375  3.3090 -1.0803
 5846SOL    HW229175   3.145   1.019   8.636  1.5249  0.4186 -2.6863
 5847SOL     OW29176   0.469   2.521  10.886  0.2023  0.7463 -0.0289
 5847SOL    HW129177   0.509   2.584  10.825  0.2566 -0.8034 -1.6201
 5847SOL    HW229178   0.382   2.524  10.846 -0.7572  3.0241  2.2081
 5848SOL     OW29179   1.631   1.128  14.792 -0.0088 -0.4246  0.1545
 5848SOL    HW129180   1.616   1.177  14.873  0.8843 -0.6850  0.4718
 5848SOL    HW229181   1.547   1.090  14.767  0.7995 -1.7503 -0.5504
 5849SOL     OW29182   0.833   0.465   9.376  0.3983 -0.3243 -0.1861
 5849SOL    HW129183   0.743   0.433   9.377  0.6559 -1.0860 -1.0427
 5849SOL    HW229184   0.879   0.431   9.299 -0.5240 -1.2690 -0.3243
 5850SOL     OW29185   3.187   3.341   9.801  0.3157  0.1277 -0.4051
 5850SOL    HW129186   3.182   3.261   9.854 -0.1813  0.8735  0.6712
 5850SOL    HW229187   3.203   3.402   9.873 -0.7070 -0.0973  0.0144
 5851SOL     OW29188   1.360   3.363   2.600  0.0790  0.0178 -0.3506
 5851SOL    HW129189   1.269   3.365   2.571  0.2164  1.0006 -0.7297
 5851SOL    HW229190   1.350   3.346   2.694  0.9111  0.3568 -0.1968
 5852SOL     OW29191   0.740   0.973   4.557 -0.4511 -0.1240  0.2525
 5852SOL    HW129192   0.690   1.034   4.611 -0.8194 -0.5791  0.4252
 5852SOL    HW229193   0.702   0.885   4.565  0.0907 -0.5224 -1.3526
 5853SOL     OW29194   2.778   0.606   2.717 -0.9299 -0.9278 -0.2946
 5853SOL    HW129195   2.744   0.654   2.792  1.5055  1.8153 -0.9308
 5853SOL    HW229196   2.860   0.570   2.751 -1.0706 -1.0580 -0.0929
 5854SOL     OW29197   3.175   4.486   2.428  0.2221 -0.1182 -0.6477
 5854SOL    HW129198   3.221   4.523   2.352  0.5068 -0.0153 -0.4243
 5854SOL    HW229199   3.088   4.522   2.411  0.3403 -0.0728 -1.1837
 5855SOL     OW29200   1.862   1.470  14.757 -0.1017 -0.2037 -0.4633
 5855SOL    HW129201   1.821   1.399  14.707  2.3956 -2.8739  1.3330
 5855SOL    HW229202   1.879   1.410  14.830 -1.2275 -0.8271 -0.7123
 5856SOL     OW29203   4.624   1.350   6.874  0.6885 -0.1824  0.1778
 5856SOL    HW129204   4.636   1.351   6.779 -0.9819  2.5437 -0.0239
 5856SOL    HW229205   4.599   1.443   6.879 -1.4567 -0.6555 -1.5671
 5857SOL     OW29206   4.421   0.287   2.439  0.1693 -0.3816 -0.1990
 5857SOL    HW129207   4.479   0.227   2.485  0.9912  2.1414  2.0800
 5857SOL    HW229208   4.490   0.341   2.399 -0.3000 -0.3221 -0.9227
 5858SOL     OW29209   0.234   4.473   3.846  0.0399  0.3763 -0.0634
 5858SOL    HW129210   0.235   4.379   3.830  1.5117 -0.0886  2.8416
 5858SOL    HW229211   0.301   4.499   3.783 -1.1191  1.8617 -0.6963
 5859SOL     OW29212   0.181   4.272   3.403  0.3761  0.3465 -0.3667
 5859SOL    HW129213   0.236   4.250   3.329  0.9076 -2.9012  0.9867
 5859SOL    HW229214   0.224   4.353   3.427  2.2147 -0.5981 -0.4824
 5860SOL     OW29215   0.696   1.951   5.945  0.3363 -0.0508  0.1284
 5860SOL    HW129216   0.687   1.963   6.040 -1.2873  1.2137 -0.1819
 5860SOL    HW229217   0.609   1.967   5.908  1.3718  1.0877 -1.7963
 5861SOL     OW29218   1.397   2.368   8.311 -0.1414 -0.3120  0.5411
 5861SOL    HW129219   1.407   2.276   8.287  0.7109  0.2920 -1.4528
 5861SOL    HW229220   1.446   2.362   8.393  1.5939 -1.1623 -0.5551
 5862SOL     OW29221   4.215   1.167   5.885 -0.1397 -0.3416  0.1479
 5862SOL    HW129222   4.179   1.176   5.973  0.9326 -1.4433  0.6968
 5862SOL    HW229223   4.273   1.092   5.900  1.1444  0.6202 -0.0125
 5863SOL     OW29224   2.988   0.821  13.841  0.1647 -0.3102  0.2958
 5863SOL    HW129225   2.900   0.844  13.812  1.3549 -0.8901 -3.7986
 5863SOL    HW229226   2.980   0.784  13.929 -1.4092  1.9904  1.0986
 5864SOL     OW29227   0.800   2.757   8.445 -0.4552  0.2967 -0.3037
 5864SOL    HW129228   0.832   2.818   8.511 -0.2575  2.6162 -2.5175
 5864SOL    HW229229   0.791   2.676   8.496  0.2225  2.0246  2.4916
 5865SOL     OW29230   0.394   3.073   4.485  0.3901  0.3560  0.0876
 5865SOL    HW129231   0.365   3.153   4.530  0.1675  0.6779 -0.6407
 5865SOL    HW229232   0.324   3.014   4.513  0.6309  1.4575  3.1110
 5866SOL     OW29233   2.691   3.091   3.366 -0.2701 -0.2187  0.0105
 5866SOL    HW129234   2.641   3.039   3.428 -1.0508 -0.3045 -0.6916
 5866SOL    HW229235   2.713   3.162   3.427 -0.7148 -0.6219  0.6314
 5867SOL     OW29236   1.584   4.258   1.791 -0.1159  0.5908  0.2832
 5867SOL    HW129237   1.639   4.268   1.713 -0.5817  0.4012 -0.0691
 5867SOL    HW229238   1.509   4.205   1.764  1.2881  0.3696 -3.1101
 5868SOL     OW29239   1.175   2.783   9.177  0.2160 -0.6785  0.0314
 5868SOL    HW129240   1.112   2.783   9.105  1.0352 -2.4703 -0.7079
 5868SOL    HW229241   1.138   2.858   9.222 -0.6863 -0.8710 -0.3967
 5869SOL     OW29242   3.773   3.750   4.236 -0.5138 -0.4519 -0.2926
 5869SOL    HW129243   3.704   3.687   4.260  0.0434 -0.9648 -0.0449
 5869SOL    HW229244   3.793   3.786   4.322 -1.3886  0.6962 -0.5797
 5870SOL     OW29245   1.178   3.202   1.814 -0.3290  0.0818  0.3383
 5870SOL    HW129246   1.247   3.268   1.816 -1.3358  1.1345 -0.1973
 5870SOL    HW229247   1.120   3.242   1.750 -0.6766  1.8964  1.7827
 5871SOL     OW29248   3.403   3.272   0.035  0.4090 -0.0325 -0.2671
 5871SOL    HW129249   3.338   3.342   0.030 -0.7102 -1.0862 -0.6312
 5871SOL    HW229250   3.412   3.268   0.130 -0.4718  0.0263 -0.1846
 5872SOL     OW29251   0.197   4.316   6.146  0.0498  0.0535  0.4383
 5872SOL    HW129252   0.185   4.400   6.103  1.1697 -0.0843 -0.1465
 5872SOL    HW229253   0.145   4.330   6.225 -1.1867  0.1214 -0.3912
 5873SOL     OW29254   1.026   4.512   5.678 -0.7163  0.2580 -0.6033
 5873SOL    HW129255   1.116   4.485   5.696 -1.7274 -4.3264 -2.2134
 5873SOL    HW229256   1.033   4.607   5.672 -2.7688  0.4235 -0.5697
 5874SOL     OW29257   0.652   2.798   2.220 -0.2847 -0.0324 -0.4524
 5874SOL    HW129258   0.584   2.857   2.253  0.6192  0.9018 -0.2478
 5874SOL    HW229259   0.677   2.862   2.153 -0.0465 -0.7659 -1.0650
 5875SOL     OW29260   3.010   2.670   4.393  0.1055 -0.8246 -0.2158
 5875SOL    HW129261   2.953   2.635   4.462 -1.6928  0.2699 -1.1466
 5875SOL    HW229262   2.971   2.758   4.390  0.1207 -0.8534 -1.1550
 5876SOL     OW29263   2.792   0.907   3.485 -0.5044  0.4599  0.9145
 5876SOL    HW129264   2.704   0.876   3.465 -0.0038 -0.9180  0.8102
 5876SOL    HW229265   2.778   0.963   3.561  1.3722 -0.6529  2.0905
 5877SOL     OW29266   4.227   1.136  10.775 -0.6867  0.2196 -0.2393
 5877SOL    HW129267   4.260   1.129  10.864  1.8052  0.3995 -1.1540
 5877SOL    HW229268   4.134   1.138  10.796 -0.5836 -0.0680  0.2278
 5878SOL     OW29269   1.007   2.906  11.504  0.4958 -0.2177  0.2444
 5878SOL    HW129270   1.004   2.819  11.542  0.0201 -0.1442  0.3780
 5878SOL    HW229271   0.914   2.919  11.487  0.2207 -3.6474 -0.8947
 5879SOL     OW29272   2.626   1.376   7.761  0.4044  0.3733 -0.2928
 5879SOL    HW129273   2.675   1.319   7.821 -1.1272  0.7253  1.2931
 5879SOL    HW229274   2.571   1.308   7.724  0.5986  1.0154 -1.7557
 5880SOL     OW29275   1.326   0.150   3.820  0.1153  0.5772 -0.0772
 5880SOL    HW129276   1.345   0.133   3.728 -0.1764  1.2225 -0.2639
 5880SOL    HW229277   1.352   0.242   3.815 -0.0994  0.6106 -0.5963
 5881SOL     OW29278   1.686   3.121   9.252 -0.1886  0.0321 -0.1470
 5881SOL    HW129279   1.692   3.058   9.324 -1.8704  1.0727  0.9058
 5881SOL    HW229280   1.601   3.162   9.269  0.4643  1.2993  0.0535
 5882SOL     OW29281   0.725   0.675   6.352 -0.1896  0.2543  0.0676
 5882SOL    HW129282   0.803   0.668   6.296  0.1746 -0.9946  0.7362
 5882SOL    HW229283   0.751   0.725   6.430 -0.4953 -0.4828  0.6376
 5883SOL     OW29284   4.693   4.140   4.508 -0.0104  0.7198  0.6819
 5883SOL    HW129285   4.674   4.234   4.509 -0.9410  0.5267  1.6484
 5883SOL    HW229286   0.031   4.138   4.571  0.3845  0.5945  0.2266
 5884SOL     OW29287   4.565   0.008  14.866  0.7387  0.6867 -0.6531
 5884SOL    HW129288   4.494   4.709  14.921  1.8982 -2.4810 -1.0245
 5884SOL    HW229289   4.564   4.671  14.802 -1.9466  0.4220 -0.3322
 5885SOL     OW29290   0.632   4.278  13.732  0.5166 -0.6869 -0.0597
 5885SOL    HW129291   0.686   4.199  13.735  0.9479 -0.4256 -0.9378
 5885SOL    HW229292   0.620   4.290  13.637  0.2733  0.8262  0.1573
 5886SOL     OW29293   1.795   4.011   3.405 -0.2104 -0.0967  0.4457
 5886SOL    HW129294   1.872   3.972   3.447 -0.3797  1.6224  2.3432
 5886SOL    HW229295   1.758   3.944   3.348 -1.0934  1.0166 -0.2884
 5887SOL     OW29296   1.527   0.361   1.585 -0.1846 -0.1138 -0.4908
 5887SOL    HW129297   1.540   0.451   1.555 -0.7136 -0.6571 -2.3133
 5887SOL    HW229298   1.432   0.354   1.579 -0.2540 -0.9064  1.6145
 5888SOL     OW29299   4.708   1.953   2.095 -0.0062 -0.3352 -0.1951
 5888SOL    HW129300   4.618   1.968   2.067 -0.1478 -2.1303 -0.7683
 5888SOL    HW229301   0.014   2.028   2.051 -0.6628 -1.5138 -2.8568
 5889SOL     OW29302   0.610   0.335   3.171 -0.0704 -0.1915 -0.3530
 5889SOL    HW129303   0.601   0.430   3.167 -0.9449 -0.3617 -2.9185
 5889SOL    HW229304   0.674   0.317   3.102 -1.0113 -2.1863 -0.6947
 5890SOL     OW29305   1.523   2.079   7.868 -0.1398 -0.3838 -0.4189
 5890SOL    HW129306   1.504   2.173   7.862 -1.7701 -0.8164 -1.8065
 5890SOL    HW229307   1.594   2.074   7.804  0.0305 -0.0458 -0.2557
 5891SOL     OW29308   2.290   3.236   0.441 -1.1565  0.1397 -0.7534
 5891SOL    HW129309   2.208   3.284   0.451 -1.6164 -0.9586  0.7953
 5891SOL    HW229310   2.337   3.304   0.393 -0.4441  0.7023  0.7333
 5892SOL     OW29311   0.958   3.571   6.435 -0.2740 -0.0632 -0.3332
 5892SOL    HW129312   1.029   3.617   6.480  1.3355 -2.3332 -0.5426
 5892SOL    HW229313   0.912   3.513   6.496 -0.3247  0.9535  0.5834
 5893SOL     OW29314   2.502   1.749  16.093 -0.5346 -0.4056 -0.3098
 5893SOL    HW129315   2.451   1.807  16.150 -1.6611  1.1783 -2.9390
 5893SOL    HW229316   2.493   1.796  16.010 -1.2242 -0.0297 -0.0245
 5894SOL     OW29317   0.787   3.540   9.364  0.5764  0.2296  0.3416
 5894SOL    HW129318   0.711   3.587   9.331  1.4398  3.3591  2.7755
 5894SOL    HW229319   0.864   3.596   9.350  0.3270  0.5436  0.2465
 5895SOL     OW29320   2.664   4.727   4.625 -0.0518 -0.5670  0.2346
 5895SOL    HW129321   2.611   0.069   4.602  1.5283  0.5287  0.2631
 5895SOL    HW229322   2.596   4.660   4.629 -1.3567  0.6830 -0.8773
 5896SOL     OW29323   2.287   0.847   3.727 -0.2349 -0.1728 -0.0521
 5896SOL    HW129324   2.198   0.812   3.716 -0.2950  0.1710 -0.6820
 5896SOL    HW229325   2.291   0.889   3.641 -0.1523  1.0219  0.5228
 5897SOL     OW29326   2.463   3.032  15.570 -0.4452 -0.1479 -0.5678
 5897SOL    HW129327   2.512   3.011  15.649 -0.4516 -1.3492 -0.8872
 5897SOL    HW229328   2.377   3.024  15.610 -0.1623  1.0925  0.2985
 5898SOL     OW29329   0.536   4.719   2.813  0.0369  0.4083  0.1498
 5898SOL    HW129330   0.480   4.667   2.756  0.8157  0.3918 -0.6046
 5898SOL    HW229331   0.620   4.719   2.767  0.5748  1.0752  1.1229
 5899SOL     OW29332   2.120   1.566   2.761 -0.0282 -0.1296 -0.5820
 5899SOL    HW129333   2.026   1.583   2.751 -0.1570 -0.3537  0.2375
 5899SOL    HW229334   2.135   1.483   2.717 -1.3042 -0.2633 -0.7583
 5900SOL     OW29335   2.796   1.655   9.176 -0.5481  0.1417 -0.0423
 5900SOL    HW129336   2.810   1.670   9.083 -0.3512  0.1720 -0.0084
 5900SOL    HW229337   2.721   1.710   9.195  0.8425  2.3073 -0.8193
 5901SOL     OW29338   2.092   2.765   0.223  0.5406 -0.1559  0.0754
 5901SOL    HW129339   2.073   2.829   0.154  1.8514  0.5579  0.3660
 5901SOL    HW229340   2.180   2.736   0.202 -0.0302 -1.1895 -0.8524
 5902SOL     OW29341   2.508   0.299   9.309  0.3155 -0.6966  0.2538
 5902SOL    HW129342   2.503   0.212   9.269 -1.8809 -1.4151  2.1294
 5902SOL    HW229343   2.561   0.338   9.239 -0.1739  2.0951  1.4332
 5903SOL     OW29344   2.740   4.480   2.691  0.6953 -0.2175  0.9511
 5903SOL    HW129345   2.720   4.513   2.603 -3.8499 -1.5758  1.4792
 5903SOL    HW229346   2.691   4.538   2.749  1.3562  3.0719 -1.7714
 5904SOL     OW29347   3.987   3.627   9.941  0.1461 -0.4094 -0.5787
 5904SOL    HW129348   3.984   3.568   9.866  0.1064  2.0382 -2.4855
 5904SOL    HW229349   3.894   3.649   9.952  0.1302 -1.2699  1.0739
 5905SOL     OW29350   2.747   0.773  13.129 -0.0170  0.3860  0.0624
 5905SOL    HW129351   2.714   0.719  13.058 -3.1001 -0.7068  2.3186
 5905SOL    HW229352   2.837   0.786  13.099  0.8311  0.1747  2.4415
 5906SOL     OW29353   1.243   3.742  12.073  0.2926 -0.0672 -0.3906
 5906SOL    HW129354   1.162   3.783  12.105  0.6313  0.7798 -0.6328
 5906SOL    HW229355   1.215   3.653  12.051 -0.2372  0.9159 -3.6884
 5907SOL     OW29356   4.212   3.351   8.855 -0.0136  0.2542 -0.1258
 5907SOL    HW129357   4.293   3.346   8.906  1.5620  0.6257 -2.5709
 5907SOL    HW229358   4.198   3.263   8.821  1.0036 -0.7578  2.0613
 5908SOL     OW29359   0.661   3.584   5.436 -0.2364 -0.4281  0.0935
 5908SOL    HW129360   0.705   3.613   5.356 -0.0067 -2.0042 -0.3416
 5908SOL    HW229361   0.740   3.561   5.484 -0.4950 -1.7408 -0.1166
 5909SOL     OW29362   0.322   0.810   2.844  0.1387 -0.6416 -0.6454
 5909SOL    HW129363   0.293   0.819   2.753  0.2488 -0.6159 -0.6777
 5909SOL    HW229364   0.344   0.717   2.852  2.2536 -0.0248  0.6126
 5910SOL     OW29365   0.989   3.498  16.284 -0.1253  0.2793 -0.5535
 5910SOL    HW129366   1.065   3.442  16.301 -1.3855 -0.3244  3.1352
 5910SOL    HW229367   1.011   3.519  16.193 -0.8246  0.2273 -0.7287
 5911SOL     OW29368   1.978   4.257   0.051 -0.1593 -0.1323  0.4945
 5911SOL    HW129369   1.917   4.318   0.094  1.1446 -0.0160  2.1540
 5911SOL    HW229370   2.008   4.215   0.131  1.7783 -1.0050 -0.6776
 5912SOL     OW29371   1.703   1.952  11.906 -0.2346  0.0042  0.1140
 5912SOL    HW129372   1.734   2.042  11.894 -1.7247  0.3074 -1.4439
 5912SOL    HW229373   1.677   1.952  11.998  1.0923 -3.0217  0.4789
 5913SOL     OW29374   1.655   3.911   2.419  0.6561 -0.0843  0.4581
 5913SOL    HW129375   1.607   3.956   2.489 -1.0131  0.6902 -1.1709
 5913SOL    HW229376   1.632   3.962   2.341 -1.6508 -0.8784  0.6168
 5914SOL     OW29377   4.605   2.501   4.546 -0.5597  0.3534 -0.5024
 5914SOL    HW129378   4.691   2.487   4.586 -1.4400 -1.3164  0.8140
 5914SOL    HW229379   4.552   2.436   4.592 -0.3123  0.1654 -0.4837
 5915SOL     OW29380   4.183   3.908  10.205 -0.5196  0.0364  0.2861
 5915SOL    HW129381   4.161   3.830  10.153  1.6172  0.0064 -0.5856
 5915SOL    HW229382   4.128   3.905  10.282  0.5937  0.4412  1.0985
 5916SOL     OW29383   3.651   2.569  13.457 -0.2629 -0.0309 -0.0353
 5916SOL    HW129384   3.689   2.487  13.491  1.4645  0.6035 -0.4230
 5916SOL    HW229385   3.711   2.639  13.483 -0.3013 -0.0657  0.1482
 5917SOL     OW29386   3.574   3.824  17.237  0.1921  0.0391  0.3374
 5917SOL    HW129387   3.583   3.901  17.293  0.1470  0.4800 -0.2608
 5917SOL    HW229388   3.653   3.773  17.251  0.3863  0.6173  1.2919
 5918SOL     OW29389   2.514   2.834   8.142 -0.1691  0.2858  0.8862
 5918SOL    HW129390   2.554   2.791   8.066  0.6452 -0.0558  1.5137
 5918SOL    HW229391   2.453   2.883   8.086 -0.1274  0.3786  0.9211
 5919SOL     OW29392   1.903   2.341   2.347 -0.3252 -0.2290  0.1789
 5919SOL    HW129393   1.810   2.322   2.357 -0.0714 -1.9895 -0.7888
 5919SOL    HW229394   1.937   2.254   2.365 -0.0206 -0.2646 -0.5573
 5920SOL     OW29395   0.939   0.739   7.178  0.2660 -0.0117 -0.6851
 5920SOL    HW129396   0.993   0.755   7.101  0.9006  1.3272  0.0400
 5920SOL    HW229397   0.892   0.822   7.177  0.0313 -0.1823 -3.0078
 5921SOL     OW29398   2.306   4.654  12.825 -0.1177  0.0010 -0.1391
 5921SOL    HW129399   2.222   4.647  12.869  0.3335  0.6975  0.8281
 5921SOL    HW229400   2.289   4.697  12.741 -3.3324 -1.0431 -0.0327
 5922SOL     OW29401   4.716   0.133   8.191  0.4263  0.2364  0.2842
 5922SOL    HW129402   0.006   0.097   8.105 -0.2781 -2.2514  1.1299
 5922SOL    HW229403   0.066   0.149   8.232  0.6494 -0.9783  0.2942
 5923SOL     OW29404   2.389   1.292   1.406 -0.3330  0.3686 -0.5797
 5923SOL    HW129405   2.328   1.342   1.459  1.5490  1.0309  0.9747
 5923SOL    HW229406   2.403   1.354   1.334 -1.7801  0.9498 -0.3591
 5924SOL     OW29407   0.686   1.914   9.758 -0.4006  0.0732  0.2793
 5924SOL    HW129408   0.700   1.820   9.772  0.8398  0.1305 -0.5727
 5924SOL    HW229409   0.661   1.924   9.667  0.9370 -0.8151 -0.1931
 5925SOL     OW29410   2.862   3.968   4.742  0.9141  0.2802 -0.3337
 5925SOL    HW129411   2.912   4.045   4.769 -1.0191  0.7249  2.1056
 5925SOL    HW229412   2.913   3.908   4.796  1.8541  0.1218 -1.4130
 5926SOL     OW29413   1.557   0.879   5.621  0.3043  0.2769  0.1672
 5926SOL    HW129414   1.469   0.910   5.642 -0.5571 -0.0694 -2.9099
 5926SOL    HW229415   1.550   0.891   5.526 -0.8595  1.9130  0.4751
 5927SOL     OW29416   2.155   0.992  12.226 -0.2953 -0.3074  0.5296
 5927SOL    HW129417   2.222   0.940  12.269  0.8940  0.9657  0.2233
 5927SOL    HW229418   2.196   1.079  12.226 -0.3316 -0.2892 -0.6929
 5928SOL     OW29419   1.371   0.564   5.715 -0.3787 -0.7874  0.0069
 5928SOL    HW129420   1.335   0.597   5.633  1.5836  1.2030 -0.0599
 5928SOL    HW229421   1.338   0.632   5.774  1.0347  0.3190 -0.4868
 5929SOL     OW29422   2.525   2.900   5.184  0.2696  0.1620 -0.0927
 5929SOL    HW129423   2.430   2.898   5.195  0.1954 -0.2258 -0.8363
 5929SOL    HW229424   2.537   2.811   5.216 -1.5891 -0.2069 -0.4199
 5930SOL     OW29425   2.014   3.098   5.391 -0.4264  0.0080  0.0412
 5930SOL    HW129426   2.053   3.097   5.479  1.2986 -0.6032 -0.7316
 5930SOL    HW229427   1.923   3.097   5.419 -0.6813 -1.0515 -0.8317
 5931SOL     OW29428   1.074   1.981   5.236  0.0045 -0.0550 -0.4445
 5931SOL    HW129429   1.164   1.947   5.240 -0.0361 -0.1967 -0.7562
 5931SOL    HW229430   1.090   2.066   5.196  1.5213 -0.5689 -0.9569
 5932SOL     OW29431   1.240   0.884   9.428  0.0321 -0.2404 -0.2377
 5932SOL    HW129432   1.155   0.899   9.468 -0.1125  1.8424 -1.2933
 5932SOL    HW229433   1.271   0.803   9.467  0.2644 -0.3420 -0.6299
 5933SOL     OW29434   1.179   3.997   5.090  0.1400 -0.6901 -0.0232
 5933SOL    HW129435   1.190   4.091   5.077  0.4168 -0.7114  0.0612
 5933SOL    HW229436   1.261   3.989   5.139  0.6193  2.5247 -0.3485
 5934SOL     OW29437   1.792   1.355   6.932  0.3310 -0.1146  0.7921
 5934SOL    HW129438   1.858   1.422   6.913 -1.1293  0.1948 -3.0721
 5934SOL    HW229439   1.843   1.285   6.973 -0.7872 -1.7095 -0.5187
 5935SOL     OW29440   0.572   4.702   7.746  0.1678  0.1301  0.3796
 5935SOL    HW129441   0.483   4.714   7.780  0.8425 -0.5608  2.3358
 5935SOL    HW229442   0.613   0.052   7.765 -0.4649  0.8622 -1.5004
 5936SOL     OW29443   0.860   1.649   8.334 -0.1891  0.1050 -0.0817
 5936SOL    HW129444   0.880   1.639   8.241 -1.1457  0.0464 -0.2818
 5936SOL    HW229445   0.776   1.695   8.327 -0.2914 -0.3289 -1.6437
 5937SOL     OW29446   2.111   1.421  15.466 -0.1442  0.8326 -0.4810
 5937SOL    HW129447   2.177   1.485  15.442  2.0430 -1.4671 -0.6555
 5937SOL    HW229448   2.143   1.367  15.539 -0.6401  0.2505 -0.6921
 5938SOL     OW29449   3.054   4.522   7.168  0.1135  0.2304 -0.4185
 5938SOL    HW129450   3.138   4.541   7.208  1.2418 -0.4734 -2.4467
 5938SOL    HW229451   3.091   4.517   7.080 -0.7080  0.0169 -0.7519
 5939SOL     OW29452   0.264   2.442  12.708 -0.0682  0.2151 -0.3604
 5939SOL    HW129453   0.242   2.360  12.663 -1.9796 -0.6114  2.0025
 5939SOL    HW229454   0.177   2.461  12.744  0.6916 -0.9077  2.0816
 5940SOL     OW29455   2.555   1.948   8.399  0.2662 -0.4027  0.3188
 5940SOL    HW129456   2.564   1.866   8.448 -2.4664 -0.4488  0.7460
 5940SOL    HW229457   2.640   1.955   8.355  1.0090 -0.1651  1.7577
 5941SOL     OW29458   3.146   0.223   3.963  0.5589  0.1170 -0.6624
 5941SOL    HW129459   3.194   0.204   4.044  0.6024  1.2629 -0.4148
 5941SOL    HW229460   3.217   0.258   3.908 -0.2181  1.0922 -1.0394
 5942SOL     OW29461   1.368   1.773  12.396 -0.2882 -0.0222 -0.4921
 5942SOL    HW129462   1.343   1.832  12.467  1.4919  1.5164 -1.1635
 5942SOL    HW229463   1.450   1.737  12.430 -1.0076 -0.1098  1.1525
 5943SOL     OW29464   2.623   0.913   2.061  0.1044  0.5213  0.7702
 5943SOL    HW129465   2.659   0.825   2.056  0.3256  0.5737  1.4382
 5943SOL    HW229466   2.531   0.895   2.082  0.1591  0.7123  1.1799
 5944SOL     OW29467   1.099   2.956   7.811  0.2010  0.1105  0.0578
 5944SOL    HW129468   1.183   2.961   7.856  0.6121  0.3855 -0.7542
 5944SOL    HW229469   1.074   3.048   7.800 -1.9162 -0.4525  0.0943
 5945SOL     OW29470   0.883   4.663  17.287  0.2478  0.7405  0.3049
 5945SOL    HW129471   0.839   4.600  17.344 -1.5804  1.7413  0.0069
 5945SOL    HW229472   0.972   4.656  17.321 -0.3756  1.2285  2.0416
 5946SOL     OW29473   4.069   3.704   2.464 -0.0845 -0.0342 -0.0879
 5946SOL    HW129474   3.979   3.702   2.433 -0.2103 -0.8367  0.3350
 5946SOL    HW229475   4.116   3.737   2.388 -2.6889  1.2016 -1.1469
 5947SOL     OW29476   1.150   3.375  15.986  0.1916 -0.2385 -0.4830
 5947SOL    HW129477   1.218   3.351  16.048 -0.0126 -2.1468 -0.9729
 5947SOL    HW229478   1.171   3.326  15.906  2.3395  0.5507 -0.3853
 5948SOL     OW29479   3.560   2.602   8.199  0.2276  0.1095  0.0772
 5948SOL    HW129480   3.645   2.561   8.213  0.5090  1.5289  2.4716
 5948SOL    HW229481   3.593   2.690   8.180  1.1562 -0.2968 -0.1567
 5949SOL     OW29482   3.784   0.438   9.160  0.1680  0.2264  0.5678
 5949SOL    HW129483   3.800   0.406   9.248 -0.9198  0.1695  0.7354
 5949SOL    HW229484   3.854   0.389   9.116 -0.0493  0.4812 -0.0638
 5950SOL     OW29485   0.552   3.140   7.043 -0.1447  0.2426 -0.1517
 5950SOL    HW129486   0.522   3.222   7.004  1.5100  1.9627  2.1953
 5950SOL    HW229487   0.497   3.144   7.121 -0.9631  1.8963 -0.8143
 5951SOL     OW29488   0.491   0.284   8.307 -0.5329 -0.2153 -0.2228
 5951SOL    HW129489   0.502   0.195   8.340  0.8691 -0.7981 -2.2320
 5951SOL    HW229490   0.525   0.273   8.218  1.8200 -2.1353  0.9311
 5952SOL     OW29491   0.971   0.109   3.674 -0.1671  0.3492 -0.0521
 5952SOL    HW129492   0.980   0.147   3.587 -0.4532  1.1086  0.2561
 5952SOL    HW229493   1.056   0.064   3.682 -1.3213 -1.6642  0.9510
 5953SOL     OW29494   3.056   0.011   5.047  0.2738 -0.3203 -0.2691
 5953SOL    HW129495   3.052   0.015   5.143  0.6711 -1.4852 -0.2021
 5953SOL    HW229496   3.116   0.084   5.030  0.7890  0.2979  4.1059
 5954SOL     OW29497   0.867   4.290  16.884 -0.1219  0.0618 -0.6070
 5954SOL    HW129498   0.828   4.367  16.925 -1.9144 -1.0151 -0.2957
 5954SOL    HW229499   0.811   4.271  16.809  0.2457  1.6752 -1.2942
 5955SOL     OW29500   1.612   4.666   3.341  0.0875 -0.3290  0.0135
 5955SOL    HW129501   1.656   4.601   3.397  0.3886 -0.2832 -0.1710
 5955SOL    HW229502   1.570   4.605   3.281 -0.3276 -0.9846  0.9562
 5956SOL     OW29503   2.390   1.460   3.170  0.2188 -0.3821  0.6651
 5956SOL    HW129504   2.419   1.370   3.185  3.3210  0.2317 -1.7750
 5956SOL    HW229505   2.405   1.475   3.076  0.8378 -1.6527  0.5674
 5957SOL     OW29506   4.253   1.978   9.050  0.4406  0.3311 -0.1017
 5957SOL    HW129507   4.309   1.928   8.991  1.4736 -0.5563  1.6000
 5957SOL    HW229508   4.181   2.000   8.990  0.2799  1.6035  0.5635
 5958SOL     OW29509   4.174   1.366   7.039 -0.7495  0.1148  0.2511
 5958SOL    HW129510   4.225   1.447   7.040 -2.3239  1.0869  2.7383
 5958SOL    HW229511   4.193   1.337   6.950 -4.5565  0.7700 -0.7678
 5959SOL     OW29512   1.649   3.143  16.104 -0.0911 -0.2078  0.6514
 5959SOL    HW129513   1.646   3.122  16.198 -0.0165 -1.4584  0.3775
 5959SOL    HW229514   1.615   3.062  16.066  2.8871 -1.8619  1.4357
 5960SOL     OW29515   3.090   3.687   2.018 -0.0718 -0.3569 -0.4080
 5960SOL    HW129516   3.099   3.619   2.085  0.0559  0.3693  0.3104
 5960SOL    HW229517   3.153   3.658   1.952 -0.4048 -0.8812 -0.4960
 5961SOL     OW29518   4.403   3.053   2.587 -0.3269 -0.1657 -0.1887
 5961SOL    HW129519   4.344   3.098   2.526 -1.2853  0.1602  0.9870
 5961SOL    HW229520   4.465   3.123   2.608  1.0996 -0.8439 -2.1298
 5962SOL     OW29521   4.033   1.878   5.558 -0.2953 -0.1024  0.0604
 5962SOL    HW129522   4.059   1.842   5.473  0.4298 -0.3232  0.3756
 5962SOL    HW229523   3.943   1.846   5.563 -0.5761  0.6491 -0.2411
 5963SOL     OW29524   3.842   0.963   1.566  0.3534  0.3193 -0.0030
 5963SOL    HW129525   3.897   1.003   1.498 -0.1282 -0.8710 -1.0968
 5963SOL    HW229526   3.878   1.012   1.639  3.1153 -0.5828 -0.7861
 5964SOL     OW29527   2.872   3.873  11.663 -0.2357 -0.0011  0.2930
 5964SOL    HW129528   2.850   3.838  11.577  0.4072 -4.5035  1.9781
 5964SOL    HW229529   2.942   3.812  11.688  1.1944  2.2731  1.8040
 5965SOL     OW29530   1.214   1.615   5.866 -0.3969  0.0949  0.4499
 5965SOL    HW129531   1.234   1.681   5.932  1.7462  2.6823 -2.8144
 5965SOL    HW229532   1.196   1.672   5.791  0.1367  1.9884  1.7844
 5966SOL     OW29533   4.530   4.202  17.629  0.5179 -0.0811 -0.2090
 5966SOL    HW129534   4.474   4.246  17.692 -0.0246  0.9888 -1.4298
 5966SOL    HW229535   4.461   4.163  17.576 -0.5518  1.5470  0.0154
 5967SOL     OW29536   0.143   1.527  10.455  0.2636  0.2686  0.3195
 5967SOL    HW129537   0.111   1.612  10.427  0.3710  0.7573  1.6702
 5967SOL    HW229538   0.199   1.537  10.533  1.3873  0.1027 -0.4618
 5968SOL     OW29539   1.831   3.746  13.315 -0.1394 -0.0734 -0.1443
 5968SOL    HW129540   1.745   3.733  13.355  0.3902 -0.7800  0.7320
 5968SOL    HW229541   1.806   3.815  13.252  0.7408 -0.8189 -1.3017
 5969SOL     OW29542   0.949   4.398   9.103  0.0642  0.0603 -0.3666
 5969SOL    HW129543   0.916   4.410   9.192  0.5326  0.2202 -0.2123
 5969SOL    HW229544   0.990   4.483   9.086  1.9439 -1.1212 -1.8017
 5970SOL     OW29545   0.814   2.870   8.918  0.3172 -0.0902  0.1962
 5970SOL    HW129546   0.834   2.963   8.934 -1.2882  0.0139  1.5541
 5970SOL    HW229547   0.785   2.838   9.003  1.0742  0.5199  0.6786
 5971SOL     OW29548   4.170   2.359   4.605  0.2626 -0.5054  0.1300
 5971SOL    HW129549   4.124   2.378   4.687 -0.5155 -0.5864 -0.2927
 5971SOL    HW229550   4.099   2.349   4.542  1.1328 -0.3260 -0.8702
 5972SOL     OW29551   3.010   3.069   6.641 -0.4957  0.1573 -0.5394
 5972SOL    HW129552   3.051   3.065   6.727 -1.4146 -0.0141 -0.1094
 5972SOL    HW229553   3.080   3.100   6.583  0.2064 -0.8849 -0.2482
 5973SOL     OW29554   2.673   2.607   3.725  0.1649  1.1653  0.2090
 5973SOL    HW129555   2.579   2.593   3.734  0.2725  0.1335 -0.3201
 5973SOL    HW229556   2.707   2.518   3.738  2.6871  1.8980 -1.3136
 5974SOL     OW29557   2.910   4.195   5.951 -0.0049  0.2051 -0.3840
 5974SOL    HW129558   2.816   4.177   5.947  0.5003 -2.1952 -1.3140
 5974SOL    HW229559   2.934   4.103   5.960  1.4591  0.4755 -1.5646
 5975SOL     OW29560   4.595   4.047  14.872 -0.0354 -0.1529  0.0409
 5975SOL    HW129561   4.681   4.083  14.893  1.1204 -2.0275 -1.4471
 5975SOL    HW229562   4.543   4.085  14.942 -1.5043 -0.4209 -0.9050
 5976SOL     OW29563   1.877   1.206   0.517  0.2760 -0.3508 -0.5491
 5976SOL    HW129564   1.851   1.151   0.443 -1.3833  0.1462 -0.3313
 5976SOL    HW229565   1.791   1.207   0.560  0.0086 -3.3458 -1.0076
 5977SOL     OW29566   2.649   4.416   5.768  0.7378 -0.1491  0.2923
 5977SOL    HW129567   2.657   4.325   5.739  0.4623 -0.3203  0.7582
 5977SOL    HW229568   2.580   4.410   5.833 -0.8078 -0.8802 -1.4079
 5978SOL     OW29569   0.780   0.913  17.400  0.3191  0.0503  0.0653
 5978SOL    HW129570   0.701   0.967  17.398 -0.2623 -0.7273  3.2119
 5978SOL    HW229571   0.795   0.903  17.494  1.7055  1.7600  0.0286
 5979SOL     OW29572   2.575   4.144  17.387 -0.3735 -0.0037 -0.2655
 5979SOL    HW129573   2.525   4.112  17.462  2.4345  0.3617  1.7445
 5979SOL    HW229574   2.544   4.090  17.314 -1.7925 -0.8498  0.9447
 5980SOL     OW29575   2.025   3.129   4.611  0.0350  0.3962  0.4334
 5980SOL    HW129576   2.112   3.165   4.592  0.1081  0.7511  1.4452
 5980SOL    HW229577   1.999   3.173   4.692  1.1287 -0.0041  0.9995
 5981SOL     OW29578   2.888   1.902   3.186  0.7925 -0.1373  0.5703
 5981SOL    HW129579   2.891   1.816   3.145  1.1651  0.3001 -0.3154
 5981SOL    HW229580   2.813   1.940   3.141  0.9003  1.2455  1.5401
 5982SOL     OW29581   3.856   3.842   3.373  0.2012  0.0606  0.1286
 5982SOL    HW129582   3.907   3.770   3.336  0.8675  0.7497 -0.2997
 5982SOL    HW229583   3.787   3.803   3.426 -0.9588 -0.3101 -1.6492
 5983SOL     OW29584   3.466   0.570  10.988  0.0179  0.0073  0.3288
 5983SOL    HW129585   3.441   0.477  10.989 -0.1099  0.0242 -1.0866
 5983SOL    HW229586   3.456   0.589  11.082 -0.7544  0.1328  0.2257
 5984SOL     OW29587   2.485   0.795   4.379 -0.0047  0.0955  0.2783
 5984SOL    HW129588   2.563   0.840   4.346 -0.6044 -0.1542 -1.4807
 5984SOL    HW229589   2.434   0.788   4.299  1.5364  2.5568 -0.8863
 5985SOL     OW29590   2.363   1.299   0.977 -0.3986 -0.2298  0.4913
 5985SOL    HW129591   2.416   1.233   1.022 -1.5544 -1.3424  0.2226
 5985SOL    HW229592   2.307   1.251   0.916  0.6419 -0.9267  0.0807
 5986SOL     OW29593   0.863   2.217   5.353 -0.1365 -0.6475  0.5476
 5986SOL    HW129594   0.779   2.260   5.368  0.7475  0.8228  1.3077
 5986SOL    HW229595   0.856   2.159   5.278  0.4609 -0.5070  0.3779
 5987SOL     OW29596   0.008   2.714  11.093 -0.3598 -0.2134 -0.6353
 5987SOL    HW129597   4.731   2.634  11.043 -2.3987  0.1180 -0.6964
 5987SOL    HW229598   0.052   2.670  11.166 -0.9543 -1.4543 -1.0297
 5988SOL     OW29599   0.309   1.015  16.584 -0.0659  0.1686 -0.1763
 5988SOL    HW129600   0.303   0.928  16.622  0.8445 -0.7751 -2.1850
 5988SOL    HW229601   0.239   1.063  16.630  0.2104  1.0906 -0.7137
 5989SOL     OW29602   3.516   0.192   6.673  0.7065  0.7875 -0.0959
 5989SOL    HW129603   3.434   0.237   6.651  1.0561  1.6716  0.4069
 5989SOL    HW229604   3.538   0.141   6.595  2.1726 -0.1177  0.9078
 5990SOL     OW29605   2.333   2.991   2.610 -0.6548 -0.1008  0.0771
 5990SOL    HW129606   2.262   2.929   2.593  1.3355 -1.8938 -1.7101
 5990SOL    HW229607   2.391   2.949   2.672  1.8959  0.5837 -1.8381
 5991SOL     OW29608   1.919   4.203   5.021  0.2865 -0.2026 -0.9977
 5991SOL    HW129609   1.934   4.225   5.113 -2.3172 -3.7110  0.2708
 5991SOL    HW229610   1.885   4.288   4.992 -0.8939 -0.8040 -1.3843
 5992SOL     OW29611   0.932   0.723  15.926  0.3862  0.2964  0.1944
 5992SOL    HW129612   1.025   0.726  15.906 -0.0134 -0.5916 -1.8248
 5992SOL    HW229613   0.915   0.634  15.894  0.3586  0.1983  0.4853
 5993SOL     OW29614   4.724   3.906   0.187  0.0756  0.1447  0.3379
 5993SOL    HW129615   0.053   3.901   0.259 -0.3921 -0.2714  0.7194
 5993SOL    HW229616   4.695   3.995   0.209 -0.1096  0.5306 -1.4952
 5994SOL     OW29617   1.333   0.231   1.893  0.1610 -0.5159 -0.2036
 5994SOL    HW129618   1.425   0.210   1.878  0.3074  0.8675 -1.3350
 5994SOL    HW229619   1.312   0.300   1.829  0.8070  0.7680  0.9518
 5995SOL     OW29620   3.855   0.829   7.520  0.6480  0.6690  0.3089
 5995SOL    HW129621   3.821   0.897   7.462  1.1584 -0.3202 -1.1662
 5995SOL    HW229622   3.777   0.779   7.545  0.9043 -0.1664 -0.5769
 5996SOL     OW29623   1.655   4.168   3.583 -0.3558  0.1911 -0.3212
 5996SOL    HW129624   1.702   4.112   3.521 -1.5038  0.1137 -1.1032
 5996SOL    HW229625   1.724   4.175   3.649  0.0369  0.9156 -0.8091
 5997SOL     OW29626   0.497   3.566   5.810 -0.3010 -0.0968  0.0768
 5997SOL    HW129627   0.411   3.569   5.767 -1.2417  0.6471  2.0380
 5997SOL    HW229628   0.538   3.647   5.777 -2.2859 -0.0505 -2.3265
 5998SOL     OW29629   3.585   3.320   6.246  0.6272 -0.5991  0.2809
 5998SOL    HW129630   3.630   3.377   6.308  1.1426 -0.3961 -0.2872
 5998SOL    HW229631   3.501   3.361   6.268  1.4773  1.6312 -0.6538
 5999SOL     OW29632   3.844   3.567  12.999 -0.5707 -0.4089 -0.4194
 5999SOL    HW129633   3.935   3.539  13.011 -0.3486  0.5623  0.1801
 5999SOL    HW229634   3.803   3.492  13.042 -2.2938  0.3062 -0.8297
 6000SOL     OW29635   1.514   4.491  15.502  0.1487  0.4863 -0.0360
 6000SOL    HW129636   1.595   4.526  15.540 -0.5742  2.0994  0.0021
 6000SOL    HW229637   1.461   4.485  15.582  2.1747 -3.0099  1.0571
 6001SOL     OW29638   4.007   3.675   2.098  0.7385  0.5467  0.2876
 6001SOL    HW129639   3.953   3.677   2.177 -0.3821 -1.4416 -0.4351
 6001SOL    HW229640   4.024   3.582   2.080 -0.6093  0.0762  1.4325
 6002SOL     OW29641   3.002   0.441   0.085 -0.3947  1.0920  0.0709
 6002SOL    HW129642   2.935   0.494   0.042  0.1508 -0.0567 -2.1528
 6002SOL    HW229643   3.037   0.495   0.157 -0.2559  0.7212  0.2817
 6003SOL     OW29644   2.226   0.222   4.510  0.0863  0.2771 -0.0212
 6003SOL    HW129645   2.214   0.302   4.459  0.1359  1.8020  2.3259
 6003SOL    HW229646   2.145   0.170   4.508 -0.3732  1.0009 -0.3130
 6004SOL     OW29647   4.706   4.246   2.966  0.4021  0.1087  0.2681
 6004SOL    HW129648   4.617   4.271   2.992 -0.0601 -1.3412  0.0452
 6004SOL    HW229649   4.711   4.156   2.998  1.0239 -0.1976 -0.7137
 6005SOL     OW29650   4.196   2.243   3.056 -0.4294 -0.7200  0.2200
 6005SOL    HW129651   4.231   2.298   3.126  1.6484 -1.4275 -0.2592
 6005SOL    HW229652   4.103   2.241   3.079 -0.9911 -1.6388 -2.0797
 6006SOL     OW29653   1.586   1.265   5.906 -0.1774  0.7511  0.4821
 6006SOL    HW129654   1.505   1.296   5.866 -0.1176 -1.2062 -1.1364
 6006SOL    HW229655   1.567   1.171   5.902  1.5506  0.5469 -2.3486
 6007SOL     OW29656   4.170   2.737   8.111  0.4461  0.4223 -0.4931
 6007SOL    HW129657   4.137   2.788   8.037  1.7172  0.2462 -1.1647
 6007SOL    HW229658   4.225   2.666   8.079  0.2212  0.4454 -0.9235
 6008SOL     OW29659   2.727   4.250  11.872  0.5683 -0.4620 -0.0251
 6008SOL    HW129660   2.764   4.319  11.816  1.7143 -0.0399  1.2649
 6008SOL    HW229661   2.714   4.293  11.957  0.1490  2.7862 -1.7109
 6009SOL     OW29662   1.894   2.906   6.929  0.8407 -0.2605 -0.1182
 6009SOL    HW129663   1.846   2.986   6.952 -1.4249 -0.7368 -3.2177
 6009SOL    HW229664   1.824   2.848   6.899 -0.1819  0.9577 -0.0725
 6010SOL     OW29665   0.364   1.980  16.652  0.2610  0.5090  0.0617
 6010SOL    HW129666   0.355   2.075  16.650  0.9108  0.4794 -3.4742
 6010SOL    HW229667   0.271   1.958  16.664  0.1553  0.2126 -1.3114
 6011SOL     OW29668   1.003   1.994   2.391  0.5316  0.7023 -0.4492
 6011SOL    HW129669   1.004   1.955   2.304 -1.2026 -1.3447  0.4521
 6011SOL    HW229670   0.926   1.954   2.430 -0.0735 -0.6382 -3.0316
 6012SOL     OW29671   1.199   0.497   4.256 -0.4430 -0.2604  0.7153
 6012SOL    HW129672   1.174   0.463   4.342  1.2999  1.3035  1.8272
 6012SOL    HW229673   1.292   0.481   4.272  0.0382  1.6213 -0.1503
 6013SOL     OW29674   2.731   2.149   6.556  0.1542 -0.0395 -0.3422
 6013SOL    HW129675   2.775   2.176   6.637 -0.6040  0.1855 -0.0060
 6013SOL    HW229676   2.715   2.234   6.514  1.0595 -0.2970 -1.1956
 6014SOL     OW29677   4.464   1.660  17.365 -0.4234 -0.1397 -0.1159
 6014SOL    HW129678   4.431   1.709  17.290 -1.3922 -2.4438 -1.1565
 6014SOL    HW229679   4.442   1.719  17.437  1.2063 -4.0033  3.5421
 6015SOL     OW29680   3.060   1.133   6.479  0.1251  0.7227 -0.5686
 6015SOL    HW129681   3.057   1.228   6.463  0.8632  0.4149 -2.5051
 6015SOL    HW229682   2.966   1.132   6.499  0.3442  2.1640  0.6051
 6016SOL     OW29683   4.531   1.568  12.607  0.6614  0.1611 -0.1511
 6016SOL    HW129684   4.465   1.514  12.651 -0.8013  0.5748 -1.8553
 6016SOL    HW229685   4.555   1.498  12.547  2.9663 -0.5682  1.6007
 6017SOL     OW29686   1.034   3.905   4.837 -0.5469 -0.2760 -0.6476
 6017SOL    HW129687   1.073   3.824   4.804 -0.9460 -1.0346  0.7628
 6017SOL    HW229688   1.078   3.911   4.921  0.1498  1.7627 -1.1517
 6018SOL     OW29689   1.457   2.706   7.695 -0.0696  0.3174  0.6694
 6018SOL    HW129690   1.402   2.643   7.741 -1.1545  0.0881 -0.9780
 6018SOL    HW229691   1.428   2.786   7.739 -0.1245  1.0931 -0.7867
 6019SOL     OW29692   1.685   2.687   5.128 -0.4616  0.3886 -0.5744
 6019SOL    HW129693   1.721   2.713   5.044  1.1317 -1.3495 -0.4357
 6019SOL    HW229694   1.762   2.685   5.184 -1.8548  0.1786  1.3647
 6020SOL     OW29695   4.037   1.970   3.295  0.1478 -0.3853  0.5523
 6020SOL    HW129696   4.112   1.935   3.248 -0.8494 -1.0013 -0.5890
 6020SOL    HW229697   3.976   1.995   3.224 -0.3096 -0.0478  1.0646
 6021SOL     OW29698   0.955   0.287   4.546  0.3411  0.2554  0.2635
 6021SOL    HW129699   0.963   0.212   4.489  3.1641  0.5810  0.2318
 6021SOL    HW229700   0.868   0.315   4.518  0.4727 -0.1850 -0.5673
 6022SOL     OW29701   3.768   2.144  17.268  0.1467  0.0450  0.1675
 6022SOL    HW129702   3.818   2.189  17.336  2.0379  1.0668 -1.9237
 6022SOL    HW229703   3.844   2.118  17.217 -1.7278 -2.5597 -1.3155
 6023SOL     OW29704   4.311   0.741   4.818  0.6006 -0.2572 -0.0874
 6023SOL    HW129705   4.319   0.831   4.849  1.0584  0.4685 -2.2966
 6023SOL    HW229706   4.222   0.742   4.785  0.7859 -0.2742 -0.5935
 6024SOL     OW29707   3.778   1.209   6.967  0.2887 -0.0169  0.5561
 6024SOL    HW129708   3.772   1.157   6.887  2.2958 -0.0594  0.4324
 6024SOL    HW229709   3.741   1.292   6.937  1.9669  0.4884 -0.0763
 6025SOL     OW29710   2.268   0.793  16.485  0.1911 -0.0411 -0.0870
 6025SOL    HW129711   2.237   0.784  16.395  0.1640 -2.0401  0.1237
 6025SOL    HW229712   2.346   0.845  16.468 -0.0855  0.1031 -0.9050
 6026SOL     OW29713   0.712   2.751   6.037  0.5064  0.0497 -0.0387
 6026SOL    HW129714   0.785   2.755   6.099 -0.0874 -1.6920  0.7587
 6026SOL    HW229715   0.694   2.845   6.032 -1.3163 -0.3324 -0.7566
 6027SOL     OW29716   0.834   0.436  16.905 -0.5300  0.3642 -0.6891
 6027SOL    HW129717   0.923   0.445  16.939 -0.8944  1.2773  0.0224
 6027SOL    HW229718   0.839   0.340  16.897 -1.0274  0.3395 -0.7165
 6028SOL     OW29719   3.477   0.777   3.416  0.4312  0.3709  0.2661
 6028SOL    HW129720   3.394   0.728   3.419  0.2655  0.7018  1.0740
 6028SOL    HW229721   3.513   0.737   3.337  1.1210 -0.7710  1.1748
 6029SOL     OW29722   2.815   0.153   0.625  0.5669 -0.2282 -0.6811
 6029SOL    HW129723   2.780   0.195   0.547  0.3119 -0.6414 -0.7917
 6029SOL    HW229724   2.786   0.209   0.697 -0.0889 -1.3435 -0.0839
 6030SOL     OW29725   3.166   3.014   7.971 -0.5701 -0.3456 -0.3274
 6030SOL    HW129726   3.130   3.083   8.027  0.9838 -1.3501  1.9055
 6030SOL    HW229727   3.200   3.074   7.904  0.0490  1.1112  1.3172
 6031SOL     OW29728   2.322   0.226   0.304 -0.1147 -0.2026 -0.2862
 6031SOL    HW129729   2.298   0.315   0.331 -3.4706 -0.5539 -2.0647
 6031SOL    HW229730   2.386   0.240   0.233  0.2632 -0.3487  0.0266
 6032SOL     OW29731   2.358   4.379  12.751 -0.0662 -0.2434  0.0727
 6032SOL    HW129732   2.429   4.372  12.815 -1.9881  0.9356  2.3264
 6032SOL    HW229733   2.342   4.473  12.748  1.2957 -0.0645 -1.7457
 6033SOL     OW29734   1.949   1.282   0.795  0.1957  0.1438  0.2410
 6033SOL    HW129735   1.985   1.208   0.746 -1.2481  0.4327 -1.2204
 6033SOL    HW229736   1.925   1.335   0.719 -0.0731  1.0698  0.9777
 6034SOL     OW29737   0.605   3.781   6.797 -0.0584 -0.3887  0.0951
 6034SOL    HW129738   0.683   3.788   6.742 -1.0798  0.8971 -1.1867
 6034SOL    HW229739   0.579   3.873   6.798  1.9493  0.1714  0.3109
 6035SOL     OW29740   0.219   0.122   2.787 -0.6191 -0.3338  0.2359
 6035SOL    HW129741   0.172   0.128   2.703 -1.3144  2.2641  0.8031
 6035SOL    HW229742   0.172   0.187   2.839  2.0458  1.6233  0.1924
 6036SOL     OW29743   4.371   2.051   5.342  0.3796 -0.1718  0.4563
 6036SOL    HW129744   4.322   2.133   5.332 -2.5630 -2.1746 -1.7483
 6036SOL    HW229745   4.391   2.033   5.251  0.1018  1.9290 -0.0103
 6037SOL     OW29746   0.206   2.383   7.861  0.4261 -0.3825 -0.6706
 6037SOL    HW129747   0.111   2.382   7.852  0.5100  2.5715 -1.6110
 6037SOL    HW229748   0.242   2.351   7.779  0.6872 -0.1882 -0.6300
 6038SOL     OW29749   4.400   0.736   9.691 -0.0431  0.9387 -0.0962
 6038SOL    HW129750   4.380   0.649   9.725 -1.3612  0.6150 -1.6945
 6038SOL    HW229751   4.437   0.765   9.774 -0.2878 -0.8405  0.6399
 6039SOL     OW29752   0.527   2.160  17.257 -0.4114  0.1296  0.7146
 6039SOL    HW129753   0.549   2.233  17.315  2.0710 -0.8889  1.0111
 6039SOL    HW229754   0.575   2.192  17.180  0.8440 -0.0217  1.4425
 6040SOL     OW29755   4.118   3.612   7.281  0.4670 -0.2336  0.0154
 6040SOL    HW129756   4.122   3.697   7.237 -1.5382 -0.3177 -0.3155
 6040SOL    HW229757   4.211   3.590   7.289 -0.1077 -1.4572  3.1745
 6041SOL     OW29758   0.233   0.022   5.694  0.2050 -0.0115  0.5267
 6041SOL    HW129759   0.286   0.060   5.765  0.5947 -0.6731  0.5943
 6041SOL    HW229760   0.277   0.042   5.611 -3.6908 -2.3475 -2.0743
 6042SOL     OW29761   3.837   2.835   6.923 -0.1999 -0.6265  0.1616
 6042SOL    HW129762   3.897   2.873   6.988  0.4004 -0.9504 -0.2041
 6042SOL    HW229763   3.871   2.875   6.843  0.2197  0.4090  0.8438
 6043SOL     OW29764   2.183   1.791  11.861  0.3413  0.2062 -0.0227
 6043SOL    HW129765   2.264   1.841  11.867  0.9959 -0.8942  0.2009
 6043SOL    HW229766   2.123   1.861  11.887 -1.8465 -1.9856  0.7828
 6044SOL     OW29767   3.070   0.126   0.355  0.3449 -0.2253 -0.0869
 6044SOL    HW129768   3.040   0.144   0.266  0.2253 -5.5668 -1.1243
 6044SOL    HW229769   3.004   0.068   0.392  1.1336 -0.3392  1.1259
 6045SOL     OW29770   0.513   0.029   1.851 -0.3541 -0.1674  0.1951
 6045SOL    HW129771   0.592   0.017   1.903  0.1871  0.2210 -0.5517
 6045SOL    HW229772   0.453   4.728   1.917  0.0411  1.3213  1.3519
 6046SOL     OW29773   2.958   3.864   3.644 -0.3533  0.3647  0.3388
 6046SOL    HW129774   2.946   3.934   3.707 -0.6967 -0.6047  1.3431
 6046SOL    HW229775   2.925   3.785   3.686 -1.5404  2.0759  2.5924
 6047SOL     OW29776   0.881   3.247  15.852 -0.1003  0.0574  0.2204
 6047SOL    HW129777   0.896   3.205  15.767 -0.5310  2.4241 -1.0244
 6047SOL    HW229778   0.879   3.340  15.829 -0.7213 -0.1076 -0.3960
 6048SOL     OW29779   3.263   2.129   0.060 -0.1162  0.0299 -0.0936
 6048SOL    HW129780   3.259   2.225   0.058  0.1144  0.0678  1.3430
 6048SOL    HW229781   3.277   2.116  17.702 -0.1150 -1.1465  0.0784
 6049SOL     OW29782   3.162   4.009   7.542 -0.1485 -0.0305  0.1491
 6049SOL    HW129783   3.129   4.067   7.610 -1.1753  0.2069 -0.5553
 6049SOL    HW229784   3.222   3.954   7.592  0.4655  0.4477 -0.0712
 6050SOL     OW29785   2.803   3.088   9.133  0.5177 -0.0638  0.4434
 6050SOL    HW129786   2.826   3.030   9.061 -0.7466 -0.5826  0.4610
 6050SOL    HW229787   2.733   3.142   9.097 -0.4972 -1.9240 -0.3542
 6051SOL     OW29788   4.619   1.674   3.957 -0.5586  0.0588 -0.2524
 6051SOL    HW129789   4.549   1.709   3.901 -0.1173 -0.1271 -0.9143
 6051SOL    HW229790   4.566   1.642   4.030 -0.3942 -0.5073 -0.3819
 6052SOL     OW29791   3.617   4.202   8.065  0.2240  0.0868 -0.3508
 6052SOL    HW129792   3.552   4.132   8.056  0.2630  0.0405 -0.2805
 6052SOL    HW229793   3.700   4.156   8.055  0.6791  1.0592 -1.0205
 6053SOL     OW29794   4.232   2.475   8.049  0.5272  0.2925  0.3526
 6053SOL    HW129795   4.184   2.438   8.123  1.1031  1.0248  1.0750
 6053SOL    HW229796   4.235   2.409   7.979 -0.8821 -1.0799  1.5761
 6054SOL     OW29797   1.301   2.102   5.530 -0.1546  0.8907 -0.1103
 6054SOL    HW129798   1.336   2.148   5.606 -0.2916  1.4108 -0.3607
 6054SOL    HW229799   1.206   2.116   5.534 -0.2960 -0.6586  2.0732
 6055SOL     OW29800   0.347   0.861   4.090 -0.0342 -0.0609 -0.3299
 6055SOL    HW129801   0.297   0.907   4.022 -0.0190  1.0843  0.4311
 6055SOL    HW229802   0.385   0.935   4.138 -0.6793  0.5852 -0.8066
 6056SOL     OW29803   0.344   2.633   8.628 -0.7909  0.1673 -0.4076
 6056SOL    HW129804   0.345   2.708   8.569 -0.5125 -1.3969 -2.3758
 6056SOL    HW229805   0.435   2.641   8.654 -0.9518 -0.5511  0.4223
 6057SOL     OW29806   3.384   3.969   2.651 -0.0160 -0.0206  0.2125
 6057SOL    HW129807   3.324   3.980   2.577  0.1602  0.0043  0.0718
 6057SOL    HW229808   3.462   4.017   2.623  0.5694  0.0812  2.0599
 6058SOL     OW29809   4.331   4.218   3.971 -0.4144 -0.3040 -0.0611
 6058SOL    HW129810   4.397   4.160   3.933 -1.8553 -1.3844 -0.8927
 6058SOL    HW229811   4.371   4.305   3.966  0.5711 -0.7705 -0.3836
 6059SOL     OW29812   3.916   3.152   6.049  0.1598  0.5454 -0.1067
 6059SOL    HW129813   3.964   3.220   6.095 -1.6831  0.6921  1.6018
 6059SOL    HW229814   3.980   3.130   5.981  0.2245 -2.8706  1.0682
 6060SOL     OW29815   2.173   3.760  14.657  0.4383  0.0990  0.5202
 6060SOL    HW129816   2.208   3.805  14.735 -0.2854  0.5453  0.5848
 6060SOL    HW229817   2.239   3.694  14.639  0.7778  0.5337  0.1854
 6061SOL     OW29818   3.675   1.430   5.239 -0.4990 -0.4542 -0.0558
 6061SOL    HW129819   3.736   1.359   5.260 -0.7462 -0.4985  0.5242
 6061SOL    HW229820   3.738   1.502   5.243  0.0554 -0.9873  0.9515
 6062SOL     OW29821   1.265   3.782   7.818 -0.2554 -0.2472 -0.3346
 6062SOL    HW129822   1.170   3.768   7.812 -0.4494  0.2506  1.4616
 6062SOL    HW229823   1.278   3.852   7.882  5.3914 -0.9424 -0.7195
 6063SOL     OW29824   0.348   0.247  10.030 -0.2149  0.3673 -0.0760
 6063SOL    HW129825   0.269   0.193  10.032 -1.0736  1.5731 -0.9944
 6063SOL    HW229826   0.395   0.200  10.098 -0.3292  1.3743  0.6927
 6064SOL     OW29827   4.439   4.139   7.835  1.0733 -0.4722  0.2708
 6064SOL    HW129828   4.430   4.087   7.915 -1.4008  0.0263  0.3248
 6064SOL    HW229829   4.354   4.118   7.797  1.8021  0.1272 -1.7348
 6065SOL     OW29830   1.862   3.620   5.274 -0.3262 -0.2757 -0.4796
 6065SOL    HW129831   1.808   3.595   5.199 -0.0463 -2.5654  0.0693
 6065SOL    HW229832   1.928   3.551   5.276 -1.1912 -1.1080 -0.6930
 6066SOL     OW29833   4.515   2.364   8.401  0.5810  0.1506 -0.1703
 6066SOL    HW129834   4.575   2.336   8.470  0.2617  1.6399  0.7132
 6066SOL    HW229835   4.517   2.459   8.416  1.0162  0.0901  0.1481
 6067SOL     OW29836   3.500   3.802  16.983 -0.1792 -0.4176 -0.2855
 6067SOL    HW129837   3.564   3.850  16.931 -0.0377 -1.1625 -0.8036
 6067SOL    HW229838   3.531   3.810  17.073  0.1207 -0.9569 -0.3405
 6068SOL     OW29839   0.919   2.141   7.835 -0.1914 -0.3193  0.2718
 6068SOL    HW129840   1.003   2.125   7.791 -0.0707 -0.1971  0.4593
 6068SOL    HW229841   0.923   2.233   7.859  1.5194 -0.4706  0.5859
 6069SOL     OW29842   0.284   0.594   6.991  0.3448 -0.1878  0.3048
 6069SOL    HW129843   0.362   0.644   7.012 -1.1501  2.0238  0.5832
 6069SOL    HW229844   0.314   0.533   6.923  1.1802  0.3338  0.2075
 6070SOL     OW29845   4.104   2.153   1.927  0.4863 -0.5916 -0.2450
 6070SOL    HW129846   4.165   2.181   1.859  0.6707 -1.5755 -0.4859
 6070SOL    HW229847   4.136   2.064   1.941 -1.2572 -0.8690  1.9695
 6071SOL     OW29848   4.578   2.990  14.887 -0.0809 -0.0815 -0.2664
 6071SOL    HW129849   4.648   2.978  14.952  0.9137  0.8257 -1.1535
 6071SOL    HW229850   4.519   3.042  14.941  1.1964  2.4283 -1.2718
 6072SOL     OW29851   1.195   0.771   2.963  0.0427 -0.0997 -0.0056
 6072SOL    HW129852   1.164   0.693   2.917 -0.9636 -0.1403  0.7531
 6072SOL    HW229853   1.195   0.840   2.897 -0.6179 -1.0922 -1.0403
 6073SOL     OW29854   2.452   0.395   0.580  0.0689  0.3507 -0.4008
 6073SOL    HW129855   2.470   0.415   0.488 -0.8381  2.9451 -0.0017
 6073SOL    HW229856   2.463   0.300   0.571  3.3424  0.9241 -2.3448
 6074SOL     OW29857   4.199   2.494   2.484  0.4577  0.1074  0.6735
 6074SOL    HW129858   4.192   2.573   2.538  1.2064  0.4498  0.2790
 6074SOL    HW229859   4.228   2.421   2.538  1.6292  0.4338  0.4920
 6075SOL     OW29860   3.061   0.529   6.607 -0.2545  0.0360 -0.6828
 6075SOL    HW129861   3.028   0.614   6.577 -0.7476 -0.4099 -1.3869
 6075SOL    HW229862   3.016   0.514   6.691 -1.3765  1.0841 -1.0839
 6076SOL     OW29863   1.590   0.788  16.755 -0.5498 -0.0090  0.0396
 6076SOL    HW129864   1.672   0.743  16.777 -1.7498 -1.4595  1.5094
 6076SOL    HW229865   1.568   0.772  16.847  0.7413 -3.6301 -0.2803
 6077SOL     OW29866   0.160   1.730   5.549 -0.0187  0.3276  0.0813
 6077SOL    HW129867   0.111   1.793   5.603  2.2698  0.4830  1.9951
 6077SOL    HW229868   0.124   1.731   5.461 -1.3567 -1.6683  0.6111
 6078SOL     OW29869   0.507   1.399   7.897  0.1067  0.7915  0.2287
 6078SOL    HW129870   0.521   1.473   7.956 -0.9776 -0.0898  1.5961
 6078SOL    HW229871   0.430   1.359   7.937  0.6271 -0.0171  0.4305
 6079SOL     OW29872   2.571   2.554   2.263 -0.3813  0.2514 -1.1017
 6079SOL    HW129873   2.552   2.579   2.353  1.1141 -0.6676 -0.5258
 6079SOL    HW229874   2.493   2.582   2.216 -0.2101  0.1568 -1.4459
 6080SOL     OW29875   3.690   3.014   4.418 -0.7300 -0.3632  0.2362
 6080SOL    HW129876   3.597   3.015   4.398 -0.2779  0.0919 -1.7942
 6080SOL    HW229877   3.692   2.919   4.427 -0.2303 -0.0840  3.0392
 6081SOL     OW29878   3.214   2.617   5.643 -0.0692  0.5043  0.5229
 6081SOL    HW129879   3.206   2.712   5.635 -1.2855  0.2862 -0.8133
 6081SOL    HW229880   3.163   2.581   5.570  1.5783  0.0663 -0.4044
 6082SOL     OW29881   1.212   4.556   3.360  0.2808 -0.4863 -0.3489
 6082SOL    HW129882   1.178   4.603   3.284 -3.4979 -1.3436  0.8338
 6082SOL    HW229883   1.294   4.522   3.325 -0.7413 -1.9861 -1.2778
 6083SOL     OW29884   0.867   0.932  12.632  0.3163 -0.1107  0.0969
 6083SOL    HW129885   0.855   0.982  12.552 -1.0012 -1.4001 -0.5182
 6083SOL    HW229886   0.850   0.994  12.703 -1.4734 -0.9663  0.4333
 6084SOL     OW29887   0.537   2.678   5.850 -0.1643  0.1339 -0.2592
 6084SOL    HW129888   0.606   2.695   5.914 -1.3581 -0.3913  1.1555
 6084SOL    HW229889   0.543   2.749   5.786  4.0187 -0.6439 -0.7715
 6085SOL     OW29890   0.477   0.816   6.381 -0.3524  0.3037  0.0266
 6085SOL    HW129891   0.543   0.752   6.354  0.1186  0.8426 -0.1070
 6085SOL    HW229892   0.408   0.783   6.323  1.9515 -0.9711 -2.0165
 6086SOL     OW29893   2.727   2.169  11.247  0.1548  0.5620 -0.2553
 6086SOL    HW129894   2.667   2.163  11.321 -1.0901  1.4297 -1.1973
 6086SOL    HW229895   2.791   2.232  11.281  0.0423 -0.7689  2.4390
 6087SOL     OW29896   3.181   3.420   1.211 -0.1470 -0.0594  0.5443
 6087SOL    HW129897   3.174   3.408   1.306 -1.5422  2.8923  0.8007
 6087SOL    HW229898   3.231   3.500   1.196  0.4583 -0.6982 -0.8212
 6088SOL     OW29899   1.341   3.923   9.642 -0.2411 -0.1809  0.5962
 6088SOL    HW129900   1.408   3.990   9.624 -0.3988  0.0432  0.8303
 6088SOL    HW229901   1.278   3.975   9.692  0.0796  1.0776 -0.2948
 6089SOL     OW29902   4.015   2.241   3.359 -0.4190  0.3525  0.0942
 6089SOL    HW129903   4.086   2.229   3.422 -0.0831 -0.6769 -0.4812
 6089SOL    HW229904   4.001   2.148   3.340 -1.7161  0.7249 -0.8134
 6090SOL     OW29905   2.246   0.572   0.612  0.9843  0.1442  0.2333
 6090SOL    HW129906   2.312   0.504   0.599  0.0482 -1.0638  1.6417
 6090SOL    HW229907   2.269   0.603   0.700  1.2020  3.3918 -0.9569
 6091SOL     OW29908   4.685   4.138   5.705 -0.5587  0.3064 -0.0104
 6091SOL    HW129909   0.043   4.124   5.727 -0.9686 -0.2782  1.3247
 6091SOL    HW229910   4.689   4.233   5.692 -3.4218  0.7326  2.1198
 6092SOL     OW29911   2.365   3.625   6.210  0.4083  0.0135  0.2709
 6092SOL    HW129912   2.392   3.545   6.164 -0.7285 -0.3784  0.2833
 6092SOL    HW229913   2.408   3.609   6.294  0.2530 -2.4176 -0.1006
 6093SOL     OW29914   3.239   1.487   2.229  0.0378  0.9009 -0.1828
 6093SOL    HW129915   3.201   1.551   2.290  0.0309  2.0758 -1.4129
 6093SOL    HW229916   3.167   1.474   2.167 -0.1678 -0.2718  0.2921
 6094SOL     OW29917   0.854   2.051   6.654  0.6276  0.0859 -0.2515
 6094SOL    HW129918   0.841   2.133   6.702 -0.3289 -0.6933  0.8149
 6094SOL    HW229919   0.950   2.048   6.646  0.4067 -0.0919 -2.9614
 6095SOL     OW29920   4.447   3.050   6.036  0.5427  0.0023  0.3511
 6095SOL    HW129921   4.452   3.039   5.941  2.0730  1.2395  0.3015
 6095SOL    HW229922   4.498   2.980   6.077  1.7889  0.9965  0.5091
 6096SOL     OW29923   3.004   0.785  12.949 -0.0500  0.1388 -0.1192
 6096SOL    HW129924   3.019   0.703  12.995 -0.5623  0.2745  0.3052
 6096SOL    HW229925   3.095   0.802  12.925  0.3690 -0.8124  0.7960
 6097SOL     OW29926   4.365   4.059  15.981 -0.3841  0.0738 -0.2115
 6097SOL    HW129927   4.388   4.128  16.043 -0.3478  0.8628 -1.1074
 6097SOL    HW229928   4.408   3.983  16.021 -0.8140 -0.4558 -0.7607
 6098SOL     OW29929   1.332   4.401   1.854  0.3445 -0.2870 -0.6032
 6098SOL    HW129930   1.292   4.467   1.798 -0.4890 -1.7123 -1.6881
 6098SOL    HW229931   1.391   4.371   1.785  0.9096 -0.5178 -0.0203
 6099SOL     OW29932   3.725   2.687   2.531 -0.0163 -0.9068 -0.1416
 6099SOL    HW129933   3.794   2.639   2.577  0.0019 -0.5091  0.2343
 6099SOL    HW229934   3.765   2.707   2.446 -1.1501  1.0626 -0.2031
 6100SOL     OW29935   2.201   3.395  17.409  0.4209  0.3459  0.1068
 6100SOL    HW129936   2.126   3.438  17.449 -0.0147  0.6056 -0.9724
 6100SOL    HW229937   2.234   3.468  17.357 -1.0257 -0.0966 -1.4517
 6101SOL     OW29938   0.036   1.211   8.518  0.6071 -0.0775 -0.2665
 6101SOL    HW129939   0.130   1.228   8.518  0.8737 -1.4727 -3.2097
 6101SOL    HW229940   0.003   1.291   8.558 -1.7826 -0.3104 -1.7575
 6102SOL     OW29941   0.085   2.078   6.865 -0.1608 -0.5052 -0.4920
 6102SOL    HW129942   0.123   2.109   6.947 -1.4678  1.1328 -0.5068
 6102SOL    HW229943   0.116   2.147   6.806  0.4690 -1.5183 -1.3481
 6103SOL     OW29944   1.575   3.915   9.350  0.5273 -0.2473  0.5545
 6103SOL    HW129945   1.489   3.956   9.342  2.1724  2.8042 -1.6237
 6103SOL    HW229946   1.619   3.983   9.299  1.0852 -0.8328  0.2509
 6104SOL     OW29947   4.105   1.707   5.163 -0.5068  0.4110  0.5863
 6104SOL    HW129948   4.164   1.734   5.234 -0.7352  0.3722  0.7905
 6104SOL    HW229949   4.079   1.794   5.134  0.2209  0.5348  0.3015
 6105SOL     OW29950   0.621   1.422   3.663  0.0496 -0.1981  0.3544
 6105SOL    HW129951   0.659   1.498   3.706  1.0860 -0.6668  0.2566
 6105SOL    HW229952   0.559   1.477   3.615 -1.0219 -0.5233  1.3576
 6106SOL     OW29953   0.237   2.582   4.396  0.1924 -0.2381 -0.3334
 6106SOL    HW129954   0.145   2.572   4.370  0.5825  0.2965 -1.8659
 6106SOL    HW229955   0.276   2.582   4.309  0.0835 -0.1284 -0.3827
 6107SOL     OW29956   2.393   1.370   7.295  0.2290  0.3349 -0.6196
 6107SOL    HW129957   2.458   1.372   7.226  1.6390 -2.1272  0.6145
 6107SOL    HW229958   2.432   1.420   7.366  0.3284 -0.3774 -0.1646
 6108SOL     OW29959   0.718   2.337   9.052  0.0810 -0.2481 -0.2516
 6108SOL    HW129960   0.769   2.287   8.989  0.2170 -0.0429 -0.3041
 6108SOL    HW229961   0.657   2.383   8.995 -1.0686  3.2417  3.7599
 6109SOL     OW29962   4.060   3.655  15.309  0.6182 -0.0157  0.0878
 6109SOL    HW129963   4.098   3.699  15.385 -3.4923  2.7382  0.5674
 6109SOL    HW229964   3.986   3.609  15.348  1.2611 -1.0009  0.1498
 6110SOL     OW29965   1.003   1.216   9.227  0.0324  0.6395 -0.1453
 6110SOL    HW129966   0.914   1.213   9.192 -0.0406 -0.6125  0.1513
 6110SOL    HW229967   1.046   1.250   9.149  0.1815 -2.0696 -1.2138
 6111SOL     OW29968   2.530   0.772   2.608  0.0372  0.1099 -0.2204
 6111SOL    HW129969   2.544   0.720   2.687  1.1923  0.5952 -0.1183
 6111SOL    HW229970   2.542   0.707   2.538 -2.3927  0.6632 -1.1869
 6112SOL     OW29971   0.806   0.101   4.132 -0.3008 -0.3572 -0.3347
 6112SOL    HW129972   0.811   0.006   4.128  2.3066 -0.1506 -2.4566
 6112SOL    HW229973   0.778   0.125   4.043 -0.6577  2.6351  0.5758
 6113SOL     OW29974   2.616   0.603   3.839  0.0645 -0.6417  0.8475
 6113SOL    HW129975   2.701   0.560   3.848 -0.0706 -0.3506  3.4821
 6113SOL    HW229976   2.615   0.616   3.744 -0.3260 -2.1432  0.6367
 6114SOL     OW29977   3.109   4.490   8.086 -0.0221  0.0579  0.0722
 6114SOL    HW129978   3.044   4.560   8.073 -0.4768 -0.4133 -0.2057
 6114SOL    HW229979   3.193   4.530   8.105 -0.8556  0.3137  3.1782
 6115SOL     OW29980   0.623   0.885   9.402 -0.0059 -0.4500  0.3410
 6115SOL    HW129981   0.659   0.813   9.455 -1.4183 -0.8799  0.7107
 6115SOL    HW229982   0.536   0.890   9.443 -0.5336 -3.1790 -0.4626
 6116SOL     OW29983   4.146   2.445   3.237  0.6468 -0.4424  0.7444
 6116SOL    HW129984   4.198   2.477   3.311  1.4846 -1.4839  0.6149
 6116SOL    HW229985   4.095   2.376   3.280 -0.0236 -0.4467 -0.0629
 6117SOL     OW29986   3.671   2.676  14.202 -0.4526 -0.0286 -0.1982
 6117SOL    HW129987   3.733   2.679  14.129  0.2410 -1.0583  0.3490
 6117SOL    HW229988   3.684   2.767  14.227 -1.3899  0.4263 -1.3768
 6118SOL     OW29989   3.489   4.273   6.403 -0.2190  0.1449 -0.4784
 6118SOL    HW129990   3.409   4.290   6.452  0.7517  0.3157  1.0286
 6118SOL    HW229991   3.546   4.227   6.464 -0.7811 -0.5575 -0.4815
 6119SOL     OW29992   3.001   0.534   4.138 -0.1598 -0.1789 -0.2049
 6119SOL    HW129993   2.988   0.496   4.051  2.5202  1.5573 -1.3508
 6119SOL    HW229994   3.070   0.485   4.183  1.0875  0.2569 -1.6722
 6120SOL     OW29995   4.106   2.961   5.458  0.7330  0.2219 -0.1190
 6120SOL    HW129996   4.119   2.898   5.387 -0.0953 -0.6383  0.4989
 6120SOL    HW229997   4.190   2.965   5.503  1.8128 -1.2623 -2.0030
 6121SOL     OW29998   3.102   4.148  14.889 -0.6779 -0.2593 -0.7936
 6121SOL    HW129999   3.155   4.189  14.958  0.2241 -0.4890 -1.3442
 6121SOL    HW230000   3.025   4.126  14.942 -0.0899  0.7133  0.4708
 6122SOL     OW30001   3.017   0.917   1.450 -0.2185 -0.6454 -0.0076
 6122SOL    HW130002   3.071   0.993   1.471 -2.0308  0.1161  1.9233
 6122SOL    HW230003   2.933   0.957   1.474 -1.8958 -3.7029 -0.8461
 6123SOL     OW30004   2.697   1.881   7.483 -0.6362  0.6685 -0.0379
 6123SOL    HW130005   2.792   1.872   7.482 -0.7474 -0.3988 -1.0520
 6123SOL    HW230006   2.710   1.972   7.510  1.1706  0.0204  1.2355
 6124SOL     OW30007   0.084   3.977  16.565  0.0377  0.2023 -0.0259
 6124SOL    HW130008   0.062   4.004  16.654 -0.5423 -0.6487  0.0822
 6124SOL    HW230009   0.146   4.049  16.554  0.0168  0.0359 -1.2245
 6125SOL     OW30010   2.172   0.591   5.562 -0.0959 -0.0492 -0.3155
 6125SOL    HW130011   2.135   0.649   5.495 -0.6488 -0.4901 -0.4000
 6125SOL    HW230012   2.264   0.574   5.543  0.6225  3.0282  0.5591
 6126SOL     OW30013   4.712   2.582  12.073 -0.0465  0.2279  0.3793
 6126SOL    HW130014   0.064   2.541  12.060 -0.4350 -0.5113  0.0958
 6126SOL    HW230015   0.015   2.665  12.102 -0.9577  0.5487  0.5980
 6127SOL     OW30016   1.092   0.893   0.948  0.2637  0.3156 -0.4985
 6127SOL    HW130017   1.159   0.867   0.885  0.9535  0.1150  0.3077
 6127SOL    HW230018   1.010   0.847   0.930  2.6479 -3.9760 -0.4468
 6128SOL     OW30019   0.482   1.734   6.731  0.1410  0.2604  0.5566
 6128SOL    HW130020   0.502   1.748   6.823  0.0990  4.5124 -0.0958
 6128SOL    HW230021   0.454   1.820   6.700  0.2938 -0.4350 -1.5816
 6129SOL     OW30022   2.896   2.758   8.268  0.6882  0.5862 -0.1057
 6129SOL    HW130023   2.809   2.792   8.287  0.3597  1.4338 -3.0862
 6129SOL    HW230024   2.886   2.764   8.173  2.3823 -0.4777 -0.3584
 6130SOL     OW30025   3.018   2.456  15.162 -0.0889 -0.1699 -0.2868
 6130SOL    HW130026   2.971   2.396  15.220 -0.1786  1.8128  1.6523
 6130SOL    HW230027   2.968   2.537  15.154 -0.1328 -0.3063 -1.3653
 6131SOL     OW30028   0.764   2.321   1.982  0.0894 -0.4478 -0.9505
 6131SOL    HW130029   0.766   2.411   2.014 -0.0119 -0.1863 -1.6662
 6131SOL    HW230030   0.670   2.312   1.969 -0.1223  1.1770 -0.5129
 6132SOL     OW30031   1.984   0.993   3.267  0.1070  0.4376 -0.5483
 6132SOL    HW130032   1.939   1.024   3.188 -1.6786 -0.9536 -0.0678
 6132SOL    HW230033   1.966   0.900   3.251  1.9277 -0.0239  0.1192
 6133SOL     OW30034   3.878   0.844   9.554  0.0901 -0.0689 -0.1398
 6133SOL    HW130035   3.842   0.757   9.538 -3.5833  1.7167 -1.7478
 6133SOL    HW230036   3.970   0.824   9.571  0.8102  2.7328 -0.6651
 6134SOL     OW30037   1.915   2.880   7.464  0.2872 -0.6829  0.1173
 6134SOL    HW130038   1.893   2.851   7.375 -0.9325 -0.3623  0.3176
 6134SOL    HW230039   1.852   2.843   7.525  1.7965 -0.9289  1.5390
 6135SOL     OW30040   4.254   1.795   5.363  0.3684  0.1913 -0.1895
 6135SOL    HW130041   4.309   1.747   5.425  0.5406  1.3334  0.5368
 6135SOL    HW230042   4.298   1.880   5.366  0.5728  0.0970 -0.6442
 6136SOL     OW30043   2.576   2.978  12.081 -0.7441 -0.3250 -0.0562
 6136SOL    HW130044   2.619   2.903  12.123 -0.7961 -0.2254  0.1718
 6136SOL    HW230045   2.500   2.967  12.138 -0.4467  1.8390  0.7592
 6137SOL     OW30046   3.468   1.958   3.415  0.4636 -0.2376 -0.0217
 6137SOL    HW130047   3.438   1.996   3.498  1.7675 -1.3060  0.9369
 6137SOL    HW230048   3.451   1.865   3.432 -1.6225  0.3101  0.9588
 6138SOL     OW30049   4.292   4.372  14.417 -0.5543 -0.4710  0.0450
 6138SOL    HW130050   4.376   4.398  14.457 -1.7306  1.0133  1.5407
 6138SOL    HW230051   4.262   4.328  14.497  0.3528 -3.7723 -1.4334
 6139SOL     OW30052   1.935   1.560   4.162 -0.5191  0.1311  0.7925
 6139SOL    HW130053   1.848   1.596   4.150 -0.8031 -0.7080  0.3704
 6139SOL    HW230054   1.971   1.604   4.239 -1.1846  0.0775  1.1320
 6140SOL     OW30055   1.978   1.212  17.551  0.0394 -0.1799 -0.4349
 6140SOL    HW130056   1.894   1.229  17.507  0.2064  0.7860 -0.3756
 6140SOL    HW230057   2.037   1.280  17.520  0.7459 -0.9649 -0.7954
 6141SOL     OW30058   3.274   2.797   0.998  0.4338  0.6030  0.0922
 6141SOL    HW130059   3.307   2.841   1.076  1.2579  0.7487 -0.3375
 6141SOL    HW230060   3.351   2.823   0.947  0.4838  1.6848  0.7406
 6142SOL     OW30061   3.760   0.776   6.160  0.3822 -0.3657  0.3693
 6142SOL    HW130062   3.803   0.857   6.187 -2.1744  0.5839  1.5948
 6142SOL    HW230063   3.823   0.736   6.099 -0.2861 -0.5032 -0.2274
 6143SOL     OW30064   2.205   2.918   5.900 -0.2201 -0.1783 -0.4460
 6143SOL    HW130065   2.241   2.847   5.954  0.3504 -0.7703 -1.6050
 6143SOL    HW230066   2.278   2.935   5.841 -0.5872  2.2849 -0.1833
 6144SOL     OW30067   3.081   2.664   3.882 -0.4769  0.3311  0.4550
 6144SOL    HW130068   3.015   2.677   3.814 -3.0368 -3.1880  2.2595
 6144SOL    HW230069   3.052   2.719   3.955  1.5919 -0.4382  1.8647
 6145SOL     OW30070   2.710   3.647   2.256  0.2989  0.9433  0.2610
 6145SOL    HW130071   2.794   3.624   2.296 -0.3474  0.5837  1.4243
 6145SOL    HW230072   2.647   3.639   2.328  0.1103  1.1793  0.1189
 6146SOL     OW30073   1.482   0.683  16.535  0.0808 -0.1758 -0.6133
 6146SOL    HW130074   1.536   0.744  16.586  1.2600 -1.1956 -0.6366
 6146SOL    HW230075   1.404   0.677  16.591  2.3551 -1.5800  2.4209
 6147SOL     OW30076   4.183   3.978   6.071  0.1032 -0.4532  0.3568
 6147SOL    HW130077   4.242   3.992   6.145  0.4797 -0.5809  0.0805
 6147SOL    HW230078   4.252   3.980   6.005 -0.2609  0.3380  0.0020
 6148SOL     OW30079   4.515   0.486   7.058  0.3265 -0.1223  0.2595
 6148SOL    HW130080   4.591   0.542   7.078 -0.1244  0.4377  0.4020
 6148SOL    HW230081   4.451   0.557   7.060 -0.3404 -0.6581 -2.0022
 6149SOL     OW30082   1.104   4.062   2.549 -0.3926  0.2375 -0.2757
 6149SOL    HW130083   1.098   4.081   2.643 -1.9319  0.7340 -0.4631
 6149SOL    HW230084   1.025   4.026   2.510  0.1103 -0.8337 -0.2982
 6150SOL     OW30085   1.409   1.254   1.811  0.1932 -0.7420 -0.4555
 6150SOL    HW130086   1.379   1.200   1.738 -0.5667  0.7583 -1.2494
 6150SOL    HW230087   1.388   1.199   1.887  1.0022 -0.4904 -0.0486
 6151SOL     OW30088   2.987   4.574   9.610  0.2115  0.0348  0.1604
 6151SOL    HW130089   3.028   4.488   9.607  3.1250  1.4531 -0.3804
 6151SOL    HW230090   3.054   4.629   9.571 -0.8030  0.8762 -0.4167
 6152SOL     OW30091   0.823   0.742   3.306 -0.2796  0.3795  0.3140
 6152SOL    HW130092   0.906   0.705   3.337  0.1249  0.6907 -0.3904
 6152SOL    HW230093   0.855   0.809   3.246  1.0439 -0.5605 -0.0266
 6153SOL     OW30094   2.250   0.435   2.097 -0.3909 -0.8290 -0.5137
 6153SOL    HW130095   2.238   0.343   2.075 -1.1528 -0.2594 -2.5610
 6153SOL    HW230096   2.161   0.467   2.081 -0.3980 -1.2241 -1.2607
 6154SOL     OW30097   0.407   1.531   3.522 -1.0550 -0.1468 -0.3014
 6154SOL    HW130098   0.389   1.564   3.610  2.1584  1.3188 -0.1801
 6154SOL    HW230099   0.359   1.448   3.519  0.4231 -0.9625 -1.3421
 6155SOL     OW30100   0.300   1.663   2.340  0.0542 -0.1691 -0.4724
 6155SOL    HW130101   0.220   1.710   2.364  0.9853  0.8561  0.6460
 6155SOL    HW230102   0.370   1.714   2.382  0.3167  0.5835 -1.8405
 6156SOL     OW30103   4.589   2.837   7.547 -0.0133  0.3577  0.6528
 6156SOL    HW130104   4.650   2.818   7.619  1.0547 -0.1052 -0.3734
 6156SOL    HW230105   4.611   2.929   7.535  1.0710  0.5190  3.8125
 6157SOL     OW30106   0.462   0.399   7.914  0.0719  0.3773  0.0092
 6157SOL    HW130107   0.466   0.412   7.819 -1.3352 -0.8080 -0.2133
 6157SOL    HW230108   0.517   0.469   7.949 -0.9900  1.8349 -1.1989
 6158SOL     OW30109   1.928   1.683   3.028  0.5471 -0.2089 -0.0600
 6158SOL    HW130110   1.896   1.649   2.944 -1.9282 -2.3106  1.7265
 6158SOL    HW230111   1.987   1.614   3.058 -2.2025 -2.7232 -0.4215
 6159SOL     OW30112   2.967   0.795   3.904  0.0646 -0.1856 -0.3506
 6159SOL    HW130113   3.052   0.762   3.875 -0.9517 -2.0466 -1.2066
 6159SOL    HW230114   2.990   0.848   3.980 -2.1924  0.4060 -0.0621
 6160SOL     OW30115   0.380   3.908  16.396 -0.2770  0.6410 -0.1090
 6160SOL    HW130116   0.446   3.946  16.338  1.0406 -2.8626 -0.8855
 6160SOL    HW230117   0.420   3.919  16.483  0.8126  0.5255 -0.5942
 6161SOL     OW30118   0.116   2.192   2.882  0.0853 -0.3057  0.6075
 6161SOL    HW130119   0.024   2.183   2.906 -0.0733  1.3312  0.5901
 6161SOL    HW230120   0.120   2.284   2.858 -1.4231 -1.0063 -2.4417
 6162SOL     OW30121   3.969   3.615   3.832  0.3668  0.6167  0.2084
 6162SOL    HW130122   3.884   3.576   3.852  1.0927 -0.0771  1.9907
 6162SOL    HW230123   4.000   3.653   3.915 -0.9859  0.4698  0.7819
 6163SOL     OW30124   0.242   3.419  17.453  0.8594  0.2750  0.8084
 6163SOL    HW130125   0.191   3.356  17.503 -0.0610 -0.4815 -1.0705
 6163SOL    HW230126   0.211   3.498  17.497 -0.1773  1.2141 -1.6166
 6164SOL     OW30127   0.322   2.816   6.755  0.0731  0.0518  0.0055
 6164SOL    HW130128   0.292   2.837   6.843  0.4520 -1.0104  0.3820
 6164SOL    HW230129   0.411   2.785   6.769 -0.2540 -1.4526 -1.2472
 6165SOL     OW30130   2.166   1.133   4.138  0.2702  0.1297  0.2766
 6165SOL    HW130131   2.157   1.108   4.046  3.6755  1.0208 -0.2873
 6165SOL    HW230132   2.082   1.180   4.147  0.4933  0.9543 -2.0961
 6166SOL     OW30133   1.524   2.906   6.439 -0.2211 -0.3513 -0.2873
 6166SOL    HW130134   1.547   2.880   6.350  1.6479 -0.0995  0.1342
 6166SOL    HW230135   1.600   2.951   6.474  0.2697 -1.3672 -0.0339
 6167SOL     OW30136   0.520   4.534   2.331 -0.2745  0.3340 -0.0012
 6167SOL    HW130137   0.584   4.600   2.358  0.2367 -1.7154  3.8309
 6167SOL    HW230138   0.581   4.472   2.292 -0.3238  0.8032 -0.8138
 6168SOL     OW30139   3.880   4.303   6.293  0.3588  0.2545 -0.0259
 6168SOL    HW130140   3.893   4.209   6.308 -0.5144  0.2710  0.7901
 6168SOL    HW230141   3.806   4.296   6.233 -0.1847  0.0999  0.6676
 6169SOL     OW30142   2.771   3.378   4.640  0.2466 -0.2611 -0.4159
 6169SOL    HW130143   2.841   3.335   4.690 -1.1436  0.0165  1.7777
 6169SOL    HW230144   2.699   3.330   4.681 -0.7240  1.4453 -0.1633
 6170SOL     OW30145   3.613   1.786   1.584  0.1888 -0.5976  0.4190
 6170SOL    HW130146   3.588   1.878   1.572 -0.0972 -0.6154  0.8690
 6170SOL    HW230147   3.576   1.768   1.671  1.7014 -0.2183  1.1266
 6171SOL     OW30148   2.877   4.369  16.407 -0.2046 -0.5353 -0.1573
 6171SOL    HW130149   2.802   4.396  16.355  0.3329  0.1289 -0.5872
 6171SOL    HW230150   2.850   4.404  16.492  0.9518  1.1304 -0.4874
 6172SOL     OW30151   0.464   2.385  10.026 -0.0893 -0.1729  0.6972
 6172SOL    HW130152   0.459   2.435   9.945  3.9868 -1.4763 -0.3659
 6172SOL    HW230153   0.515   2.445  10.080 -0.7589  0.1582  0.9608
 6173SOL     OW30154   1.029   3.701   6.804 -0.3375 -0.1413  0.0392
 6173SOL    HW130155   1.105   3.729   6.752  1.6857 -0.1755  2.9757
 6173SOL    HW230156   0.954   3.751   6.773 -0.5441 -0.4812 -0.0085
 6174SOL     OW30157   3.114   3.548   3.465 -0.1093  0.0950 -0.3088
 6174SOL    HW130158   3.071   3.492   3.400  0.8693 -2.5802  1.3254
 6174SOL    HW230159   3.137   3.488   3.536  0.3643  1.4072  0.6561
 6175SOL     OW30160   2.863   3.016  14.813 -1.1602 -0.6599  0.6531
 6175SOL    HW130161   2.845   3.021  14.906  1.6415  1.0565  1.1186
 6175SOL    HW230162   2.958   3.027  14.817 -1.1515 -1.4010  2.3293
 6176SOL     OW30163   4.479   3.918   2.118  0.1325  0.2673  0.4574
 6176SOL    HW130164   4.519   3.831   2.112  0.2925  0.4039 -0.4622
 6176SOL    HW230165   4.468   3.948   2.028 -1.3977 -1.2420  0.1379
 6177SOL     OW30166   1.973   2.105   2.485  0.3173 -0.3636  0.0035
 6177SOL    HW130167   2.011   2.020   2.466 -1.5437 -0.9628 -1.0813
 6177SOL    HW230168   2.029   2.145   2.551 -2.1774  0.5908  1.5666
 6178SOL     OW30169   2.268   0.801   0.430 -0.1945  0.1348  0.8854
 6178SOL    HW130170   2.253   0.746   0.507  1.3380 -1.1007  0.2931
 6178SOL    HW230171   2.360   0.776   0.419 -0.9882 -2.5465  0.1154
 6179SOL     OW30172   3.686   0.590   7.272 -0.0695  0.1906  0.4004
 6179SOL    HW130173   3.753   0.629   7.215 -1.7957  2.3240 -0.1753
 6179SOL    HW230174   3.725   0.611   7.358  1.4380 -0.1953 -0.1830
 6180SOL     OW30175   2.225   2.337  13.532 -0.1587 -0.9922  0.1077
 6180SOL    HW130176   2.192   2.248  13.527 -1.3840 -0.4682 -1.2182
 6180SOL    HW230177   2.213   2.357  13.625  0.7445 -1.0729  0.2426
 6181SOL     OW30178   2.030   1.536   9.246  0.1286 -0.4520 -0.8746
 6181SOL    HW130179   2.080   1.497   9.318 -2.6719 -1.2596  0.6269
 6181SOL    HW230180   1.948   1.568   9.284  1.0055 -0.1964  0.8356
 6182SOL     OW30181   1.330   2.879   8.130  0.0588 -0.2664  0.6826
 6182SOL    HW130182   1.402   2.818   8.150  0.4930  0.9754  2.8658
 6182SOL    HW230183   1.355   2.925   8.050  1.1154 -3.2199 -0.6816
 6183SOL     OW30184   3.058   3.697   1.130  0.4251  0.1265  0.2282
 6183SOL    HW130185   3.121   3.741   1.073 -0.4017  1.3309  0.2560
 6183SOL    HW230186   3.123   3.654   1.186 -1.3731 -1.0370  1.4281
 6184SOL     OW30187   3.655   4.352   6.949  0.1649 -0.5197  0.6956
 6184SOL    HW130188   3.652   4.427   7.009  1.9882 -0.3199  0.5367
 6184SOL    HW230189   3.638   4.403   6.870 -0.0049 -3.7936 -1.3497
 6185SOL     OW30190   0.778   1.625  11.438 -0.3003  0.3013  0.5816
 6185SOL    HW130191   0.691   1.591  11.461  0.5585 -0.8146  2.2129
 6185SOL    HW230192   0.801   1.552  11.380 -0.6966  2.1111 -1.8655
 6186SOL     OW30193   2.786   3.318  15.168 -0.4010  0.4899  0.4330
 6186SOL    HW130194   2.762   3.271  15.248 -0.0262  1.8566  1.3411
 6186SOL    HW230195   2.849   3.380  15.204  0.5133  0.2852 -0.8070
 6187SOL     OW30196   3.121   0.120  16.510 -0.1406 -0.3937  0.9671
 6187SOL    HW130197   3.129   0.029  16.536 -0.3250 -0.7782 -0.2943
 6187SOL    HW230198   3.148   0.118  16.418 -1.3782  0.8152  0.5653
 6188SOL     OW30199   0.657   1.731   7.538 -0.2768 -0.2032 -0.0013
 6188SOL    HW130200   0.602   1.684   7.601 -0.8308  0.1248 -0.2412
 6188SOL    HW230201   0.673   1.812   7.586  0.9361 -1.2730  1.4086
 6189SOL     OW30202   2.790   1.389  16.699  0.0132 -0.5449 -0.0525
 6189SOL    HW130203   2.846   1.466  16.696  0.1426 -0.5676  2.0804
 6189SOL    HW230204   2.835   1.333  16.636 -0.0710 -0.7476  0.0670
 6190SOL     OW30205   2.745   3.948  17.562  0.2665 -0.1659  0.4091
 6190SOL    HW130206   2.654   3.952  17.533 -0.4000 -2.0139  2.2107
 6190SOL    HW230207   2.767   3.880  17.498 -0.1450 -0.1653  0.2662
 6191SOL     OW30208   1.878   1.170   1.702 -0.6834 -0.2776 -0.1117
 6191SOL    HW130209   1.932   1.142   1.627  0.0177 -0.7462  0.5644
 6191SOL    HW230210   1.797   1.182   1.653 -2.8098 -1.6624  3.0857
 6192SOL     OW30211   0.892   0.617   1.086  0.3473  0.2237  0.6775
 6192SOL    HW130212   0.906   0.649   0.997 -1.0743 -0.5998  0.1576
 6192SOL    HW230213   0.912   0.523   1.089  0.0743  0.1309 -0.3269
 6193SOL     OW30214   3.354   2.987  15.629  0.5659  0.0813  0.2541
 6193SOL    HW130215   3.350   3.021  15.719 -1.3211 -1.3963  0.7249
 6193SOL    HW230216   3.445   2.997  15.603  0.6684  0.1896  0.6456
 6194SOL     OW30217   4.350   2.710   6.793  0.0293 -0.7954 -0.0241
 6194SOL    HW130218   4.289   2.715   6.867 -1.2800 -2.4163 -0.9881
 6194SOL    HW230219   4.423   2.660   6.828  2.5326  1.6682 -1.7442
 6195SOL     OW30220   1.327   3.197   1.455  0.5524 -0.3447 -0.6797
 6195SOL    HW130221   1.324   3.122   1.514 -0.0947  0.3611  0.1849
 6195SOL    HW230222   1.388   3.166   1.388  1.8412  0.2995  0.1946
 6196SOL     OW30223   2.220   3.468   1.736 -0.5352  0.2806  0.0475
 6196SOL    HW130224   2.182   3.522   1.805  1.4184 -0.0215  1.3629
 6196SOL    HW230225   2.246   3.389   1.784 -1.7779  0.0632  0.3625
 6197SOL     OW30226   4.485   2.179   0.446  0.5557 -0.3141  0.2216
 6197SOL    HW130227   4.465   2.086   0.434 -0.3411 -0.3379  1.9754
 6197SOL    HW230228   4.404   2.217   0.478  0.8263 -1.6252  2.4565
 6198SOL     OW30229   3.855   1.577   3.440  0.0094 -0.1788 -0.0404
 6198SOL    HW130230   3.884   1.662   3.474 -3.0310  1.7337 -2.2746
 6198SOL    HW230231   3.906   1.559   3.361  2.1685 -1.0854  1.5289
 6199SOL     OW30232   2.577   2.889   7.274 -0.0232 -0.3088 -0.0707
 6199SOL    HW130233   2.550   2.980   7.275 -0.9686 -0.5823 -2.0340
 6199SOL    HW230234   2.504   2.843   7.233 -0.3737 -0.7733  1.0743
 6200SOL     OW30235   2.879   4.368  12.844 -0.7606 -0.1984 -0.6017
 6200SOL    HW130236   2.893   4.337  12.754 -0.6916  2.9860 -1.6740
 6200SOL    HW230237   2.862   4.285  12.888  1.8248  0.5106  1.7487
 6201SOL     OW30238   0.864   3.394   8.025 -0.3432 -0.3313  0.5462
 6201SOL    HW130239   0.846   3.426   8.113 -0.1074 -1.1022  0.8725
 6201SOL    HW230240   0.777   3.357   8.011 -1.4915  1.1694  3.7588
 6202SOL     OW30241   2.663   3.162   5.515 -0.5211 -0.3242  0.7870
 6202SOL    HW130242   2.751   3.158   5.478 -0.2290 -4.4323  1.8726
 6202SOL    HW230243   2.673   3.122   5.602  4.1256  0.7091  0.7193
 6203SOL     OW30244   3.991   2.534   5.778 -0.2787 -0.0168  0.1992
 6203SOL    HW130245   4.066   2.513   5.721 -0.2441  0.1896  0.1703
 6203SOL    HW230246   3.940   2.591   5.720 -0.4989 -1.4763 -1.0506
 6204SOL     OW30247   3.906   2.329  10.676  0.1058 -0.4365 -0.4045
 6204SOL    HW130248   3.959   2.276  10.735  0.5363  0.8754  0.3848
 6204SOL    HW230249   3.908   2.277  10.596 -0.9969 -1.8363  0.4754
 6205SOL     OW30250   1.163   3.958   3.919 -0.2712  0.5767  0.2074
 6205SOL    HW130251   1.112   3.953   4.000 -1.0003 -1.7928 -0.3900
 6205SOL    HW230252   1.246   3.992   3.952  2.1712 -4.0437 -1.2754
 6206SOL     OW30253   1.772   2.286   4.192 -0.0451  0.4309  0.3193
 6206SOL    HW130254   1.797   2.376   4.172 -1.9566  0.8358 -0.2308
 6206SOL    HW230255   1.679   2.298   4.176 -0.1187  0.2026  0.5809
 6207SOL     OW30256   3.828   2.985  11.895  0.3445 -0.5592  0.0030
 6207SOL    HW130257   3.854   2.893  11.891  2.8969  0.1677 -0.4455
 6207SOL    HW230258   3.838   3.006  11.987 -0.7429  2.6199 -0.6239
 6208SOL     OW30259   4.356   0.783   2.908 -0.2050 -0.2989 -0.6062
 6208SOL    HW130260   4.437   0.831   2.928 -1.2927  1.6975 -1.0622
 6208SOL    HW230261   4.345   0.794   2.814 -0.8767 -0.4110 -0.5374
 6209SOL     OW30262   3.673   1.311  15.701 -0.0982  0.1193 -0.0321
 6209SOL    HW130263   3.710   1.398  15.686 -0.1880 -0.0027 -0.9904
 6209SOL    HW230264   3.614   1.321  15.775  0.8907  1.2124  0.5994
 6210SOL     OW30265   1.170   3.144   0.466 -0.1560  0.1130 -0.4911
 6210SOL    HW130266   1.206   3.203   0.401  1.1622 -2.0287 -1.7143
 6210SOL    HW230267   1.103   3.188   0.518  0.6049  0.6309  0.0620
 6211SOL     OW30268   0.518   1.681  12.462 -0.5847  0.3821  0.3476
 6211SOL    HW130269   0.550   1.732  12.387  1.2012 -1.2410  0.0122
 6211SOL    HW230270   0.447   1.635  12.418 -0.5506  0.1214  0.5693
 6212SOL     OW30271   3.492   0.829   3.947 -0.7235  0.5755  0.2760
 6212SOL    HW130272   3.582   0.855   3.928  0.0785 -2.1255  0.3704
 6212SOL    HW230273   3.450   0.877   3.876  0.8908  1.8651  0.1760
 6213SOL     OW30274   1.871   1.285  11.251  0.1750 -0.2347 -0.2419
 6213SOL    HW130275   1.886   1.192  11.267  1.5229  0.2433  1.3581
 6213SOL    HW230276   1.933   1.337  11.303  0.6928 -0.2932 -0.7971
 6214SOL     OW30277   2.476   3.051   0.333 -0.0713 -0.1835 -0.1327
 6214SOL    HW130278   2.439   2.976   0.379  1.7655 -0.3690  1.0623
 6214SOL    HW230279   2.447   3.128   0.382 -2.0350 -0.4588 -0.8706
 6215SOL     OW30280   4.691   2.897   3.172 -1.0981 -0.2020 -0.5125
 6215SOL    HW130281   0.013   2.869   3.100 -1.1588 -0.9279 -0.2695
 6215SOL    HW230282   4.605   2.911   3.131  0.1909 -0.6375 -3.3683
 6216SOL     OW30283   1.703   1.831   3.936  0.3392 -0.4657  0.5835
 6216SOL    HW130284   1.784   1.848   3.888  0.6781 -1.4229  0.8189
 6216SOL    HW230285   1.730   1.855   4.024 -1.3894 -0.3050  1.0516
 6217SOL     OW30286   4.604   3.256   5.686  0.2541  0.1231 -0.1163
 6217SOL    HW130287   4.681   3.293   5.728  0.8016 -0.7425 -0.3461
 6217SOL    HW230288   4.614   3.299   5.601  0.4049 -1.9945 -1.1824
 6218SOL     OW30289   4.708   1.892   7.386  0.0233  0.4586  0.0666
 6218SOL    HW130290   0.037   1.862   7.320  1.0112  2.0684  0.2828
 6218SOL    HW230291   0.026   1.947   7.445  0.2686 -0.1442  0.4192
 6219SOL     OW30292   4.375   1.591   3.487 -0.5709 -0.5189  0.0350
 6219SOL    HW130293   4.347   1.596   3.396 -1.0154 -1.3239  0.1282
 6219SOL    HW230294   4.294   1.555   3.522 -1.6724 -0.5917 -2.5953
 6220SOL     OW30295   3.745   1.725   7.860  0.0760  0.0716 -0.6343
 6220SOL    HW130296   3.802   1.665   7.811 -0.6598 -2.4966  1.6301
 6220SOL    HW230297   3.733   1.679   7.943  0.2591  1.0580 -0.0724
 6221SOL     OW30298   2.252   3.155   8.171  0.0855  0.6361  0.3046
 6221SOL    HW130299   2.282   3.088   8.110  1.2250  0.9932  0.4679
 6221SOL    HW230300   2.186   3.106   8.220  0.3988  0.6324  0.7219
 6222SOL     OW30301   4.505   3.817  12.760  0.1993  0.1071  0.1280
 6222SOL    HW130302   4.481   3.776  12.843  0.5176 -0.8045 -0.2322
 6222SOL    HW230303   4.417   3.825  12.724  0.2794  2.6750  0.5077
 6223SOL     OW30304   3.022   4.199   0.580  0.0027  0.8109 -0.0215
 6223SOL    HW130305   2.936   4.227   0.611 -0.8942 -0.9741 -0.9440
 6223SOL    HW230306   3.016   4.222   0.487  0.0411 -3.0028 -0.9569
 6224SOL     OW30307   1.028   0.088   9.325  1.1770  0.4824  0.2698
 6224SOL    HW130308   1.029   0.168   9.272 -0.3156  0.1901 -0.1998
 6224SOL    HW230309   1.101   0.040   9.289 -0.9997 -2.3523 -0.3466
 6225SOL     OW30310   1.004   3.124   9.507 -0.0727 -0.5964 -0.2461
 6225SOL    HW130311   0.983   3.217   9.506  0.2889 -0.5505 -3.0871
 6225SOL    HW230312   1.047   3.114   9.593  1.7327  0.3079 -1.0366
 6226SOL     OW30313   0.245   1.710   4.242 -0.3035  0.0693 -0.0664
 6226SOL    HW130314   0.288   1.750   4.317  0.8044 -0.7449 -0.2637
 6226SOL    HW230315   0.159   1.690   4.278  0.7443 -2.6370  0.9467
 6227SOL     OW30316   3.534   1.015   5.108 -0.5129  0.3130 -0.5019
 6227SOL    HW130317   3.478   0.944   5.077  2.5019 -0.1508 -4.9841
 6227SOL    HW230318   3.576   1.039   5.025  0.1239  0.1213 -0.2286
 6228SOL     OW30319   1.438   4.394   9.017 -0.0681  0.3387 -0.4761
 6228SOL    HW130320   1.485   4.453   8.958  1.9165  0.3726  1.1189
 6228SOL    HW230321   1.512   4.337   9.040 -0.6770 -0.4888 -0.5976
 6229SOL     OW30322   2.082   0.547  12.237 -0.0544  0.0709 -0.1372
 6229SOL    HW130323   2.121   0.513  12.157  1.0760  2.9636 -0.7838
 6229SOL    HW230324   2.044   0.623  12.193  0.7056  0.8927  0.6356
 6230SOL     OW30325   0.489   2.443   7.488 -0.4389 -0.1144 -0.0752
 6230SOL    HW130326   0.401   2.406   7.490 -0.2251 -0.6480 -0.5515
 6230SOL    HW230327   0.480   2.493   7.407  1.3216  2.2095  1.1587
 6231SOL     OW30328   2.312   2.769   3.183  0.3473  0.3133 -0.6495
 6231SOL    HW130329   2.294   2.767   3.089  0.2563 -1.4582 -0.5876
 6231SOL    HW230330   2.408   2.766   3.183  0.2611 -2.0009 -0.7392
 6232SOL     OW30331   4.327   3.503   4.443 -1.0616  0.1631  0.0096
 6232SOL    HW130332   4.239   3.505   4.406 -1.2391  0.5158  0.4438
 6232SOL    HW230333   4.370   3.535   4.364 -0.3789 -1.2868 -0.2056
 6233SOL     OW30334   1.671   4.629   8.422  0.3344 -0.1059  0.4432
 6233SOL    HW130335   1.664   4.540   8.458  0.7481 -0.2232  0.2311
 6233SOL    HW230336   1.740   4.612   8.358 -0.6776 -2.0534 -0.1397
 6234SOL     OW30337   0.037   2.749   1.295  0.1175  0.3402 -0.3101
 6234SOL    HW130338   0.120   2.766   1.251  0.9690  0.6654  1.4108
 6234SOL    HW230339   0.016   2.667   1.250 -3.3576  0.3801  1.2653
 6235SOL     OW30340   3.938   2.279   2.943  0.7390 -0.6365  0.0272
 6235SOL    HW130341   3.870   2.265   2.878 -0.8359  1.0527  1.3235
 6235SOL    HW230342   4.009   2.250   2.886 -0.1262  0.9558 -1.8418
 6236SOL     OW30343   2.857   0.725   3.184 -0.1122 -0.5408  0.0722
 6236SOL    HW130344   2.937   0.735   3.236  0.1259 -1.3409 -0.1391
 6236SOL    HW230345   2.842   0.814   3.154  1.2063 -0.2402  0.2700
 6237SOL     OW30346   3.224   1.952  14.490  0.2849 -0.1440 -0.3962
 6237SOL    HW130347   3.192   2.039  14.512 -1.0003 -1.1123  1.4502
 6237SOL    HW230348   3.142   1.904  14.476 -0.6366  0.7275  2.1976
 6238SOL     OW30349   1.301   1.427   8.712  0.1549 -0.0595 -0.4504
 6238SOL    HW130350   1.338   1.485   8.778 -2.3850  1.2183 -0.1354
 6238SOL    HW230351   1.324   1.343   8.753 -3.5943 -0.5001  0.7840
 6239SOL     OW30352   1.289   1.623   4.133  0.1879  0.4171  0.1621
 6239SOL    HW130353   1.267   1.585   4.218 -0.1811  2.1675  0.8490
 6239SOL    HW230354   1.366   1.569   4.115 -0.7364  0.0709 -2.7221
 6240SOL     OW30355   2.304   1.124   2.076  0.2531  0.0256  0.4122
 6240SOL    HW130356   2.365   1.195   2.058  0.8541 -0.2524  1.3659
 6240SOL    HW230357   2.350   1.058   2.024 -0.1837 -1.1179  1.4755
 6241SOL     OW30358   1.789   2.843  14.674  0.0738  0.4211  0.1790
 6241SOL    HW130359   1.803   2.937  14.675  0.0023  0.3894  2.7455
 6241SOL    HW230360   1.868   2.823  14.625 -0.4366 -1.5465  0.1537
 6242SOL     OW30361   3.613   1.241   4.511 -0.5939  0.1606  0.2322
 6242SOL    HW130362   3.691   1.187   4.520 -0.7444 -0.5271 -2.8942
 6242SOL    HW230363   3.585   1.210   4.426  0.5986 -2.1801  0.7054
 6243SOL     OW30364   0.768   4.356   2.753 -0.1377 -0.2714  0.1624
 6243SOL    HW130365   0.771   4.372   2.659 -1.1894  0.1090  0.1925
 6243SOL    HW230366   0.808   4.270   2.767 -1.2994 -1.2959 -2.8608
 6244SOL     OW30367   2.854   3.192  10.747 -0.0174  0.6562  0.1268
 6244SOL    HW130368   2.922   3.126  10.731 -0.9085 -0.2434  0.0455
 6244SOL    HW230369   2.778   3.140  10.771  0.5194 -0.0644  0.2565
 6245SOL     OW30370   3.816   1.205  13.852 -0.3824 -0.0559  0.1667
 6245SOL    HW130371   3.721   1.217  13.848 -0.7609 -2.6565  1.2530
 6245SOL    HW230372   3.832   1.118  13.890  0.7567  0.2300  0.3481
 6246SOL     OW30373   0.396   2.006   5.182 -0.1526  0.0727  0.4395
 6246SOL    HW130374   0.380   1.918   5.148  3.6326 -0.7566  0.8433
 6246SOL    HW230375   0.426   1.988   5.271  1.2337  1.8640  0.3170
 6247SOL     OW30376   0.034   1.485   2.089  0.6279 -0.0971  0.5651
 6247SOL    HW130377   4.673   1.493   2.080  0.5417 -0.7489  0.9126
 6247SOL    HW230378   0.061   1.568   2.050 -1.5297  1.0001  1.3797
 6248SOL     OW30379   2.151   1.824  17.101  0.0567  0.2080 -0.0869
 6248SOL    HW130380   2.236   1.861  17.123  0.3131 -0.4740  0.0828
 6248SOL    HW230381   2.092   1.887  17.143  0.0735 -1.3975  2.3743
 6249SOL     OW30382   0.153   3.163   9.581  0.6036 -0.3081 -0.0378
 6249SOL    HW130383   0.236   3.191   9.621 -0.7061  1.1286  1.6442
 6249SOL    HW230384   0.110   3.246   9.559 -0.9470 -0.8815  0.8683
 6250SOL     OW30385   1.128   0.246   8.061 -0.1074  0.2658  0.1997
 6250SOL    HW130386   1.208   0.227   8.110 -0.9119  1.2661  1.9071
 6250SOL    HW230387   1.109   0.335   8.091 -0.3389 -0.0392  0.9563
 6251SOL     OW30388   0.419   3.244   8.368  0.6775 -0.0453 -0.2986
 6251SOL    HW130389   0.412   3.245   8.464  2.2065  1.3774 -0.2067
 6251SOL    HW230390   0.362   3.167   8.357  0.5928  0.3165 -2.2683
 6252SOL     OW30391   1.689   1.110   0.051  0.2943  0.8849  0.0250
 6252SOL    HW130392   1.639   1.130   0.130  0.3349 -0.1073  0.2930
 6252SOL    HW230393   1.640   1.038   0.011  1.2272  0.3005 -0.0457
 6253SOL     OW30394   1.213   0.301   8.795 -0.1942 -0.4109  0.1087
 6253SOL    HW130395   1.233   0.288   8.888 -0.5949  2.6499  0.6428
 6253SOL    HW230396   1.186   0.210   8.781 -1.1898 -0.1499  0.3019
 6254SOL     OW30397   0.056   0.109   4.668  0.3630  0.0895 -0.1652
 6254SOL    HW130398   0.083   0.184   4.615 -0.2256 -0.7113 -1.5867
 6254SOL    HW230399   0.032   0.153   4.750 -1.1493 -1.0217 -0.0176
 6255SOL     OW30400   0.602   4.463   3.513 -0.6076  0.3361 -0.7702
 6255SOL    HW130401   0.675   4.409   3.545 -2.3307  0.7289  3.8770
 6255SOL    HW230402   0.555   4.480   3.595 -4.2500 -1.6345 -2.4691
 6256SOL     OW30403   0.504   3.879   3.537 -0.3486 -0.5275 -0.1706
 6256SOL    HW130404   0.598   3.896   3.528  0.0420 -1.1064  2.7652
 6256SOL    HW230405   0.479   3.963   3.574  0.2649  0.8166 -2.7765
 6257SOL     OW30406   0.481   0.073   4.982  0.2749 -0.1122 -0.2057
 6257SOL    HW130407   0.408   0.094   4.924 -1.2668 -1.1078  1.3522
 6257SOL    HW230408   0.459   0.122   5.062  2.8100 -2.3229  1.8437
 6258SOL     OW30409   0.507   2.189   3.353  0.7407  0.1943  0.7599
 6258SOL    HW130410   0.530   2.099   3.375 -3.0681 -0.8604  0.4991
 6258SOL    HW230411   0.489   2.176   3.260 -1.4803  1.3005  1.0301
 6259SOL     OW30412   1.908   0.268   0.405  0.0110 -0.6080 -0.2724
 6259SOL    HW130413   1.999   0.252   0.428  0.6403  1.8820 -1.0102
 6259SOL    HW230414   1.885   0.195   0.348 -2.4228  1.0240 -1.3957
 6260SOL     OW30415   1.086   0.839   2.533  0.0721  0.0946  0.1992
 6260SOL    HW130416   1.172   0.797   2.526 -0.2441 -0.5930  0.5045
 6260SOL    HW230417   1.027   0.776   2.491  0.1629 -0.8397  1.4847
 6261SOL     OW30418   2.064   2.346   7.874 -0.1527 -0.2801  0.3759
 6261SOL    HW130419   2.119   2.332   7.951  0.3374  1.6640  0.3735
 6261SOL    HW230420   2.011   2.418   7.907  1.7413  0.2433  2.2939
 6262SOL     OW30421   4.662   4.619   6.047 -0.1838  0.0527  0.0439
 6262SOL    HW130422   4.676   4.587   5.958  0.2554  1.5856 -0.4319
 6262SOL    HW230423   4.716   4.554   6.092  1.3228  1.6958  0.6031
 6263SOL     OW30424   1.815   1.325  12.850  0.1154  0.4267 -0.0092
 6263SOL    HW130425   1.738   1.295  12.802  2.8915 -1.5708 -3.2173
 6263SOL    HW230426   1.878   1.342  12.780 -0.1771 -5.6746 -1.7124
 6264SOL     OW30427   4.691   3.810  15.144 -0.5076 -0.3271  0.8670
 6264SOL    HW130428   4.598   3.803  15.122  0.0792 -0.9225 -1.3990
 6264SOL    HW230429   4.728   3.779  15.061  1.0568 -1.3994  1.9538
 6265SOL     OW30430   2.261   4.630   2.742 -0.3809 -0.2500 -0.3520
 6265SOL    HW130431   2.282   4.714   2.782 -0.4630 -0.8204  0.8995
 6265SOL    HW230432   2.230   4.651   2.653 -0.0800  0.9832 -0.1616
 6266SOL     OW30433   3.709   0.931  11.949 -0.1799 -0.1063  0.9430
 6266SOL    HW130434   3.672   0.844  11.960 -1.4345 -0.1312 -3.1368
 6266SOL    HW230435   3.627   0.978  11.933  0.1422  0.3318  0.5501
 6267SOL     OW30436   1.952   2.573  15.210  0.9744 -0.0746  0.0181
 6267SOL    HW130437   1.860   2.554  15.195  1.0533  1.4008 -2.2112
 6267SOL    HW230438   1.979   2.578  15.119  1.8127 -0.8651  0.2224
 6268SOL     OW30439   0.944   4.141   6.478  0.6462  0.0632  0.3832
 6268SOL    HW130440   0.938   4.155   6.572 -0.8283  1.1306  0.1256
 6268SOL    HW230441   0.897   4.217   6.443  0.2237 -0.5969 -0.4806
 6269SOL     OW30442   4.171   4.357  11.421 -0.2533  0.5075 -0.1698
 6269SOL    HW130443   4.246   4.350  11.480 -0.7056  0.0318  0.3517
 6269SOL    HW230444   4.110   4.338  11.492  0.1917  1.5212  0.4653
 6270SOL     OW30445   0.430   1.488   6.943 -0.7240  0.3467  0.8335
 6270SOL    HW130446   0.498   1.556   6.944  0.3970 -0.6901 -2.8162
 6270SOL    HW230447   0.347   1.534   6.939  0.0908  1.9249  2.3721
 6271SOL     OW30448   2.173   0.953  14.427 -0.1475 -0.0581 -0.6897
 6271SOL    HW130449   2.186   1.016  14.356 -0.5972 -1.9138 -2.4301
 6271SOL    HW230450   2.078   0.941  14.427 -0.0453 -0.8548  1.8644
 6272SOL     OW30451   0.708   4.535   1.687 -0.0278  0.0499 -0.5756
 6272SOL    HW130452   0.738   4.538   1.778  2.7137 -0.1930 -1.4953
 6272SOL    HW230453   0.614   4.524   1.705 -0.2244  1.3569 -0.7891
 6273SOL     OW30454   2.184   2.105   4.529 -0.8511 -0.4775 -0.2792
 6273SOL    HW130455   2.131   2.117   4.450 -0.7256 -0.4820 -0.3629
 6273SOL    HW230456   2.270   2.133   4.498  0.1242 -0.5608  2.3637
 6274SOL     OW30457   1.345   2.018   2.339 -0.1551  0.3186  0.2515
 6274SOL    HW130458   1.278   2.085   2.344  1.3371  1.7745  0.6282
 6274SOL    HW230459   1.331   1.967   2.419 -0.5834  1.9086  1.1860
 6275SOL     OW30460   2.447   2.860   8.540 -0.1856  0.2300  0.8359
 6275SOL    HW130461   2.377   2.926   8.539  1.1932  1.6757  0.0544
 6275SOL    HW230462   2.504   2.909   8.598  0.6175 -0.3389  0.5216
 6276SOL     OW30463   0.070   4.652   2.240  0.8167  0.1794 -0.0229
 6276SOL    HW130464   4.726   4.656   2.295  0.9647 -1.0608  0.2861
 6276SOL    HW230465   0.143   4.665   2.300  0.1293  1.6657  0.4763
 6277SOL     OW30466   2.582   0.191   1.286  0.3036  0.0306  0.1891
 6277SOL    HW130467   2.545   0.210   1.373  2.2440  1.5233  0.7069
 6277SOL    HW230468   2.497   0.172   1.247  0.0640  2.2090 -0.3380
 6278SOL     OW30469   3.064   4.513  11.317 -0.2478 -0.4009  0.2326
 6278SOL    HW130470   2.969   4.508  11.332 -0.3252 -1.2497 -0.5281
 6278SOL    HW230471   3.072   4.588  11.258  1.2675  1.0906  2.3625
 6279SOL     OW30472   3.772   2.960   2.160  0.7141  0.1585  0.8827
 6279SOL    HW130473   3.735   3.015   2.229 -0.9156  3.4396 -2.5456
 6279SOL    HW230474   3.807   3.035   2.111 -0.3029 -0.6866 -1.1131
 6280SOL     OW30475   1.603   4.725  15.771 -0.2389  0.2413  0.3469
 6280SOL    HW130476   1.605   4.714  15.866  1.0649  0.3621  0.3391
 6280SOL    HW230477   1.509   0.000  15.757  0.2287  1.2385 -2.0494
 6281SOL     OW30478   1.876   2.539   2.936  0.6387  0.0664 -0.2217
 6281SOL    HW130479   1.927   2.530   2.855  3.4841 -3.1107  1.9431
 6281SOL    HW230480   1.844   2.628   2.918  1.9025  0.4099 -0.7729
 6282SOL     OW30481   1.988   2.696   8.158  0.5157 -0.3261 -0.0530
 6282SOL    HW130482   1.894   2.696   8.140  0.3350 -0.8017  0.8553
 6282SOL    HW230483   1.998   2.667   8.249 -2.0066  1.0372  0.6669
 6283SOL     OW30484   1.659   3.507  10.543  0.0009 -0.2767  0.0072
 6283SOL    HW130485   1.666   3.601  10.555  3.1995 -0.6433  1.0310
 6283SOL    HW230486   1.623   3.482  10.628  0.9112 -1.1220  0.1521
 6284SOL     OW30487   1.337   1.346   5.573 -0.3676 -0.0951  0.1823
 6284SOL    HW130488   1.250   1.321   5.541 -0.1560  1.5100 -1.6169
 6284SOL    HW230489   1.325   1.357   5.668  2.9110 -0.8182  0.6732
 6285SOL     OW30490   4.228   4.509  15.054  0.1313  0.2931  0.1306
 6285SOL    HW130491   4.270   4.474  15.132  1.0281  2.0674  0.4530
 6285SOL    HW230492   4.225   4.602  15.076  4.3303  0.3981  0.3830
 6286SOL     OW30493   1.076   0.730  12.621  0.3578  0.5714  0.0099
 6286SOL    HW130494   0.993   0.776  12.626  0.0903  0.0080  0.7644
 6286SOL    HW230495   1.144   0.795  12.640  0.3340 -0.1390  2.5602
 6287SOL     OW30496   2.535   0.131  10.177  0.3425  0.0416 -0.2439
 6287SOL    HW130497   2.461   0.185  10.149  0.9613 -0.3560 -2.6351
 6287SOL    HW230498   2.612   0.162  10.128  0.2907 -0.8067 -0.8596
 6288SOL     OW30499   2.216   3.358   8.614  0.4103 -0.2324  0.0913
 6288SOL    HW130500   2.126   3.325   8.605  0.2666  0.3411 -0.6025
 6288SOL    HW230501   2.196   3.430   8.674 -0.0119 -1.3716  1.3115
 6289SOL     OW30502   3.008   0.857   9.696 -0.2018  0.0024 -0.2799
 6289SOL    HW130503   2.919   0.863   9.660 -1.1301 -1.3585  1.8341
 6289SOL    HW230504   3.006   0.762   9.704 -0.1158  0.3150  3.1729
 6290SOL     OW30505   0.883   4.603  16.640  0.6556  0.1391  0.3585
 6290SOL    HW130506   0.953   4.619  16.703 -0.3391  0.2354  1.4483
 6290SOL    HW230507   0.936   4.599  16.561  1.0876  1.7467  0.5598
 6291SOL     OW30508   2.346   4.104  14.546  0.4556  0.2628 -0.2649
 6291SOL    HW130509   2.336   4.198  14.532 -1.3028 -0.2209 -2.2086
 6291SOL    HW230510   2.266   4.079  14.592 -1.2307 -0.9430 -3.8153
 6292SOL     OW30511   4.243   0.578   2.350 -0.2391 -0.1150 -0.7571
 6292SOL    HW130512   4.328   0.608   2.382 -1.1933  1.8286 -0.0837
 6292SOL    HW230513   4.205   0.664   2.332  0.3034  0.4746  0.9196
 6293SOL     OW30514   1.231   0.364   6.195  0.3973 -0.4188 -0.1860
 6293SOL    HW130515   1.302   0.399   6.247  0.6475 -0.5545 -0.4367
 6293SOL    HW230516   1.269   0.362   6.107  0.4055 -1.6929 -0.1633
 6294SOL     OW30517   1.024   3.688   5.450 -0.1139 -0.5855  0.5732
 6294SOL    HW130518   1.110   3.652   5.427  1.5172  2.6785  1.5835
 6294SOL    HW230519   0.997   3.621   5.512  0.3946  0.0176  1.4430
 6295SOL     OW30520   0.722   1.392  15.546 -0.1678 -0.1051  0.5473
 6295SOL    HW130521   0.678   1.461  15.497  0.3783 -0.7450 -0.8662
 6295SOL    HW230522   0.778   1.441  15.606 -0.3946 -0.1010  0.7526
 6296SOL     OW30523   1.977   0.273  11.200 -0.5189 -0.2070 -0.0585
 6296SOL    HW130524   2.038   0.337  11.236 -0.5488  0.0389 -0.4392
 6296SOL    HW230525   2.037   0.224  11.143  0.5020  0.2611  0.6179
 6297SOL     OW30526   3.722   2.247   8.057 -0.6234  0.5118 -0.1261
 6297SOL    HW130527   3.647   2.197   8.025  0.1231  0.3485 -1.6364
 6297SOL    HW230528   3.774   2.274   7.981  0.2022  0.5781  0.4569
 6298SOL     OW30529   0.810   0.803   2.151 -0.0537 -0.8532  0.4295
 6298SOL    HW130530   0.807   0.818   2.057 -0.0383  1.6902  0.8318
 6298SOL    HW230531   0.881   0.740   2.164 -0.4565 -1.5848 -0.9696
 6299SOL     OW30532   2.262   2.584   4.529  0.5320 -0.2265  0.3259
 6299SOL    HW130533   2.238   2.532   4.453 -0.5664 -0.2488  0.6960
 6299SOL    HW230534   2.284   2.515   4.591 -2.6212  0.1820  1.9196
 6300SOL     OW30535   3.665   3.971   3.220  0.5629  0.6816  0.4271
 6300SOL    HW130536   3.576   3.963   3.254  1.1786 -0.9314  1.6572
 6300SOL    HW230537   3.720   3.906   3.265 -1.1998 -0.0464  1.5339
 6301SOL     OW30538   2.828   3.601   4.800 -0.3858  0.5688  0.4400
 6301SOL    HW130539   2.819   3.507   4.786  2.4350 -0.2047  3.9894
 6301SOL    HW230540   2.908   3.609   4.852  0.0322  0.9466 -0.2492
 6302SOL     OW30541   1.248   1.761   8.567  0.4014 -0.1086  0.3421
 6302SOL    HW130542   1.276   1.852   8.558 -0.8968  0.2202 -0.3467
 6302SOL    HW230543   1.158   1.771   8.597 -0.4502  2.8483 -3.2266
 6303SOL     OW30544   1.359   3.506   9.407 -0.0979  0.0411 -0.9820
 6303SOL    HW130545   1.429   3.564   9.438 -2.7200  2.3430  0.6500
 6303SOL    HW230546   1.382   3.422   9.447 -1.4252  0.0809 -0.1094
 6304SOL     OW30547   2.262   1.037   5.894  0.4031  0.0771 -0.0873
 6304SOL    HW130548   2.174   1.042   5.932 -0.1566 -0.7434 -1.2903
 6304SOL    HW230549   2.296   0.971   5.954  0.1199  0.1342  0.1392
 6305SOL     OW30550   2.098   2.182   7.518  0.0467 -0.0667 -0.0023
 6305SOL    HW130551   2.084   2.272   7.547  2.1384  0.0099  0.7129
 6305SOL    HW230552   2.031   2.167   7.451 -0.2869 -0.3332  0.3894
 6306SOL     OW30553   3.460   1.174  12.387  0.1177 -0.1169 -0.3773
 6306SOL    HW130554   3.538   1.196  12.338  0.2364 -0.8985 -0.5330
 6306SOL    HW230555   3.447   1.253  12.440 -0.3171  0.3764 -1.2174
 6307SOL     OW30556   1.718   0.164   2.001 -0.1913 -0.0790  0.3548
 6307SOL    HW130557   1.703   0.251   2.037  2.0373  0.4615 -0.0512
 6307SOL    HW230558   1.687   0.174   1.911  0.4944  0.9033  0.2290
 6308SOL     OW30559   4.676   2.836   3.467  0.2384 -0.1624  1.1880
 6308SOL    HW130560   4.613   2.903   3.496  1.7487  1.2414  1.2467
 6308SOL    HW230561   4.685   2.850   3.373  2.0791  1.0881  1.5358
 6309SOL     OW30562   1.619   2.219   3.125  0.2545 -0.0968  0.2720
 6309SOL    HW130563   1.613   2.232   3.030  1.1687 -0.9965  0.0895
 6309SOL    HW230564   1.554   2.150   3.135  0.1232  0.3291  2.2498
 6310SOL     OW30565   3.773   1.847   5.655 -0.2597 -0.7541 -0.1834
 6310SOL    HW130566   3.685   1.809   5.651 -0.6461  0.1828 -0.6319
 6310SOL    HW230567   3.759   1.942   5.653 -1.5142 -0.9469 -1.1227
 6311SOL     OW30568   0.654   1.293   4.622  0.0125  0.4615  0.0131
 6311SOL    HW130569   0.609   1.337   4.694 -2.2127  1.8419 -2.2275
 6311SOL    HW230570   0.608   1.329   4.546 -1.1852  0.3769  0.6990
 6312SOL     OW30571   2.111   3.009   4.097 -0.2758 -0.5125  0.2455
 6312SOL    HW130572   2.151   3.091   4.124  2.0270 -1.4709 -0.2798
 6312SOL    HW230573   2.182   2.945   4.086  0.8353  0.7868 -0.1139
 6313SOL     OW30574   3.173   2.817   6.055  0.1580 -0.1347 -0.8040
 6313SOL    HW130575   3.176   2.726   6.026  1.4160  0.1168 -1.4457
 6313SOL    HW230576   3.161   2.825   6.150  0.8751 -0.6691 -0.6698
 6314SOL     OW30577   0.826   1.090  10.616 -0.3888  0.1439 -0.1769
 6314SOL    HW130578   0.896   1.155  10.620 -0.5949  0.2999  0.9041
 6314SOL    HW230579   0.772   1.131  10.548  0.4117 -1.0558 -1.5354
 6315SOL     OW30580   2.685   3.168   2.952 -0.5795 -0.2409 -0.3487
 6315SOL    HW130581   2.781   3.162   2.958 -0.7633 -0.4870  2.3522
 6315SOL    HW230582   2.667   3.170   2.858 -3.1138  1.3627  0.1898
 6316SOL     OW30583   3.142   3.471   2.203  0.2470 -0.8554 -0.0174
 6316SOL    HW130584   3.055   3.433   2.192 -1.6933  2.8118  2.4339
 6316SOL    HW230585   3.184   3.385   2.205 -0.2121 -1.1380 -2.6302
 6317SOL     OW30586   3.799   2.407   0.552  0.6670 -0.7404  0.3286
 6317SOL    HW130587   3.869   2.436   0.611  0.8160  0.3191 -0.3553
 6317SOL    HW230588   3.789   2.484   0.496 -1.0981 -0.4941  0.9762
 6318SOL     OW30589   3.574   1.494  11.702 -0.6025  0.1235  0.4821
 6318SOL    HW130590   3.636   1.422  11.699  1.8273  2.2564  0.1132
 6318SOL    HW230591   3.523   1.460  11.628 -1.2885  1.1883  0.4649
 6319SOL     OW30592   0.263   0.490  11.162 -0.2965  0.2713 -0.0815
 6319SOL    HW130593   0.348   0.487  11.119  0.1488  0.7501  0.7835
 6319SOL    HW230594   0.282   0.527  11.248  0.5429 -0.8197  0.2057
 6320SOL     OW30595   0.516   3.917   2.655  0.0652 -0.7991 -0.2186
 6320SOL    HW130596   0.424   3.905   2.633  0.0610 -0.9199 -0.1399
 6320SOL    HW230597   0.504   3.956   2.742  0.5978  0.5428 -0.7603
 6321SOL     OW30598   2.821   1.152  12.844 -0.0869  0.7941 -0.7560
 6321SOL    HW130599   2.838   1.058  12.835 -0.9370  0.4909  0.8309
 6321SOL    HW230600   2.848   1.167  12.935 -0.7757  2.0405 -0.7561
 6322SOL     OW30601   0.679   2.718  13.450 -0.2768  0.5500 -0.3156
 6322SOL    HW130602   0.656   2.809  13.433  0.7741  1.0419  0.8561
 6322SOL    HW230603   0.605   2.689  13.397 -1.2196  0.4655  1.0599
 6323SOL     OW30604   1.713   0.839   7.681 -0.9459  0.6932 -0.0339
 6323SOL    HW130605   1.666   0.783   7.619  1.3029 -0.3594 -0.8061
 6323SOL    HW230606   1.731   0.780   7.755  0.3465 -0.3174 -1.1488
 6324SOL     OW30607   3.183   3.019   2.366  0.4642  0.2245 -0.4412
 6324SOL    HW130608   3.245   2.993   2.298  1.3962 -2.1631  1.3239
 6324SOL    HW230609   3.107   2.968   2.340  0.1269 -0.7857  2.4960
 6325SOL     OW30610   0.215   1.786  12.270  0.3939 -0.4557  0.1232
 6325SOL    HW130611   0.243   1.851  12.335 -0.4440 -1.2030  1.2395
 6325SOL    HW230612   0.261   1.827  12.197 -0.0049  0.0815  0.1780
 6326SOL     OW30613   0.822   3.273   5.794  0.2616 -0.1443  0.2544
 6326SOL    HW130614   0.777   3.307   5.872 -0.0535 -1.7719  0.7932
 6326SOL    HW230615   0.888   3.225   5.844 -0.3421  0.1863  1.3671
 6327SOL     OW30616   0.084   0.449   1.509  0.0208  0.3580  0.2035
 6327SOL    HW130617   0.029   0.372   1.498  1.6580 -0.3136 -3.5779
 6327SOL    HW230618   0.130   0.433   1.426 -0.6269 -2.2467  0.3472
 6328SOL     OW30619   0.391   2.287   8.093  0.5184 -0.8454 -0.1116
 6328SOL    HW130620   0.433   2.359   8.046  1.5371 -1.0574  0.4659
 6328SOL    HW230621   0.420   2.209   8.045  1.0271 -2.3132  2.6243
 6329SOL     OW30622   0.687   4.452  16.248  0.3775 -0.0387  0.2439
 6329SOL    HW130623   0.748   4.491  16.185 -0.3628  0.1531 -0.3505
 6329SOL    HW230624   0.639   4.385  16.200  1.9713 -0.5251 -0.6803
 6330SOL     OW30625   4.080   0.706   2.595 -0.1388  0.0139  0.0531
 6330SOL    HW130626   4.155   0.705   2.654 -0.0399 -2.2755 -0.1209
 6330SOL    HW230627   4.113   0.754   2.519  3.5115 -1.5256  0.6930
 6331SOL     OW30628   3.650   4.525   3.508  0.4293  0.3825  0.1504
 6331SOL    HW130629   3.674   4.531   3.416  2.0281 -0.3730  0.5145
 6331SOL    HW230630   3.679   4.611   3.537 -0.2875  0.0126  2.0136
 6332SOL     OW30631   1.034   3.042   2.339 -0.0386 -0.0370  0.5171
 6332SOL    HW130632   1.086   3.029   2.418  0.4661  0.6751  0.3085
 6332SOL    HW230633   1.034   2.951   2.311 -1.7869 -0.0865  0.6863
 6333SOL     OW30634   2.295   2.505   7.772 -0.1419  0.3577 -0.0130
 6333SOL    HW130635   2.325   2.419   7.800 -0.9929  0.3980  1.0130
 6333SOL    HW230636   2.305   2.555   7.853  1.4259 -0.3252  0.2008
 6334SOL     OW30637   0.376   4.597   8.568 -0.1900 -0.4328  0.4414
 6334SOL    HW130638   0.442   4.529   8.579 -0.1491 -0.5369 -0.5003
 6334SOL    HW230639   0.383   4.645   8.651 -2.8387  1.6662 -0.5274
 6335SOL     OW30640   0.333   1.785   5.060 -0.0174  0.2128 -0.1147
 6335SOL    HW130641   0.345   1.690   5.058  1.0716  0.3278  0.7694
 6335SOL    HW230642   0.390   1.818   4.990 -2.2167 -0.6167 -2.2759
 6336SOL     OW30643   1.221   3.352   9.786 -0.1525 -0.0361 -0.3572
 6336SOL    HW130644   1.228   3.273   9.732  2.6472  0.9222 -1.3873
 6336SOL    HW230645   1.181   3.420   9.732 -0.5851  0.7420  0.9655
 6337SOL     OW30646   3.103   0.351   5.729 -0.2824  0.0648 -0.0542
 6337SOL    HW130647   3.143   0.292   5.665 -1.7471  0.9486 -1.7917
 6337SOL    HW230648   3.150   0.326   5.809  0.2853 -0.4097 -0.5413
 6338SOL     OW30649   1.223   4.080  15.839 -0.2671  0.5276  0.3281
 6338SOL    HW130650   1.235   4.149  15.775  3.5713  0.3033  0.7780
 6338SOL    HW230651   1.221   3.998  15.788 -0.1894  0.6811  0.0785
 6339SOL     OW30652   1.039   4.025   2.120  0.2939  0.2235  0.2636
 6339SOL    HW130653   1.122   4.007   2.077 -1.1650 -1.5075 -1.8193
 6339SOL    HW230654   1.048   4.118   2.142  0.2734  0.3747 -0.3593
 6340SOL     OW30655   3.830   1.590   5.560 -0.5053 -0.4720  0.3452
 6340SOL    HW130656   3.792   1.554   5.640 -1.4952 -2.2426 -0.9282
 6340SOL    HW230657   3.790   1.677   5.563 -0.7642 -0.6551  2.0142
 6341SOL     OW30658   3.130   4.662  11.110 -0.0021 -0.0941 -0.1843
 6341SOL    HW130659   3.094   4.604  11.043 -2.1775 -1.4043  2.0979
 6341SOL    HW230660   3.221   4.633  11.121  0.5922  2.0129  0.4615
 6342SOL     OW30661   4.493   4.684   7.289 -0.1014  0.2991  0.0473
 6342SOL    HW130662   4.429   4.658   7.355 -0.2977  1.6001  0.3640
 6342SOL    HW230663   4.440   0.011   7.238  1.8184  1.7945 -0.1853
 6343SOL     OW30664   0.748   0.282  13.374 -0.8265  0.0790  0.0601
 6343SOL    HW130665   0.775   0.321  13.456 -0.4566  1.2557 -0.6266
 6343SOL    HW230666   0.682   0.224  13.413  0.2186 -1.0629  0.1367
 6344SOL     OW30667   4.558   0.628   6.482 -0.0194 -0.2567 -0.7511
 6344SOL    HW130668   4.483   0.570   6.493 -1.1660  1.1928 -0.9531
 6344SOL    HW230669   4.554   0.668   6.569 -0.1616 -0.1964 -0.7844
 6345SOL     OW30670   2.378   3.714  14.906 -0.1698 -0.3365 -0.3804
 6345SOL    HW130671   2.399   3.697  14.815 -0.3399  0.2551 -0.5308
 6345SOL    HW230672   2.365   3.625  14.939 -0.3393  0.2594  1.1778
 6346SOL     OW30673   1.694   2.757  17.071  0.0456  0.8416  0.4624
 6346SOL    HW130674   1.721   2.678  17.117 -0.1879  1.0095  0.8926
 6346SOL    HW230675   1.616   2.734  17.021 -0.1305  2.0335  0.1688
 6347SOL     OW30676   1.459   2.541   2.468 -0.4854  0.6931 -0.1795
 6347SOL    HW130677   1.403   2.545   2.545 -0.8518  1.2714 -0.4763
 6347SOL    HW230678   1.407   2.546   2.388 -1.8373  1.2023  0.7169
 6348SOL     OW30679   3.817   0.177  14.773  0.0284  0.2160 -0.1448
 6348SOL    HW130680   3.839   0.218  14.689 -0.1179 -0.1703 -0.3732
 6348SOL    HW230681   3.726   0.148  14.761 -0.0351  0.3810 -0.0618
 6349SOL     OW30682   2.591   2.972  14.173 -0.1842 -0.6268 -0.0107
 6349SOL    HW130683   2.670   2.969  14.226  1.3795  0.9938 -2.2501
 6349SOL    HW230684   2.602   3.063  14.144  0.8396 -0.6451  0.3193
 6350SOL     OW30685   0.973   1.668   3.595  0.6799  0.0000  0.1102
 6350SOL    HW130686   1.061   1.641   3.621  0.9940  1.8136  0.9418
 6350SOL    HW230687   0.930   1.589   3.627 -1.9943  1.3642 -0.0896
 6351SOL     OW30688   0.757   0.070  13.011  0.6027 -0.4363 -0.0624
 6351SOL    HW130689   0.781   0.049  13.101 -1.5290  0.0821  0.6394
 6351SOL    HW230690   0.765   0.164  13.028 -1.9545 -0.2723  0.2557
 6352SOL     OW30691   3.568   0.841   2.609  0.0898  0.6268 -0.4426
 6352SOL    HW130692   3.558   0.755   2.568 -1.6377  0.2242  0.7988
 6352SOL    HW230693   3.646   0.832   2.663 -0.9959 -1.5451  0.7689
 6353SOL     OW30694   2.994   3.433  10.416  0.7649  0.2826  0.5047
 6353SOL    HW130695   2.934   3.463  10.484 -1.8890  2.4063 -2.7481
 6353SOL    HW230696   2.957   3.474  10.337 -1.2981  0.5500  1.6221
 6354SOL     OW30697   1.579   0.297  11.195 -0.4865 -0.0094  0.4136
 6354SOL    HW130698   1.504   0.352  11.172 -0.7493 -0.7507 -0.5327
 6354SOL    HW230699   1.557   0.244  11.272 -1.7662  0.0533  0.1033
 6355SOL     OW30700   0.610   2.802   8.252 -0.0146  0.5276  0.1502
 6355SOL    HW130701   0.670   2.851   8.196 -0.9331  1.9493  0.4106
 6355SOL    HW230702   0.668   2.767   8.319 -0.5998 -0.5338  0.0974
 6356SOL     OW30703   1.454   2.189   3.494 -0.0996 -1.0968  0.6095
 6356SOL    HW130704   1.523   2.186   3.561  1.8172 -2.1572 -1.4196
 6356SOL    HW230705   1.385   2.137   3.536 -1.5528 -1.7329 -2.6227
 6357SOL     OW30706   4.731   1.779   6.224  0.0384  0.1812  0.7312
 6357SOL    HW130707   0.079   1.732   6.204  1.5525  2.1893  2.3100
 6357SOL    HW230708   4.720   1.748   6.313 -2.8692 -0.2070  0.2338
 6358SOL     OW30709   0.808   1.035   9.968  0.2016  0.0200  0.0689
 6358SOL    HW130710   0.836   0.995   9.886  0.6512  0.6652 -0.0896
 6358SOL    HW230711   0.884   1.091   9.986  1.4888 -1.8826  0.5534
 6359SOL     OW30712   4.627   4.679   7.645  0.1836 -0.5328 -0.8365
 6359SOL    HW130713   4.669   4.717   7.567  2.0901  2.4064  1.6242
 6359SOL    HW230714   4.533   4.694   7.639  0.2832  0.1234 -0.7638
 6360SOL     OW30715   0.437   2.855   1.940 -0.0093  0.2028  0.3190
 6360SOL    HW130716   0.526   2.888   1.934  1.2993 -2.9860  2.5413
 6360SOL    HW230717   0.431   2.839   2.034  0.9136  1.3207  0.5570
 6361SOL     OW30718   2.471   2.836   1.388 -0.1340 -0.0754 -0.4011
 6361SOL    HW130719   2.526   2.763   1.360  0.6942 -0.4638  2.1782
 6361SOL    HW230720   2.444   2.791   1.468 -2.1630 -0.3413 -1.2457
 6362SOL     OW30721   0.419   2.685  12.628 -0.1986  0.6823  0.3793
 6362SOL    HW130722   0.364   2.608  12.642 -1.5782  1.3546 -1.3132
 6362SOL    HW230723   0.458   2.667  12.542 -0.5001 -2.3887  0.8823
 6363SOL     OW30724   0.811   3.911   8.598  0.2367 -0.0784  0.0793
 6363SOL    HW130725   0.764   3.835   8.632  0.2124  0.0898  0.4226
 6363SOL    HW230726   0.827   3.879   8.509  0.8614  1.5647 -0.3909
 6364SOL     OW30727   1.420   2.102  13.291  0.3580  0.2248  0.0059
 6364SOL    HW130728   1.369   2.174  13.328 -1.5374 -1.5991  0.9283
 6364SOL    HW230729   1.376   2.036  13.344  1.8920 -0.2554  0.6681
 6365SOL     OW30730   2.271   3.212  16.217 -0.1803  0.3676  0.8772
 6365SOL    HW130731   2.318   3.292  16.239 -0.3974  0.2207  1.9012
 6365SOL    HW230732   2.211   3.194  16.289  0.9480 -1.4276  1.3779
 6366SOL     OW30733   2.560   3.917  14.951 -0.5193 -0.0642  0.2540
 6366SOL    HW130734   2.500   3.842  14.948 -1.2236  0.4928  0.6215
 6366SOL    HW230735   2.621   3.887  15.019  0.5957  0.2847 -0.5988
 6367SOL     OW30736   1.502   0.203  11.437 -0.0979 -0.3457  0.2145
 6367SOL    HW130737   1.429   0.151  11.473 -1.7061  0.6056 -1.6532
 6367SOL    HW230738   1.540   0.235  11.518 -0.3861  0.0616  0.1903
 6368SOL     OW30739   3.717   0.991  10.539 -0.4759 -0.3767  0.1811
 6368SOL    HW130740   3.734   1.070  10.590 -0.1313 -0.1447 -0.2891
 6368SOL    HW230741   3.767   1.017  10.461  0.4842 -2.4213  0.1363
 6369SOL     OW30742   2.998   2.960   3.366  0.0237 -0.0116  0.5586
 6369SOL    HW130743   2.968   2.977   3.277 -0.3103  0.8817  0.8394
 6369SOL    HW230744   3.090   2.941   3.345 -0.6312 -1.3309 -1.0848
 6370SOL     OW30745   2.089   2.061  12.958 -0.1617  0.2778  0.2009
 6370SOL    HW130746   2.039   1.990  12.917  1.6945 -0.3036 -1.0933
 6370SOL    HW230747   2.034   2.074  13.035 -0.2399  0.2905  0.1435
 6371SOL     OW30748   2.271   1.011   1.048 -0.4394 -0.0983  0.6284
 6371SOL    HW130749   2.238   1.026   1.136  0.4394 -1.0010  1.1035
 6371SOL    HW230750   2.191   0.976   1.008 -0.7681 -1.3750  2.4215
 6372SOL     OW30751   0.623   1.181   7.749 -0.8337 -0.4091 -0.4310
 6372SOL    HW130752   0.544   1.218   7.790  2.0035  3.1646  1.7840
 6372SOL    HW230753   0.683   1.167   7.822 -0.6878 -0.6703 -0.6001
 6373SOL     OW30754   4.015   3.726   4.103  0.0298  0.3531 -0.7742
 6373SOL    HW130755   3.929   3.752   4.137  0.2155  0.7442 -0.6056
 6373SOL    HW230756   4.045   3.672   4.176 -0.5137 -1.0683 -1.5906
 6374SOL     OW30757   1.545   2.382  16.112 -0.6522  0.6018 -0.3472
 6374SOL    HW130758   1.533   2.361  16.019  1.1198 -1.1691 -0.1673
 6374SOL    HW230759   1.553   2.478  16.110 -0.4846  0.5739 -1.0780
 6375SOL     OW30760   3.308   3.073   1.746 -0.1679  0.3115 -0.0180
 6375SOL    HW130761   3.333   2.990   1.786 -0.7442  0.0540 -0.1861
 6375SOL    HW230762   3.367   3.136   1.786 -0.1443  1.1950 -1.4245
 6376SOL     OW30763   3.511   4.304   7.287  0.1723  0.7811  0.2351
 6376SOL    HW130764   3.513   4.226   7.231 -0.2532  0.6382  0.4163
 6376SOL    HW230765   3.464   4.267   7.362  1.8423  0.2953  1.0513
 6377SOL     OW30766   1.975   0.710   3.317 -0.2768 -0.4705 -0.6477
 6377SOL    HW130767   2.000   0.627   3.275  1.8116  0.5890 -1.4655
 6377SOL    HW230768   1.995   0.692   3.409 -0.5449  2.4977 -0.0190
 6378SOL     OW30769   3.255   1.233  11.400  1.0012 -0.0398  0.7075
 6378SOL    HW130770   3.191   1.285  11.351  0.1279 -1.0736  0.7482
 6378SOL    HW230771   3.224   1.144  11.385  1.2570  0.2796 -1.6923
 6379SOL     OW30772   4.417   3.791  14.520 -0.0386 -0.6228  0.0413
 6379SOL    HW130773   4.490   3.740  14.556 -0.1621 -0.9623 -0.1876
 6379SOL    HW230774   4.431   3.774  14.427  3.4950 -1.3586  0.7029
 6380SOL     OW30775   2.652   0.937  15.757  0.0797  0.0458  0.7443
 6380SOL    HW130776   2.715   0.873  15.790 -0.9618 -0.6383  1.3849
 6380SOL    HW230777   2.608   0.957  15.839 -0.3688  0.2901  0.4443
 6381SOL     OW30778   1.987   0.161   4.853  0.7656  0.2206 -0.1645
 6381SOL    HW130779   1.957   0.090   4.795  1.4332 -0.2809  0.1013
 6381SOL    HW230780   1.942   0.144   4.936 -0.9291  0.6200 -1.0106
 6382SOL     OW30781   1.034   1.984   6.069  0.2885 -0.1836 -0.3232
 6382SOL    HW130782   1.025   1.890   6.085  4.1767 -0.5989 -0.4713
 6382SOL    HW230783   1.009   1.990   5.977 -1.1379 -0.6480  0.0418
 6383SOL     OW30784   1.669   1.400   3.635 -0.3322 -0.3109  0.0370
 6383SOL    HW130785   1.648   1.340   3.564  1.7102  1.8146 -2.3561
 6383SOL    HW230786   1.721   1.470   3.595  0.3833 -0.3545  0.8765
 6384SOL     OW30787   3.630   4.489   6.691  0.6251  0.1198  0.7524
 6384SOL    HW130788   3.690   4.420   6.664 -0.3198 -0.0437 -0.9092
 6384SOL    HW230789   3.626   4.545   6.614  1.9119  0.5076  0.9647
 6385SOL     OW30790   0.875   3.674   3.429  0.3329 -0.1229  0.5143
 6385SOL    HW130791   0.846   3.756   3.469 -1.1268  0.8396 -2.5006
 6385SOL    HW230792   0.965   3.675   3.462  2.1657  0.5755 -4.4871
 6386SOL     OW30793   2.706   1.920  15.303  0.8139 -0.9471  0.5986
 6386SOL    HW130794   2.727   1.944  15.213 -2.2913 -0.6329 -0.0393
 6386SOL    HW230795   2.788   1.876  15.325  2.3588  1.2269 -0.7751
 6387SOL     OW30796   0.904   4.213  12.671 -0.7893  0.0840 -0.4866
 6387SOL    HW130797   0.937   4.143  12.728 -1.3101  0.9759  0.9015
 6387SOL    HW230798   0.870   4.275  12.736 -0.3859  0.4362 -0.6098
 6388SOL     OW30799   0.845   4.237   0.655  0.2480 -0.2677 -0.8482
 6388SOL    HW130800   0.924   4.204   0.612  0.9783  1.9439 -1.1783
 6388SOL    HW230801   0.834   4.319   0.607  1.6489  0.6025  0.3476
 6389SOL     OW30802   4.006   0.206   8.370 -0.1654  0.9557 -0.0202
 6389SOL    HW130803   4.039   0.261   8.300  0.6139  0.1905 -0.2589
 6389SOL    HW230804   4.052   0.236   8.448  2.2807  0.4368 -1.2751
 6390SOL     OW30805   2.426   3.670  13.354 -0.5186  0.6641  0.0105
 6390SOL    HW130806   2.500   3.684  13.414  0.1689 -1.1807 -0.4151
 6390SOL    HW230807   2.366   3.631  13.419  2.2871 -1.4578  1.3624
 6391SOL     OW30808   3.932   0.616   5.910  0.3817  0.1457  0.7496
 6391SOL    HW130809   4.006   0.605   5.970  1.6517 -1.2501 -1.0736
 6391SOL    HW230810   3.972   0.556   5.848  0.1315  0.8930 -0.1323
 6392SOL     OW30811   1.083   4.488   5.254  0.2843  0.0011  0.0690
 6392SOL    HW130812   1.018   4.473   5.186 -1.1869  1.1472  1.2099
 6392SOL    HW230813   1.055   4.567   5.300 -1.3082  0.5356 -1.8557
 6393SOL     OW30814   0.907   3.512   4.929  0.7308 -0.3403 -0.3160
 6393SOL    HW130815   0.859   3.479   4.853  0.5911 -1.2005  0.1379
 6393SOL    HW230816   0.842   3.576   4.958 -0.3146 -1.4531 -0.1772
 6394SOL     OW30817   1.014   4.369   2.249 -0.3543  0.0723 -0.3723
 6394SOL    HW130818   1.066   4.365   2.169  1.1298  1.3917  0.5437
 6394SOL    HW230819   0.961   4.443   2.219 -0.3081 -0.6157 -2.1543
 6395SOL     OW30820   0.161   3.821   3.162 -0.2023  0.3024  0.0922
 6395SOL    HW130821   0.250   3.793   3.139 -0.7551 -1.9793  0.6544
 6395SOL    HW230822   0.180   3.862   3.246 -1.1239 -0.5044  0.7061
 6396SOL     OW30823   3.606   1.184  16.860  0.1001 -0.4899 -0.2050
 6396SOL    HW130824   3.692   1.144  16.850  0.9222  1.2621 -0.1489
 6396SOL    HW230825   3.569   1.133  16.932  2.1892 -1.4494  0.1873
 6397SOL     OW30826   3.073   4.648   3.443 -0.4219 -0.2088 -0.5524
 6397SOL    HW130827   3.082   0.009   3.450 -1.3039 -0.3527  2.2885
 6397SOL    HW230828   3.167   4.631   3.455 -0.4551  1.0135  1.3744
 6398SOL     OW30829   2.585   0.692   3.159  0.0234 -0.4307  0.7686
 6398SOL    HW130830   2.674   0.709   3.127 -0.3754 -2.4623 -1.4410
 6398SOL    HW230831   2.604   0.604   3.190 -2.3370 -0.7220  1.3681
 6399SOL     OW30832   0.111   3.088   6.791  0.0513  0.2393  0.3904
 6399SOL    HW130833   0.095   3.049   6.705 -0.0823 -1.1269  1.0212
 6399SOL    HW230834   0.207   3.089   6.792  0.1121 -3.1470 -1.1387
 6400SOL     OW30835   0.101   0.603   5.005  0.0837 -0.0677 -0.4341
 6400SOL    HW130836   0.010   0.574   5.013 -1.1318  2.9527 -3.2995
 6400SOL    HW230837   0.129   0.604   5.097 -1.5871 -1.0058  0.0887
 6401SOL     OW30838   3.051   1.159   8.198 -0.3139  0.4756 -0.2044
 6401SOL    HW130839   2.972   1.203   8.167 -2.0792 -1.6046  1.3578
 6401SOL    HW230840   3.026   1.067   8.204  0.9975  0.0702 -0.9082
 6402SOL     OW30841   1.207   1.915   7.988 -0.1602  0.7658 -0.1266
 6402SOL    HW130842   1.119   1.954   7.992  0.5539  2.1185  2.6826
 6402SOL    HW230843   1.260   1.993   7.972  0.1952  0.4830 -0.3252
 6403SOL     OW30844   2.365   3.131   3.265  0.1723  0.3390  0.2189
 6403SOL    HW130845   2.341   3.129   3.358 -1.0426  2.2665 -0.0561
 6403SOL    HW230846   2.460   3.141   3.278  0.2493  0.7214 -0.6578
 6404SOL     OW30847   4.160   3.872   3.926  0.8242  0.2185  0.1049
 6404SOL    HW130848   4.114   3.834   4.001 -1.5836 -0.8008 -1.8700
 6404SOL    HW230849   4.238   3.819   3.943 -0.7159 -2.3146 -0.7194
 6405SOL     OW30850   2.102   0.107  11.499 -0.0449 -0.1203 -0.1720
 6405SOL    HW130851   2.009   0.118  11.520  0.1901  2.6905 -0.6375
 6405SOL    HW230852   2.128   0.197  11.515 -1.3444  0.3456 -0.7047
 6406SOL     OW30853   1.481   2.043   0.748 -0.1465 -0.0834  0.4667
 6406SOL    HW130854   1.403   1.992   0.771 -0.5524  0.5800  0.5326
 6406SOL    HW230855   1.535   2.049   0.827  0.2222  0.8282  0.1391
 6407SOL     OW30856   4.069   4.384   5.269 -0.3446  0.3928 -0.0249
 6407SOL    HW130857   4.131   4.311   5.271 -2.1347 -1.0375  3.6780
 6407SOL    HW230858   4.124   4.449   5.312 -0.6574 -0.0082  0.9965
 6408SOL     OW30859   3.296   1.824   5.965  0.2102  0.1098 -0.3878
 6408SOL    HW130860   3.262   1.905   6.002  0.9083  0.4462 -0.4825
 6408SOL    HW230861   3.227   1.760   5.984  0.6743  0.1220  1.3764
 6409SOL     OW30862   2.137   2.943  10.575  1.1591  0.0510  0.4667
 6409SOL    HW130863   2.171   3.010  10.516  0.1022 -0.0658 -0.2721
 6409SOL    HW230864   2.065   2.904  10.526  1.0164 -0.2431  0.9088
 6410SOL     OW30865   2.552   0.537   7.220  0.3534  0.5005  0.1008
 6410SOL    HW130866   2.640   0.512   7.193  0.4946  1.8577 -0.6801
 6410SOL    HW230867   2.503   0.461   7.189  0.3128  0.4650  0.2519
 6411SOL     OW30868   2.346   4.267   0.214  0.0385  0.1418  0.7196
 6411SOL    HW130869   2.429   4.236   0.179 -0.5923 -0.0044 -0.6370
 6411SOL    HW230870   2.304   4.299   0.134 -1.3773 -1.1347  0.9376
 6412SOL     OW30871   2.428   0.791   1.265 -0.5340  0.2943  0.8169
 6412SOL    HW130872   2.512   0.780   1.311 -0.0286 -0.9425 -0.4094
 6412SOL    HW230873   2.404   0.874   1.306 -1.3484  1.1438 -1.3969
 6413SOL     OW30874   2.061   1.209   6.148  0.6752  0.2190 -0.1716
 6413SOL    HW130875   1.993   1.270   6.178 -0.0362 -0.0409 -1.2573
 6413SOL    HW230876   2.103   1.254   6.075  0.9986  1.2419  0.6421
 6414SOL     OW30877   1.727   4.673   9.097 -0.0486 -0.1971  0.4054
 6414SOL    HW130878   1.813   4.634   9.109  0.0600  0.3586  1.3850
 6414SOL    HW230879   1.744   0.031   9.116 -0.2483 -0.0390 -0.1845
 6415SOL     OW30880   2.444   4.343   2.859 -0.8257 -0.6615  0.4730
 6415SOL    HW130881   2.523   4.292   2.874  0.8262  2.1879  1.3602
 6415SOL    HW230882   2.427   4.362   2.951  1.4697 -1.6353  1.0873
 6416SOL     OW30883   4.391   4.182   5.498 -0.2169 -0.1866  0.2682
 6416SOL    HW130884   4.472   4.131   5.499 -1.1345 -1.6098  1.3059
 6416SOL    HW230885   4.418   4.260   5.545  0.9744 -1.2198  1.3027
 6417SOL     OW30886   0.098   2.556  11.300 -0.2662  0.0175 -0.3703
 6417SOL    HW130887   0.107   2.465  11.329  0.0247  0.3866  0.6787
 6417SOL    HW230888   0.123   2.600  11.381 -0.1759  0.8185 -0.8301
 6418SOL     OW30889   2.676   2.600   8.607 -0.0933  0.0115 -0.1559
 6418SOL    HW130890   2.672   2.668   8.540 -0.2891  0.5610  0.4168
 6418SOL    HW230891   2.606   2.543   8.575 -1.3181  1.0367  0.7009
 6419SOL     OW30892   0.580   2.767  16.587  0.1100 -0.9923 -0.1390
 6419SOL    HW130893   0.556   2.700  16.650 -0.6008  0.0189  0.6786
 6419SOL    HW230894   0.576   2.707  16.513 -0.8159 -0.5769 -0.4392
 6420SOL     OW30895   1.904   1.776  13.976 -0.2497 -0.2159 -0.5700
 6420SOL    HW130896   1.882   1.763  14.068 -2.8724 -0.9495 -1.3167
 6420SOL    HW230897   1.824   1.817  13.945  0.2496  1.2973  0.1239
 6421SOL     OW30898   0.343   1.571   9.491 -0.2517 -0.2014 -0.3174
 6421SOL    HW130899   0.342   1.522   9.574 -3.0168  0.8422  0.2779
 6421SOL    HW230900   0.412   1.522   9.447 -0.8032 -2.0037  0.8146
 6422SOL     OW30901   2.828   2.264   4.847 -0.5271  0.0040  0.6458
 6422SOL    HW130902   2.900   2.237   4.904 -0.2073  1.5758  0.9978
 6422SOL    HW230903   2.881   2.301   4.776 -1.3210  0.4331  0.2729
 6423SOL     OW30904   2.299   0.830  15.804  0.2778  0.3690  0.1000
 6423SOL    HW130905   2.226   0.769  15.805 -0.0124  0.6446 -3.6797
 6423SOL    HW230906   2.375   0.771  15.801 -1.1427 -1.3471 -1.8495
 6424SOL     OW30907   1.724   2.730   6.756  0.9550  0.4717  0.2756
 6424SOL    HW130908   1.735   2.653   6.700  1.0862  0.2808  0.5660
 6424SOL    HW230909   1.633   2.758   6.743  0.8052  0.0753  0.4721
 6425SOL     OW30910   3.182   0.366   2.688 -0.0944 -0.5332 -0.2902
 6425SOL    HW130911   3.212   0.279   2.716  0.9155  0.6614  2.2970
 6425SOL    HW230912   3.134   0.396   2.764 -0.2313  1.4791 -1.1804
 6426SOL     OW30913   4.153   1.711   8.416  0.1843  0.0263  0.4854
 6426SOL    HW130914   4.223   1.776   8.421 -0.8589  1.1040  1.0437
 6426SOL    HW230915   4.196   1.648   8.358 -1.9693 -0.2999 -0.7858
 6427SOL     OW30916   3.387   4.389  11.539  0.9017  0.3546  0.4345
 6427SOL    HW130917   3.382   4.480  11.569 -1.0865  0.3582  0.0654
 6427SOL    HW230918   3.428   4.356  11.620 -1.4098  0.2120  1.5414
 6428SOL     OW30919   0.884   2.763   9.540  0.2661  0.0935 -0.3741
 6428SOL    HW130920   0.790   2.744   9.544  0.1173  0.6423 -1.4379
 6428SOL    HW230921   0.888   2.858   9.545 -1.3585  0.2038 -1.0914
 6429SOL     OW30922   3.847   3.787   1.364 -0.3965 -0.0729  0.0669
 6429SOL    HW130923   3.768   3.797   1.418 -0.8664 -0.7108 -0.5131
 6429SOL    HW230924   3.911   3.783   1.436  0.2957 -0.3076 -0.5582
 6430SOL     OW30925   1.051   2.831  15.693 -0.2378  0.6146 -0.1199
 6430SOL    HW130926   0.978   2.833  15.755  0.0614  0.2137  0.2489
 6430SOL    HW230927   1.111   2.785  15.751 -2.2303  0.3370  1.7253
 6431SOL     OW30928   0.463   3.953   1.259  0.2389 -0.3460 -0.1648
 6431SOL    HW130929   0.522   4.003   1.315  1.6711 -1.3091 -0.8193
 6431SOL    HW230930   0.504   3.975   1.176 -1.6525 -1.1626 -1.3055
 6432SOL     OW30931   3.296   1.965  13.139 -0.2104 -0.3250 -0.0922
 6432SOL    HW130932   3.229   1.983  13.205  1.0588  0.4574  0.9966
 6432SOL    HW230933   3.375   1.967  13.194  0.3346 -0.6305 -0.8671
 6433SOL     OW30934   1.246   4.392   3.926 -0.5873  0.2780 -0.1576
 6433SOL    HW130935   1.319   4.336   3.900 -1.6350  0.2172 -2.9844
 6433SOL    HW230936   1.285   4.461   3.979 -0.7851 -2.1729  3.2000
 6434SOL     OW30937   3.684   4.691   4.955 -0.5627  0.0437 -0.0987
 6434SOL    HW130938   3.725   4.660   4.875 -0.5669 -2.5884  0.9425
 6434SOL    HW230939   3.747   0.027   4.971  1.5729 -1.9734  0.2287
 6435SOL     OW30940   2.875   0.596   8.956  0.7038 -0.8575 -0.1898
 6435SOL    HW130941   2.888   0.503   8.940 -1.2819 -1.4429  1.5262
 6435SOL    HW230942   2.964   0.623   8.979  0.8056 -0.0194 -1.5484
 6436SOL     OW30943   4.259   4.634   1.849  0.3272 -0.0333  0.2851
 6436SOL    HW130944   4.195   4.574   1.811 -1.8888  1.9325  0.8748
 6436SOL    HW230945   4.290   4.678   1.770  1.2014 -0.7415  0.2406
 6437SOL     OW30946   4.297   3.433   4.848 -0.1727 -0.0291  0.6333
 6437SOL    HW130947   4.333   3.345   4.838  0.4631  0.3989 -0.9355
 6437SOL    HW230948   4.378   3.476   4.876  0.6083 -0.8157 -0.3860
 6438SOL     OW30949   0.120   4.399  14.475 -0.4269  0.2373 -0.4671
 6438SOL    HW130950   0.034   4.375  14.441 -0.8553  0.7384  0.2622
 6438SOL    HW230951   0.121   4.365  14.565  0.8579 -1.0577 -0.9688
 6439SOL     OW30952   0.954   2.333  11.156  0.0805  0.0271  0.0741
 6439SOL    HW130953   0.922   2.276  11.225 -0.1343 -1.4768 -1.2584
 6439SOL    HW230954   1.049   2.340  11.170  0.3868 -2.5528 -0.6829
 6440SOL     OW30955   0.222   0.299   8.583  0.5233  1.1947 -0.3654
 6440SOL    HW130956   0.284   0.369   8.565  0.6309  0.5798 -2.3749
 6440SOL    HW230957   0.278   0.241   8.634  0.8391 -0.3601 -2.4865
 6441SOL     OW30958   2.678   1.134  17.055  0.4727 -0.0938 -0.4454
 6441SOL    HW130959   2.695   1.053  17.007  0.9483 -1.5053  2.1144
 6441SOL    HW230960   2.740   1.185  17.003  3.2691 -3.3532 -0.3120
 6442SOL     OW30961   1.162   2.754   5.151  0.4111  0.3857 -0.2291
 6442SOL    HW130962   1.128   2.668   5.174  1.3671 -0.2237 -1.1179
 6442SOL    HW230963   1.081   2.805   5.154 -1.8077 -3.0579 -1.3469
 6443SOL     OW30964   2.883   3.403  14.160  0.3449  0.1988  0.1367
 6443SOL    HW130965   2.953   3.436  14.218  2.8953 -1.6894 -1.8793
 6443SOL    HW230966   2.866   3.487  14.117  0.8102  0.7365  0.9959
 6444SOL     OW30967   2.993   3.132  16.010  0.3305 -0.1448  0.9596
 6444SOL    HW130968   2.970   3.041  15.991  3.2085 -0.8849  1.0741
 6444SOL    HW230969   2.966   3.168  15.925 -0.4517  2.3286  2.2486
 6445SOL     OW30970   0.349   3.807   6.520  0.0161 -0.1067  0.2710
 6445SOL    HW130971   0.290   3.883   6.519 -1.0516 -0.9478 -0.1999
 6445SOL    HW230972   0.420   3.835   6.461  1.6259 -0.4995  2.0437
 6446SOL     OW30973   2.882   1.205   7.739  0.3354  0.8289  0.1917
 6446SOL    HW130974   2.875   1.171   7.650  1.1603 -1.7996  1.1392
 6446SOL    HW230975   2.960   1.153   7.760  0.9502  1.3681 -0.7225
 6447SOL     OW30976   2.911   4.129   5.627  0.0818  0.7041 -0.2598
 6447SOL    HW130977   2.989   4.112   5.574 -1.1885 -0.8078 -1.6407
 6447SOL    HW230978   2.932   4.181   5.705  0.3087  0.0405  0.1231
 6448SOL     OW30979   1.095   0.580  17.484  0.2758 -0.1116 -0.1134
 6448SOL    HW130980   1.023   0.571  17.422  0.1613  0.4042 -0.0543
 6448SOL    HW230981   1.054   0.647  17.537 -0.0188 -0.3563 -0.0313
 6449SOL     OW30982   2.356   3.211   1.053 -0.3302 -0.1653 -0.4379
 6449SOL    HW130983   2.404   3.148   1.108  0.2655 -1.0859 -1.9938
 6449SOL    HW230984   2.409   3.209   0.973 -0.5698 -1.3613 -0.5701
 6450SOL     OW30985   4.576   0.116   2.576  0.4883  0.8792 -0.0717
 6450SOL    HW130986   4.670   0.101   2.583  0.2593 -1.3810 -1.6248
 6450SOL    HW230987   4.547   0.052   2.510  2.7060  0.9441 -1.0923
 6451SOL     OW30988   2.724   3.959   8.342  0.4487  0.4834 -0.5916
 6451SOL    HW130989   2.811   3.949   8.303  0.1118  0.5145 -1.3352
 6451SOL    HW230990   2.686   3.872   8.333 -1.0131  0.8628  1.8437
 6452SOL     OW30991   3.529   0.356  17.328  0.1567 -0.5446  0.5781
 6452SOL    HW130992   3.449   0.373  17.278 -1.3483  0.2698  3.2238
 6452SOL    HW230993   3.523   0.416  17.402  1.2916  0.1958  0.0595
 6453SOL     OW30994   3.116   3.556   3.002 -0.6649  0.2634  0.0922
 6453SOL    HW130995   3.189   3.521   2.952 -0.3263 -1.0359  1.4882
 6453SOL    HW230996   3.078   3.471   3.025  1.0459 -0.9837 -1.7439
 6454SOL     OW30997   1.257   0.868   3.386  0.0659  0.1829  1.0299
 6454SOL    HW130998   1.241   0.961   3.369 -0.2877  0.0520  0.6611
 6454SOL    HW230999   1.259   0.872   3.482 -1.0590 -1.8815  1.1388
 6455SOL     OW31000   2.586   3.731   8.318 -0.1358 -0.1788  0.0663
 6455SOL    HW131001   2.514   3.785   8.284 -0.7031 -1.7193 -1.1470
 6455SOL    HW231002   2.550   3.655   8.364 -1.6059 -0.2844 -1.2784
 6456SOL     OW31003   3.647   3.941  14.498 -0.2686 -0.4753  0.2878
 6456SOL    HW131004   3.604   3.915  14.579  0.8142 -0.0939  0.9989
 6456SOL    HW231005   3.738   3.914  14.514 -0.3288 -0.9020 -0.1062
 6457SOL     OW31006   4.709   3.637   4.270 -0.0738  0.2786 -0.4613
 6457SOL    HW131007   0.067   3.661   4.280  0.2937 -0.6747 -1.4428
 6457SOL    HW231008   4.663   3.713   4.305 -1.4459 -0.5860 -0.3749
 6458SOL     OW31009   3.621   4.521   7.735 -0.2266  0.7756 -0.2702
 6458SOL    HW131010   3.683   4.519   7.662  0.7912  1.4106  0.5876
 6458SOL    HW231011   3.622   4.427   7.753  0.3166  1.0142  0.9217
 6459SOL     OW31012   2.312   0.113   2.922 -0.2444 -0.1490 -0.4263
 6459SOL    HW131013   2.354   0.093   3.005 -0.3038 -0.0166 -0.3647
 6459SOL    HW231014   2.348   0.201   2.910  0.1859 -0.2475  0.1702
 6460SOL     OW31015   2.436   3.511  13.989  0.1263 -0.7080 -0.1555
 6460SOL    HW131016   2.510   3.536  13.933 -1.1520  0.7493 -1.1987
 6460SOL    HW231017   2.454   3.555  14.072 -0.4787 -1.5261  0.4017
 6461SOL     OW31018   4.137   1.290   4.367 -0.0476  0.2197  0.0216
 6461SOL    HW131019   4.104   1.226   4.303  0.9303 -1.8115  1.5573
 6461SOL    HW231020   4.224   1.255   4.387 -0.3057  0.1857  1.0629
 6462SOL     OW31021   1.755   4.228   0.477  0.5206 -0.0269  0.7370
 6462SOL    HW131022   1.840   4.186   0.495  2.0198  2.4718 -0.4386
 6462SOL    HW231023   1.778   4.317   0.505 -1.9625  1.3596 -1.6723
 6463SOL     OW31024   1.744   1.604   8.266 -0.0161  0.2054 -0.2045
 6463SOL    HW131025   1.730   1.696   8.288 -4.3732 -0.9750  1.9312
 6463SOL    HW231026   1.670   1.589   8.207  1.0937 -1.8900 -1.0719
 6464SOL     OW31027   1.452   4.516   3.187  0.5128 -0.1495  0.4730
 6464SOL    HW131028   1.438   4.519   3.092 -1.1603 -1.5354  0.6719
 6464SOL    HW231029   1.508   4.438   3.192 -1.5564 -1.7343 -1.3057
 6465SOL     OW31030   1.141   0.911   1.450  0.7897 -0.2250 -0.0069
 6465SOL    HW131031   1.060   0.962   1.444  0.1843 -1.3429 -1.2263
 6465SOL    HW231032   1.101   0.825   1.448  3.4507 -1.4829  0.9063
 6466SOL     OW31033   3.650   2.091   5.904 -0.0585 -0.2041 -0.2098
 6466SOL    HW131034   3.622   2.181   5.888  1.3042  0.3957  0.9117
 6466SOL    HW231035   3.655   2.060   5.813  2.8386  0.3585 -0.2258
 6467SOL     OW31036   1.969   0.267   2.607 -0.4931 -0.1502  0.0061
 6467SOL    HW131037   2.035   0.293   2.543  0.1394  0.3307  0.8474
 6467SOL    HW231038   1.890   0.244   2.559 -0.7296  0.3852  0.1420
 6468SOL     OW31039   2.463   3.336   1.603 -0.0511  0.3421  0.4372
 6468SOL    HW131040   2.526   3.371   1.666  1.1516  0.5938 -0.9128
 6468SOL    HW231041   2.382   3.362   1.647 -0.1968 -1.1232  1.0512
 6469SOL     OW31042   1.392   4.480  15.260  0.0751 -0.1997  0.5848
 6469SOL    HW131043   1.457   4.502  15.194 -0.4447 -2.1511 -0.5660
 6469SOL    HW231044   1.427   4.533  15.331 -0.9420 -0.5884  1.3838
 6470SOL     OW31045   1.169   0.274   6.966  0.2775 -0.2159 -0.2187
 6470SOL    HW131046   1.126   0.321   6.894  1.6726 -0.2291 -1.0592
 6470SOL    HW231047   1.189   0.350   7.022  0.3728 -0.1978 -0.2775
 6471SOL     OW31048   0.487   0.951   5.018  0.4251  0.1016  0.3121
 6471SOL    HW131049   0.540   0.879   5.052 -0.8658 -1.8225 -1.7665
 6471SOL    HW231050   0.402   0.944   5.060  0.9948  1.8015  1.7383
 6472SOL     OW31051   3.314   2.581   1.175 -0.1987 -0.3296  0.8963
 6472SOL    HW131052   3.335   2.652   1.114 -0.3947 -1.4348 -0.4754
 6472SOL    HW231053   3.236   2.544   1.133  0.1161  1.3312 -1.1674
 6473SOL     OW31054   4.018   0.733  10.301  0.2928  0.1547 -0.0913
 6473SOL    HW131055   3.934   0.748  10.344  0.5385 -0.0624  0.4642
 6473SOL    HW231056   4.041   0.647  10.337 -1.8996 -0.3151  0.1577
 6474SOL     OW31057   2.791   4.392  10.568 -0.0333 -0.0281  0.0615
 6474SOL    HW131058   2.881   4.365  10.586 -0.2516  0.0974  1.3903
 6474SOL    HW231059   2.738   4.393  10.648 -0.7236 -0.3006 -0.3876
 6475SOL     OW31060   1.664   0.319   4.167  0.4082 -0.1538 -0.3954
 6475SOL    HW131061   1.602   0.301   4.096  0.9119  3.8924 -1.8624
 6475SOL    HW231062   1.741   0.267   4.142  0.8537 -0.5687  1.8851
 6476SOL     OW31063   1.138   1.455   8.496  0.3891 -0.0318 -0.8681
 6476SOL    HW131064   1.174   1.460   8.584 -1.3804 -1.0743 -0.0804
 6476SOL    HW231065   1.112   1.363   8.492 -0.5645  0.2100 -0.2648
 6477SOL     OW31066   4.179   2.113  14.648  0.2335 -0.0207 -0.2389
 6477SOL    HW131067   4.138   2.168  14.581 -0.3760  3.8948  3.2939
 6477SOL    HW231068   4.225   2.187  14.688 -0.9032  1.0221 -0.8573
 6478SOL     OW31069   0.648   0.033   5.957  0.6263  1.2524  0.1231
 6478SOL    HW131070   0.611   4.715   5.886 -0.4214  1.6625  0.3629
 6478SOL    HW231071   0.642   4.709   6.034  2.2095  0.6282 -0.2243
 6479SOL     OW31072   1.416   1.538   2.138  0.4091  0.5445  0.1832
 6479SOL    HW131073   1.402   1.460   2.193  1.6307 -1.9398 -3.0460
 6479SOL    HW231074   1.391   1.612   2.193  0.6878  0.4687  0.4096
 6480SOL     OW31075   2.311   2.770   7.381 -0.4099 -0.0405 -0.7949
 6480SOL    HW131076   2.359   2.718   7.446 -1.0094  0.1235 -0.2268
 6480SOL    HW231077   2.258   2.706   7.334  0.0442 -1.5331  0.7196
 6481SOL     OW31078   3.508   2.553   4.459  0.4737  0.1168 -0.1439
 6481SOL    HW131079   3.474   2.609   4.529  0.3492  0.9346 -0.8599
 6481SOL    HW231080   3.427   2.511   4.429 -1.0417  2.2070  1.0126
 6482SOL     OW31081   2.774   4.031   5.068  0.5017 -0.0079 -0.4659
 6482SOL    HW131082   2.852   3.977   5.055 -1.3852 -3.2487  1.6985
 6482SOL    HW231083   2.707   3.964   5.057 -1.7468  2.4980 -1.9029
 6483SOL     OW31084   3.943   3.467   9.524  0.3147  0.0668  0.9969
 6483SOL    HW131085   3.912   3.435   9.608  0.8268 -0.3731  1.0120
 6483SOL    HW231086   3.988   3.550   9.541  0.7428 -0.0055  0.2321
 6484SOL     OW31087   1.202   3.279   6.065 -0.1912  0.2484 -0.1450
 6484SOL    HW131088   1.187   3.213   6.132  0.7702 -0.6083 -0.7654
 6484SOL    HW231089   1.292   3.263   6.037  0.0294 -1.0846  1.4001
 6485SOL     OW31090   3.890   3.183   5.127 -0.5087 -0.5309 -0.5360
 6485SOL    HW131091   3.932   3.230   5.055 -0.9680 -0.1783 -0.5712
 6485SOL    HW231092   3.800   3.210   5.110 -1.1881 -0.9545  2.4817
 6486SOL     OW31093   3.648   0.706   2.143 -0.0583 -0.2512 -0.3129
 6486SOL    HW131094   3.557   0.681   2.164 -1.0099  1.6711 -2.1876
 6486SOL    HW231095   3.663   0.790   2.186 -0.7596 -0.4574  0.3441
 6487SOL     OW31096   0.035   3.396   9.521  0.0187  0.3337 -0.6071
 6487SOL    HW131097   4.716   3.453   9.577 -0.3988 -1.6650  1.0718
 6487SOL    HW231098   0.062   3.462   9.457  0.7791 -1.3980 -2.0818
 6488SOL     OW31099   1.781   0.736   6.907  0.0101  0.0183  0.0389
 6488SOL    HW131100   1.861   0.762   6.953  0.5295  0.8635 -1.3436
 6488SOL    HW231101   1.781   0.641   6.918  1.1060 -0.1902 -1.8874
 6489SOL     OW31102   3.319   4.621   1.708 -0.2552  0.3812 -0.5169
 6489SOL    HW131103   3.318   4.536   1.663 -2.2416 -0.4165  1.0166
 6489SOL    HW231104   3.278   4.671   1.638 -2.6706  1.7840  1.9063
 6490SOL     OW31105   3.468   1.628   5.872 -0.7236  0.4528  0.2907
 6490SOL    HW131106   3.560   1.629   5.898 -0.0544 -1.4603 -2.0732
 6490SOL    HW231107   3.429   1.691   5.933 -1.5830  0.2255 -0.0197
 6491SOL     OW31108   2.731   0.298  10.008 -0.0132  0.2696 -0.4516
 6491SOL    HW131109   2.779   0.380  10.000  0.6397 -0.0131  0.4628
 6491SOL    HW231110   2.663   0.324   9.946 -0.4237  0.5432  0.1148
 6492SOL     OW31111   2.643   1.876   5.981 -0.8202 -0.3859 -0.1150
 6492SOL    HW131112   2.593   1.802   6.016 -0.3525  0.3542  2.1399
 6492SOL    HW231113   2.588   1.906   5.909 -1.6363 -2.5662 -0.4103
 6493SOL     OW31114   0.730   3.943   1.469 -0.2936 -0.0298 -0.4633
 6493SOL    HW131115   0.773   3.902   1.545 -2.5177  0.9404  1.3238
 6493SOL    HW231116   0.674   4.002   1.519 -0.3474 -0.8452  0.4585
 6494SOL     OW31117   4.017   3.637   6.003 -0.4431 -0.7285 -0.0836
 6494SOL    HW131118   3.947   3.695   6.035  0.8808 -0.0970  1.6830
 6494SOL    HW231119   3.965   3.594   5.935 -1.6103 -0.2227  0.4997
 6495SOL     OW31120   3.834   0.155   5.813  0.0034 -0.2073  0.1505
 6495SOL    HW131121   3.787   0.072   5.814 -0.1297 -0.1289  0.4430
 6495SOL    HW231122   3.911   0.137   5.759  1.3978 -0.0709  2.1135
 6496SOL     OW31123   0.835   2.032   5.127 -0.1094  0.0029 -0.4988
 6496SOL    HW131124   0.776   1.958   5.110  1.5267 -1.8469  1.6892
 6496SOL    HW231125   0.913   1.991   5.165 -0.1541  1.1119  0.7890
 6497SOL     OW31126   0.139   4.491   7.445  0.0827 -0.2193  0.4950
 6497SOL    HW131127   0.085   4.453   7.376 -1.8642  1.9576  0.8203
 6497SOL    HW231128   0.139   4.585   7.427  0.8422 -0.1409  0.9347
 6498SOL     OW31129   3.860   3.408   9.779 -0.3111  0.2077 -0.3205
 6498SOL    HW131130   3.856   3.319   9.816 -3.0673  0.9362  1.0974
 6498SOL    HW231131   3.767   3.423   9.762 -0.6029 -0.4349  0.6658
 6499SOL     OW31132   1.349   2.312   4.645  0.8349 -0.3397 -0.2905
 6499SOL    HW131133   1.302   2.286   4.724 -0.6942  1.4934 -0.6029
 6499SOL    HW231134   1.357   2.407   4.651  1.3973 -0.4368  0.5663
 6500SOL     OW31135   0.848   3.780   6.292 -0.1919 -0.4546 -0.2489
 6500SOL    HW131136   0.911   3.817   6.230 -2.4662 -0.2766 -2.5072
 6500SOL    HW231137   0.888   3.709   6.342 -0.9024 -0.6562  0.0358
 6501SOL     OW31138   0.069   3.734   9.110 -0.3604 -0.2884 -0.4750
 6501SOL    HW131139   0.050   3.825   9.088  0.0603 -0.3994 -1.3119
 6501SOL    HW231140   4.734   3.680   9.072  0.0140 -2.4528  1.9119
 6502SOL     OW31141   0.768   0.163   3.861 -0.2952 -0.6079 -0.5226
 6502SOL    HW131142   0.854   0.163   3.818 -0.5248 -1.0200 -0.9818
 6502SOL    HW231143   0.722   0.118   3.790  2.7468 -2.9327 -1.0425
 6503SOL     OW31144   0.663   4.090   8.976 -0.3818  0.1029  0.1475
 6503SOL    HW131145   0.671   4.172   9.026  0.8058  0.9022 -1.3294
 6503SOL    HW231146   0.578   4.049   8.989  0.9212 -2.3970  0.7436
 6504SOL     OW31147   2.721   3.531   2.599  0.7795 -0.4324  0.1443
 6504SOL    HW131148   2.644   3.543   2.655  0.1106  1.5660 -1.2177
 6504SOL    HW231149   2.792   3.580   2.640  1.2594 -1.1172  0.1313
 6505SOL     OW31150   0.119   1.921  16.760  0.3591 -0.1219  0.0680
 6505SOL    HW131151   0.037   1.885  16.794 -0.1420 -0.0254 -1.0517
 6505SOL    HW231152   0.121   2.001  16.813  1.3554 -0.5092  0.6115
 6506SOL     OW31153   0.829   0.498   2.875 -0.2318 -0.1589 -0.5968
 6506SOL    HW131154   0.916   0.534   2.858  0.5546 -1.5569  0.4817
 6506SOL    HW231155   0.802   0.539   2.957 -1.3550 -1.7890 -0.1603
 6507SOL     OW31156   2.981   1.717  16.383 -1.0202 -0.4274 -0.0726
 6507SOL    HW131157   2.900   1.764  16.404 -0.2047  0.9197  0.0770
 6507SOL    HW231158   3.038   1.794  16.387  0.0002 -1.1643 -0.5716
 6508SOL     OW31159   0.572   2.669   5.435 -0.3529 -0.1980 -0.0992
 6508SOL    HW131160   0.497   2.619   5.401 -1.5313  1.7642 -0.3649
 6508SOL    HW231161   0.520   2.748   5.450 -0.1366 -0.0288 -0.2452
 6509SOL     OW31162   0.062   3.287  13.653 -0.5029 -0.4226 -0.0275
 6509SOL    HW131163   0.090   3.374  13.681 -1.2237 -1.1449  2.8885
 6509SOL    HW231164   0.130   3.230  13.689  1.0907  1.7439  0.3766
 6510SOL     OW31165   2.270   4.025   0.770  0.3145 -0.1923 -0.1913
 6510SOL    HW131166   2.214   3.960   0.728  1.3829 -0.4371 -1.2072
 6510SOL    HW231167   2.340   4.048   0.709  0.1084  1.6470  0.2459
 6511SOL     OW31168   3.487   0.741   6.227 -0.0984 -0.0536 -0.0020
 6511SOL    HW131169   3.506   0.649   6.246  3.4071  0.2587 -1.9157
 6511SOL    HW231170   3.570   0.762   6.183 -0.7558  1.9740 -0.2810
 6512SOL     OW31171   1.897   1.397   8.172  0.2629  0.6955 -0.0686
 6512SOL    HW131172   1.827   1.350   8.126 -0.9317  0.1646  2.2652
 6512SOL    HW231173   1.848   1.464   8.220  0.3780  0.3334  0.5519
 6513SOL     OW31174   4.676   0.335   8.753  0.3536 -0.2751 -0.4836
 6513SOL    HW131175   0.013   0.315   8.691  0.1328 -0.2427 -0.7486
 6513SOL    HW231176   4.608   0.330   8.686  1.4306  0.8679 -1.6763
 6514SOL     OW31177   0.885   2.734  15.479 -0.1345  0.5603 -0.1202
 6514SOL    HW131178   0.949   2.776  15.537  0.7690  1.1696 -1.5613
 6514SOL    HW231179   0.937   2.659  15.448 -2.4450 -0.7627 -0.8040
 6515SOL     OW31180   3.047   4.432   7.506 -0.3630  0.1778  0.0503
 6515SOL    HW131181   3.037   4.522   7.473  2.3414  0.8664  1.0792
 6515SOL    HW231182   3.038   4.444   7.600 -1.4189  1.4151 -0.2030
 6516SOL     OW31183   4.246   3.899  13.886  0.1550  0.0267 -0.0253
 6516SOL    HW131184   4.266   3.931  13.798 -1.9596 -0.8707 -0.8541
 6516SOL    HW231185   4.162   3.854  13.875  0.1065 -0.7389  3.4928
 6517SOL     OW31186   3.190   0.312   9.871 -0.3792 -0.2598  0.4249
 6517SOL    HW131187   3.275   0.275   9.897 -1.3955 -1.6524  1.7690
 6517SOL    HW231188   3.146   0.333   9.954 -0.7340  0.6903 -0.0081
 6518SOL     OW31189   0.826   4.530   1.219 -0.3595 -0.5267 -0.1254
 6518SOL    HW131190   0.785   4.465   1.277  0.6565  1.9143  3.3853
 6518SOL    HW231191   0.757   4.597   1.220  0.0362 -0.1168 -0.5553
 6519SOL     OW31192   1.374   1.275   8.503 -0.6809 -0.1241 -0.2036
 6519SOL    HW131193   1.303   1.211   8.506 -0.5880 -0.2606 -0.8214
 6519SOL    HW231194   1.343   1.345   8.560 -1.2644 -0.6056  0.0686
 6520SOL     OW31195   3.324   2.318   2.209  0.2586 -0.1444  0.7849
 6520SOL    HW131196   3.367   2.243   2.250 -0.9987 -1.2217  0.1311
 6520SOL    HW231197   3.400   2.347   2.158  0.7606 -0.2257  1.4881
 6521SOL     OW31198   0.224   0.709   5.939 -0.7017  0.1000 -0.3367
 6521SOL    HW131199   0.128   0.698   5.941 -0.8047  1.4621  2.1696
 6521SOL    HW231200   0.244   0.682   5.849 -0.3283  1.5623 -0.6900
 6522SOL     OW31201   3.472   2.542   2.587  0.2415 -0.0883 -0.9617
 6522SOL    HW131202   3.558   2.584   2.588  0.6398 -0.9638  1.1108
 6522SOL    HW231203   3.487   2.452   2.559  1.1151 -0.5842  1.0955
 6523SOL     OW31204   4.504   4.040  16.712  0.2226  0.4689 -0.3125
 6523SOL    HW131205   4.479   4.068  16.799  2.0245 -1.1191  0.7436
 6523SOL    HW231206   4.539   4.125  16.685  1.0393  0.4561  0.6922
 6524SOL     OW31207   2.022   4.424   7.916  0.2348  0.0807  0.1509
 6524SOL    HW131208   1.980   4.493   7.865 -1.1040 -1.2446 -0.5338
 6524SOL    HW231209   2.090   4.465   7.969  1.7937 -0.1681 -1.6857
 6525SOL     OW31210   1.635   2.576   7.863 -1.0782  0.2541 -0.8720
 6525SOL    HW131211   1.594   2.641   7.807 -0.0725  0.6476 -1.1547
 6525SOL    HW231212   1.666   2.517   7.794  1.7581  0.5635  0.1081
 6526SOL     OW31213   2.723   0.546   1.821 -0.2835  0.1067 -0.1283
 6526SOL    HW131214   2.807   0.522   1.862 -0.8710  2.0280  2.1602
 6526SOL    HW231215   2.675   0.557   1.903 -0.5231  0.4966 -0.3250
 6527SOL     OW31216   3.658   3.430   9.499  0.2057  0.1189  0.3310
 6527SOL    HW131217   3.651   3.457   9.590 -2.5173 -3.0639  1.0629
 6527SOL    HW231218   3.750   3.446   9.478  0.4947 -1.3548  0.4915
 6528SOL     OW31219   2.990   2.993   9.595  0.3547  0.1208  0.4641
 6528SOL    HW131220   3.079   2.956   9.594 -0.0410 -0.7763 -1.1763
 6528SOL    HW231221   2.996   3.049   9.518  1.2672  1.7507  1.7285
 6529SOL     OW31222   0.575   1.705   5.753 -0.4274 -0.0500  0.5794
 6529SOL    HW131223   0.655   1.718   5.702 -0.7437  0.4582  0.2059
 6529SOL    HW231224   0.508   1.726   5.689 -1.2866  0.3714  1.6272
 6530SOL     OW31225   0.825   1.477   8.054  0.3402  0.2149 -0.3966
 6530SOL    HW131226   0.818   1.556   8.002  2.3431 -0.1294 -1.1788
 6530SOL    HW231227   0.738   1.474   8.095  1.3704 -2.3354  1.6341
 6531SOL     OW31228   0.989   4.222   3.062 -0.3625  0.6385  0.5664
 6531SOL    HW131229   0.894   4.226   3.071 -0.3749  1.1085  0.2244
 6531SOL    HW231230   1.025   4.277   3.132 -1.0563  0.2291  1.2489
 6532SOL     OW31231   3.483   4.402   0.867  0.0889  0.6096 -0.5964
 6532SOL    HW131232   3.456   4.481   0.913 -1.4673 -0.4384  0.2930
 6532SOL    HW231233   3.399   4.377   0.828 -0.6093  1.6677  0.2522
 6533SOL     OW31234   2.247   3.626  13.570  0.0369  0.1152 -0.2604
 6533SOL    HW131235   2.243   3.532  13.553  0.3734  0.1332 -0.4382
 6533SOL    HW231236   2.202   3.653  13.490 -0.1363 -0.5678 -0.3976
 6534SOL     OW31237   2.753   3.074   7.667  0.3158  0.1838 -0.0183
 6534SOL    HW131238   2.834   3.069   7.617 -0.0583 -0.9889 -0.5003
 6534SOL    HW231239   2.712   2.997   7.629 -0.1961  0.2053  0.4911
 6535SOL     OW31240   3.219   3.102  10.969 -0.4627  0.3684 -0.6943
 6535SOL    HW131241   3.190   3.107  11.060 -0.5184  1.0400 -0.7464
 6535SOL    HW231242   3.314   3.095  10.963 -0.3473  1.9937 -0.7745
 6536SOL     OW31243   4.179   3.361   2.553 -0.3509  0.3179  0.2642
 6536SOL    HW131244   4.258   3.371   2.606 -0.3998 -1.2535  0.6330
 6536SOL    HW231245   4.171   3.447   2.511 -0.0156  0.5191  0.6234
 6537SOL     OW31246   2.696   2.137   5.505  0.3876  0.0366  0.6451
 6537SOL    HW131247   2.630   2.069   5.518  0.5636 -0.4520 -1.0431
 6537SOL    HW231248   2.656   2.183   5.431  0.6421  0.4414  0.7592
 6538SOL     OW31249   1.380   0.797   7.755 -0.4919 -0.0750 -0.4271
 6538SOL    HW131250   1.406   0.729   7.693  2.5064  0.7363 -0.0504
 6538SOL    HW231251   1.339   0.862   7.697 -1.6611 -1.7121 -1.4390
 6539SOL     OW31252   0.945   1.413   4.099 -0.5279 -0.2110 -0.2114
 6539SOL    HW131253   1.022   1.361   4.122  0.7913  1.7079 -0.3169
 6539SOL    HW231254   0.947   1.430   4.004  0.4111 -3.0720 -0.7180
 6540SOL     OW31255   3.128   4.256   1.984  0.2801  0.5413 -0.0464
 6540SOL    HW131256   3.198   4.317   1.961  0.0062  0.9830  0.2808
 6540SOL    HW231257   3.140   4.245   2.078  1.6690 -0.3270 -0.3257
 6541SOL     OW31258   4.412   3.389  15.226 -0.0960 -0.3243 -0.5911
 6541SOL    HW131259   4.327   3.364  15.190 -0.3007 -0.5038  0.0160
 6541SOL    HW231260   4.405   3.481  15.199 -3.9619 -0.0704  1.1706
 6542SOL     OW31261   1.894   3.937   9.595 -0.6252  0.0475  0.1884
 6542SOL    HW131262   1.942   3.868   9.640  0.4526  1.1254  0.7057
 6542SOL    HW231263   1.912   4.019   9.642 -1.3737  0.1267  0.3476
 6543SOL     OW31264   2.861   0.903  11.128 -0.1911  0.0338 -0.1538
 6543SOL    HW131265   2.823   0.830  11.177  0.4917 -0.0270  0.2957
 6543SOL    HW231266   2.874   0.858  11.044 -0.0823  1.0985 -0.7010
 6544SOL     OW31267   4.380   0.629   2.018 -0.2026  0.7162 -0.1299
 6544SOL    HW131268   4.447   0.693   1.991  0.0398  0.3162 -0.4718
 6544SOL    HW231269   4.433   0.571   2.072  1.3213  2.1741 -0.0387
 6545SOL     OW31270   0.594   4.449   4.822  0.2399  0.1309  0.1497
 6545SOL    HW131271   0.635   4.524   4.866 -0.5386 -0.3364  1.6850
 6545SOL    HW231272   0.664   4.384   4.821 -1.0423 -1.2615  0.0301
 6546SOL     OW31273   3.740   1.790   6.511 -0.1061  0.1214 -0.8265
 6546SOL    HW131274   3.816   1.771   6.565 -0.6620 -2.7790 -1.0704
 6546SOL    HW231275   3.720   1.881   6.531  2.4240  1.0805 -2.6678
 6547SOL     OW31276   3.895   0.386   1.902  0.1546  0.3406  0.3075
 6547SOL    HW131277   3.930   0.434   1.827  0.2194 -2.5860 -1.5609
 6547SOL    HW231278   3.921   0.453   1.966  1.5900 -0.1283  0.2131
 6548SOL     OW31279   0.091   2.234   5.531  0.4293  0.1064 -0.0638
 6548SOL    HW131280   0.153   2.207   5.464 -0.2316 -1.5716 -0.0108
 6548SOL    HW231281   0.102   2.329   5.534  2.9721 -0.1918 -0.2734
 6549SOL     OW31282   3.934   4.309   3.793 -0.6966  0.1617  0.0856
 6549SOL    HW131283   3.978   4.233   3.831 -3.6056 -2.6244 -2.0997
 6549SOL    HW231284   3.908   4.276   3.707  0.1060 -0.7713  0.2008
 6550SOL     OW31285   3.296   3.036   2.734  0.1859 -0.6191 -0.1410
 6550SOL    HW131286   3.243   3.081   2.669  1.7154 -0.4007 -1.2288
 6550SOL    HW231287   3.292   2.944   2.707 -0.8742 -0.5040 -0.3624
 6551SOL     OW31288   4.554   0.148   3.128  0.3186 -0.3102  0.0842
 6551SOL    HW131289   4.471   0.168   3.083  0.0127  0.5017  1.0063
 6551SOL    HW231290   4.512   0.133   3.212 -1.6116 -1.4371 -1.0604
 6552SOL     OW31291   1.820   0.979   0.317  0.2390 -0.0219 -0.0140
 6552SOL    HW131292   1.883   0.919   0.278  0.8603  0.1172  0.7749
 6552SOL    HW231293   1.746   0.921   0.333  0.0542  0.3388  0.4556
 6553SOL     OW31294   3.115   1.649   6.279 -0.0956 -0.3252  0.6171
 6553SOL    HW131295   3.190   1.672   6.223  0.8292  1.0922  2.4649
 6553SOL    HW231296   3.049   1.706   6.240  0.2195 -1.4256 -1.5484
 6554SOL     OW31297   0.298   0.701   9.682 -0.1658  0.1632  0.2783
 6554SOL    HW131298   0.392   0.691   9.670 -0.5392 -3.6562  0.4765
 6554SOL    HW231299   0.287   0.681   9.775  2.0528 -0.3053  0.4257
 6555SOL     OW31300   2.847   2.559   4.126 -0.5370 -0.0581  0.4560
 6555SOL    HW131301   2.806   2.569   4.212 -0.7732  0.5237  0.2766
 6555SOL    HW231302   2.884   2.647   4.126 -1.7230  0.4445 -0.0582
 6556SOL     OW31303   3.106   4.245   4.229 -0.6131 -0.5772 -0.2418
 6556SOL    HW131304   3.038   4.303   4.262  0.9669  0.6155  0.8624
 6556SOL    HW231305   3.174   4.295   4.184 -2.3956 -0.0365 -2.3404
 6557SOL     OW31306   3.022   0.819   1.824 -0.0600  0.0780 -0.2102
 6557SOL    HW131307   2.990   0.751   1.765  1.6271 -1.3090  0.4987
 6557SOL    HW231308   3.104   0.783   1.856  0.0589 -0.9416 -1.6704
 6558SOL     OW31309   1.012   2.757  11.191  0.3239 -0.1935 -0.1190
 6558SOL    HW131310   0.964   2.725  11.267  1.0385  0.5444  0.6440
 6558SOL    HW231311   0.939   2.754  11.128 -1.3584 -2.6286  1.9416
 6559SOL     OW31312   2.429   0.602   5.478 -0.2367  0.2533 -0.0638
 6559SOL    HW131313   2.467   0.638   5.559  0.0457 -1.7422  0.6825
 6559SOL    HW231314   2.503   0.549   5.449  0.7265  0.6396  1.6283
 6560SOL     OW31315   1.901   0.379  10.599  0.3286  0.1879 -0.3126
 6560SOL    HW131316   1.923   0.297  10.555  0.1285  0.3816 -0.7666
 6560SOL    HW231317   1.805   0.382  10.592  0.2612  1.8868  1.1740
 6561SOL     OW31318   3.038   4.462   0.137 -0.2206 -0.0366 -0.1394
 6561SOL    HW131319   3.065   4.438   0.225  1.4333 -0.0353 -0.6538
 6561SOL    HW231320   3.126   4.462   0.100 -0.3151  0.3044 -0.3652
 6562SOL     OW31321   0.444   4.255   5.890 -0.5756 -0.3487  0.9499
 6562SOL    HW131322   0.529   4.292   5.869 -2.3130  2.4333 -1.2627
 6562SOL    HW231323   0.448   4.233   5.983 -1.3018 -2.3281  0.5158
 6563SOL     OW31324   1.613   1.340   3.249  0.1412 -0.2977 -0.8845
 6563SOL    HW131325   1.707   1.355   3.237 -0.1029  1.6640 -0.2202
 6563SOL    HW231326   1.584   1.417   3.200 -0.8576 -0.5022 -0.6251
 6564SOL     OW31327   1.765   4.128   6.841 -0.1101  0.1730  0.1140
 6564SOL    HW131328   1.833   4.160   6.899 -0.7188  2.2895 -0.3563
 6564SOL    HW231329   1.709   4.071   6.894  1.4481 -1.9721 -0.5332
 6565SOL     OW31330   1.941   3.168   9.133  0.0557  0.1056  0.2884
 6565SOL    HW131331   1.854   3.151   9.170 -0.4850  1.6945 -0.2558
 6565SOL    HW231332   1.915   3.240   9.076 -0.6783  0.9043  1.6206
 6566SOL     OW31333   2.489   1.973   0.048 -0.0201  0.4031  0.4372
 6566SOL    HW131334   2.576   1.986   0.086  0.6071 -2.0722 -0.1682
 6566SOL    HW231335   2.447   2.047   0.092  0.0313  0.8470 -0.2468
 6567SOL     OW31336   0.841   2.720   1.292 -0.2513  0.2565  0.2554
 6567SOL    HW131337   0.935   2.704   1.300  0.1241  2.0171 -0.5670
 6567SOL    HW231338   0.814   2.696   1.380  0.1051  1.6377  0.7476
 6568SOL     OW31339   2.816   2.291  15.685  0.1995  0.4501 -0.4435
 6568SOL    HW131340   2.724   2.285  15.709 -0.0607  3.3314 -0.7223
 6568SOL    HW231341   2.854   2.274  15.771 -1.0043 -1.7259 -0.3600
 6569SOL     OW31342   1.624   0.005   9.443  0.0513  0.6832  0.4671
 6569SOL    HW131343   1.647   4.665   9.387  0.1424  1.3490 -0.3644
 6569SOL    HW231344   1.701   0.017   9.498  0.3967  3.1969 -0.6019
 6570SOL     OW31345   3.508   0.311   9.167  0.0102  0.1329 -0.0207
 6570SOL    HW131346   3.569   0.371   9.124 -0.2555  0.7694  0.4967
 6570SOL    HW231347   3.428   0.322   9.117  0.0346  0.8797  0.1084
 6571SOL     OW31348   3.119   1.412   1.465 -0.0693 -0.4749  0.0065
 6571SOL    HW131349   3.214   1.409   1.474  0.0315  1.4490 -0.4537
 6571SOL    HW231350   3.109   1.502   1.433 -2.3921  0.5885  3.7361
 6572SOL     OW31351   0.091   2.310   5.035  0.1661  0.3727  0.2509
 6572SOL    HW131352   0.160   2.282   5.095 -0.2693  0.4592  0.7942
 6572SOL    HW231353   0.068   2.389   5.083 -0.3170 -0.0296  0.6707
 6573SOL     OW31354   3.634   2.716   4.824  0.0145  0.4996  0.1343
 6573SOL    HW131355   3.584   2.638   4.801  0.4419  0.3996 -0.4880
 6573SOL    HW231356   3.721   2.683   4.800  0.1393  0.4920  0.6071
 6574SOL     OW31357   2.838   1.587   3.377  0.2856  0.7636  0.2509
 6574SOL    HW131358   2.789   1.635   3.309 -2.9433  0.8860  2.6595
 6574SOL    HW231359   2.795   1.617   3.457  0.4759 -0.0690  0.6641
 6575SOL     OW31360   1.825   2.501   8.500 -0.6984 -0.0557  0.0308
 6575SOL    HW131361   1.791   2.579   8.456 -0.1430  0.0034 -0.2816
 6575SOL    HW231362   1.913   2.489   8.465 -1.1500 -2.9857 -0.0823
 6576SOL     OW31363   4.668   4.075  15.251 -0.3119 -0.6007  0.1764
 6576SOL    HW131364   4.666   4.084  15.346 -1.6671  2.1809 -0.1289
 6576SOL    HW231365   4.687   3.983  15.231 -0.6732 -1.1011  2.1524
 6577SOL     OW31366   0.778   1.367  11.299 -0.2703 -0.2342 -0.3792
 6577SOL    HW131367   0.756   1.308  11.372 -0.2551  0.3197  0.0720
 6577SOL    HW231368   0.861   1.327  11.275 -0.5559  0.0729 -1.8457
 6578SOL     OW31369   1.328   0.140  17.177 -0.2389  0.1625  0.0430
 6578SOL    HW131370   1.284   0.117  17.095 -0.7442 -1.8486  0.8664
 6578SOL    HW231371   1.249   0.162  17.225 -0.1651 -0.3584  0.3984
 6579SOL     OW31372   2.808   2.963   3.159 -0.0889  0.0334 -0.1871
 6579SOL    HW131373   2.780   3.027   3.225  1.1974  0.8712 -0.4555
 6579SOL    HW231374   2.738   2.900   3.169  0.5159 -0.4786  0.8756
 6580SOL     OW31375   3.853   4.381   9.540  0.3526 -0.3863  0.6036
 6580SOL    HW131376   3.937   4.424   9.523 -0.4552  1.4083  1.1473
 6580SOL    HW231377   3.787   4.444   9.511  0.2613  0.2987  2.3270
 6581SOL     OW31378   1.432   1.152   1.370 -0.1107 -0.5274 -0.4515
 6581SOL    HW131379   1.500   1.217   1.391 -0.6761 -0.0038 -0.2332
 6581SOL    HW231380   1.489   1.095   1.318 -0.0896 -2.3333  1.5695
 6582SOL     OW31381   4.450   2.013   6.923  0.1767 -0.2166  0.7531
 6582SOL    HW131382   4.495   1.998   7.006 -0.4185 -2.1937  0.7079
 6582SOL    HW231383   4.480   2.104   6.915  0.7918 -0.4288  0.6666
 6583SOL     OW31384   3.879   0.152   5.299  0.2696 -0.0496 -0.0768
 6583SOL    HW131385   3.824   0.212   5.249  0.2191 -0.4381 -0.4913
 6583SOL    HW231386   3.818   0.122   5.367 -0.4422  0.9225 -0.2717
 6584SOL     OW31387   1.463   4.275   9.392 -0.7549  0.3186 -0.6509
 6584SOL    HW131388   1.514   4.237   9.464 -0.4941  0.0831 -0.9587
 6584SOL    HW231389   1.403   4.203   9.377 -2.0150  1.0280  1.0352
 6585SOL     OW31390   0.999   0.543   9.604 -0.3181  0.2090  0.4040
 6585SOL    HW131391   0.992   0.474   9.670  0.1334 -0.0621  0.1648
 6585SOL    HW231392   0.973   0.491   9.528  1.9429 -0.3067 -0.0249
 6586SOL     OW31393   4.336   1.523   2.981  0.5361 -0.1108  0.0501
 6586SOL    HW131394   4.330   1.430   2.959 -1.9135 -0.0700  0.5420
 6586SOL    HW231395   4.388   1.552   2.906 -0.0597  2.4787  0.6212
 6587SOL     OW31396   3.750   2.606   5.068  0.0203  0.0380  0.8116
 6587SOL    HW131397   3.693   2.664   5.017  0.8749  1.3750  1.3936
 6587SOL    HW231398   3.829   2.659   5.075 -0.0188  0.3045 -0.7290
 6588SOL     OW31399   3.419   3.152   3.534  0.8693 -0.2546 -0.0281
 6588SOL    HW131400   3.395   3.245   3.534  2.4335  0.1438  0.9066
 6588SOL    HW231401   3.485   3.154   3.465  0.0090 -0.3078 -0.8583
 6589SOL     OW31402   1.323   2.500   8.999  0.4837 -0.3143 -0.0522
 6589SOL    HW131403   1.410   2.531   9.025 -0.3305  1.9355 -0.0523
 6589SOL    HW231404   1.276   2.580   8.977 -0.3095 -0.9417 -0.6199
 6590SOL     OW31405   4.593   0.460   3.659 -0.3722  0.2884  0.1838
 6590SOL    HW131406   4.644   0.431   3.583 -2.1562  1.3192 -1.3928
 6590SOL    HW231407   4.590   0.554   3.641 -0.0540  0.2258 -0.2249
 6591SOL     OW31408   4.652   2.162   3.198 -0.1654  0.2983 -0.0801
 6591SOL    HW131409   4.621   2.134   3.284 -2.2310  1.1543 -0.5369
 6591SOL    HW231410   4.733   2.111   3.193 -2.4818 -3.6424  2.0299
 6592SOL     OW31411   3.878   2.604   4.768 -0.7515  0.4145 -0.6851
 6592SOL    HW131412   3.937   2.641   4.703  1.1641  1.4117  1.6125
 6592SOL    HW231413   3.939   2.542   4.810 -1.7439 -0.0281  0.1326
 6593SOL     OW31414   2.757   0.876   0.468 -0.6942 -0.4702  0.0580
 6593SOL    HW131415   2.712   0.870   0.552  2.6490 -0.9057  1.8346
 6593SOL    HW231416   2.732   0.965   0.446  0.8484 -0.2170 -0.6875
 6594SOL     OW31417   2.104   4.523   6.513 -0.0682 -0.0645  0.3070
 6594SOL    HW131418   2.193   4.528   6.548 -0.0191 -0.6407  0.2775
 6594SOL    HW231419   2.104   4.599   6.455  2.6129  0.4154  0.9301
 6595SOL     OW31420   0.165   2.509   1.590  0.6668 -0.2529 -0.2889
 6595SOL    HW131421   0.147   2.578   1.527 -2.0221 -0.0875  0.6104
 6595SOL    HW231422   0.106   2.537   1.661 -1.0149  0.7517 -2.1036
 6596SOL     OW31423   3.750   2.553   1.556 -0.7450  0.2838  0.4655
 6596SOL    HW131424   3.727   2.488   1.490  0.4070  1.1976 -0.8293
 6596SOL    HW231425   3.843   2.570   1.540 -0.7535  1.1186  1.3042
 6597SOL     OW31426   3.244   4.459   5.932  0.2089 -0.0192 -0.5534
 6597SOL    HW131427   3.245   4.552   5.954 -0.8419 -0.8388  3.0351
 6597SOL    HW231428   3.297   4.425   6.005  0.4626 -0.1023 -0.7782
 6598SOL     OW31429   3.940   3.027   8.533  0.4638 -0.2635  0.9470
 6598SOL    HW131430   3.867   3.016   8.593 -2.5046  1.1457 -2.3892
 6598SOL    HW231431   3.894   3.077   8.465  1.5256  0.2593  0.6063
 6599SOL     OW31432   0.396   3.014   6.580 -0.0217 -0.0419 -0.2184
 6599SOL    HW131433   0.439   2.972   6.506  1.7346  0.0052  0.7604
 6599SOL    HW231434   0.366   2.940   6.634 -0.7078 -0.5876 -1.3575
 6600SOL     OW31435   0.369   0.033   6.583  0.1936 -0.3458  0.4376
 6600SOL    HW131436   0.316   0.000   6.656 -0.5656  0.3467  0.1970
 6600SOL    HW231437   0.332   0.121   6.571 -0.8634 -0.4593  2.7396
 6601SOL     OW31438   0.731   0.115   0.926  0.5406 -0.2313  0.3590
 6601SOL    HW131439   0.651   0.168   0.921  0.3937 -0.5603 -0.8514
 6601SOL    HW231440   0.714   0.067   1.007  0.2363 -0.1112  0.3662
 6602SOL     OW31441   2.603   1.372   5.462 -0.0534 -0.0825 -0.4588
 6602SOL    HW131442   2.511   1.358   5.484 -0.2628  0.6662 -0.8379
 6602SOL    HW231443   2.598   1.390   5.368  1.9802  0.5778 -0.4567
 6603SOL     OW31444   0.533   0.023   8.386 -0.3896 -0.0857 -0.0703
 6603SOL    HW131445   0.489   4.726   8.465 -1.3960  0.6225 -0.3517
 6603SOL    HW231446   0.500   4.706   8.312 -2.4082  0.6945  0.2956
 6604SOL     OW31447   2.573   4.556   2.101 -0.0623 -0.1734 -0.3097
 6604SOL    HW131448   2.532   4.642   2.092 -1.0633 -0.5698  0.5649
 6604SOL    HW231449   2.506   4.510   2.151 -0.2242  1.0622  0.6202
 6605SOL     OW31450   1.089   4.030   9.698  0.0279 -0.2524 -0.0350
 6605SOL    HW131451   1.096   4.123   9.677  2.1203 -0.7733 -1.7256
 6605SOL    HW231452   0.996   4.018   9.716  1.1445 -2.1365  4.3260
 6606SOL     OW31453   0.028   1.052   8.269 -0.3491 -0.0059 -0.2953
 6606SOL    HW131454   0.043   1.127   8.326 -2.6224  1.0150 -1.0477
 6606SOL    HW231455   0.071   0.985   8.322 -0.3970 -2.2644 -3.0700
 6607SOL     OW31456   1.424   0.849   2.201  0.4565  0.8065 -0.0973
 6607SOL    HW131457   1.330   0.838   2.215  0.6557  0.6238  1.0956
 6607SOL    HW231458   1.422   0.943   2.219  1.0177  0.5157  1.4885
 6608SOL     OW31459   3.336   4.080   6.059 -0.1904  0.2704  0.3483
 6608SOL    HW131460   3.321   4.159   6.111 -0.9407  0.9306 -0.8642
 6608SOL    HW231461   3.388   4.119   5.988 -0.4582  1.1094  0.6152
 6609SOL     OW31462   2.189   3.247   0.012  0.1704 -0.2775 -0.2493
 6609SOL    HW131463   2.130   3.222  17.676  0.3064 -3.3214  0.6902
 6609SOL    HW231464   2.193   3.342   0.014  1.3787 -0.3457  0.4615
 6610SOL     OW31465   3.076   2.890  15.863  0.3757 -0.1350  0.2127
 6610SOL    HW131466   3.133   2.823  15.824  0.0623  0.0741 -0.6154
 6610SOL    HW231467   3.017   2.922  15.795  0.0233  0.1813  0.6677
 6611SOL     OW31468   2.186   0.518   4.482  0.9056 -0.8296 -0.0843
 6611SOL    HW131469   2.270   0.534   4.525  1.8330 -1.6836 -1.5644
 6611SOL    HW231470   2.166   0.601   4.439  3.5085  0.8649  2.0018
 6612SOL     OW31471   3.018   0.760   3.440  0.2282 -0.1536  0.1659
 6612SOL    HW131472   2.932   0.802   3.440  0.3682  0.1308  0.3950
 6612SOL    HW231473   3.077   0.823   3.481  1.8589 -0.4497 -1.7023
 6613SOL     OW31474   1.844   3.477   2.823 -0.4876 -0.5142 -0.7938
 6613SOL    HW131475   1.801   3.454   2.906  0.2428  0.7609 -0.0543
 6613SOL    HW231476   1.779   3.453   2.756 -2.6249  0.4984  0.9087
 6614SOL     OW31477   4.467   2.014   5.610 -0.0941 -0.0187  0.1387
 6614SOL    HW131478   4.472   2.085   5.674  0.5054 -0.1005  0.1772
 6614SOL    HW231479   4.394   2.035   5.551  1.3591  1.0837 -1.2466
 6615SOL     OW31480   2.967   0.145   2.480 -0.2675  0.1022  0.8998
 6615SOL    HW131481   2.977   0.073   2.418  0.3453  0.1340  0.9601
 6615SOL    HW231482   3.056   0.177   2.492 -0.2778  0.5568 -0.3233
 6616SOL     OW31483   1.403   4.418   1.551  0.3874 -0.2671  0.4984
 6616SOL    HW131484   1.341   4.345   1.543  2.2328 -1.7923 -0.0109
 6616SOL    HW231485   1.458   4.420   1.472  1.0761 -0.2931  0.9773
 6617SOL     OW31486   1.001   4.442  13.433 -0.7132 -0.1130 -0.1089
 6617SOL    HW131487   0.912   4.416  13.410 -0.1991 -0.9405 -1.1443
 6617SOL    HW231488   1.037   4.459  13.346 -0.0029  0.2671  0.2541
 6618SOL     OW31489   3.552   3.503   6.855 -0.8665  0.0330  0.3616
 6618SOL    HW131490   3.600   3.423   6.874 -1.3008 -0.1911  0.5094
 6618SOL    HW231491   3.472   3.474   6.811  0.0159 -2.5740  0.4738
 6619SOL     OW31492   4.111   4.021   2.613  0.7629 -0.3015  0.8607
 6619SOL    HW131493   4.072   3.962   2.678  1.2545 -1.7324 -0.1509
 6619SOL    HW231494   4.179   4.060   2.667 -0.3981  2.4385  0.3498
 6620SOL     OW31495   3.394   2.447  13.468  0.3215 -0.3827  0.0324
 6620SOL    HW131496   3.465   2.505  13.495 -1.2243  2.7870 -2.6597
 6620SOL    HW231497   3.317   2.492  13.502  0.8463  0.0140  0.7004
 6621SOL     OW31498   0.566   4.348   9.124  0.6140  0.1880 -0.0755
 6621SOL    HW131499   0.579   4.299   9.205  1.1948 -1.0690 -0.9376
 6621SOL    HW231500   0.519   4.423   9.160  0.3128 -0.2446  0.4368
 6622SOL     OW31501   1.695   3.858   1.672 -0.2930  0.4107 -0.6873
 6622SOL    HW131502   1.713   3.848   1.766 -0.3756 -1.0843 -0.8382
 6622SOL    HW231503   1.782   3.884   1.640  0.6449 -1.9848 -0.0465
 6623SOL     OW31504   1.580   1.707   3.705 -1.1908  0.0288  0.1037
 6623SOL    HW131505   1.611   1.727   3.794 -2.0198 -0.1423  0.4278
 6623SOL    HW231506   1.663   1.684   3.664 -2.1951 -3.0117 -0.2035
 6624SOL     OW31507   0.284   0.292   6.240 -0.3081 -0.2687 -0.8066
 6624SOL    HW131508   0.230   0.347   6.183  0.1650 -0.3607 -1.3467
 6624SOL    HW231509   0.361   0.279   6.184 -0.4240  0.9180 -1.2270
 6625SOL     OW31510   3.937   0.025   3.188  0.2803  0.2154  0.4267
 6625SOL    HW131511   3.963   0.028   3.095  0.4564 -0.8698  0.4378
 6625SOL    HW231512   3.842   0.019   3.187  0.3399 -0.8363  0.3083
 6626SOL     OW31513   4.030   3.686   1.557 -0.1309 -0.1872 -0.0558
 6626SOL    HW131514   3.980   3.611   1.587 -2.2958  2.1964  2.2323
 6626SOL    HW231515   4.097   3.636   1.509  0.4821  0.1548  0.4348
 6627SOL     OW31516   0.908   3.616  12.089  0.0989 -0.6799  0.0332
 6627SOL    HW131517   0.985   3.591  12.038 -0.8133 -0.3005 -1.5382
 6627SOL    HW231518   0.845   3.636  12.020  1.3017  2.8612 -0.0821
 6628SOL     OW31519   1.298   2.513   6.446  0.5113 -0.3366  0.0388
 6628SOL    HW131520   1.255   2.576   6.388 -0.0529 -0.9377 -0.1831
 6628SOL    HW231521   1.229   2.465   6.490  0.7141  0.0948  0.8351
 6629SOL     OW31522   1.658   3.283   0.880  0.1229 -0.1007  0.2103
 6629SOL    HW131523   1.637   3.361   0.829  1.3027  0.1194  0.0647
 6629SOL    HW231524   1.608   3.291   0.961  0.5003 -3.0060  0.7410
 6630SOL     OW31525   0.159   1.067   7.031 -0.5522  0.1386 -0.1600
 6630SOL    HW131526   0.229   1.002   7.020 -1.9808 -1.2274 -1.2434
 6630SOL    HW231527   0.091   1.010   7.067  0.8593 -0.3603  1.7085
 6631SOL     OW31528   4.574   0.802   1.924  0.5409 -0.0033  0.8502
 6631SOL    HW131529   4.600   0.794   2.016 -0.2271  1.4929  1.1962
 6631SOL    HW231530   4.664   0.788   1.894  1.0852  1.0609  1.9586
 6632SOL     OW31531   1.116   2.024   3.875  0.5994  0.3300 -0.1352
 6632SOL    HW131532   1.028   2.024   3.912  1.6002 -0.0602  2.2384
 6632SOL    HW231533   1.138   1.933   3.894  0.1257 -0.2804 -2.4659
 6633SOL     OW31534   3.506   3.579   6.479  0.0937 -0.0365  0.4304
 6633SOL    HW131535   3.432   3.579   6.418  0.7616  1.6923 -0.3576
 6633SOL    HW231536   3.560   3.655   6.457  0.8252 -0.9089 -0.7408
 6634SOL     OW31537   2.933   0.434   4.976 -0.0539  0.0798 -0.2053
 6634SOL    HW131538   2.900   0.450   5.064  0.2266 -0.5737  0.0163
 6634SOL    HW231539   2.900   0.504   4.920 -0.4182 -0.3478 -0.5336
 6635SOL     OW31540   0.961   2.461   4.809  0.1963  0.2011  0.0610
 6635SOL    HW131541   0.976   2.367   4.794  0.5944  0.5169 -1.4983
 6635SOL    HW231542   1.041   2.484   4.856  0.2106  2.2440 -0.9861
 6636SOL     OW31543   4.253   0.467   4.018 -0.7867 -0.5114  0.0138
 6636SOL    HW131544   4.242   0.463   3.923 -3.2986 -0.0172  0.2907
 6636SOL    HW231545   4.336   0.514   4.024  0.0797 -1.8456 -1.6362
 6637SOL     OW31546   4.470   1.122   1.377 -0.4771 -0.0764  0.3277
 6637SOL    HW131547   4.432   1.165   1.453 -1.7763  1.2218 -1.0563
 6637SOL    HW231548   4.514   1.049   1.420  0.4854 -0.2724 -0.9770
 6638SOL     OW31549   4.016   3.402   6.284 -0.0636 -0.7500  0.6574
 6638SOL    HW131550   3.945   3.439   6.231  0.6667  1.4843  1.2400
 6638SOL    HW231551   4.079   3.362   6.224  1.6786  0.3658  1.7440
 6639SOL     OW31552   1.362   3.523   6.287 -0.1706 -0.1373 -0.5125
 6639SOL    HW131553   1.404   3.599   6.329 -0.0994 -0.2780 -0.3292
 6639SOL    HW231554   1.406   3.448   6.326 -0.5301 -0.0518  0.0595
 6640SOL     OW31555   3.003   0.905   4.461  0.1367 -0.0090  0.0651
 6640SOL    HW131556   2.913   0.875   4.446  0.6190 -1.3237 -0.1424
 6640SOL    HW231557   3.004   0.893   4.556 -3.3140 -0.0918  0.1024
 6641SOL     OW31558   2.757   4.346   8.037 -0.2133  0.5087 -0.0819
 6641SOL    HW131559   2.760   4.387   8.123 -0.5852 -1.7331  0.9865
 6641SOL    HW231560   2.850   4.347   8.016 -0.5784  0.2454 -1.6947
 6642SOL     OW31561   2.256   2.010   1.524  0.1332 -0.0568  0.0365
 6642SOL    HW131562   2.199   2.055   1.586 -0.5449 -2.2289  0.9904
 6642SOL    HW231563   2.224   1.920   1.513  0.4922  0.0287 -1.7768
 6643SOL     OW31564   3.712   3.514   3.836 -0.0679  0.0680 -0.5796
 6643SOL    HW131565   3.715   3.453   3.910 -3.1884 -0.0653 -0.5760
 6643SOL    HW231566   3.620   3.514   3.812 -0.7615 -0.8564  2.0287
 6644SOL     OW31567   2.312   3.086   2.345 -0.6156  0.1465  0.0966
 6644SOL    HW131568   2.406   3.070   2.349 -0.7202 -0.1456  1.1485
 6644SOL    HW231569   2.280   3.054   2.429  0.7467 -1.8194 -0.1285
 6645SOL     OW31570   3.244   1.757  10.098 -0.3483 -0.7277  0.2609
 6645SOL    HW131571   3.175   1.718  10.152 -1.0271  1.5913  1.0821
 6645SOL    HW231572   3.321   1.730  10.148  1.3134 -1.7806 -2.8660
 6646SOL     OW31573   3.833   1.809  16.737  0.0044 -0.0185  0.2071
 6646SOL    HW131574   3.793   1.780  16.655  2.6869 -1.1088 -0.7237
 6646SOL    HW231575   3.919   1.767  16.732 -0.3062 -0.8134  1.6164
 6647SOL     OW31576   3.517   0.109  10.489 -1.1888 -0.6992 -0.2593
 6647SOL    HW131577   3.559   0.154  10.562 -0.2391  0.9454 -1.8439
 6647SOL    HW231578   3.426   0.131  10.508 -1.6877 -0.6297 -2.8090
 6648SOL     OW31579   2.930   4.520   3.729  0.8602 -0.1286  0.2340
 6648SOL    HW131580   2.918   4.444   3.785 -1.8766  0.1762  0.0704
 6648SOL    HW231581   2.991   4.573   3.780  2.0602  0.8994 -2.2462
 6649SOL     OW31582   4.307   2.986   7.247 -0.3907 -0.4777  0.0704
 6649SOL    HW131583   4.367   2.931   7.196 -0.1547 -0.1622  0.0062
 6649SOL    HW231584   4.332   3.075   7.220 -1.8261  0.1429  0.7816
 6650SOL     OW31585   0.811   2.171  11.331  0.0559 -0.0540  0.3157
 6650SOL    HW131586   0.731   2.194  11.284  0.3691  0.0099 -0.1926
 6650SOL    HW231587   0.803   2.076  11.324 -2.6028  0.1966  0.2219
 6651SOL     OW31588   4.418   0.998   7.059 -0.0339 -0.0590  0.0301
 6651SOL    HW131589   4.436   1.091   7.072  0.6386  0.1520 -2.4346
 6651SOL    HW231590   4.484   0.967   6.996 -0.3457 -1.7592  0.5276
 6652SOL     OW31591   2.734   0.303   5.190 -0.0045 -0.5369  0.1243
 6652SOL    HW131592   2.828   0.310   5.205 -0.6024  0.0499  3.7224
 6652SOL    HW231593   2.722   0.249   5.112 -1.1332  0.5006 -0.4191
 6653SOL     OW31594   3.905   4.331   5.714  0.1483  0.0664 -0.1046
 6653SOL    HW131595   3.931   4.290   5.797 -0.3003  1.6859  0.8268
 6653SOL    HW231596   3.865   4.254   5.673  0.5711 -0.5229  0.5834
 6654SOL     OW31597   1.916   1.875   4.527  0.7946  0.0362  0.0384
 6654SOL    HW131598   1.970   1.948   4.557  0.1671 -0.3037  1.9991
 6654SOL    HW231599   1.834   1.924   4.525  0.3605 -0.6820  0.5465
 6655SOL     OW31600   1.309   0.894  12.690  0.0766  0.1407 -0.0272
 6655SOL    HW131601   1.302   0.933  12.603  1.2316  3.2926  1.2713
 6655SOL    HW231602   1.396   0.853  12.686  0.2646  0.5290 -0.0033
 6656SOL     OW31603   3.452   3.834   2.177 -0.4730 -0.0562 -0.1151
 6656SOL    HW131604   3.381   3.881   2.133 -2.3072 -2.4278  0.3254
 6656SOL    HW231605   3.410   3.802   2.257  0.5698  1.9141  1.1944
 6657SOL     OW31606   0.574   1.887   2.804 -0.0112  0.5633  0.3482
 6657SOL    HW131607   0.493   1.938   2.812  0.2047  0.7709  1.2249
 6657SOL    HW231608   0.551   1.796   2.824 -1.3127  0.8374  0.1212
 6658SOL     OW31609   1.889   2.805   3.322 -0.0467 -0.3090 -0.0470
 6658SOL    HW131610   1.814   2.770   3.370  0.4278 -0.8032  0.3300
 6658SOL    HW231611   1.866   2.807   3.229  0.5226 -2.2575 -0.2259
 6659SOL     OW31612   3.291   2.317  11.365 -0.0072  0.3182  0.5315
 6659SOL    HW131613   3.198   2.328  11.346  0.0546 -0.5059 -0.2331
 6659SOL    HW231614   3.280   2.310  11.460 -0.8907  0.5115  0.4424
 6660SOL     OW31615   0.383   1.904   4.398  0.6248  0.3189 -0.0804
 6660SOL    HW131616   0.342   1.920   4.483 -0.7920 -0.3746 -0.6370
 6660SOL    HW231617   0.467   1.949   4.405  1.7266 -1.6622 -0.7082
 6661SOL     OW31618   3.682   3.438   7.296  0.2970 -0.1901 -0.1706
 6661SOL    HW131619   3.678   3.406   7.206  0.0540 -0.5043 -0.0467
 6661SOL    HW231620   3.767   3.482   7.305 -0.5127  1.2198  0.5992
 6662SOL     OW31621   3.354   0.582   0.544 -0.1953 -0.1010  0.2663
 6662SOL    HW131622   3.410   0.552   0.616 -0.1228 -0.6301 -0.0165
 6662SOL    HW231623   3.398   0.557   0.463 -1.0818 -1.9996  0.3797
 6663SOL     OW31624   2.146   1.852  13.942  0.3915  0.1198  1.3259
 6663SOL    HW131625   2.127   1.840  13.848 -3.2225 -0.4162  2.1020
 6663SOL    HW231626   2.062   1.818  13.973  0.6612 -2.4120 -0.7583
 6664SOL     OW31627   3.200   0.131   2.840 -0.7852  0.8129 -0.4723
 6664SOL    HW131628   3.130   0.121   2.905 -0.6248  1.6664 -0.1755
 6664SOL    HW231629   3.206   0.038   2.815  0.6402  0.7843  0.0208
 6665SOL     OW31630   2.024   0.780   7.046 -0.2765  0.9103 -0.0402
 6665SOL    HW131631   2.052   0.838   7.117  0.5244  0.2064  0.2299
 6665SOL    HW231632   1.965   0.725   7.098  1.3087 -1.5668 -0.8501
 6666SOL     OW31633   2.280   4.207   4.811 -0.4991  0.4450  0.0359
 6666SOL    HW131634   2.255   4.297   4.830 -1.3461  0.3564 -0.6926
 6666SOL    HW231635   2.373   4.225   4.799 -0.6399  1.7726  0.9441
 6667SOL     OW31636   0.845   4.034   9.335 -0.1771 -0.0282  0.1438
 6667SOL    HW131637   0.876   3.945   9.356 -1.7805 -0.3770  1.0113
 6667SOL    HW231638   0.928   4.079   9.320 -0.9840  1.6210  0.6683
 6668SOL     OW31639   1.228   2.845   3.805  0.6530 -0.6822 -0.3026
 6668SOL    HW131640   1.278   2.869   3.883 -0.4807 -1.2190  0.5843
 6668SOL    HW231641   1.183   2.765   3.830  0.9801 -1.1265 -1.1531
 6669SOL     OW31642   4.151   1.681   3.784  0.2838 -0.2780 -0.0820
 6669SOL    HW131643   4.128   1.728   3.704  0.2351  0.9134  0.6390
 6669SOL    HW231644   4.077   1.709   3.838  0.6089  1.0126 -0.3015
 6670SOL     OW31645   0.013   3.746  15.410 -0.3118  0.1245 -0.6509
 6670SOL    HW131646   0.108   3.751  15.416 -0.1598 -0.2815 -2.7248
 6670SOL    HW231647   4.732   3.743  15.315 -0.3803  1.1129 -0.6728
 6671SOL     OW31648   2.515   4.390   7.866 -0.5234  0.4122 -0.3011
 6671SOL    HW131649   2.601   4.386   7.823  0.1007  1.6025  0.8307
 6671SOL    HW231650   2.500   4.302   7.900 -0.1944 -0.3638 -2.1587
 6672SOL     OW31651   2.465   0.494  13.179 -0.5812  0.3951 -0.3461
 6672SOL    HW131652   2.395   0.452  13.229 -0.7808  0.9582 -0.1604
 6672SOL    HW231653   2.418   0.575  13.160  1.3416  1.6908  0.3887
 6673SOL     OW31654   3.074   3.000   4.796 -0.0292 -0.3528 -0.4224
 6673SOL    HW131655   3.062   2.917   4.843 -0.3902 -0.9527 -1.5716
 6673SOL    HW231656   2.988   3.043   4.794  0.0862 -0.0670  1.0410
 6674SOL     OW31657   0.141   4.201   4.275 -0.7782  0.3166 -0.0167
 6674SOL    HW131658   0.119   4.263   4.206 -0.3634  2.3740  1.6880
 6674SOL    HW231659   0.059   4.154   4.285 -1.3166  1.4122  0.7788
 6675SOL     OW31660   1.799   1.204  11.864 -0.2747  0.4323  0.6000
 6675SOL    HW131661   1.871   1.210  11.926 -1.8946  1.5642  2.3893
 6675SOL    HW231662   1.756   1.124  11.893 -0.9679 -0.2707 -2.3484
 6676SOL     OW31663   2.064   0.529  16.903 -0.5197 -0.7968 -0.0065
 6676SOL    HW131664   2.090   0.438  16.893  0.8712 -0.3020 -0.8804
 6676SOL    HW231665   2.147   0.576  16.895  0.7725 -2.9694  0.6918
 6677SOL     OW31666   1.063   4.613  11.825  0.1700  0.3588  0.6390
 6677SOL    HW131667   1.096   4.701  11.809 -0.1024  0.4167  0.3934
 6677SOL    HW231668   0.990   4.632  11.884  0.2003  0.9598  0.4748
 6678SOL     OW31669   0.204   4.074  15.870  0.0557  0.2976  0.3979
 6678SOL    HW131670   0.125   4.021  15.884  0.5769 -0.1614  1.5959
 6678SOL    HW231671   0.173   4.137  15.805  0.4780 -0.7246 -0.7912
 6679SOL     OW31672   1.868   1.289   5.120  0.4210 -0.5001 -0.3277
 6679SOL    HW131673   1.894   1.352   5.053  0.2376 -1.0915 -0.9524
 6679SOL    HW231674   1.880   1.331   5.205  2.1843  2.2095 -1.9192
 6680SOL     OW31675   1.182   4.047  11.592  0.3900  0.5865 -0.1532
 6680SOL    HW131676   1.195   4.003  11.676  0.1851  0.2169 -0.3121
 6680SOL    HW231677   1.270   4.080  11.575  1.1308 -0.7061  1.1844
 6681SOL     OW31678   4.569   2.083   3.446 -0.7325 -0.0231 -0.3944
 6681SOL    HW131679   4.591   2.076   3.539 -1.1661  1.2864 -0.1883
 6681SOL    HW231680   4.532   1.996   3.432  1.8519 -0.7599 -2.7771
 6682SOL     OW31681   3.455   1.461   5.399 -1.2388 -0.8558 -0.4523
 6682SOL    HW131682   3.539   1.489   5.361 -1.3130  0.8011  0.6057
 6682SOL    HW231683   3.479   1.431   5.487  0.8810 -0.8205 -1.0041
 6683SOL     OW31684   2.628   1.949   4.137  0.3170 -0.3064 -0.0893
 6683SOL    HW131685   2.640   1.915   4.226  0.4318  1.1345  0.4389
 6683SOL    HW231686   2.612   1.864   4.095  2.0524  0.4327 -2.2424
 6684SOL     OW31687   4.665   2.099  15.538 -0.0268 -0.1652 -0.2748
 6684SOL    HW131688   4.727   2.026  15.535  0.5478  0.3242 -0.2590
 6684SOL    HW231689   4.614   2.085  15.458  1.2810 -0.9687 -0.9886
 6685SOL     OW31690   1.896   1.993   8.482  0.1095 -0.5780  0.2959
 6685SOL    HW131691   1.938   1.949   8.556  1.8210  0.2586 -0.1834
 6685SOL    HW231692   1.889   2.084   8.511  0.5277 -1.0051  1.7074
 6686SOL     OW31693   3.207   3.462   0.049 -0.0921  0.3886 -1.0662
 6686SOL    HW131694   3.129   3.407   0.040 -1.0721  1.8367 -1.4876
 6686SOL    HW231695   3.172   3.551   0.055 -0.0689  0.2473  1.2839
 6687SOL     OW31696   1.058   3.394   2.809 -0.6447 -0.4681 -0.1406
 6687SOL    HW131697   0.982   3.417   2.756  0.9800 -0.4692 -2.4666
 6687SOL    HW231698   1.019   3.418   2.893  2.2792 -1.6562  1.5625
 6688SOL     OW31699   2.040   3.345   8.051  0.0356  0.4087 -0.7679
 6688SOL    HW131700   2.089   3.305   8.123  0.2556 -0.6919 -1.5306
 6688SOL    HW231701   2.080   3.307   7.973  0.4267 -1.5163  0.3821
 6689SOL     OW31702   2.293   1.769   5.632  0.0077  0.1415  0.1271
 6689SOL    HW131703   2.286   1.863   5.646  0.5970 -0.0493  1.6360
 6689SOL    HW231704   2.214   1.738   5.676 -0.0114 -2.2961 -1.5954
 6690SOL     OW31705   1.126   2.183   0.709  0.0472  0.7322  0.5730
 6690SOL    HW131706   1.146   2.123   0.636  1.5896 -1.5940  2.9246
 6690SOL    HW231707   1.181   2.259   0.691 -2.1546  1.9260 -1.0881
 6691SOL     OW31708   1.808   1.856   1.896  0.3075  0.7633  0.1595
 6691SOL    HW131709   1.746   1.905   1.951 -1.2011 -1.6385  0.6156
 6691SOL    HW231710   1.756   1.778   1.878  0.1650  0.6339  1.1329
 6692SOL     OW31711   3.146   1.125   2.480  0.0725 -0.6303  0.1967
 6692SOL    HW131712   3.186   1.210   2.497 -1.2692  0.3434 -1.4818
 6692SOL    HW231713   3.144   1.121   2.384  0.0820  3.0866  0.0239
 6693SOL     OW31714   4.243   4.364   2.438 -0.0984 -0.4011  0.0456
 6693SOL    HW131715   4.179   4.418   2.486 -0.2210  0.2345 -0.8344
 6693SOL    HW231716   4.312   4.354   2.503 -0.1381 -0.7638  0.0307
 6694SOL     OW31717   3.419   4.615   6.836 -0.0868 -0.3037 -0.2134
 6694SOL    HW131718   3.486   4.562   6.792  1.2927  0.7453  0.6291
 6694SOL    HW231719   3.439   4.601   6.929 -0.5387 -1.3012 -0.2570
 6695SOL     OW31720   4.423   3.969   5.252 -0.4418 -0.0920 -0.4629
 6695SOL    HW131721   4.491   3.985   5.187  0.1949 -0.3386  0.1476
 6695SOL    HW231722   4.471   3.965   5.335  1.2551  1.5290 -1.3525
 6696SOL     OW31723   0.110   3.547  13.725 -0.0989 -0.2431  0.0291
 6696SOL    HW131724   0.061   3.623  13.755 -0.8631 -0.4150 -0.8045
 6696SOL    HW231725   0.184   3.588  13.680 -0.8646 -0.2453 -1.2119
 6697SOL     OW31726   2.980   1.249   6.819  0.6928 -0.1933  0.6767
 6697SOL    HW131727   2.906   1.237   6.760  1.8815 -0.3225 -0.7808
 6697SOL    HW231728   3.007   1.157   6.826 -0.7204 -0.8268 -2.0588
 6698SOL     OW31729   2.285   4.360  14.479  0.1645 -0.4278 -0.3278
 6698SOL    HW131730   2.340   4.369  14.401  0.0320  0.8094 -0.2753
 6698SOL    HW231731   2.303   4.439  14.531 -1.0151  0.5761 -1.4557
 6699SOL     OW31732   1.587   2.313  11.071 -0.2252  0.2202  0.1619
 6699SOL    HW131733   1.549   2.345  10.989 -0.2160 -0.4206 -0.0907
 6699SOL    HW231734   1.512   2.300  11.129  0.2587 -0.2294  0.6860
 6700SOL     OW31735   1.674   0.794   2.282  0.1156 -0.1127 -0.1818
 6700SOL    HW131736   1.588   0.802   2.241 -0.5763 -0.4330  1.2224
 6700SOL    HW231737   1.705   0.883   2.266 -1.4755  0.7531  1.6460
 6701SOL     OW31738   4.227   2.975   6.221  0.1170 -0.0227 -0.3523
 6701SOL    HW131739   4.314   3.009   6.199  0.4447 -1.9003 -1.9455
 6701SOL    HW231740   4.234   2.955   6.314  2.2396 -1.5360 -0.8214
 6702SOL     OW31741   4.018   4.297  11.624  0.0889 -0.3007  0.2053
 6702SOL    HW131742   3.923   4.309  11.625 -0.0531 -1.4383  0.9615
 6702SOL    HW231743   4.023   4.238  11.699 -1.9403 -0.9288 -0.1471
 6703SOL     OW31744   1.739   2.144   5.767 -0.8682 -0.4852 -0.2013
 6703SOL    HW131745   1.720   2.173   5.856  0.9613  0.3205 -0.0774
 6703SOL    HW231746   1.695   2.059   5.768 -2.3844  0.2912 -0.7524
 6704SOL     OW31747   3.276   3.376   2.893 -0.6486  0.0450 -0.6312
 6704SOL    HW131748   3.260   3.294   2.847  0.8701 -1.5510  1.7325
 6704SOL    HW231749   3.371   3.367   2.893 -0.5242  1.3478  1.0710
 6705SOL     OW31750   2.912   2.496   8.827 -0.1170 -0.1025  0.5481
 6705SOL    HW131751   2.842   2.555   8.854 -0.3718 -0.7431  1.2644
 6705SOL    HW231752   2.976   2.503   8.897 -1.4468 -1.8586  1.9297
 6706SOL     OW31753   2.103   0.800   8.096  0.5760 -0.2071  0.0701
 6706SOL    HW131754   2.139   0.843   8.173  0.2072  0.3875 -0.0933
 6706SOL    HW231755   2.155   0.840   8.026 -1.8770  0.0931 -1.5539
 6707SOL     OW31756   4.221   3.490  15.523  0.1584 -0.3648 -0.5806
 6707SOL    HW131757   4.220   3.584  15.508  0.0261 -0.3206 -0.2914
 6707SOL    HW231758   4.189   3.487  15.613  1.8816  0.5931  0.0564
 6708SOL     OW31759   2.245   1.034   8.601  0.0108  0.4301  0.4836
 6708SOL    HW131760   2.255   0.971   8.530 -2.2958  0.2996  0.2635
 6708SOL    HW231761   2.223   0.972   8.671 -0.2825 -0.9701 -0.8557
 6709SOL     OW31762   4.709   3.333   5.459 -0.3849  0.0862  0.0543
 6709SOL    HW131763   4.715   3.381   5.376  0.4756 -0.7539 -0.3640
 6709SOL    HW231764   0.066   3.315   5.481  0.0700  2.1128 -0.0901
 6710SOL     OW31765   2.142   0.832   7.458  0.1164  0.1871 -0.0178
 6710SOL    HW131766   2.137   0.752   7.405  0.9227  0.0655  0.0835
 6710SOL    HW231767   2.127   0.797   7.546  0.1366  1.1359  0.3650
 6711SOL     OW31768   2.299   3.845  17.533  0.0255 -0.2980  0.0370
 6711SOL    HW131769   2.271   3.928  17.571 -1.1060 -0.6251 -0.0702
 6711SOL    HW231770   2.294   3.780  17.603 -3.5823 -0.5406 -0.4570
 6712SOL     OW31771   0.084   2.432   9.908 -0.0586  0.2075  0.7826
 6712SOL    HW131772   0.156   2.383   9.947  1.0474 -0.6536 -2.2854
 6712SOL    HW231773   0.111   2.423   9.816  0.8750 -2.4509  1.3429
 6713SOL     OW31774   3.622   1.244  14.833  0.5551  0.4027  0.2141
 6713SOL    HW131775   3.586   1.212  14.751  0.0824  0.6105  0.3364
 6713SOL    HW231776   3.542   1.242  14.886  0.9424  1.1170  0.8415
 6714SOL     OW31777   1.668   0.985  12.646 -0.4582  0.1496  0.0726
 6714SOL    HW131778   1.740   0.945  12.695 -0.4527 -0.1656 -0.1909
 6714SOL    HW231779   1.656   0.922  12.575  2.4241 -0.7700  0.4034
 6715SOL     OW31780   1.101   3.967   6.363 -0.0905 -0.6042 -0.1255
 6715SOL    HW131781   1.054   3.952   6.281  2.8837  0.3617 -1.9918
 6715SOL    HW231782   1.055   4.040   6.405  0.2742  0.1973 -1.1337
 6716SOL     OW31783   0.972   1.990   7.437 -0.3113  0.7500 -0.2511
 6716SOL    HW131784   0.915   1.975   7.512 -1.3413  0.6335 -1.0469
 6716SOL    HW231785   1.058   2.001   7.476  0.5101  1.5714 -2.2901
 6717SOL     OW31786   1.837   3.087  13.343  0.5766  0.0501  1.0072
 6717SOL    HW131787   1.744   3.066  13.348 -0.0551  2.9287  1.1615
 6717SOL    HW231788   1.837   3.153  13.274  1.5921  0.6549  1.5696
 6718SOL     OW31789   4.433   2.718   2.497 -0.4343 -0.0562 -0.1857
 6718SOL    HW131790   4.454   2.657   2.568 -0.1213  0.8850  0.5339
 6718SOL    HW231791   4.364   2.767   2.542 -0.2641  0.5595 -0.5974
 6719SOL     OW31792   2.305   4.656   5.059 -0.2588  0.3741 -0.2869
 6719SOL    HW131793   2.348   0.005   5.037  0.6165 -0.4689 -1.7369
 6719SOL    HW231794   2.251   4.687   5.131  1.0063  0.0967  0.7804
 6720SOL     OW31795   3.543   1.226   3.526 -0.0012  0.4573  0.6228
 6720SOL    HW131796   3.595   1.149   3.503  0.4763  1.1268 -0.5178
 6720SOL    HW231797   3.572   1.243   3.616  0.4362 -1.0550  0.7702
 6721SOL     OW31798   1.109   1.575   6.983  0.1628 -0.2983 -0.2897
 6721SOL    HW131799   1.117   1.500   7.042 -0.0197  0.2849  0.4773
 6721SOL    HW231800   1.192   1.624   6.984  0.0513 -0.1564  2.4866
 6722SOL     OW31801   3.573   0.110   6.070 -0.0373 -0.1184  0.0711
 6722SOL    HW131802   3.660   0.149   6.077 -1.2709  2.6911 -0.2945
 6722SOL    HW231803   3.563   0.118   5.975 -0.9757 -0.2791  0.1518
 6723SOL     OW31804   3.502   0.557   6.683  0.2254 -0.2406 -0.3299
 6723SOL    HW131805   3.470   0.511   6.760 -0.5059 -1.7612 -1.5405
 6723SOL    HW231806   3.451   0.509   6.618 -0.3252  0.7388 -0.6205
 6724SOL     OW31807   2.876   1.928   5.017  0.2619 -0.8122 -0.4970
 6724SOL    HW131808   2.828   2.008   5.037  1.5142 -0.1983  0.0150
 6724SOL    HW231809   2.922   1.899   5.096  1.4000 -1.5860 -1.4402
 6725SOL     OW31810   2.161   1.009   1.795 -0.0575 -0.0427  0.0072
 6725SOL    HW131811   2.200   1.091   1.826  1.1071 -1.1767  1.5274
 6725SOL    HW231812   2.073   1.035   1.769  0.4163 -0.5034 -2.0692
 6726SOL     OW31813   2.038   1.085   1.494  0.0914  0.1358  0.3683
 6726SOL    HW131814   2.000   1.031   1.425 -1.3699  0.7455  0.7048
 6726SOL    HW231815   2.116   1.033   1.517  0.0562 -0.3538 -0.6300
 6727SOL     OW31816   1.153   0.458   4.004  0.4414 -0.4198 -0.4577
 6727SOL    HW131817   1.143   0.363   3.997  0.7949 -0.6225  1.6846
 6727SOL    HW231818   1.159   0.477   4.098  1.4904  1.2674 -0.8732
 6728SOL     OW31819   0.287   2.025  12.402  0.1666 -0.1611  0.1856
 6728SOL    HW131820   0.201   2.063  12.420  0.4080  0.5917 -0.2736
 6728SOL    HW231821   0.341   2.104  12.401 -2.5618  1.7150  0.3226
 6729SOL     OW31822   0.701   3.073   1.770  0.0763  0.0459  0.3202
 6729SOL    HW131823   0.615   3.032   1.772 -0.5619  1.4188  0.7377
 6729SOL    HW231824   0.706   3.104   1.680 -1.3905  0.3122  0.3446
 6730SOL     OW31825   0.851   1.958   3.942 -0.3899  0.2959  0.5316
 6730SOL    HW131826   0.820   1.937   3.854 -1.3791  0.3375  0.8788
 6730SOL    HW231827   0.771   1.977   3.990 -0.8714  0.0155 -0.1647
 6731SOL     OW31828   3.431   1.345  12.581 -0.5004  0.2942 -0.3901
 6731SOL    HW131829   3.338   1.341  12.601 -0.3814 -1.0575 -0.0627
 6731SOL    HW231830   3.472   1.303  12.657 -0.8858  3.3013  1.4878
 6732SOL     OW31831   1.847   0.444   1.027  0.6529  0.3245 -0.3669
 6732SOL    HW131832   1.868   0.419   0.937 -1.4609 -1.4524 -0.3709
 6732SOL    HW231833   1.753   0.456   1.018  0.5076 -0.3138  0.2373
 6733SOL     OW31834   1.559   0.511   3.142 -0.0668 -0.1031  0.2457
 6733SOL    HW131835   1.463   0.510   3.139  0.0054 -0.1736 -1.6580
 6733SOL    HW231836   1.571   0.547   3.230  2.5629  0.2738 -0.2555
 6734SOL     OW31837   0.904   0.611   0.531 -0.5177 -0.3147 -0.1130
 6734SOL    HW131838   0.988   0.567   0.524 -0.0066  0.6114  0.2593
 6734SOL    HW231839   0.860   0.576   0.453  0.0331 -0.1245 -0.5042
 6735SOL     OW31840   0.167   0.598   5.260  0.4467 -0.0202  0.3142
 6735SOL    HW131841   0.220   0.667   5.299 -0.8493  0.4447  1.2638
 6735SOL    HW231842   0.128   0.548   5.333  1.0244  0.2306  0.7919
 6736SOL     OW31843   4.311   0.050   4.049  0.3271  0.2258  1.0452
 6736SOL    HW131844   4.401   0.079   4.063  0.8393 -1.0126  0.3575
 6736SOL    HW231845   4.264   0.114   4.103 -1.9015 -0.3069 -0.2591
 6737SOL     OW31846   3.838   1.736   4.648  0.1712 -0.7156  0.6094
 6737SOL    HW131847   3.772   1.671   4.627 -0.5888  0.3184 -0.1917
 6737SOL    HW231848   3.866   1.720   4.738  0.2724 -1.0961  0.5089
 6738SOL     OW31849   4.026   1.787   3.558 -0.6501 -0.1130  0.1249
 6738SOL    HW131850   4.040   1.856   3.493  0.9064 -0.6292 -0.0716
 6738SOL    HW231851   3.951   1.819   3.609 -1.3582 -0.2564 -0.8181
 6739SOL     OW31852   3.285   4.624   2.206  0.5659 -0.1490 -0.2994
 6739SOL    HW131853   3.358   4.562   2.204 -0.6009 -1.5347 -0.3367
 6739SOL    HW231854   3.257   4.619   2.115 -2.7259  0.7704  0.6443
 6740SOL     OW31855   1.050   1.428   1.973 -0.3762  0.1161 -0.1660
 6740SOL    HW131856   1.058   1.337   1.945  1.7924  0.0281  0.7541
 6740SOL    HW231857   1.078   1.410   2.063  1.0853 -0.5358 -0.7622
 6741SOL     OW31858   0.709   0.299   6.762  0.0806  0.5433 -0.3516
 6741SOL    HW131859   0.688   0.292   6.668 -0.3842 -0.1903 -0.1914
 6741SOL    HW231860   0.790   0.349   6.768 -1.3457  2.6108  1.6835
 6742SOL     OW31861   1.321   0.071   6.557  0.0192 -0.0145 -0.1722
 6742SOL    HW131862   1.368   0.053   6.475  0.0624 -2.4370  0.4000
 6742SOL    HW231863   1.230   0.043   6.550  0.3816 -0.6829 -2.3608
 6743SOL     OW31864   2.549   4.705   3.837 -0.7043 -0.2428  0.3684
 6743SOL    HW131865   2.488   4.717   3.910 -1.0667  0.1982  0.0005
 6743SOL    HW231866   2.540   4.616   3.805  1.7604  0.4788 -2.4026
 6744SOL     OW31867   0.577   4.245  17.238 -0.2411 -0.0755  0.3643
 6744SOL    HW131868   0.553   4.200  17.158  2.5014 -3.2733  1.3444
 6744SOL    HW231869   0.532   4.190  17.303 -2.2382 -0.2802 -1.1883
 6745SOL     OW31870   0.071   4.718   3.857 -0.2659 -0.4048  0.4253
 6745SOL    HW131871   0.149   4.664   3.867  0.6024  0.9357  0.8396
 6745SOL    HW231872   0.020   4.668   3.792 -0.1627 -1.3557  1.0690
 6746SOL     OW31873   0.712   2.201   2.648  0.2928  0.4699 -0.0280
 6746SOL    HW131874   0.774   2.196   2.722 -2.3284  0.0787  2.1592
 6746SOL    HW231875   0.633   2.213   2.702 -0.3112 -1.1755 -0.5460
 6747SOL     OW31876   0.934   0.977   9.403  0.1075 -0.0644  0.1629
 6747SOL    HW131877   0.873   0.911   9.371 -0.2497 -0.9643  2.7695
 6747SOL    HW231878   0.955   1.026   9.323  0.5535 -0.2631  0.1558
 6748SOL     OW31879   2.358   1.880   2.134  0.3886 -0.6217  0.2166
 6748SOL    HW131880   2.409   1.917   2.061  0.4662  1.8876  1.5343
 6748SOL    HW231881   2.414   1.909   2.206 -0.4100  1.5606 -0.0258
 6749SOL     OW31882   4.115   2.443   4.851  0.0668 -0.4641  0.0222
 6749SOL    HW131883   4.077   2.392   4.923  0.1521 -2.3269 -1.2397
 6749SOL    HW231884   4.202   2.462   4.886  0.5747 -0.9262 -0.9897
 6750SOL     OW31885   4.303   0.406   3.754  0.8518  0.5838  0.0855
 6750SOL    HW131886   4.255   0.364   3.683  0.5974 -5.4151  3.8452
 6750SOL    HW231887   4.383   0.354   3.748 -0.8947 -2.1944  1.1010
 6751SOL     OW31888   0.309   4.579   7.876 -0.0785 -0.2294  0.3399
 6751SOL    HW131889   0.214   4.576   7.872  0.0235 -0.9441 -1.5211
 6751SOL    HW231890   0.322   4.529   7.956 -0.4917 -0.6213  0.1609
 6752SOL     OW31891   1.077   3.317  14.698  0.1296 -0.0975  0.5287
 6752SOL    HW131892   1.025   3.241  14.723 -0.1063 -0.2099 -0.3186
 6752SOL    HW231893   1.166   3.281  14.695 -0.7364 -2.3108  1.2340
 6753SOL     OW31894   0.845   1.182   7.506 -0.3274 -0.2438  0.2458
 6753SOL    HW131895   0.878   1.173   7.416 -0.9356 -2.2183  0.2293
 6753SOL    HW231896   0.786   1.256   7.495 -2.4322 -2.1670 -1.2948
 6754SOL     OW31897   2.075   0.789   5.387 -0.2681  0.4108  0.2800
 6754SOL    HW131898   2.038   0.854   5.327 -1.4609  1.0972  1.7671
 6754SOL    HW231899   2.111   0.845   5.455 -0.9646  1.0604  0.1193
 6755SOL     OW31900   3.539   2.683   5.516  0.0767 -0.8529  0.8179
 6755SOL    HW131901   3.493   2.651   5.594  1.6781 -1.1448  1.6532
 6755SOL    HW231902   3.620   2.702   5.563 -0.9591 -0.5258  2.4986
 6756SOL     OW31903   2.408   2.192   4.431 -0.0525 -0.4457  0.5624
 6756SOL    HW131904   2.407   2.260   4.363 -0.3682 -0.9768  0.0396
 6756SOL    HW231905   2.502   2.187   4.449  0.1870  1.2129 -0.1560
 6757SOL     OW31906   0.650   2.938   6.280 -0.1695 -0.9814  0.8420
 6757SOL    HW131907   0.713   2.979   6.340 -0.4724 -0.9703  1.1555
 6757SOL    HW231908   0.637   3.020   6.232  0.5714 -1.0463  0.5335
 6758SOL     OW31909   4.252   4.163  10.276 -0.2687  0.0402 -0.2788
 6758SOL    HW131910   4.212   4.243  10.310  1.4405  0.7950 -0.0137
 6758SOL    HW231911   4.182   4.103  10.253  1.8106 -1.6493 -2.2628
 6759SOL     OW31912   4.189   4.164   1.575 -0.5509  0.5699  0.7461
 6759SOL    HW131913   4.138   4.088   1.604 -1.3226  0.9338  0.3452
 6759SOL    HW231914   4.220   4.131   1.491 -2.1474 -0.0856  0.4180
 6760SOL     OW31915   2.705   1.729   0.178  0.1165  0.1699 -0.3026
 6760SOL    HW131916   2.680   1.808   0.131 -0.8070  0.4595  0.6774
 6760SOL    HW231917   2.648   1.668   0.132  1.4917  0.2424 -2.1183
 6761SOL     OW31918   2.099   1.661   3.525  0.1012 -0.5377  0.6174
 6761SOL    HW131919   2.089   1.755   3.511 -0.7219 -0.8339 -0.7969
 6761SOL    HW231920   2.191   1.648   3.502 -0.4434 -1.2487 -1.1283
 6762SOL     OW31921   4.424   0.983   3.753  0.2088 -0.6876 -0.2589
 6762SOL    HW131922   4.398   0.892   3.737  0.5914 -1.1494  1.7739
 6762SOL    HW231923   4.500   0.960   3.805 -0.1508 -1.7279 -0.2041
 6763SOL     OW31924   4.023   2.804  15.857 -0.5470 -0.1833 -0.4559
 6763SOL    HW131925   4.010   2.800  15.762  1.8912 -0.5012 -0.7758
 6763SOL    HW231926   3.945   2.857  15.870  0.8555  1.8918 -0.4318
 6764SOL     OW31927   4.145   2.166   7.506  0.2419  0.5098  0.2782
 6764SOL    HW131928   4.235   2.187   7.531  1.3093 -3.6037 -0.1115
 6764SOL    HW231929   4.154   2.115   7.426 -1.4643  0.1231  0.3273
 6765SOL     OW31930   2.935   1.222   5.587  0.2872 -0.3566 -0.0798
 6765SOL    HW131931   3.008   1.248   5.643 -0.2564  2.3077 -0.6115
 6765SOL    HW231932   2.924   1.302   5.535 -0.3801 -1.4549 -1.6147
 6766SOL     OW31933   3.479   1.920   1.241  0.0118  0.6970  0.3009
 6766SOL    HW131934   3.510   1.856   1.177 -0.9586  1.2722 -0.7311
 6766SOL    HW231935   3.387   1.896   1.236 -0.0961  1.0252  0.7531
 6767SOL     OW31936   3.875   4.040   6.377  0.1114 -0.2628  0.3131
 6767SOL    HW131937   3.960   4.026   6.419 -0.0262  1.6029  1.2259
 6767SOL    HW231938   3.820   3.992   6.439  0.0752  0.6277  0.9758
 6768SOL     OW31939   2.357   2.682  11.011  0.0794  0.5294  0.1307
 6768SOL    HW131940   2.362   2.615  11.078  1.2082  0.1874 -0.3013
 6768SOL    HW231941   2.293   2.746  11.043 -0.5840 -0.6937  1.2415
 6769SOL     OW31942   1.594   0.239   7.086  0.6544  0.3086 -0.5352
 6769SOL    HW131943   1.529   0.177   7.051  2.1980 -1.8557  0.4342
 6769SOL    HW231944   1.578   0.322   7.042 -2.2439  0.6885  1.1869
 6770SOL     OW31945   4.213   3.607  15.055 -0.1486  0.2842  0.0066
 6770SOL    HW131946   4.150   3.635  15.121  1.3136  1.7293  0.7612
 6770SOL    HW231947   4.184   3.516  15.051 -0.5300  0.4091 -0.0912
 6771SOL     OW31948   2.046   2.993  12.777 -0.2322 -0.1033  0.3818
 6771SOL    HW131949   2.080   2.904  12.768  2.0235  0.9545 -1.5017
 6771SOL    HW231950   2.007   2.987  12.864  2.4087 -0.1966  1.5551
 6772SOL     OW31951   0.852   4.448   7.603 -0.3440  0.2686 -0.5470
 6772SOL    HW131952   0.762   4.471   7.581 -0.0198 -0.1833 -2.3626
 6772SOL    HW231953   0.843   4.451   7.698  1.1687 -1.9913 -0.3242
 6773SOL     OW31954   0.525   4.618   3.065 -0.3469  0.3219 -0.0795
 6773SOL    HW131955   0.523   4.651   2.975 -1.7951 -1.9305 -0.8610
 6773SOL    HW231956   0.515   4.699   3.114 -0.3189 -1.1768  2.4172
 6774SOL     OW31957   0.728   1.159   6.158 -0.1575 -0.6688 -0.7562
 6774SOL    HW131958   0.731   1.121   6.071  1.0949 -4.0282  0.7557
 6774SOL    HW231959   0.810   1.208   6.167 -1.5362  1.7548 -1.4595
 6775SOL     OW31960   2.173   1.530   5.148 -0.6839 -0.2343 -0.1086
 6775SOL    HW131961   2.081   1.521   5.124 -0.2130 -1.4313 -1.4922
 6775SOL    HW231962   2.203   1.594   5.084 -0.8564 -1.2479 -1.2159
 6776SOL     OW31963   0.408   3.980   8.929  0.0805  0.6789 -0.0929
 6776SOL    HW131964   0.434   3.890   8.913 -1.6351  0.3773 -1.2196
 6776SOL    HW231965   0.319   3.980   8.894 -0.0995  0.0368  0.3572
 6777SOL     OW31966   0.529   3.534   8.628 -0.3310 -0.3617 -0.3797
 6777SOL    HW131967   0.488   3.600   8.571 -1.1396 -1.4257 -1.0184
 6777SOL    HW231968   0.465   3.515   8.697 -0.1920 -2.0360 -0.7299
 6778SOL     OW31969   3.455   2.495   0.260 -0.5331 -0.7387  0.3252
 6778SOL    HW131970   3.415   2.474   0.176  0.6882  1.6353 -0.8420
 6778SOL    HW231971   3.522   2.427   0.268 -1.3281 -1.4415  1.0695
 6779SOL     OW31972   4.113   1.769   6.509 -0.0367 -0.0085  0.3201
 6779SOL    HW131973   4.037   1.796   6.560  0.5236  0.6923  0.7842
 6779SOL    HW231974   4.150   1.852   6.479  1.5683 -0.5573  0.7247
 6780SOL     OW31975   3.301   2.710  16.303  0.1272 -0.3425 -0.0766
 6780SOL    HW131976   3.304   2.769  16.227 -0.8728 -1.4380 -0.9514
 6780SOL    HW231977   3.234   2.648  16.278  1.5289 -1.9831  0.2562
 6781SOL     OW31978   4.081   0.459   4.613 -0.1493 -0.0489  0.0359
 6781SOL    HW131979   4.078   0.371   4.575 -0.6985 -0.2197  0.4788
 6781SOL    HW231980   4.172   0.474   4.586 -0.4159  1.9350  0.2773
 6782SOL     OW31981   0.857   3.567   7.695  0.7549 -0.2899 -0.3719
 6782SOL    HW131982   0.935   3.564   7.750 -0.3738  0.5058  1.2707
 6782SOL    HW231983   0.786   3.595   7.753 -0.9657 -3.5348 -0.8621
 6783SOL     OW31984   0.792   0.669   0.020  0.3005  0.4296 -0.4212
 6783SOL    HW131985   0.720   0.718   0.059 -0.5118 -0.5369 -0.7225
 6783SOL    HW231986   0.835   0.731  17.696 -0.1123 -0.6780 -1.8689
 6784SOL     OW31987   0.307   0.348   5.247  0.1414 -0.1332  0.2296
 6784SOL    HW131988   0.270   0.433   5.222  1.1889  0.6591  1.4135
 6784SOL    HW231989   0.368   0.373   5.316  1.4106 -0.6006 -0.7016
 6785SOL     OW31990   2.363   0.188   4.996  0.0962  0.1595 -0.4687
 6785SOL    HW131991   2.330   0.268   5.037  0.1250 -0.1316  0.1122
 6785SOL    HW231992   2.299   0.181   4.925  0.2214 -2.2675 -0.3512
 6786SOL     OW31993   2.185   2.544   8.676  0.1456 -0.4616 -0.8715
 6786SOL    HW131994   2.278   2.526   8.665  0.7770  1.4020  1.2932
 6786SOL    HW231995   2.175   2.493   8.756  0.3495 -2.0510 -1.8438
 6787SOL     OW31996   0.222   1.159   5.260 -0.1929 -0.0084 -0.0640
 6787SOL    HW131997   0.172   1.219   5.316 -1.8674  0.4730 -2.0798
 6787SOL    HW231998   0.306   1.175   5.304 -1.6585  0.8162  2.4237
 6788SOL     OW31999   4.431   1.430  17.735  0.6086 -0.0216 -0.6512
 6788SOL    HW132000   4.359   1.403  17.678 -0.1883 -0.1166  0.4138
 6788SOL    HW232001   4.395   1.514   0.028 -1.5284 -0.4699 -1.9948
 6789SOL     OW32002   2.052   2.297  13.325  0.2206 -0.2271  0.6197
 6789SOL    HW132003   2.005   2.369  13.282 -2.6337 -1.9478  0.8570
 6789SOL    HW232004   2.092   2.337  13.402  0.2942  0.6927  0.1111
 6790SOL     OW32005   3.000   0.141   7.077  0.2187  0.1676 -0.5653
 6790SOL    HW132006   3.025   0.226   7.112  2.8036 -1.2679  1.0112
 6790SOL    HW232007   3.087   0.108   7.056 -1.4102 -3.3206 -1.8617
 6791SOL     OW32008   2.059   0.231   7.298 -0.1155 -1.0322 -0.7610
 6791SOL    HW132009   2.039   0.159   7.239 -2.4934 -0.1638 -0.9989
 6791SOL    HW232010   1.982   0.287   7.290  1.2758  1.0425  0.4690
 6792SOL     OW32011   1.679   3.577   1.638 -0.2167  0.1452  0.1770
 6792SOL    HW132012   1.686   3.672   1.639 -0.1675  0.1450 -0.2110
 6792SOL    HW232013   1.763   3.559   1.597 -0.5504  0.4939 -0.6649
 6793SOL     OW32014   4.185   4.158  14.203  0.6118 -0.3977 -0.0307
 6793SOL    HW132015   4.201   4.221  14.273 -0.2665  2.9419 -2.8456
 6793SOL    HW232016   4.164   4.217  14.131  0.9965 -1.2404 -0.8429
 6794SOL     OW32017   2.431   3.116   7.264  0.3484 -0.4965 -0.2735
 6794SOL    HW132018   2.391   3.111   7.178 -1.9066  1.3753  0.6716
 6794SOL    HW232019   2.366   3.070   7.317  1.7131 -1.6711  0.3844
 6795SOL     OW32020   3.993   2.099   4.161 -0.3379  0.4002  0.2073
 6795SOL    HW132021   4.070   2.061   4.204 -0.3834 -2.1754 -1.9015
 6795SOL    HW232022   4.037   2.172   4.117 -1.6921  0.2925 -1.3141
 6796SOL     OW32023   2.885   1.551   7.389 -0.2152 -0.2360  0.3012
 6796SOL    HW132024   2.789   1.558   7.396 -0.2506  0.2272 -0.7013
 6796SOL    HW232025   2.912   1.642   7.391 -4.2223  0.9437  1.7633
 6797SOL     OW32026   0.771   3.624   8.912  0.3212  0.0668 -0.9040
 6797SOL    HW132027   0.844   3.641   8.971 -1.0499 -0.2391  0.8643
 6797SOL    HW232028   0.815   3.585   8.836  1.1770  1.0708 -0.9214
 6798SOL     OW32029   0.736   3.376   4.751  0.0524 -0.0316 -0.0272
 6798SOL    HW132030   0.676   3.386   4.676  1.5765 -0.7304 -1.3342
 6798SOL    HW232031   0.805   3.322   4.714 -0.0415 -0.8188  0.9640
 6799SOL     OW32032   2.384   1.080   2.461  0.6103 -0.2520 -0.0890
 6799SOL    HW132033   2.444   1.130   2.405 -0.3121  1.5829  0.5612
 6799SOL    HW232034   2.417   0.991   2.446 -1.0804 -0.7308 -0.8901
 6800SOL     OW32035   0.159   3.777   2.854  0.1888 -0.2811 -0.0918
 6800SOL    HW132036   0.103   3.768   2.931 -1.0088  1.5714 -0.7542
 6800SOL    HW232037   0.089   3.797   2.791 -1.2953  0.4107  1.7748
 6801SOL     OW32038   4.361   4.733  16.263  0.4546 -0.8279 -0.1093
 6801SOL    HW132039   4.413   4.729  16.183 -0.7850  0.4795 -0.9750
 6801SOL    HW232040   4.318   0.085  16.260 -0.3613 -1.1389  2.0371
 6802SOL     OW32041   3.195   3.225  15.089  0.5171 -0.4413 -0.6147
 6802SOL    HW132042   3.115   3.272  15.068  2.3217  1.6841 -2.7654
 6802SOL    HW232043   3.261   3.291  15.111 -2.6847  2.1124  1.4211
 6803SOL     OW32044   3.975   1.169   2.890 -0.3747 -0.0290 -0.1332
 6803SOL    HW132045   3.926   1.136   2.815 -0.4007 -0.7621  0.2021
 6803SOL    HW232046   4.018   1.091   2.924  0.3571  0.3094 -0.2824
 6804SOL     OW32047   0.695   4.502   4.438 -0.3073 -0.1811 -0.7622
 6804SOL    HW132048   0.785   4.487   4.409 -0.7149 -2.1375 -1.0495
 6804SOL    HW232049   0.706   4.581   4.490  2.5155  0.6897 -2.6722
 6805SOL     OW32050   4.407   2.762   3.821  0.2865  0.1260  0.6957
 6805SOL    HW132051   4.481   2.783   3.879 -0.8851  0.2035  2.1647
 6805SOL    HW232052   4.329   2.781   3.873  0.9714  0.8336  1.4750
 6806SOL     OW32053   3.159   3.148   6.859 -0.4485  0.4740 -0.1577
 6806SOL    HW132054   3.142   3.231   6.904 -0.3312  0.7005 -0.5338
 6806SOL    HW232055   3.180   3.089   6.932  0.7558 -0.9201 -1.6423
 6807SOL     OW32056   3.115   1.757   8.069  0.5106 -0.0252 -0.1535
 6807SOL    HW132057   3.116   1.849   8.095 -1.7630  0.4571 -1.8463
 6807SOL    HW232058   3.210   1.747   8.077  0.5181  0.1120 -0.0746
 6808SOL     OW32059   2.819   0.704   4.546  0.4577  0.6432  0.3211
 6808SOL    HW132060   2.841   0.675   4.458  2.9565  2.1961  0.4039
 6808SOL    HW232061   2.879   0.659   4.606  1.1594  1.9784  0.6438
 6809SOL     OW32062   4.171   0.168   4.884  0.2299 -0.2853  0.4430
 6809SOL    HW132063   4.098   0.185   4.944 -0.1595 -0.3616 -0.0096
 6809SOL    HW232064   4.213   0.254   4.877  2.2355 -1.4138 -1.4182
 6810SOL     OW32065   2.405   0.314   5.555  0.2022 -0.0052 -0.0136
 6810SOL    HW132066   2.430   0.329   5.646 -1.6051 -0.0478  0.4792
 6810SOL    HW232067   2.485   0.348   5.514  0.3078 -0.9643 -0.6010
 6811SOL     OW32068   4.540   2.635   9.076 -0.0219 -0.2858 -0.0352
 6811SOL    HW132069   4.612   2.620   9.137  0.0826 -0.1925 -0.1350
 6811SOL    HW232070   4.470   2.624   9.140  0.3367 -2.2450  0.0186
 6812SOL     OW32071   1.407   1.839   5.008 -0.6120 -0.3224 -0.4138
 6812SOL    HW132072   1.361   1.913   5.048 -0.8039 -0.8842  0.3842
 6812SOL    HW232073   1.368   1.756   5.034 -0.2006  0.0697  1.4147
 6813SOL     OW32074   3.176   1.344   3.351 -0.2671  0.1354 -0.2910
 6813SOL    HW132075   3.195   1.254   3.324  1.7404  0.5952 -0.4150
 6813SOL    HW232076   3.214   1.349   3.438  0.3493 -0.2764 -0.5341
 6814SOL     OW32077   0.124   2.040   0.429 -0.3813  0.7101  0.2121
 6814SOL    HW132078   0.216   2.014   0.428 -0.1399  1.5643  1.3763
 6814SOL    HW232079   0.087   1.954   0.450  0.1411 -0.1397 -2.3429
 6815SOL     OW32080   4.046   3.094   2.569  0.1039 -0.2531 -0.6920
 6815SOL    HW132081   4.096   3.176   2.573 -0.4914  0.1144 -0.7604
 6815SOL    HW232082   4.013   3.090   2.658  0.2512 -0.0066 -0.6243
 6816SOL     OW32083   3.276   1.515  13.145 -0.1342  0.6680 -0.3326
 6816SOL    HW132084   3.210   1.481  13.205  0.7199  0.7538  0.6690
 6816SOL    HW232085   3.237   1.479  13.066 -0.5765 -0.8469  0.5885
 6817SOL     OW32086   3.524   0.546   3.752 -0.3115  0.8638 -0.7488
 6817SOL    HW132087   3.619   0.537   3.745 -0.2199  2.9440 -2.0965
 6817SOL    HW232088   3.510   0.622   3.696 -0.1914  1.8004  0.5112
 6818SOL     OW32089   1.808   1.441  10.968 -0.0731 -0.2672 -0.1943
 6818SOL    HW132090   1.736   1.495  10.936 -1.7855  0.4899  4.9199
 6818SOL    HW232091   1.784   1.429  11.060 -0.9852 -0.3380 -0.4418
 6819SOL     OW32092   3.305   2.953   3.360  0.5997  0.5526 -0.0705
 6819SOL    HW132093   3.351   2.885   3.409  2.6570  1.4946 -0.7069
 6819SOL    HW232094   3.315   3.025   3.421  0.6608 -0.0535  0.6342
 6820SOL     OW32095   2.809   0.853   7.844  0.0341 -0.7071 -0.0697
 6820SOL    HW132096   2.885   0.903   7.876  0.0484 -1.3106  0.8595
 6820SOL    HW232097   2.851   0.788   7.788 -1.1425  0.0904 -1.8805
 6821SOL     OW32098   0.522   0.520   3.591  0.6639  0.0937 -0.0906
 6821SOL    HW132099   0.557   0.589   3.647  2.4867  0.0938 -1.2220
 6821SOL    HW232100   0.603   0.470   3.582 -0.2873 -1.5880  0.7319
 6822SOL     OW32101   1.667   1.826   5.034 -0.5912  0.2228  0.4599
 6822SOL    HW132102   1.572   1.828   5.020 -0.5837 -3.1170 -0.0443
 6822SOL    HW232103   1.681   1.733   5.051  1.1485  0.0581 -1.9222
 6823SOL     OW32104   1.397   1.868   8.296 -0.4807 -0.4225  0.0641
 6823SOL    HW132105   1.443   1.819   8.228  0.3312  0.0226  0.3036
 6823SOL    HW232106   1.468   1.916   8.337 -0.8618  0.0255  0.2002
 6824SOL     OW32107   0.859   0.850  15.211 -0.6351  0.0227  0.0869
 6824SOL    HW132108   0.953   0.830  15.217 -0.7141  0.7708  3.7062
 6824SOL    HW232109   0.830   0.771  15.258 -1.8252  1.0681  1.1045
 6825SOL     OW32110   3.065   3.254   7.126  0.1250  0.6080  0.1245
 6825SOL    HW132111   2.979   3.214   7.110  0.8758 -0.9323 -0.0695
 6825SOL    HW232112   3.052   3.347   7.107  0.9472  0.2222 -2.3011
 6826SOL     OW32113   3.887   1.081   7.394 -0.0920 -0.3493  0.4483
 6826SOL    HW132114   3.850   1.061   7.308 -0.1417 -1.6327  0.7714
 6826SOL    HW232115   3.804   1.096   7.440  0.1985  0.0097  0.8545
 6827SOL     OW32116   1.624   3.374   7.703  0.1907  0.3683  0.3255
 6827SOL    HW132117   1.712   3.390   7.736  0.0955 -0.1239  0.8260
 6827SOL    HW232118   1.568   3.428   7.758 -1.2108  0.4362 -1.1768
 6828SOL     OW32119   0.232   0.437   4.848 -0.1662 -0.7771 -0.4611
 6828SOL    HW132120   0.286   0.481   4.783  2.5862 -0.1264  2.2636
 6828SOL    HW232121   0.194   0.507   4.901  3.6778  0.4190  0.7345
 6829SOL     OW32122   1.414   0.483  16.841  0.0936 -0.5512  0.0316
 6829SOL    HW132123   1.364   0.540  16.783  0.2283  0.6157  1.0569
 6829SOL    HW232124   1.500   0.486  16.798  0.3764  1.3627  0.7329
 6830SOL     OW32125   2.751   0.197   3.836  0.1176  0.2243  0.5551
 6830SOL    HW132126   2.663   0.159   3.845 -0.2293  1.5515  2.8203
 6830SOL    HW232127   2.787   0.124   3.785 -0.7986  0.8553 -1.0003
 6831SOL     OW32128   2.051   0.191   2.284 -0.2224  0.0799  0.2691
 6831SOL    HW132129   2.096   0.260   2.334  0.3758  1.3048 -1.9888
 6831SOL    HW232130   2.011   0.246   2.217 -1.3460 -0.4770  0.4916
 6832SOL     OW32131   2.059   3.145  13.494  0.2484  0.1333  0.0228
 6832SOL    HW132132   2.024   3.203  13.563 -0.2077 -0.3808  0.2223
 6832SOL    HW232133   1.986   3.097  13.455  1.2147 -0.5474 -0.9147
 6833SOL     OW32134   2.303   4.384   6.064 -0.3082  0.0608  0.6743
 6833SOL    HW132135   2.248   4.447   6.017 -1.3148 -2.3329 -1.3384
 6833SOL    HW232136   2.264   4.365   6.149  1.1059 -0.4312  1.2290
 6834SOL     OW32137   2.182   3.610   6.792  0.2325  0.0759 -0.0774
 6834SOL    HW132138   2.091   3.585   6.807  0.1553  1.0722  1.0398
 6834SOL    HW232139   2.164   3.692   6.746  2.2238  0.1846 -0.6441
 6835SOL     OW32140   2.598   2.203   4.041  0.1558  0.3178  0.3289
 6835SOL    HW132141   2.578   2.170   3.953 -0.8127  0.6899  0.4064
 6835SOL    HW232142   2.616   2.116   4.078  0.6232 -0.4556 -1.7024
 6836SOL     OW32143   2.042   3.098  15.740 -0.2913  0.0569 -0.3284
 6836SOL    HW132144   2.090   3.163  15.791 -0.0784 -0.4362  0.1061
 6836SOL    HW232145   1.958   3.144  15.744 -0.8321 -0.9546  0.1002
 6837SOL     OW32146   4.705   1.892  12.459  0.1473 -0.1975 -0.3438
 6837SOL    HW132147   4.677   1.947  12.532  1.0941  1.2442 -1.0657
 6837SOL    HW232148   4.639   1.910  12.392 -0.6843  0.6850  0.7143
 6838SOL     OW32149   2.876   0.655   3.671  0.0771 -0.0212 -0.2623
 6838SOL    HW132150   2.889   0.685   3.761 -0.4820  0.0659 -0.2131
 6838SOL    HW232151   2.925   0.720   3.620 -0.7560 -0.0647 -1.1287
 6839SOL     OW32152   0.100   1.138   2.929  0.4093 -0.3287  0.0699
 6839SOL    HW132153   0.051   1.172   3.004  3.9120  1.6278  1.4730
 6839SOL    HW232154   0.150   1.215   2.901  1.2782 -1.3852 -1.3075
 6840SOL     OW32155   4.033   3.524   1.213 -0.2336 -0.3599 -0.5565
 6840SOL    HW132156   3.988   3.593   1.164 -0.3062  1.1051  1.5783
 6840SOL    HW232157   3.966   3.486   1.269  1.6574  0.1913  2.1172
 6841SOL     OW32158   0.305   3.290   6.650 -0.7774 -0.2498 -0.0069
 6841SOL    HW132159   0.274   3.280   6.559 -2.7777 -1.8579  0.8573
 6841SOL    HW232160   0.384   3.237   6.656  1.0138  2.1563 -2.1120
 6842SOL     OW32161   3.258   3.900   3.480  0.1153  0.6167  1.1661
 6842SOL    HW132162   3.187   3.840   3.459  0.7107  0.9229 -1.6377
 6842SOL    HW232163   3.240   3.906   3.574  0.1691 -0.4251  1.2362
 6843SOL     OW32164   0.541   2.358   5.123  0.5061  0.3409  1.1642
 6843SOL    HW132165   0.596   2.353   5.201 -0.1187 -3.0177  1.3775
 6843SOL    HW232166   0.594   2.420   5.073  0.8176 -0.4793  0.4765
 6844SOL     OW32167   4.184   3.490   3.392 -0.3743 -0.1646  0.2383
 6844SOL    HW132168   4.114   3.519   3.451 -1.1430  0.8580 -1.1832
 6844SOL    HW232169   4.138   3.467   3.311 -1.0056  0.8042  0.3208
 6845SOL     OW32170   0.434   3.681   6.127  0.3330 -0.0603 -0.0321
 6845SOL    HW132171   0.403   3.752   6.071  2.4676  1.2450  0.4260
 6845SOL    HW232172   0.528   3.701   6.119  0.1598 -0.0298 -1.9651
 6846SOL     OW32173   2.312   1.840   2.466  0.5247 -0.2166  0.0519
 6846SOL    HW132174   2.306   1.746   2.451  2.8208 -0.1295 -1.3174
 6846SOL    HW232175   2.219   1.855   2.487  0.6869  0.6644  0.1357
 6847SOL     OW32176   0.098   0.549   6.429  0.3361 -0.6565 -0.0105
 6847SOL    HW132177   0.004   0.537   6.427  0.3276 -0.7150  0.7456
 6847SOL    HW232178   0.112   0.618   6.494 -0.2788 -1.0397  0.5297
 6848SOL     OW32179   1.807   2.125   4.854 -0.6275 -0.1429 -0.1132
 6848SOL    HW132180   1.718   2.114   4.888 -0.8441  1.6828 -0.0674
 6848SOL    HW232181   1.850   2.051   4.895 -1.1576 -0.3768  0.0207
 6849SOL     OW32182   2.322   4.103   2.361  0.0184 -0.4811 -0.1804
 6849SOL    HW132183   2.408   4.146   2.370  0.2455 -1.0147  0.1913
 6849SOL    HW232184   2.258   4.174   2.367  0.7121  0.0539  0.9197
 6850SOL     OW32185   2.767   1.004   1.583  0.3660 -0.0092  0.4333
 6850SOL    HW132186   2.757   0.920   1.627 -0.0859  0.7265  1.7126
 6850SOL    HW232187   2.681   1.045   1.593  0.6792  0.8782 -0.5005
 6851SOL     OW32188   1.333   1.030   5.355  0.0680 -0.0442  0.2419
 6851SOL    HW132189   1.310   1.119   5.327  2.1255  0.5871  0.4808
 6851SOL    HW232190   1.418   1.016   5.312  0.1498  0.9687  0.0551
 6852SOL     OW32191   3.547   2.195   5.212 -0.7395  0.0823 -0.5108
 6852SOL    HW132192   3.558   2.102   5.235 -0.3655  0.0348 -0.8854
 6852SOL    HW232193   3.514   2.232   5.294  2.1513 -0.9414  1.1177
 6853SOL     OW32194   3.464   4.064  12.233  0.3902 -0.1070 -0.3052
 6853SOL    HW132195   3.504   4.066  12.146  0.4875 -0.4095 -0.2668
 6853SOL    HW232196   3.425   4.151  12.246 -0.3178 -0.4531 -0.1174
 6854SOL     OW32197   1.244   1.839   6.599  0.5805  0.4758  0.6462
 6854SOL    HW132198   1.210   1.896   6.667  1.3032  1.5872  0.0703
 6854SOL    HW232199   1.193   1.872   6.525  0.2549 -1.7120 -0.1220
 6855SOL     OW32200   3.302   2.063   4.086 -0.0766  0.1309  0.2687
 6855SOL    HW132201   3.283   1.997   4.020 -0.8995  0.8369 -0.2089
 6855SOL    HW232202   3.370   2.114   4.042  1.8637 -0.0801  3.0397
 6856SOL     OW32203   0.664   4.670   9.505  0.2016  0.2039 -0.6040
 6856SOL    HW132204   0.592   4.676   9.568 -0.9620  1.3225 -2.0598
 6856SOL    HW232205   0.689   0.027   9.489  0.9014 -0.2237 -1.9849
 6857SOL     OW32206   3.551   3.388   4.494 -0.1764 -0.5607 -0.3471
 6857SOL    HW132207   3.579   3.441   4.419 -0.3717 -0.4934 -0.3714
 6857SOL    HW232208   3.468   3.429   4.517 -0.3439  0.0561 -2.0657
 6858SOL     OW32209   0.337   3.903  14.499  0.4224  0.4096  0.0911
 6858SOL    HW132210   0.341   3.808  14.510 -1.4071  0.0632 -2.2579
 6858SOL    HW232211   0.430   3.922  14.492  0.2104  1.6583  0.6604
 6859SOL     OW32212   4.634   1.585   3.227 -0.4831  0.4700 -0.0176
 6859SOL    HW132213   4.567   1.547   3.284 -1.1895 -1.8028 -2.3686
 6859SOL    HW232214   4.582   1.652   3.183 -0.2417  0.6724  0.0010
 6860SOL     OW32215   3.674   3.730   2.518  0.1533 -0.0725 -0.2501
 6860SOL    HW132216   3.684   3.667   2.588  1.4353  0.4316  0.0198
 6860SOL    HW232217   3.583   3.711   2.495  0.1248 -0.8820  0.5442
 6861SOL     OW32218   4.250   2.339   8.840  0.0331 -0.8228 -0.1342
 6861SOL    HW132219   4.215   2.339   8.929 -0.1287  0.1144 -0.1987
 6861SOL    HW232220   4.234   2.252   8.805  1.3959 -0.1734 -2.4323
 6862SOL     OW32221   0.318   1.986   2.907 -0.5396  0.3837  0.1823
 6862SOL    HW132222   0.350   2.046   2.974 -0.9886  0.1497  0.6030
 6862SOL    HW232223   0.232   2.027   2.907 -0.7563 -0.0658  0.4153
 6863SOL     OW32224   4.238   1.556   6.405  0.6294 -0.1304 -0.1939
 6863SOL    HW132225   4.179   1.624   6.438  0.1258  0.2255 -1.7849
 6863SOL    HW232226   4.318   1.609   6.405  0.8228 -0.4252 -0.2052
 6864SOL     OW32227   4.099   3.297  10.016 -0.3179  0.4913 -0.1410
 6864SOL    HW132228   4.123   3.297   9.923  0.7267 -1.0050  0.1490
 6864SOL    HW232229   4.062   3.386  10.021 -2.5457 -0.3421 -1.3672
 6865SOL     OW32230   0.469   1.228   6.250  0.8392 -0.4507  0.2160
 6865SOL    HW132231   0.561   1.206   6.261  0.9700 -1.2490 -2.4246
 6865SOL    HW232232   0.477   1.321   6.225  0.6451 -0.5237 -0.1165
 6866SOL     OW32233   0.207   1.289   2.471  0.5122  0.2527  0.4273
 6866SOL    HW132234   0.143   1.360   2.465 -0.0357 -0.0606  2.9004
 6866SOL    HW232235   0.264   1.333   2.534  2.2680 -1.2551 -0.0897
 6867SOL     OW32236   4.166   0.759   8.292  0.1708 -0.0720 -0.3503
 6867SOL    HW132237   4.081   0.749   8.249  1.9216 -0.6391 -3.5893
 6867SOL    HW232238   4.190   0.836   8.240  0.1193  0.0407 -0.2090
 6868SOL     OW32239   0.628   0.471   6.216 -0.3505 -0.2040  0.5488
 6868SOL    HW132240   0.677   0.518   6.284 -1.3643 -0.1141  1.2077
 6868SOL    HW232241   0.602   0.540   6.155 -0.6660 -0.9887 -0.2080
 6869SOL     OW32242   3.994   2.226  16.296 -0.3307 -0.0970  0.5547
 6869SOL    HW132243   4.035   2.195  16.377 -0.5720  2.7941  1.8022
 6869SOL    HW232244   4.066   2.218  16.234 -2.2499 -0.4375 -1.6085
 6870SOL     OW32245   1.151   2.270   1.761 -0.0900  1.2012 -0.2509
 6870SOL    HW132246   1.059   2.254   1.742 -0.0194 -2.3387  2.3299
 6870SOL    HW232247   1.196   2.185   1.761  0.8925  1.7159 -0.3721
 6871SOL     OW32248   2.387   2.242   7.831  0.0726 -0.1506  0.0473
 6871SOL    HW132249   2.409   2.171   7.771 -0.1847 -1.0070  0.9650
 6871SOL    HW232250   2.408   2.207   7.917 -0.2312  0.0010  0.1844
 6872SOL     OW32251   2.356   1.494   2.906 -0.3766  0.2988  0.1120
 6872SOL    HW132252   2.305   1.507   2.826  1.4633 -3.7186 -1.6718
 6872SOL    HW232253   2.421   1.437   2.866  1.1028  0.7069  1.9088
 6873SOL     OW32254   1.945   0.109   7.939 -0.3315 -0.6325  0.2167
 6873SOL    HW132255   2.017   0.085   7.880 -2.0279 -0.1040 -2.0592
 6873SOL    HW232256   1.929   0.203   7.934 -0.7479 -0.6525  1.3336
 6874SOL     OW32257   3.338   2.519  15.250  0.2885 -0.0106 -0.2037
 6874SOL    HW132258   3.293   2.603  15.242 -1.6725 -1.1431 -1.3044
 6874SOL    HW232259   3.291   2.481  15.324  1.0521 -1.2431 -0.3438
 6875SOL     OW32260   1.521   0.660   5.431  0.4333  0.1372 -0.1770
 6875SOL    HW132261   1.587   0.702   5.376  0.7024 -0.4981 -0.3419
 6875SOL    HW232262   1.592   0.605   5.463 -0.7705 -2.7752 -2.4840
 6876SOL     OW32263   2.943   2.481  11.662  0.0599  0.0908  0.0691
 6876SOL    HW132264   2.968   2.522  11.579  2.1400  0.9264  1.1220
 6876SOL    HW232265   2.860   2.527  11.677  0.2669  0.3766  0.3526
 6877SOL     OW32266   2.254   0.651  16.728  0.2267 -0.4888 -0.7615
 6877SOL    HW132267   2.253   0.668  16.634  2.1483  1.9994 -0.3292
 6877SOL    HW232268   2.202   0.727  16.755 -0.8585 -1.4241 -0.2659
 6878SOL     OW32269   2.430   1.921  11.903  0.0690  0.2581 -0.4577
 6878SOL    HW132270   2.448   2.012  11.926  1.2201  0.3800 -1.8620
 6878SOL    HW232271   2.521   1.894  11.914 -0.1513 -0.3115  0.0073
 6879SOL     OW32272   0.387   3.888   7.203  0.0022  0.6460  0.1535
 6879SOL    HW132273   0.336   3.933   7.135 -2.4165 -0.6246  1.1517
 6879SOL    HW232274   0.314   3.845   7.247 -1.0856  0.6245 -1.6387
 6880SOL     OW32275   1.963   3.557  14.932 -0.6390 -0.3918  0.0111
 6880SOL    HW132276   2.017   3.529  15.006 -0.2396  0.6004  0.0823
 6880SOL    HW232277   2.019   3.613  14.879  2.3925 -3.1287  0.3005
 6881SOL     OW32278   1.779   4.047   9.865 -0.3727 -0.6602 -0.7269
 6881SOL    HW132279   1.870   4.074   9.873 -1.1623  1.3515  1.4872
 6881SOL    HW232280   1.746   4.136   9.872 -2.8630 -1.3600 -3.8457
 6882SOL     OW32281   1.585   0.352   5.019  0.2812 -0.7117 -0.0616
 6882SOL    HW132282   1.554   0.399   4.942 -0.5268  1.9968  1.9423
 6882SOL    HW232283   1.591   0.265   4.979 -0.0678 -0.5588 -0.4377
 6883SOL     OW32284   1.605   2.941   4.910 -0.4034  0.3306 -0.6616
 6883SOL    HW132285   1.542   2.947   4.982  1.2200  0.7096  0.7085
 6883SOL    HW232286   1.596   2.849   4.886  2.4793  0.0160 -0.5475
 6884SOL     OW32287   0.301   1.072   0.802  0.0870  0.0461 -0.1661
 6884SOL    HW132288   0.263   1.010   0.740  0.4998  0.5131 -0.8826
 6884SOL    HW232289   0.360   1.122   0.745 -3.2764  2.4611 -1.4966
 6885SOL     OW32290   0.360   3.245   8.638  0.1969  0.3401  0.0263
 6885SOL    HW132291   0.297   3.180   8.668  1.7786 -1.0087  0.4414
 6885SOL    HW232292   0.439   3.236   8.693 -0.6049  0.1148  1.1502
 6886SOL     OW32293   3.847   2.530   8.193 -0.2979  0.5794  0.3308
 6886SOL    HW132294   3.878   2.445   8.221 -1.5749 -0.3238 -1.0068
 6886SOL    HW232295   3.908   2.593   8.232  1.0685 -0.9515  0.6126
 6887SOL     OW32296   0.936   4.067  17.021 -0.1552 -0.1531  0.3544
 6887SOL    HW132297   0.920   4.160  17.005  2.0205  0.3690  1.1947
 6887SOL    HW232298   0.853   4.028  16.993  0.9060 -0.5730 -2.2817
 6888SOL     OW32299   3.587   3.085   1.360  1.0103  0.0455 -0.3232
 6888SOL    HW132300   3.611   3.071   1.269  0.8989 -1.1125 -0.1650
 6888SOL    HW232301   3.666   3.121   1.400 -0.0140  0.5562  1.2412
 6889SOL     OW32302   3.653   3.812   1.536 -0.5969  1.0996  0.5604
 6889SOL    HW132303   3.631   3.843   1.624 -1.5961  0.0445  0.6669
 6889SOL    HW232304   3.604   3.730   1.533  0.1915  0.5948  1.2558
 6890SOL     OW32305   3.145   4.192  13.576 -0.2185 -0.2403  0.1232
 6890SOL    HW132306   3.052   4.169  13.575 -0.4271  0.5778  0.5633
 6890SOL    HW232307   3.172   4.149  13.495  2.3136  0.1295  0.7673
 6891SOL     OW32308   1.483   3.644   4.592  0.3594 -0.5529 -0.2707
 6891SOL    HW132309   1.415   3.648   4.525  0.6310 -1.0446 -0.5805
 6891SOL    HW232310   1.546   3.588   4.546 -0.0562 -1.3581  0.1280
 6892SOL     OW32311   4.587   2.451   7.839  0.2941  0.2788  0.2633
 6892SOL    HW132312   4.577   2.401   7.920  2.5960 -0.7523 -0.0850
 6892SOL    HW232313   4.501   2.436   7.801  0.8328 -0.1914 -0.7643
 6893SOL     OW32314   4.629   4.299  12.252 -0.1612  0.0922 -0.3910
 6893SOL    HW132315   4.599   4.389  12.245 -3.0103 -0.7864  0.1184
 6893SOL    HW232316   4.713   4.301  12.207 -0.8146  1.4344 -1.5493
 6894SOL     OW32317   1.728   3.370   3.036 -0.1225  1.0280  0.4622
 6894SOL    HW132318   1.789   3.364   3.109  0.6492  0.1932 -0.2453
 6894SOL    HW232319   1.650   3.400   3.083  0.2873 -1.5240  2.7607
 6895SOL     OW32320   0.741   4.352  13.371  0.0105  0.4398 -0.1761
 6895SOL    HW132321   0.739   4.279  13.309  2.5169  1.1186 -1.0444
 6895SOL    HW232322   0.649   4.380  13.369  0.3251  1.5376  1.0650
 6896SOL     OW32323   4.379   1.213   1.987  0.3908  0.6031 -0.1309
 6896SOL    HW132324   4.416   1.186   2.071 -0.8935  0.9569  0.5482
 6896SOL    HW232325   4.411   1.303   1.974  1.0974  0.0706 -2.0536
 6897SOL     OW32326   1.199   1.090   7.251 -0.3255  0.3078  0.0199
 6897SOL    HW132327   1.279   1.126   7.211 -0.3443  1.6708  1.2396
 6897SOL    HW232328   1.193   1.150   7.324  1.6314  1.9842 -1.2112
 6898SOL     OW32329   2.216   1.829  14.786 -0.1099  0.2903 -0.6778
 6898SOL    HW132330   2.127   1.864  14.775 -0.6389 -0.3515  1.6894
 6898SOL    HW232331   2.200   1.743  14.747 -0.7043  0.1752 -0.1738
 6899SOL     OW32332   2.595   3.367  16.716 -0.6206  0.4049 -0.4097
 6899SOL    HW132333   2.533   3.321  16.773  2.2885 -0.1497  2.3300
 6899SOL    HW232334   2.667   3.378  16.779  0.6556  0.3140 -1.8552
 6900SOL     OW32335   4.634   2.735   2.837 -0.7637  0.2532 -0.1514
 6900SOL    HW132336   4.688   2.813   2.842 -0.4099  0.0126 -0.2268
 6900SOL    HW232337   4.554   2.771   2.877  0.2886  2.1477  0.2264
 6901SOL     OW32338   4.617   4.105   4.216 -0.2467 -0.1823 -0.2471
 6901SOL    HW132339   4.599   4.060   4.299  0.6135  0.7018  0.4161
 6901SOL    HW232340   4.537   4.154   4.197 -1.4222 -1.2032  2.0809
 6902SOL     OW32341   0.122   2.127   0.790 -0.1106  0.2104  0.1161
 6902SOL    HW132342   0.151   2.202   0.842  0.7791  0.3690 -0.6153
 6902SOL    HW232343   0.053   2.158   0.731  0.1239 -1.4250 -1.0143
 6903SOL     OW32344   3.327   0.411   2.246 -0.1935  0.0396  0.3223
 6903SOL    HW132345   3.273   0.336   2.271  0.5156 -0.4607  0.3811
 6903SOL    HW232346   3.330   0.454   2.332  1.0571  0.6065 -0.0087
 6904SOL     OW32347   3.096   3.585  10.767 -0.1753 -0.0239 -0.6661
 6904SOL    HW132348   3.120   3.509  10.820 -3.3764  0.6841  1.7563
 6904SOL    HW232349   3.151   3.569  10.689 -0.6420 -0.8472 -0.8237
 6905SOL     OW32350   1.300   0.674   8.233  0.6116 -0.0956  0.1757
 6905SOL    HW132351   1.321   0.661   8.141  1.8947 -4.4817  1.1016
 6905SOL    HW232352   1.242   0.749   8.220  0.8128 -0.2403 -1.5731
 6906SOL     OW32353   3.383   1.528  16.202 -0.2816 -0.1443 -0.3196
 6906SOL    HW132354   3.452   1.467  16.174  0.3986  0.3179  0.3462
 6906SOL    HW232355   3.321   1.521  16.130 -0.2184 -1.3288 -0.2576
 6907SOL     OW32356   0.160   0.162  12.579  0.5986  0.0070 -0.2897
 6907SOL    HW132357   0.196   0.245  12.546 -3.1303  2.7612  2.4881
 6907SOL    HW232358   0.108   0.195  12.653 -0.9979 -1.9437 -0.5770
 6908SOL     OW32359   3.431   0.965   2.395 -0.3413  0.2689  0.7798
 6908SOL    HW132360   3.458   0.922   2.477 -0.8881 -2.6247 -0.5753
 6908SOL    HW232361   3.440   1.057   2.422 -4.0352  0.8841 -0.0225
 6909SOL     OW32362   4.171   4.207   3.525  0.3175  0.0339  0.3560
 6909SOL    HW132363   4.215   4.226   3.608  1.1656  2.3919 -0.6381
 6909SOL    HW232364   4.246   4.242   3.477  0.1834 -0.0555  0.0828
 6910SOL     OW32365   2.366   0.102  16.652 -0.5443  0.2306  0.8138
 6910SOL    HW132366   2.366   0.107  16.556  2.0589 -1.1841  0.7590
 6910SOL    HW232367   2.458   0.113  16.676 -0.8360  0.7872  1.6814
 6911SOL     OW32368   4.311   0.768   5.747  0.0048  0.2556 -0.0453
 6911SOL    HW132369   4.343   0.808   5.666 -0.1809 -0.7556 -0.6077
 6911SOL    HW232370   4.261   0.694   5.713 -0.5643  1.8393 -2.6659
 6912SOL     OW32371   1.936   1.820   5.620 -0.0519 -0.1988  0.2578
 6912SOL    HW132372   1.931   1.828   5.716 -0.5417 -1.4052  0.3386
 6912SOL    HW232373   1.879   1.744   5.610 -2.0425  1.4313 -0.7042
 6913SOL     OW32374   0.303   0.149  17.047  0.5435 -0.0955 -0.3563
 6913SOL    HW132375   0.366   0.154  16.974  0.6141 -0.1329 -0.2984
 6913SOL    HW232376   0.340   0.079  17.101  0.5529 -0.7801 -1.2428
 6914SOL     OW32377   3.561   2.046   9.896 -0.2900 -0.7189 -0.5188
 6914SOL    HW132378   3.508   2.051   9.816 -1.4837 -0.3571  0.2839
 6914SOL    HW232379   3.521   2.120   9.941 -0.6035  0.6204 -3.0117
 6915SOL     OW32380   2.904   1.928  15.715  0.0232 -0.0342  0.3414
 6915SOL    HW132381   2.816   1.942  15.750  0.6846 -2.2634  2.8329
 6915SOL    HW232382   2.903   1.838  15.682  2.7516  0.4123 -0.9595
 6916SOL     OW32383   3.881   4.034   4.036  0.0034 -0.3344 -0.4052
 6916SOL    HW132384   3.948   4.056   3.971 -1.2459  0.9459 -1.2446
 6916SOL    HW232385   3.815   4.001   3.976  0.0185 -1.5535  0.2463
 6917SOL     OW32386   4.046   0.580   3.700 -0.2095  0.2306 -0.2425
 6917SOL    HW132387   4.136   0.603   3.677  0.1445 -3.8813 -3.0081
 6917SOL    HW232388   4.039   0.490   3.668 -0.9850  0.4125 -0.5753
 6918SOL     OW32389   1.362   3.449   7.862  0.3789  0.3360 -0.0278
 6918SOL    HW132390   1.367   3.356   7.882  0.5595  0.1406 -0.9921
 6918SOL    HW232391   1.381   3.482   7.949 -2.1818 -0.0495  0.6771
 6919SOL     OW32392   2.600   1.708   5.436 -0.5704 -0.0378 -0.1174
 6919SOL    HW132393   2.655   1.780   5.405 -0.9638  0.4116  0.2272
 6919SOL    HW232394   2.548   1.695   5.356 -0.9716 -1.2732  0.3477
 6920SOL     OW32395   4.575   2.403   1.871  0.2172 -0.2251  0.1574
 6920SOL    HW132396   4.496   2.421   1.921  0.3320  1.1905 -0.1742
 6920SOL    HW232397   4.619   2.339   1.926  0.0687 -0.2866  0.2056
 6921SOL     OW32398   2.788   3.944   2.187  0.5994  0.2043  0.0119
 6921SOL    HW132399   2.726   3.900   2.245  1.2921 -0.3518  0.3391
 6921SOL    HW232400   2.817   3.874   2.128 -0.7213 -0.1393 -0.2174
 6922SOL     OW32401   0.977   0.369   3.436 -0.1301  0.0546  0.0147
 6922SOL    HW132402   0.993   0.382   3.343 -1.2516 -0.6438 -0.2728
 6922SOL    HW232403   1.048   0.307   3.449  1.2977  1.0877 -3.0205
 6923SOL     OW32404   3.320   3.058  17.449  0.3404  0.1127 -0.0966
 6923SOL    HW132405   3.358   2.973  17.471  0.3635 -0.1378 -1.0744
 6923SOL    HW232406   3.285   3.039  17.362 -1.7195 -1.8821  1.1512
 6924SOL     OW32407   3.688   0.967   2.258  0.2284 -0.7486 -0.7069
 6924SOL    HW132408   3.604   0.971   2.305  1.3096 -3.9506  1.4969
 6924SOL    HW232409   3.697   1.058   2.228 -0.3252 -0.9796 -1.5453
 6925SOL     OW32410   0.774   2.350   7.345  0.1180  0.0132 -0.7388
 6925SOL    HW132411   0.711   2.390   7.285 -2.2721 -1.9257  0.4677
 6925SOL    HW232412   0.811   2.421   7.398  1.7057 -2.1916  1.1590
 6926SOL     OW32413   3.399   2.895   7.601 -0.3653  0.1129 -0.5525
 6926SOL    HW132414   3.417   2.924   7.691 -0.6029 -2.8283  0.4692
 6926SOL    HW232415   3.316   2.849   7.609 -0.2443 -0.1611 -0.8720
 6927SOL     OW32416   1.339   3.678  10.626  0.6684  0.0925  0.1525
 6927SOL    HW132417   1.354   3.764  10.665  0.2674  1.3589 -2.4595
 6927SOL    HW232418   1.369   3.701  10.538  0.2930  0.9894  0.2627
 6928SOL     OW32419   2.546   3.129   9.270 -0.8585 -0.5956 -0.0045
 6928SOL    HW132420   2.536   3.061   9.203 -0.2318  1.2825 -1.9958
 6928SOL    HW232421   2.570   3.067   9.339  0.1735  2.3274  2.2139
 6929SOL     OW32422   3.198   0.957  11.354 -0.2846  0.4524 -0.4661
 6929SOL    HW132423   3.133   1.027  11.343 -1.1800 -0.8633 -3.4753
 6929SOL    HW232424   3.150   0.883  11.317  0.0803  0.7975 -1.6111
 6930SOL     OW32425   3.015   0.638  13.569  0.3029 -0.0557  0.3709
 6930SOL    HW132426   2.927   0.619  13.537  0.4980  0.7398 -0.6616
 6930SOL    HW232427   2.996   0.678  13.654 -0.7667 -1.6365  0.8822
 6931SOL     OW32428   0.488   2.274   8.712 -0.1007  0.3831 -0.2472
 6931SOL    HW132429   0.468   2.188   8.749 -0.1916  0.2185 -0.6868
 6931SOL    HW232430   0.549   2.238   8.647 -0.6573 -0.3160 -0.3772
 6932SOL     OW32431   2.186   1.358   2.585  0.2519 -0.3754  0.0415
 6932SOL    HW132432   2.255   1.308   2.629  1.2025  0.9744  0.0602
 6932SOL    HW232433   2.171   1.291   2.517  0.8407 -0.7474  0.2772
 6933SOL     OW32434   1.153   4.398   0.245 -0.0993  0.4396  0.2640
 6933SOL    HW132435   1.103   4.443   0.313 -2.2157 -1.8326  0.1880
 6933SOL    HW232436   1.116   4.310   0.248 -0.3308  0.5391  0.3165
 6934SOL     OW32437   2.783   1.002   2.989 -0.3493  0.3310 -0.1494
 6934SOL    HW132438   2.775   1.030   3.080  1.4673  0.7103 -0.0924
 6934SOL    HW232439   2.867   1.047   2.977 -0.5036  0.3292 -1.2116
 6935SOL     OW32440   2.103   2.105   2.103 -0.1541 -0.0144 -0.6427
 6935SOL    HW132441   2.105   2.012   2.129  0.5655  0.8990  2.5472
 6935SOL    HW232442   2.153   2.139   2.177 -1.6309 -0.4787  0.5762
 6936SOL     OW32443   1.252   1.365   1.282 -0.3467 -0.0087  0.2762
 6936SOL    HW132444   1.171   1.317   1.301 -0.0809 -0.7850 -0.5135
 6936SOL    HW232445   1.311   1.304   1.326  0.6049 -0.6514 -1.8774
 6937SOL     OW32446   4.718   3.767  10.142 -0.0239  0.2022 -0.2811
 6937SOL    HW132447   4.703   3.842  10.084 -0.5261  0.8695  0.7178
 6937SOL    HW232448   4.626   3.748  10.161  0.2243  0.3187  1.0655
 6938SOL     OW32449   2.919   2.313   5.163 -0.1657  0.4123 -0.1754
 6938SOL    HW132450   2.998   2.327   5.111  1.4301 -0.5253  1.9946
 6938SOL    HW232451   2.952   2.280   5.247  0.4695  3.7069  0.8556
 6939SOL     OW32452   0.326   2.962   3.038  0.0885  0.3245 -0.1218
 6939SOL    HW132453   0.310   2.941   3.130 -1.5722 -1.2049 -0.7533
 6939SOL    HW232454   0.329   2.875   2.998  3.1943  0.1408  0.5577
 6940SOL     OW32455   3.240   2.396  14.999 -0.7983 -0.6244  0.5550
 6940SOL    HW132456   3.294   2.360  15.069 -0.7310  0.2086  0.9351
 6940SOL    HW232457   3.155   2.413  15.039 -1.3900 -0.4654 -0.7659
 6941SOL     OW32458   0.955   0.691   4.200  0.0144  0.7135 -0.0168
 6941SOL    HW132459   1.034   0.637   4.201  0.6378  1.6332  0.9019
 6941SOL    HW232460   0.990   0.771   4.161  1.6185 -0.5754 -1.1760
 6942SOL     OW32461   2.790   3.991   0.185 -0.5586  0.4893  0.0866
 6942SOL    HW132462   2.852   4.019   0.117 -0.2175  1.0758  0.6348
 6942SOL    HW232463   2.855   3.986   0.255  0.6594  0.7896 -1.0087
 6943SOL     OW32464   0.664   0.314   4.504 -0.8789  0.1018 -0.1072
 6943SOL    HW132465   0.599   0.249   4.529 -0.4301  0.1098  1.0983
 6943SOL    HW232466   0.654   0.373   4.579 -2.1556  1.6760 -1.5317
 6944SOL     OW32467   2.409   3.315   5.115  0.1565  0.0904  0.2867
 6944SOL    HW132468   2.428   3.273   5.199 -1.1191  1.2414  1.1497
 6944SOL    HW232469   2.371   3.242   5.066  2.7504 -0.5649 -0.7575
 6945SOL     OW32470   1.188   1.600   1.771  0.4709  0.3922 -0.9572
 6945SOL    HW132471   1.138   1.542   1.829  1.1427 -0.1607 -0.9389
 6945SOL    HW232472   1.127   1.606   1.698 -1.2852 -1.7554  0.3147
 6946SOL     OW32473   2.034   3.389   7.133  0.0995 -0.0161 -0.5920
 6946SOL    HW132474   2.074   3.475   7.126  0.0890  0.1299  1.2839
 6946SOL    HW232475   2.091   3.347   7.198  0.9523 -0.6093 -1.7167
 6947SOL     OW32476   0.071   0.938   6.206 -0.4360 -0.5517  0.2875
 6947SOL    HW132477   0.144   0.994   6.231 -1.3559  1.1258 -0.7828
 6947SOL    HW232478   4.732   1.000   6.214 -0.2126 -0.7352  4.1175
 6948SOL     OW32479   1.661   1.320   6.710 -0.0615  0.1817  0.1242
 6948SOL    HW132480   1.569   1.339   6.729  0.0699 -0.7798  1.7723
 6948SOL    HW232481   1.698   1.308   6.797 -1.0818  1.0909  0.6829
 6949SOL     OW32482   3.582   4.620  11.834  0.3367 -0.2393 -0.1021
 6949SOL    HW132483   3.565   4.709  11.803 -1.5437 -1.2458 -1.9444
 6949SOL    HW232484   3.664   4.649  11.873  0.3122  0.1699 -0.3456
 6950SOL     OW32485   2.631   1.205   2.357 -0.1440 -0.3814 -0.5894
 6950SOL    HW132486   2.724   1.218   2.340  0.0916  0.5116  1.4487
 6950SOL    HW232487   2.603   1.296   2.346 -0.8323 -0.3807  1.2554
 6951SOL     OW32488   1.776   2.836   8.068 -0.3373 -0.6235 -0.5640
 6951SOL    HW132489   1.748   2.928   8.062 -2.0704 -1.0714  0.4852
 6951SOL    HW232490   1.800   2.827   7.976  1.1127  1.2763 -0.3935
 6952SOL     OW32491   2.304   3.746  13.805 -0.4100  0.6470 -0.4330
 6952SOL    HW132492   2.294   3.663  13.851  1.1714 -0.0568 -1.3772
 6952SOL    HW232493   2.276   3.726  13.716  0.7839 -1.0581 -0.4335
 6953SOL     OW32494   2.530   4.498   3.361  0.0490  0.2926 -0.5353
 6953SOL    HW132495   2.617   4.514   3.396 -0.7142  1.3582  0.8593
 6953SOL    HW232496   2.475   4.566   3.399 -0.2152 -0.4698  0.4261
 6954SOL     OW32497   1.427   3.258   5.142 -0.4818 -0.3735 -0.1258
 6954SOL    HW132498   1.396   3.203   5.071  0.9622  1.1026 -1.8926
 6954SOL    HW232499   1.497   3.305   5.096 -0.2639 -1.7924 -1.2309
 6955SOL     OW32500   2.963   0.117   5.297 -0.2601  0.3881  0.6037
 6955SOL    HW132501   2.882   0.089   5.253 -1.4656  1.1000  2.3976
 6955SOL    HW232502   2.922   0.113   5.383  1.0378 -2.6175  1.0798
 6956SOL     OW32503   1.369   1.472   6.243  0.5329 -0.3629  0.1098
 6956SOL    HW132504   1.456   1.476   6.204 -0.9051  1.8608 -2.7827
 6956SOL    HW232505   1.377   1.563   6.272  0.1115  0.1077 -1.2696
 6957SOL     OW32506   0.074   3.563   4.990  0.0015 -0.6959  0.0200
 6957SOL    HW132507   0.056   3.634   4.928  0.0874 -0.6060  0.0988
 6957SOL    HW232508   0.068   3.500   4.918  2.3230 -0.9572  0.0566
 6958SOL     OW32509   3.841   3.804  17.561 -0.3265 -0.1429  0.0864
 6958SOL    HW132510   3.800   3.868  17.503 -0.5940  0.8701  1.3835
 6958SOL    HW232511   3.765   3.782  17.615  0.7655 -1.9488  0.8914
 6959SOL     OW32512   1.069   0.360   1.956  0.0488 -0.6947 -0.5251
 6959SOL    HW132513   1.001   0.322   2.011  0.4469  1.1117  1.2278
 6959SOL    HW232514   1.115   0.415   2.019  0.0990 -1.0547 -0.2540
 6960SOL     OW32515   3.160   3.996  12.438  0.2551  0.0037  0.6032
 6960SOL    HW132516   3.076   3.951  12.431  0.2101  0.3592 -1.0912
 6960SOL    HW232517   3.206   3.971  12.358 -3.0146 -3.2381 -0.2438
 6961SOL     OW32518   2.338   0.111   8.799  0.0106 -0.0235 -0.5548
 6961SOL    HW132519   2.392   0.187   8.823 -0.5283 -0.0331  0.6449
 6961SOL    HW232520   2.264   0.127   8.857 -0.6496 -1.1172 -1.0933
 6962SOL     OW32521   0.083   3.607   9.353 -0.6042  0.0271 -0.0425
 6962SOL    HW132522   0.039   3.630   9.272  0.4343  0.2408 -0.5525
 6962SOL    HW232523   0.100   3.691   9.397  0.7701  0.1732 -0.8332
 6963SOL     OW32524   1.098   3.091   9.755  0.2588 -0.1082  0.0749
 6963SOL    HW132525   1.120   3.044   9.835  1.6866 -1.5453 -1.1677
 6963SOL    HW232526   1.045   3.156   9.800 -1.4673 -0.8864 -0.8240
 6964SOL     OW32527   1.633   2.013   7.215 -0.3602 -0.0324 -0.5142
 6964SOL    HW132528   1.631   2.062   7.132  0.4821 -0.3097 -0.6935
 6964SOL    HW232529   1.674   1.934   7.181  1.4238 -1.0401  4.1027
 6965SOL     OW32530   4.359   2.480  12.375 -0.0728 -0.2768 -0.0661
 6965SOL    HW132531   4.418   2.532  12.430 -1.4708  1.5043 -0.2444
 6965SOL    HW232532   4.394   2.509  12.290 -1.0011 -0.2941 -0.4538
 6966SOL     OW32533   0.500   3.847  13.338  0.2453 -0.5655  0.2887
 6966SOL    HW132534   0.453   3.765  13.351 -1.5271  0.6492  1.5174
 6966SOL    HW232535   0.448   3.875  13.263  1.3492  0.6415 -0.0427
 6967SOL     OW32536   1.220   1.002   4.880  0.0973  0.0593  0.1648
 6967SOL    HW132537   1.154   0.965   4.822  0.6928 -1.2394  0.3078
 6967SOL    HW232538   1.260   0.921   4.912  0.0143  0.2605  0.7822
 6968SOL     OW32539   0.739   0.330   6.443 -0.0412  0.4200 -0.4069
 6968SOL    HW132540   0.804   0.336   6.373  0.1085  0.9496 -0.2266
 6968SOL    HW232541   0.662   0.371   6.403 -0.8297 -2.2609 -1.5832
 6969SOL     OW32542   0.881   0.933   1.892  0.4020  0.5952 -0.5716
 6969SOL    HW132543   0.922   0.848   1.903  0.6875  1.1560  2.9215
 6969SOL    HW232544   0.859   0.929   1.799 -1.4677 -1.3054 -0.0340
 6970SOL     OW32545   1.448   0.933   6.647 -0.2142 -0.2749 -0.1197
 6970SOL    HW132546   1.475   0.851   6.606  2.5299 -0.1398  1.4178
 6970SOL    HW232547   1.491   1.002   6.596  0.1361 -0.7961 -0.5259
 6971SOL     OW32548   4.259   2.197  16.176 -0.4909 -0.1291  0.3867
 6971SOL    HW132549   4.256   2.201  16.080  0.1269 -0.0996  0.3657
 6971SOL    HW232550   4.354   2.186  16.172 -0.4580  0.4061 -0.3383
 6972SOL     OW32551   0.972   4.287  17.481  0.9838 -0.1463  0.3051
 6972SOL    HW132552   0.895   4.335  17.452  1.3489 -0.3570 -1.0341
 6972SOL    HW232553   0.967   4.207  17.428  2.2695 -0.7793  1.1385
 6973SOL     OW32554   1.337   4.719   5.090 -0.5870 -0.2576  0.4276
 6973SOL    HW132555   1.373   4.659   5.155  0.9181  3.7219  3.2378
 6973SOL    HW232556   1.276   4.659   5.047  0.4813 -2.3471  1.8140
 6974SOL     OW32557   3.244   2.756   4.251 -0.2490 -0.3424 -0.4860
 6974SOL    HW132558   3.175   2.805   4.205 -2.1823 -3.7315 -1.1510
 6974SOL    HW232559   3.191   2.687   4.290  2.3354 -2.7442 -1.2542
 6975SOL     OW32560   2.448   4.350   0.494  0.4065  0.0426  0.0804
 6975SOL    HW132561   2.435   4.358   0.400 -0.1684  0.4840  0.1902
 6975SOL    HW232562   2.516   4.417   0.503  1.8421 -1.7107  2.2210
 6976SOL     OW32563   0.982   4.231  11.729  0.1772  0.3300  0.1372
 6976SOL    HW132564   1.067   4.200  11.698 -0.1606 -0.0286 -0.4145
 6976SOL    HW232565   1.001   4.229  11.823 -3.7881  0.4013  0.9389
 6977SOL     OW32566   2.295   0.986   6.840  0.4169  0.1742 -0.3022
 6977SOL    HW132567   2.337   1.019   6.920 -0.8828  1.9996 -0.3665
 6977SOL    HW232568   2.364   1.024   6.786  0.2243  1.7011  0.5227
 6978SOL     OW32569   2.474   4.052  17.630  0.1659  0.7053 -0.4215
 6978SOL    HW132570   2.380   4.066  17.638  0.1599  0.6080 -0.3161
 6978SOL    HW232571   2.503   4.088  17.714 -1.0795 -1.7265  1.0453
 6979SOL     OW32572   4.121   0.624  11.977  0.2122  0.1574 -0.1756
 6979SOL    HW132573   4.189   0.562  12.004  0.9438  1.3571  0.7569
 6979SOL    HW232574   4.148   0.663  11.893  1.7263  1.3099  0.8493
 6980SOL     OW32575   2.518   1.055   6.711 -0.2155 -0.1245 -0.1070
 6980SOL    HW132576   2.475   1.102   6.640  0.4837  0.7223  0.0323
 6980SOL    HW232577   2.540   0.972   6.668 -1.0755 -1.0359  1.2196
 6981SOL     OW32578   2.939   0.092   4.601 -0.9717 -0.4515  0.1476
 6981SOL    HW132579   2.850   0.059   4.610 -0.8865 -1.0522 -1.2329
 6981SOL    HW232580   2.985   0.034   4.661  0.7265  0.4656 -0.2599
 6982SOL     OW32581   1.204   4.491   0.925 -0.4377  0.4311  0.2768
 6982SOL    HW132582   1.191   4.436   0.849  2.2426 -0.0136  0.1367
 6982SOL    HW232583   1.111   4.508   0.940 -0.0564  1.3563  1.6340
 6983SOL     OW32584   0.284   2.266   5.228 -0.3475 -0.9067  0.7208
 6983SOL    HW132585   0.303   2.172   5.224  2.2489 -0.3717  0.5528
 6983SOL    HW232586   0.365   2.303   5.194 -0.4273  0.2742  1.7972
 6984SOL     OW32587   2.236   0.635   6.963  0.7771  0.0884 -0.0364
 6984SOL    HW132588   2.157   0.684   6.986  1.0520  0.1438  0.7775
 6984SOL    HW232589   2.213   0.548   6.996  0.0618 -0.7255 -2.7349
 6985SOL     OW32590   0.344   1.653  15.473  0.0618  0.0603 -0.1931
 6985SOL    HW132591   0.426   1.615  15.442  0.0287 -0.2888  0.1533
 6985SOL    HW232592   0.384   1.705  15.542 -3.6056  1.3480  0.9521
 6986SOL     OW32593   1.998   3.132   2.913  0.1107  0.0567  0.1247
 6986SOL    HW132594   2.026   3.216   2.876  2.8381 -1.6143 -1.6655
 6986SOL    HW232595   2.077   3.120   2.966  2.5014  3.2451 -2.6658
 6987SOL     OW32596   1.169   1.938  13.127  0.2051 -0.3974 -0.0671
 6987SOL    HW132597   1.138   2.015  13.177  0.1872 -1.0617  0.9480
 6987SOL    HW232598   1.257   1.929  13.163  0.0687 -0.5986  0.2204
 6988SOL     OW32599   4.487   3.955   5.831 -0.4878 -0.6165 -0.0813
 6988SOL    HW132600   4.525   3.974   5.917 -1.2224  1.6993 -0.2805
 6988SOL    HW232601   4.558   3.981   5.771 -0.5131 -0.5372 -0.0762
 6989SOL     OW32602   1.447   0.324   7.886 -0.0477 -0.1846  0.0102
 6989SOL    HW132603   1.480   0.248   7.838 -0.2150 -1.7837  2.4549
 6989SOL    HW232604   1.352   0.312   7.885  0.1235 -1.6302  1.0738
 6990SOL     OW32605   4.330   0.194   8.353 -0.4508 -0.5715  0.1182
 6990SOL    HW132606   4.303   0.272   8.402 -0.4310 -1.4905  1.6056
 6990SOL    HW232607   4.383   0.232   8.283  0.5952 -0.1862  1.1369
 6991SOL     OW32608   1.812   0.255   8.938  0.5448  0.4392  0.3049
 6991SOL    HW132609   1.853   0.336   8.909  1.5347 -0.9008 -2.0653
 6991SOL    HW232610   1.885   0.208   8.980  0.0196  0.1664  0.9057
 6992SOL     OW32611   1.964   2.578   6.637 -0.3148  0.0645 -0.1563
 6992SOL    HW132612   1.967   2.550   6.728 -1.1550 -2.3121 -0.8701
 6992SOL    HW232613   1.999   2.667   6.647 -0.2496  0.1476 -1.1433
 6993SOL     OW32614   2.972   2.883   1.319  0.8399  0.7428  1.2486
 6993SOL    HW132615   3.021   2.965   1.323  1.1988  0.7911 -4.0632
 6993SOL    HW232616   2.897   2.897   1.377  0.4293 -0.3646  0.9965
 6994SOL     OW32617   0.415   2.211   8.367 -0.1244 -0.5751  0.3833
 6994SOL    HW132618   0.390   2.244   8.280  1.2458 -1.6106 -0.4033
 6994SOL    HW232619   0.360   2.272   8.416  0.1544 -0.9218  1.1247
 6995SOL     OW32620   2.927   3.338   3.312  0.2142 -0.3320 -0.2344
 6995SOL    HW132621   2.968   3.271   3.367  2.1371 -0.3532 -1.6827
 6995SOL    HW232622   2.956   3.317   3.223 -2.9669  0.7577 -1.5181
 6996SOL     OW32623   0.287   0.607   2.342 -0.1070 -0.2805 -0.5339
 6996SOL    HW132624   0.318   0.663   2.414 -3.2505 -2.8072  2.8179
 6996SOL    HW232625   0.361   0.603   2.282  0.6695 -1.2701  0.4685
 6997SOL     OW32626   0.338   3.476   3.847 -0.5492  0.2972  0.1053
 6997SOL    HW132627   0.309   3.410   3.910  0.2242 -0.6636 -0.5536
 6997SOL    HW232628   0.345   3.425   3.766  1.3965  3.2571 -1.6198
 6998SOL     OW32629   0.872   4.293  17.727  0.0275 -0.1685  0.0655
 6998SOL    HW132630   0.819   4.213  17.734 -0.8395  0.5091  1.3013
 6998SOL    HW232631   0.905   4.282  17.638  1.9148 -2.0336  0.9995
 6999SOL     OW32632   1.587   2.874   4.307 -0.2653 -0.0595  0.3070
 6999SOL    HW132633   1.604   2.820   4.230 -0.7485 -1.2307  1.0106
 6999SOL    HW232634   1.675   2.912   4.304  0.1027 -0.9164  0.0502
 7000SOL     OW32635   3.254   2.778  15.496  0.0594  0.6092 -0.0269
 7000SOL    HW132636   3.206   2.806  15.418 -0.0547 -0.6642 -0.4200
 7000SOL    HW232637   3.289   2.851  15.547  1.0587  0.5725 -0.6549
 7001SOL     OW32638   2.717   0.277   7.248 -0.6932  0.1230  0.3782
 7001SOL    HW132639   2.799   0.236   7.277 -0.4948 -0.3336 -0.7876
 7001SOL    HW232640   2.659   0.273   7.323 -2.5929  1.5659 -1.0052
 7002SOL     OW32641   1.251   2.113  10.981 -0.3164  0.3922  0.3665
 7002SOL    HW132642   1.196   2.121  10.903 -0.6826 -2.9034  0.2682
 7002SOL    HW232643   1.333   2.122  10.933 -0.8203  0.0910 -0.5479
 7003SOL     OW32644   1.000   1.492   8.887 -0.0765 -0.6193 -0.2246
 7003SOL    HW132645   0.947   1.460   8.960  0.0095 -0.3308 -0.0368
 7003SOL    HW232646   1.044   1.410   8.868 -1.0597 -1.3700  0.7835
 7004SOL     OW32647   4.055   0.122   2.527  0.3949 -0.5659 -0.0929
 7004SOL    HW132648   4.151   0.120   2.526  0.2888 -4.8506 -0.5278
 7004SOL    HW232649   4.050   0.157   2.616 -0.0804  0.8846 -0.6839
 7005SOL     OW32650   0.797   3.070   6.735  0.3087  0.2826  0.1101
 7005SOL    HW132651   0.844   3.100   6.812  0.6992  0.9529 -0.3941
 7005SOL    HW232652   0.715   3.057   6.783  0.8429 -2.8498  0.1961
 7006SOL     OW32653   2.757   1.178   8.130  0.0786 -0.4231 -0.1620
 7006SOL    HW132654   2.703   1.126   8.071  0.3913 -0.2567 -0.5939
 7006SOL    HW232655   2.702   1.191   8.207  0.1556  1.2973 -0.3936
 7007SOL     OW32656   3.159   0.325   5.354  0.0535 -0.2404  0.8618
 7007SOL    HW132657   3.201   0.278   5.426  0.4362 -0.2833  0.6064
 7007SOL    HW232658   3.078   0.277   5.338 -0.0228  0.3761 -0.6378
 7008SOL     OW32659   1.925   0.860   6.593 -0.3500 -0.3285 -0.3114
 7008SOL    HW132660   1.876   0.939   6.574  3.4185  1.5117 -2.4526
 7008SOL    HW232661   1.984   0.886   6.663  0.3443 -2.3392 -0.1595
 7009SOL     OW32662   1.232   3.820  11.247  0.5627 -0.5478  0.4014
 7009SOL    HW132663   1.271   3.907  11.242  2.3763 -1.3477  0.4984
 7009SOL    HW232664   1.169   3.831  11.175  2.3496  1.5870 -0.8172
 7010SOL     OW32665   3.883   0.573   4.087  0.0260 -0.0254 -0.6834
 7010SOL    HW132666   3.791   0.588   4.110  0.4386 -0.6923  1.3890
 7010SOL    HW232667   3.900   0.483   4.115 -0.9978 -0.4160 -1.3216
 7011SOL     OW32668   1.143   0.132  11.796 -0.3326 -0.1483 -0.4770
 7011SOL    HW132669   1.216   0.194  11.795  2.2712 -3.2569 -0.4334
 7011SOL    HW232670   1.085   0.189  11.847  1.0043 -1.1736  2.1634
 7012SOL     OW32671   3.960   2.844  14.281  0.1948 -0.3231  0.3408
 7012SOL    HW132672   3.951   2.759  14.239  0.1707 -0.6836  1.0665
 7012SOL    HW232673   4.028   2.887  14.229 -0.4862  0.3972  0.0479
 7013SOL     OW32674   2.999   1.591  13.792  0.3496 -0.0922 -0.7441
 7013SOL    HW132675   2.908   1.617  13.805  0.7517  1.1062 -0.3625
 7013SOL    HW232676   3.021   1.530  13.863  0.5189 -0.2013 -0.8866
 7014SOL     OW32677   3.882   4.696   4.226 -0.4164 -0.5038 -0.3047
 7014SOL    HW132678   3.867   4.642   4.148  2.2008 -2.6306  0.6545
 7014SOL    HW232679   3.935   4.640   4.283 -1.1255 -2.2559 -1.3668
 7015SOL     OW32680   2.469   2.778   2.730  0.5247 -0.2105  0.6909
 7015SOL    HW132681   2.549   2.735   2.699  0.8635  1.6821 -1.0788
 7015SOL    HW232682   2.505   2.821   2.807  1.6383 -1.0250  0.6250
 7016SOL     OW32683   1.097   2.393   6.598  0.0644 -0.0882 -0.1243
 7016SOL    HW132684   1.024   2.443   6.562 -0.8855  0.2361  2.2532
 7016SOL    HW232685   1.133   2.457   6.660  1.0383 -0.5634 -0.1923
 7017SOL     OW32686   1.904   2.377   1.784 -0.0141 -0.3746  0.3255
 7017SOL    HW132687   1.814   2.393   1.755  0.3928  1.5814  0.1503
 7017SOL    HW232688   1.902   2.306   1.848 -1.7161 -1.1090 -0.5517
 7018SOL     OW32689   0.269   3.930   2.585  0.2152  0.1882  0.4248
 7018SOL    HW132690   0.193   3.968   2.628  0.4136  2.0473 -0.8606
 7018SOL    HW232691   0.274   3.983   2.505 -2.7959  1.4852  1.1045
 7019SOL     OW32692   4.533   3.311   2.388 -0.1884  0.4229  0.1908
 7019SOL    HW132693   4.510   3.403   2.377  1.2127  0.8051  0.4727
 7019SOL    HW232694   4.538   3.308   2.483 -0.7392 -0.0317  0.1981
 7020SOL     OW32695   4.214   0.407   2.588 -0.1164 -0.4837 -0.5037
 7020SOL    HW132696   4.216   0.461   2.509  2.1968 -0.5087 -0.4573
 7020SOL    HW232697   4.289   0.350   2.573  0.4762  0.2342 -0.2563
 7021SOL     OW32698   4.276   3.069   2.835 -0.2898 -0.0015  0.2918
 7021SOL    HW132699   4.330   3.053   2.757 -0.2322  2.0422 -0.0922
 7021SOL    HW232700   4.196   3.045   2.790 -0.8663  0.4714  1.0739
 7022SOL     OW32701   4.644   0.010   9.053 -0.3315 -0.3519  0.9733
 7022SOL    HW132702   4.612   4.658   9.079 -1.2856  0.3932  2.2621
 7022SOL    HW232703   4.585   0.029   8.979  0.1900 -0.1300  0.6137
 7023SOL     OW32704   2.663   3.104  16.316  0.0371  0.0484 -0.1825
 7023SOL    HW132705   2.648   3.161  16.392 -3.5416  0.9082 -1.5649
 7023SOL    HW232706   2.583   3.053  16.312  0.7215 -0.9706 -0.8038
 7024SOL     OW32707   1.999   3.599   2.400  1.2687 -0.5741  0.3638
 7024SOL    HW132708   2.058   3.524   2.397 -0.1930 -1.7417  0.8020
 7024SOL    HW232709   1.990   3.598   2.496  1.0579  0.7658  0.3543
 7025SOL     OW32710   3.855   3.132   9.902 -0.0388 -0.3203  0.3192
 7025SOL    HW132711   3.899   3.122   9.985 -0.4120 -0.1011  0.5460
 7025SOL    HW232712   3.776   3.081   9.921 -0.5761  1.2646  2.3091
 7026SOL     OW32713   3.105   1.479   2.726 -0.0133  0.0562  0.6083
 7026SOL    HW132714   3.140   1.466   2.638  0.7174  2.4941  0.5237
 7026SOL    HW232715   3.185   1.514   2.764  0.3755 -0.7309  0.5143
 7027SOL     OW32716   2.284   4.697   9.501  0.0432 -0.1096  0.0755
 7027SOL    HW132717   2.353   4.642   9.463 -0.8848 -1.9878  1.1257
 7027SOL    HW232718   2.337   0.004   9.570 -0.9519  1.1419  0.0854
 7028SOL     OW32719   0.604   2.837   9.567  0.3773 -0.1883 -0.4802
 7028SOL    HW132720   0.517   2.870   9.543 -0.8030 -0.5792  3.2263
 7028SOL    HW232721   0.658   2.878   9.499  0.5668 -4.4312 -2.8428
 7029SOL     OW32722   0.144   2.021   1.589  0.3467  0.3442  0.2564
 7029SOL    HW132723   0.067   1.997   1.537 -0.0202  1.2687  0.3803
 7029SOL    HW232724   0.212   2.001   1.524 -0.9023  0.0554 -0.9828
 7030SOL     OW32725   2.488   0.140   2.639 -0.1259  0.0856 -0.0927
 7030SOL    HW132726   2.453   0.162   2.552  0.6588 -0.9127 -0.6571
 7030SOL    HW232727   2.581   0.159   2.630 -0.1111  0.1872  0.2671
 7031SOL     OW32728   3.264   4.633   7.747  0.0373 -0.0203 -0.0575
 7031SOL    HW132729   3.307   4.670   7.825  1.1689 -0.0387 -0.6687
 7031SOL    HW232730   3.195   4.697   7.733  1.1329  1.3158  0.7024
 7032SOL     OW32731   0.462   1.036   3.689  0.5215 -0.0162  0.2153
 7032SOL    HW132732   0.390   1.087   3.653  1.2422  0.1222 -1.0607
 7032SOL    HW232733   0.425   0.950   3.710  0.0914  0.2698  0.6119
 7033SOL     OW32734   0.002   0.770   3.816  0.2769 -0.5139  0.0686
 7033SOL    HW132735   4.725   0.787   3.722  1.4939 -0.6988 -0.1096
 7033SOL    HW232736   0.054   0.689   3.812  1.5012  0.1724  1.9248
 7034SOL     OW32737   4.004   2.870   2.399  0.4368  0.1023  0.2027
 7034SOL    HW132738   3.982   2.944   2.457  2.5320 -0.1271  1.2760
 7034SOL    HW232739   3.941   2.862   2.327  0.1884 -1.1729  0.5587
 7035SOL     OW32740   1.306   3.148   1.076  0.4705  0.2102  0.2320
 7035SOL    HW132741   1.224   3.121   1.037  0.7581 -2.5593  1.5414
 7035SOL    HW232742   1.342   3.077   1.129 -0.8289 -0.7845 -0.2383
 7036SOL     OW32743   1.535   0.268   9.814 -0.4869 -0.0401 -0.1440
 7036SOL    HW132744   1.608   0.215   9.846 -0.4922  0.3651  0.5334
 7036SOL    HW232745   1.548   0.262   9.719  2.0150  1.6067  0.0754
 7037SOL     OW32746   4.556   2.653   8.430 -0.2438  0.1542 -0.0995
 7037SOL    HW132747   4.650   2.665   8.446 -0.8159  2.8112  1.3136
 7037SOL    HW232748   4.553   2.716   8.357  0.4215  2.6317  2.0038
 7038SOL     OW32749   3.051   1.401   9.767 -0.4274 -0.0338 -0.1672
 7038SOL    HW132750   3.128   1.360   9.805 -1.1325  1.2589  2.6107
 7038SOL    HW232751   3.085   1.490   9.767  0.0449 -0.2163  0.3106
 7039SOL     OW32752   3.211   2.268  15.895 -0.0670 -0.2134  0.1875
 7039SOL    HW132753   3.210   2.334  15.826  0.1325 -0.6425 -0.2257
 7039SOL    HW232754   3.120   2.239  15.896 -1.1504  3.2501  1.7041
 7040SOL     OW32755   2.865   3.486  10.659  0.4285 -0.1799 -0.0544
 7040SOL    HW132756   2.883   3.394  10.678  1.2511  0.3649  1.8503
 7040SOL    HW232757   2.928   3.537  10.709 -0.3179 -0.6194  1.3404
 7041SOL     OW32758   0.598   2.543   6.279  0.0389 -0.5849  0.4742
 7041SOL    HW132759   0.622   2.569   6.190 -3.1514 -2.4492 -0.8873
 7041SOL    HW232760   0.607   2.448   6.279  1.2055 -0.4823  2.6262
 7042SOL     OW32761   3.557   0.861   7.300 -0.3820 -0.5596  0.1679
 7042SOL    HW132762   3.590   0.775   7.275 -1.7628 -0.4756 -1.9348
 7042SOL    HW232763   3.607   0.925   7.249 -0.1745 -1.2115 -0.4401
 7043SOL     OW32764   4.637   0.235  10.920 -0.2330  0.4238  0.2053
 7043SOL    HW132765   4.583   0.185  10.858  0.2053  0.3105 -0.0832
 7043SOL    HW232766   4.614   0.190  11.001 -0.4358  0.5836  0.2384
 7044SOL     OW32767   4.221   2.916   9.937 -0.4073 -0.0929 -0.1355
 7044SOL    HW132768   4.301   2.959   9.906 -0.4946 -0.5535 -1.0031
 7044SOL    HW232769   4.259   2.849   9.992 -0.5946  1.7595  2.2564
 7045SOL     OW32770   3.081   4.524  17.160 -0.0270 -0.3634 -0.8196
 7045SOL    HW132771   3.053   4.614  17.170 -1.3916 -0.9467  0.5537
 7045SOL    HW232772   3.139   4.523  17.084  0.4256  1.4987 -0.4858
 7046SOL     OW32773   2.612   0.589  12.982 -0.0572  0.1411  0.1610
 7046SOL    HW132774   2.555   0.547  13.046 -2.3318 -0.1540 -2.0536
 7046SOL    HW232775   2.569   0.566  12.899  0.0154 -0.3189  0.2519
 7047SOL     OW32776   3.583   3.464   5.782 -0.5347  0.2549  0.2393
 7047SOL    HW132777   3.555   3.482   5.692  1.9449  0.9512 -0.3899
 7047SOL    HW232778   3.555   3.374   5.800 -1.8206  0.4162 -0.8910
 7048SOL     OW32779   2.856   4.292   2.332 -0.0960  0.7219 -0.0871
 7048SOL    HW132780   2.913   4.231   2.284 -0.9256 -0.7347  0.7685
 7048SOL    HW232781   2.832   4.362   2.271 -0.6683  1.6689  1.2238
 7049SOL     OW32782   2.678   4.325   1.063  0.3217  0.2449 -0.6667
 7049SOL    HW132783   2.673   4.231   1.049  1.4607  0.2946 -1.3677
 7049SOL    HW232784   2.684   4.337   1.158  2.7959 -0.3023 -0.7603
 7050SOL     OW32785   2.045   0.786  11.642  0.2341  0.0326 -0.1604
 7050SOL    HW132786   1.975   0.851  11.645 -1.4932 -1.8503  0.5258
 7050SOL    HW232787   2.091   0.823  11.567 -0.3160  0.1890 -0.4247
 7051SOL     OW32788   1.824   3.251  15.688  0.2913 -0.4542  0.0390
 7051SOL    HW132789   1.863   3.271  15.603  0.3257  0.6157  0.2951
 7051SOL    HW232790   1.810   3.341  15.719  0.1724  0.2748 -2.1205
 7052SOL     OW32791   3.533   3.302   4.925  0.2014  0.1350  0.2643
 7052SOL    HW132792   3.500   3.237   4.863  1.9690 -0.5810  0.0547
 7052SOL    HW232793   3.621   3.317   4.890  0.1718  0.3615  0.2900
 7053SOL     OW32794   0.525   0.964   5.620 -0.1099  0.1104 -0.6570
 7053SOL    HW132795   0.485   1.012   5.547 -0.2202  0.7449 -0.1804
 7053SOL    HW232796   0.615   0.972   5.589 -0.8518  0.4438 -2.7483
 7054SOL     OW32797   1.081   3.546   1.958  0.2021 -0.2740 -0.8439
 7054SOL    HW132798   1.096   3.607   1.886  0.5069  1.9980  1.1252
 7054SOL    HW232799   0.999   3.505   1.929 -1.2138  1.9324 -0.0301
 7055SOL     OW32800   2.638   1.579   4.800 -0.1305 -0.3407  0.1178
 7055SOL    HW132801   2.563   1.530   4.832 -1.1316  0.1659 -1.4337
 7055SOL    HW232802   2.659   1.522   4.725 -0.0518 -1.1007  0.7149
 7056SOL     OW32803   2.624   3.697  16.931  0.0999  0.2028  0.3216
 7056SOL    HW132804   2.595   3.678  16.842 -1.7622 -0.4518  1.0698
 7056SOL    HW232805   2.543   3.702  16.982 -0.5336 -1.7591 -0.4641
 7057SOL     OW32806   1.092   1.861   2.756  0.0057 -0.2236  0.2205
 7057SOL    HW132807   1.033   1.785   2.756 -2.3108  1.5917 -1.9019
 7057SOL    HW232808   1.038   1.938   2.741  0.4340 -0.0637 -0.5340
 7058SOL     OW32809   1.509   1.686  17.674  0.6694 -0.1111 -0.7158
 7058SOL    HW132810   1.523   1.592  17.675 -1.3900 -0.4077  1.1095
 7058SOL    HW232811   1.498   1.709   0.031  3.3532  1.8181 -0.8609
 7059SOL     OW32812   3.237   1.067   3.982 -0.0856  0.1588 -0.3899
 7059SOL    HW132813   3.145   1.073   3.956  0.1658  0.4854 -1.2044
 7059SOL    HW232814   3.224   1.020   4.064  1.0745 -0.1417 -0.3790
 7060SOL     OW32815   2.636   2.638   3.463  0.1788 -0.4561  0.0016
 7060SOL    HW132816   2.583   2.566   3.429 -1.5310  1.6125 -1.7123
 7060SOL    HW232817   2.655   2.617   3.554 -0.8773 -0.1623  0.2874
 7061SOL     OW32818   0.635   3.374   7.207  0.9866 -0.2285 -0.3935
 7061SOL    HW132819   0.589   3.332   7.280  1.6834 -0.5927 -0.1684
 7061SOL    HW232820   0.591   3.454   7.177  0.9930  1.4452  4.0516
 7062SOL     OW32821   1.733   3.508  12.009 -0.6948  0.0346 -0.0114
 7062SOL    HW132822   1.822   3.542  12.015 -0.0020 -1.8576  0.6974
 7062SOL    HW232823   1.674   3.578  12.038  0.3062  0.9246 -0.1607
 7063SOL     OW32824   3.687   3.745   0.390 -0.0182  0.0989  0.4381
 7063SOL    HW132825   3.591   3.750   0.388  0.0621  0.9837 -1.4884
 7063SOL    HW232826   3.705   3.791   0.308 -1.8069 -0.9494 -0.5527
 7064SOL     OW32827   0.314   0.185   4.782  0.2330  0.5701 -0.2091
 7064SOL    HW132828   0.289   0.278   4.781  2.0453  1.0678 -0.6293
 7064SOL    HW232829   0.232   0.145   4.753  0.8711  1.0823 -2.7714
 7065SOL     OW32830   3.647   2.198   4.630  0.6661  0.0323 -0.1947
 7065SOL    HW132831   3.673   2.288   4.608 -1.7068  0.9419  0.7208
 7065SOL    HW232832   3.734   2.160   4.620  0.7206 -0.1614  0.9540
 7066SOL     OW32833   2.811   2.028   8.936 -0.3952 -0.8188  0.6922
 7066SOL    HW132834   2.744   2.036   9.004 -0.6282  0.8677  0.2837
 7066SOL    HW232835   2.796   1.941   8.901  0.5699 -1.1926  1.2051
 7067SOL     OW32836   1.250   1.174   5.123  0.0833  0.4473 -0.1749
 7067SOL    HW132837   1.256   1.147   5.031  1.3379  0.5744 -0.1267
 7067SOL    HW232838   1.166   1.220   5.130  0.6115  1.5213 -0.8406
 7068SOL     OW32839   1.079   0.487   8.156 -0.7164  0.0728 -0.4959
 7068SOL    HW132840   1.121   0.541   8.089  0.6373  1.0762  1.1802
 7068SOL    HW232841   1.100   0.546   8.228 -0.7832 -0.8304  0.2589
 7069SOL     OW32842   0.457   4.087   6.399 -0.0021 -0.7850 -0.2111
 7069SOL    HW132843   0.478   4.142   6.475 -0.8807 -0.7739  0.0274
 7069SOL    HW232844   0.530   4.026   6.397  0.0358 -0.7533  0.1005
 7070SOL     OW32845   2.976   2.118   1.844  0.0501 -0.1083 -0.3485
 7070SOL    HW132846   3.015   2.039   1.807 -0.1652 -1.5330  2.4891
 7070SOL    HW232847   3.057   2.168   1.848 -0.9731  1.2480  3.2867
 7071SOL     OW32848   2.043   3.241   9.645 -0.1264  0.2849  0.2683
 7071SOL    HW132849   2.103   3.255   9.718  2.9072 -1.0113 -1.9772
 7071SOL    HW232850   2.076   3.307   9.584  1.8354  0.0349  1.0692
 7072SOL     OW32851   1.673   0.977   6.793 -0.3378 -0.3062  0.0897
 7072SOL    HW132852   1.583   0.949   6.777 -0.0275 -2.0928  1.3659
 7072SOL    HW232853   1.719   0.897   6.821 -0.9332 -1.0435 -1.0735
 7073SOL     OW32854   2.782   1.707   6.670  0.0271  0.1757 -0.3340
 7073SOL    HW132855   2.742   1.756   6.599 -1.2307 -0.9837 -0.4040
 7073SOL    HW232856   2.866   1.699   6.624  1.4970  0.8787  2.1763
 7074SOL     OW32857   3.618   2.733   3.393 -0.2786  0.2182  0.0759
 7074SOL    HW132858   3.704   2.742   3.436 -0.5742 -1.0204  0.9042
 7074SOL    HW232859   3.556   2.732   3.465  0.3420 -1.0437  0.5888
 7075SOL     OW32860   3.333   0.690   7.594 -0.2937 -0.0983 -0.0764
 7075SOL    HW132861   3.293   0.677   7.680 -4.2333 -0.1417 -1.9642
 7075SOL    HW232862   3.272   0.644   7.536  0.9750  0.7615 -2.0973
 7076SOL     OW32863   1.236   2.746   8.802  0.1576 -0.3058  0.0492
 7076SOL    HW132864   1.213   2.827   8.847  1.5400  0.0667  0.0906
 7076SOL    HW232865   1.148   2.711   8.790  0.4584 -0.6365 -1.2331
 7077SOL     OW32866   3.544   0.541   5.130 -0.4201  0.6257  0.0808
 7077SOL    HW132867   3.605   0.606   5.095  1.1417 -0.1154  1.4532
 7077SOL    HW232868   3.465   0.569   5.083  0.5170  0.7998 -1.3994
 7078SOL     OW32869   0.098   0.727   1.872  0.4248  0.1252  0.1626
 7078SOL    HW132870   0.122   0.635   1.877  1.7210  0.2881 -3.0327
 7078SOL    HW232871   0.165   0.762   1.931  0.9717 -2.4610  1.0495
 7079SOL     OW32872   2.824   1.531   4.366  0.1081  0.4223 -0.2142
 7079SOL    HW132873   2.873   1.570   4.438  0.6755 -2.8844  1.1607
 7079SOL    HW232874   2.864   1.445   4.372 -0.5641  0.1095 -0.1591
 7080SOL     OW32875   0.153   2.675  14.861  0.3322 -0.3382  0.6451
 7080SOL    HW132876   0.162   2.580  14.847 -1.3366 -0.5266  0.9159
 7080SOL    HW232877   0.058   2.682  14.856  0.5263  0.7070 -1.5095
 7081SOL     OW32878   2.023   2.681  13.493 -0.5042 -0.0280 -0.3575
 7081SOL    HW132879   1.967   2.758  13.484 -1.0638 -0.0840  2.6161
 7081SOL    HW232880   1.971   2.616  13.445 -0.5602  0.3858 -0.8553
 7082SOL     OW32881   3.137   1.067  14.782  0.3836  0.3478 -0.5057
 7082SOL    HW132882   3.213   1.092  14.836  2.5351 -0.9188 -2.9575
 7082SOL    HW232883   3.166   1.007  14.714  0.6086  0.6037 -0.6378
 7083SOL     OW32884   1.467   0.204   5.248 -0.3246 -0.3665 -0.0614
 7083SOL    HW132885   1.470   0.187   5.154  0.4245 -0.1910 -0.0718
 7083SOL    HW232886   1.560   0.214   5.267 -0.9185  2.8339  1.0782
 7084SOL     OW32887   2.311   2.155   6.080  0.2295  0.2682  0.6671
 7084SOL    HW132888   2.229   2.184   6.041  1.1598  1.4561 -0.4095
 7084SOL    HW232889   2.376   2.223   6.061 -1.6665  2.1192  0.8123
 7085SOL     OW32890   3.301   0.280  13.428 -0.6084 -0.2501 -0.0225
 7085SOL    HW132891   3.351   0.202  13.402  2.0539  0.9955  1.3096
 7085SOL    HW232892   3.362   0.340  13.471 -0.8626  0.3865 -0.5500
 7086SOL     OW32893   0.620   1.355   7.429  0.5538 -0.4906 -0.2648
 7086SOL    HW132894   0.562   1.386   7.360  0.0214 -1.0494 -0.0684
 7086SOL    HW232895   0.557   1.338   7.499 -0.4559 -1.0389 -1.3045
 7087SOL     OW32896   2.044   4.565   6.187 -0.5239  0.3384 -0.1953
 7087SOL    HW132897   2.098   4.626   6.238 -0.1254 -0.1640 -0.0154
 7087SOL    HW232898   1.973   4.553   6.250 -1.1689  0.3181 -0.9303
 7088SOL     OW32899   4.090   3.062   3.749  0.0448  0.1182 -0.1120
 7088SOL    HW132900   3.995   3.055   3.763 -0.3571  1.2414 -2.1421
 7088SOL    HW232901   4.092   3.084   3.656  3.2451  0.2620  0.0218
 7089SOL     OW32902   0.566   0.604   6.634 -0.2122 -0.0125  0.6331
 7089SOL    HW132903   0.602   0.652   6.709  0.4916  0.4378  0.0031
 7089SOL    HW232904   0.621   0.637   6.563 -2.0798 -0.0043 -0.8151
 7090SOL     OW32905   1.471   0.076  13.966  0.3912 -0.2092  0.1883
 7090SOL    HW132906   1.483   0.073  14.061  0.4756  1.9563  0.2394
 7090SOL    HW232907   1.433   0.162  13.951  1.6259  0.2420 -0.2952
 7091SOL     OW32908   0.600   3.306  16.762 -0.2840 -0.3371  0.1262
 7091SOL    HW132909   0.633   3.274  16.678 -1.4833 -0.9187 -0.1194
 7091SOL    HW232910   0.582   3.228  16.813  2.8013 -1.6601 -0.7656
 7092SOL     OW32911   3.471   0.389  14.414  0.1687 -0.3380 -0.4976
 7092SOL    HW132912   3.522   0.393  14.495  1.5400  1.2124 -1.4270
 7092SOL    HW232913   3.518   0.323  14.363  2.8230  0.7717  0.4934
 7093SOL     OW32914   0.740   2.841   2.805  0.5574  0.0223  0.6985
 7093SOL    HW132915   0.724   2.814   2.896 -2.1296 -1.1606 -0.1584
 7093SOL    HW232916   0.809   2.783   2.773 -1.0280 -1.0909 -0.6613
 7094SOL     OW32917   4.495   0.895   4.518 -0.1461 -0.3158 -0.3480
 7094SOL    HW132918   4.432   0.825   4.502  0.4957 -0.8119 -0.7090
 7094SOL    HW232919   4.520   0.878   4.609 -0.4316 -0.6712 -0.3382
 7095SOL     OW32920   2.404   2.741   4.756  0.2354 -0.6697 -0.0272
 7095SOL    HW132921   2.345   2.678   4.714 -1.3438  1.6181 -1.2126
 7095SOL    HW232922   2.373   2.825   4.721 -2.1690 -2.4623 -2.2625
 7096SOL     OW32923   1.581   0.521   7.772 -0.3978 -0.0398 -0.1697
 7096SOL    HW132924   1.544   0.455   7.830 -0.5548 -0.5952 -0.8916
 7096SOL    HW232925   1.525   0.525   7.694  0.2069  0.9174 -0.5536
 7097SOL     OW32926   1.203   4.535   6.227  0.1635  0.1685 -0.0958
 7097SOL    HW132927   1.187   4.618   6.271  0.0744  1.1798 -2.0464
 7097SOL    HW232928   1.204   4.477   6.303 -4.4145 -0.6581 -0.6506
 7098SOL     OW32929   0.799   3.351   3.337  0.0473 -0.0815  0.5288
 7098SOL    HW132930   0.869   3.285   3.340 -1.1765 -1.4030 -0.2043
 7098SOL    HW232931   0.819   3.399   3.417  0.0786  0.2532  0.3226
 7099SOL     OW32932   4.243   0.194  15.510 -0.2730 -0.4039 -0.2018
 7099SOL    HW132933   4.186   0.136  15.460  1.5283 -1.1409 -1.3911
 7099SOL    HW232934   4.300   0.128  15.549  0.3404  1.8139  2.6980
 7100SOL     OW32935   3.031   3.360  16.729  0.1152 -0.1704  0.0764
 7100SOL    HW132936   2.954   3.383  16.781  1.0386 -0.8959  1.7810
 7100SOL    HW232937   3.026   3.405  16.644  0.4584 -1.7673 -0.7843
 7101SOL     OW32938   2.671   0.178  17.438  0.3149 -0.1868  0.2822
 7101SOL    HW132939   2.679   0.083  17.430  1.0984  0.0721 -2.0274
 7101SOL    HW232940   2.679   0.197  17.344  2.1530 -3.0756 -0.1421
 7102SOL     OW32941   0.223   1.162  15.872  0.0879 -0.7464  0.3131
 7102SOL    HW132942   0.204   1.231  15.936  0.1110 -1.2490  0.8634
 7102SOL    HW232943   0.239   1.082  15.922  3.7919  0.6420  1.3447
 7103SOL     OW32944   1.554   3.182   1.967  0.1262  0.5333 -0.2134
 7103SOL    HW132945   1.498   3.217   2.037 -0.1946 -1.8540  0.7152
 7103SOL    HW232946   1.523   3.237   1.895 -0.0365  2.2611  1.1694
 7104SOL     OW32947   4.076   3.325   5.866  0.2927 -0.1968  0.4528
 7104SOL    HW132948   4.030   3.313   5.782 -1.4917  0.0843  1.4014
 7104SOL    HW232949   4.163   3.356   5.840  0.3699  0.4245  1.4678
 7105SOL     OW32950   2.430   3.220   4.150  0.2140  0.1943  0.4841
 7105SOL    HW132951   2.484   3.299   4.157  2.2070 -1.2414  1.5198
 7105SOL    HW232952   2.450   3.177   4.234  0.4683  0.5809  0.6211
 7106SOL     OW32953   2.172   2.092  13.585 -0.6032  0.0803 -0.3693
 7106SOL    HW132954   2.254   2.066  13.543 -1.4171 -0.5860 -1.5515
 7106SOL    HW232955   2.143   2.004  13.609 -1.2207  0.0838 -1.0855
 7107SOL     OW32956   4.042   4.437   6.110 -0.3274  0.2110 -0.3602
 7107SOL    HW132957   4.097   4.359   6.107  0.4720  0.8505 -2.4473
 7107SOL    HW232958   3.969   4.418   6.169  2.3343 -2.0711  2.2107
 7108SOL     OW32959   0.001   3.606   7.584  0.0607  0.6636  0.5885
 7108SOL    HW132960   0.096   3.609   7.571  0.0574 -4.0746 -0.4762
 7108SOL    HW232961   4.703   3.661   7.513 -0.4312 -0.9347 -0.4128
 7109SOL     OW32962   0.704   2.921  12.716 -0.1153 -0.5682  0.2190
 7109SOL    HW132963   0.665   2.837  12.741 -0.4849  0.0604  1.7874
 7109SOL    HW232964   0.745   2.954  12.796 -1.3008  2.9851 -0.6380
 7110SOL     OW32965   1.842   0.559   7.796 -0.2297  0.2618 -0.7222
 7110SOL    HW132966   1.839   0.629   7.861  1.2990  1.0006 -1.4382
 7110SOL    HW232967   1.748   0.540   7.789 -0.3248  1.4622 -2.7028
 7111SOL     OW32968   0.791   3.833   4.420  0.1242  0.0725  0.7187
 7111SOL    HW132969   0.819   3.744   4.442 -0.4117  0.5852  3.4619
 7111SOL    HW232970   0.701   3.829   4.454  0.2565 -0.6470  0.9839
 7112SOL     OW32971   0.258   0.063  10.813 -0.1018 -0.0521  0.1335
 7112SOL    HW132972   0.170   0.031  10.793 -0.9470  1.3065  1.6880
 7112SOL    HW232973   0.265   0.120  10.736 -0.1477  1.0120  0.9317
 7113SOL     OW32974   0.804   3.734   4.752 -0.0218 -0.4332  0.2252
 7113SOL    HW132975   0.857   3.812   4.768 -1.2156 -0.2249  3.1531
 7113SOL    HW232976   0.851   3.705   4.674  0.4581 -0.8694  0.6834
 7114SOL     OW32977   2.271   4.376   1.543  0.1289  0.5630 -0.1424
 7114SOL    HW132978   2.187   4.416   1.520  0.5651  1.6080  0.1051
 7114SOL    HW232979   2.233   4.324   1.614  1.2508  1.5865  1.2075
 7115SOL     OW32980   3.993   2.937  14.527 -0.2145 -0.2893  0.5371
 7115SOL    HW132981   3.910   2.968  14.493  0.9573  1.5424 -0.6808
 7115SOL    HW232982   4.013   2.879  14.454 -0.4504  0.0241  0.2267
 7116SOL     OW32983   1.576   3.411   6.575  0.1422  0.7138 -0.3056
 7116SOL    HW132984   1.573   3.411   6.671  0.4904  0.1548 -0.2899
 7116SOL    HW232985   1.614   3.328   6.545  0.7359  0.2338  1.7581
 7117SOL     OW32986   1.659   1.571   1.211  0.3397  0.4881  0.4923
 7117SOL    HW132987   1.664   1.643   1.274  0.1582  2.3503 -1.6297
 7117SOL    HW232988   1.586   1.598   1.155  0.2115 -0.9652 -0.0378
 7118SOL     OW32989   1.950   2.075   7.303 -0.5353 -0.1103 -0.2428
 7118SOL    HW132990   1.946   2.091   7.209  1.4265 -0.1715 -0.3336
 7118SOL    HW232991   1.944   1.980   7.312  0.4951 -0.2958 -1.5829
 7119SOL     OW32992   0.832   0.844  13.312  0.2947  0.2584 -0.2086
 7119SOL    HW132993   0.804   0.837  13.403 -0.5718  1.7666 -0.3705
 7119SOL    HW232994   0.808   0.757  13.277 -1.9517  1.3330 -1.3432
 7120SOL     OW32995   1.972   1.585  16.439 -0.1417 -1.1142  0.8245
 7120SOL    HW132996   1.896   1.599  16.495  0.4003  1.0204  1.0342
 7120SOL    HW232997   1.933   1.556  16.357 -1.7931  0.5802  1.0122
 7121SOL     OW32998   3.517   3.441   5.488 -0.8228 -0.4987 -0.2428
 7121SOL    HW132999   3.424   3.435   5.463 -1.0705  0.7380  0.3809
 7121SOL    HW233000   3.550   3.374   5.428 -0.7594 -1.2177  0.6123
 7122SOL     OW33001   0.590   3.901   5.346 -0.4606  0.7681 -0.3124
 7122SOL    HW133002   0.680   3.877   5.367 -0.7672  0.0958  0.2530
 7122SOL    HW233003   0.610   3.984   5.305 -0.7921  0.2622 -1.4865
 7123SOL     OW33004   0.319   1.149   7.359  0.1296  0.0951  0.2926
 7123SOL    HW133005   0.259   1.192   7.298  0.3032 -1.3303 -0.8646
 7123SOL    HW233006   0.336   1.215   7.427  1.0001  0.4858 -0.2959
 7124SOL     OW33007   0.269   1.177   3.585  0.0926 -0.2159  0.2322
 7124SOL    HW133008   0.230   1.263   3.603 -0.7800 -0.8477  1.3642
 7124SOL    HW233009   0.247   1.161   3.493  1.0559 -2.6582  0.4294
 7125SOL     OW33010   4.012   4.711  12.672 -0.8339 -0.6687 -0.6343
 7125SOL    HW133011   3.938   4.671  12.719 -2.7541  3.1207 -0.3867
 7125SOL    HW233012   4.065   4.634  12.650 -1.4568 -0.7897 -1.7004
 7126SOL     OW33013   3.563   4.249   7.665  0.3846  0.2491 -0.2499
 7126SOL    HW133014   3.657   4.244   7.648  0.4045  1.6649 -0.5521
 7126SOL    HW233015   3.531   4.207   7.585 -1.3987  2.4067 -0.6598
 7127SOL     OW33016   4.547   4.402   8.540  0.1955  0.3699  0.4486
 7127SOL    HW133017   4.594   4.352   8.607  1.9228  1.5104  0.0852
 7127SOL    HW233018   4.571   4.491   8.566  0.5503  0.2694  0.4705
 7128SOL     OW33019   1.177   4.469   7.916  0.3971  0.2555  0.0026
 7128SOL    HW133020   1.258   4.519   7.908  0.7664 -0.4067 -0.3227
 7128SOL    HW233021   1.155   4.436   7.829  0.8742  0.0996 -0.0605
 7129SOL     OW33022   4.238   4.591   2.762 -0.3348 -0.3156  0.5418
 7129SOL    HW133023   4.260   4.624   2.675  0.4498 -0.7226  0.5815
 7129SOL    HW233024   4.294   4.513   2.764  2.2229  1.5367  0.2943
 7130SOL     OW33025   2.446   4.190   4.149 -0.8144 -0.0899  0.5560
 7130SOL    HW133026   2.483   4.245   4.218 -0.5463  2.1862 -1.3882
 7130SOL    HW233027   2.509   4.118   4.149  0.4988  1.0625 -2.9058
 7131SOL     OW33028   0.089   0.877   2.991 -0.0070 -0.3719  0.1528
 7131SOL    HW133029   0.162   0.822   2.962  0.1705 -0.4583  0.7815
 7131SOL    HW233030   0.123   0.966   2.978  0.9406 -1.0055 -1.7444
 7132SOL     OW33031   2.438   4.123   2.665 -0.4172  0.7534 -0.4545
 7132SOL    HW133032   2.502   4.141   2.597 -0.2180 -1.9441 -0.9651
 7132SOL    HW233033   2.448   4.204   2.715  1.8649 -1.0446  1.9918
 7133SOL     OW33034   1.682   2.353  13.137  0.3395  0.0460  0.9270
 7133SOL    HW133035   1.710   2.269  13.174 -0.4178 -0.0668  1.2408
 7133SOL    HW233036   1.680   2.331  13.044  2.1664  1.9838  0.4215
 7134SOL     OW33037   3.473   4.395  15.058 -0.6190 -0.2217  0.2273
 7134SOL    HW133038   3.409   4.333  15.091 -2.7283  1.1093 -1.3524
 7134SOL    HW233039   3.525   4.397  15.139 -2.6703  1.9383  1.4883
 7135SOL     OW33040   1.987   4.077   0.556  0.0203 -0.2450  0.8178
 7135SOL    HW133041   2.014   4.002   0.609 -2.0165 -1.4535  0.1224
 7135SOL    HW233042   2.047   4.141   0.596  0.0701  0.7260 -0.8227
 7136SOL     OW33043   2.477   3.927   5.632 -0.8577  0.3061  0.4019
 7136SOL    HW133044   2.454   3.862   5.699 -0.8527  0.3118  0.4091
 7136SOL    HW233045   2.506   3.880   5.554 -1.4948  2.8575 -1.3724
 7137SOL     OW33046   0.980   1.516  10.363  0.0346  0.1680 -0.6523
 7137SOL    HW133047   0.989   1.423  10.382  1.6415  0.0939 -1.7497
 7137SOL    HW233048   1.060   1.546  10.407 -0.1333 -2.2493  1.2822
 7138SOL     OW33049   2.119   2.936   8.472 -0.4529 -0.1814  0.4431
 7138SOL    HW133050   2.181   3.007   8.452  0.7319 -1.3874 -0.1217
 7138SOL    HW233051   2.150   2.877   8.403 -0.1808 -0.5070  0.8459
 7139SOL     OW33052   2.520   4.667   7.172  0.1814 -0.6506  0.3720
 7139SOL    HW133053   2.613   4.664   7.148  0.7585 -0.4400  2.6123
 7139SOL    HW233054   2.493   4.722   7.099  1.1087  0.3027  0.7445
 7140SOL     OW33055   2.506   4.580   6.132  0.2472 -0.2429  0.8006
 7140SOL    HW133056   2.508   4.555   6.225  0.5967  1.6802  1.3151
 7140SOL    HW233057   2.449   4.508   6.106  0.0735  0.2635 -0.2158
 7141SOL     OW33058   0.580   4.450  15.021 -0.0426  0.2084 -0.5440
 7141SOL    HW133059   0.511   4.383  15.027  0.6547 -0.5781 -1.4883
 7141SOL    HW233060   0.619   4.436  15.108 -3.6251  0.9886  1.1968
 7142SOL     OW33061   4.256   4.607   5.342 -0.1859 -0.0918  0.2714
 7142SOL    HW133062   4.351   4.592   5.340 -0.2037 -0.0961 -0.5032
 7142SOL    HW233063   4.249   4.654   5.259 -2.3696  0.2869  0.6819
 7143SOL     OW33064   3.605   4.216   5.599  0.1297  0.2378 -0.1937
 7143SOL    HW133065   3.533   4.155   5.584 -1.0711  1.4673  0.5138
 7143SOL    HW233066   3.576   4.290   5.547  1.2529  1.1672  0.4861
 7144SOL     OW33067   2.809   4.325   7.220 -0.7928 -0.0394  0.1674
 7144SOL    HW133068   2.844   4.266   7.286  0.1731  0.4562  0.1065
 7144SOL    HW233069   2.888   4.379   7.219  1.0496 -2.7585  2.7355
 7145SOL     OW33070   3.792   4.133   7.084 -0.1369  0.0071 -0.0614
 7145SOL    HW133071   3.731   4.060   7.072  0.0197  0.3540 -3.0692
 7145SOL    HW233072   3.755   4.200   7.026 -0.2311 -0.2983 -0.3600
 7146SOL     OW33073   4.644   1.848   2.720 -0.0741  0.1905  0.1229
 7146SOL    HW133074   4.610   1.938   2.723 -2.6340 -0.7810  0.7980
 7146SOL    HW233075   0.003   1.867   2.711 -0.2626  0.6094 -0.8319
 7147SOL     OW33076   1.904   1.014   1.245 -0.1203  0.1809  0.1396
 7147SOL    HW133077   1.888   1.094   1.195  0.4105 -0.5685 -1.1987
 7147SOL    HW233078   1.955   0.951   1.195  1.5409  0.7314  1.1215
 7148SOL     OW33079   3.163   4.646   5.295  0.4292 -0.0552 -0.2445
 7148SOL    HW133080   3.213   4.725   5.276 -0.0060 -0.0970 -1.5756
 7148SOL    HW233081   3.135   4.654   5.386  0.0828  0.2957 -0.3820
 7149SOL     OW33082   0.468   4.577   7.193  0.3857 -0.3387 -0.2018
 7149SOL    HW133083   0.386   4.624   7.179  0.5621  0.6745  2.2351
 7149SOL    HW233084   0.504   4.627   7.266 -2.4526  1.9601 -0.3823
 7150SOL     OW33085   0.418   3.749   3.107  0.2256 -0.2086 -0.2592
 7150SOL    HW133086   0.467   3.684   3.057 -1.2577 -1.3569 -0.2169
 7150SOL    HW233087   0.447   3.726   3.195 -2.9688  1.2298  1.1911
 7151SOL     OW33088   0.733   4.148   5.273 -0.4900 -0.1364 -0.1307
 7151SOL    HW133089   0.822   4.175   5.296 -0.1362 -1.3795 -0.0729
 7151SOL    HW233090   0.762   4.101   5.195  0.3162 -2.0769  1.3662
 7152SOL     OW33091   0.463   0.623   5.520  0.0798  0.5183  0.0757
 7152SOL    HW133092   0.550   0.646   5.487  0.4960  2.6410  2.6564
 7152SOL    HW233093   0.457   0.529   5.503 -1.8487  0.5804  0.4197
 7153SOL     OW33094   1.030   1.419  12.163 -0.6237 -0.2887 -0.1758
 7153SOL    HW133095   1.114   1.433  12.207  0.1944 -0.0099 -1.8455
 7153SOL    HW233096   0.986   1.374  12.235 -0.1854 -0.2825  0.0968
 7154SOL     OW33097   1.512   2.123   9.588  0.0612  0.1765 -0.8432
 7154SOL    HW133098   1.526   2.107   9.495 -2.9020 -1.7041 -0.9403
 7154SOL    HW233099   1.542   2.214   9.595 -0.2187  0.0979  1.7111
 7155SOL     OW33100   1.467   3.488  16.102 -0.0689 -0.1983 -0.2601
 7155SOL    HW133101   1.450   3.400  16.068  2.3854 -1.1521  0.9622
 7155SOL    HW233102   1.560   3.500  16.080 -0.2997  0.3577 -0.9434
 7156SOL     OW33103   3.590   0.248   8.157 -0.8573  0.2407  0.1504
 7156SOL    HW133104   3.661   0.258   8.094 -0.6505  2.7546  0.7919
 7156SOL    HW233105   3.635   0.201   8.227 -0.8036  1.5649  0.9997
 7157SOL     OW33106   2.182   3.997   4.983 -0.2311 -0.0038 -0.4892
 7157SOL    HW133107   2.222   4.067   4.932  3.2244 -1.0749  0.7710
 7157SOL    HW233108   2.175   4.037   5.069  1.1854  0.5042 -0.6158
 7158SOL     OW33109   1.236   2.786  11.343  0.2981  0.3327 -0.0419
 7158SOL    HW133110   1.207   2.716  11.402 -0.2324 -0.1403 -0.8737
 7158SOL    HW233111   1.166   2.799  11.279  0.2821  1.1379  0.1347
 7159SOL     OW33112   0.089   0.126  10.123  0.4788  0.6045  0.8581
 7159SOL    HW133113   0.106   0.040  10.161 -0.8398 -0.5122 -1.1626
 7159SOL    HW233114   0.034   0.165  10.191  2.2624  0.9068  2.1587
 7160SOL     OW33115   2.502   2.581   4.037 -0.8620 -0.2563  0.4140
 7160SOL    HW133116   2.462   2.575   3.951 -2.0382 -0.4062  0.9769
 7160SOL    HW233117   2.544   2.667   4.038  0.1001 -0.7357  1.1455
 7161SOL     OW33118   3.874   0.778   4.517 -0.1196  0.1760  0.2331
 7161SOL    HW133119   3.827   0.824   4.448 -0.0609  0.9061  0.6876
 7161SOL    HW233120   3.899   0.705   4.459  0.9088  0.2139  0.6248
 7162SOL     OW33121   0.448   0.274   2.837 -0.7127 -0.0216  0.0872
 7162SOL    HW133122   0.507   0.201   2.859  0.4352  0.9146  0.0828
 7162SOL    HW233123   0.372   0.221   2.812  1.9392 -2.1766 -3.5947
 7163SOL     OW33124   1.071   4.213   9.345 -0.1690  0.2108  0.4260
 7163SOL    HW133125   1.074   4.299   9.304  2.0014 -0.2704 -0.4155
 7163SOL    HW233126   1.063   4.241   9.436 -2.4443  2.7791 -0.5698
 7164SOL     OW33127   4.682   1.044   1.910  0.3533 -0.0675 -0.3401
 7164SOL    HW133128   4.734   1.039   1.990  0.2294  0.4207 -0.2289
 7164SOL    HW233129   4.618   0.975   1.929  0.7094 -0.2196  0.3192
 7165SOL     OW33130   3.874   1.515   8.317  0.0100 -0.2409 -0.2800
 7165SOL    HW133131   3.871   1.456   8.393 -0.9106 -0.0112 -0.1421
 7165SOL    HW233132   3.956   1.502   8.269  1.1618  3.4950  0.6352
 7166SOL     OW33133   4.109   3.417   6.991 -0.0552 -0.1392 -0.3274
 7166SOL    HW133134   4.054   3.340   6.977 -0.2636 -0.6338  3.1580
 7166SOL    HW233135   4.050   3.484   6.957  1.3973  0.2730 -2.0474
 7167SOL     OW33136   0.914   1.231   8.588 -0.2774 -0.0173  0.0319
 7167SOL    HW133137   0.934   1.203   8.499 -0.3590 -2.1852  0.7121
 7167SOL    HW233138   0.859   1.309   8.584 -0.4451 -0.1348  0.0610
 7168SOL     OW33139   3.693   2.919  10.307  0.0977  0.1963  0.1285
 7168SOL    HW133140   3.760   2.909  10.374  1.4016 -1.7980 -1.4707
 7168SOL    HW233141   3.675   2.830  10.276 -2.6514  0.4363  1.0188
 7169SOL     OW33142   1.399   2.868   4.595  0.3016  0.4031  0.1366
 7169SOL    HW133143   1.491   2.878   4.619  0.3482 -0.1410  0.1880
 7169SOL    HW233144   1.395   2.919   4.514 -0.0015 -2.8795 -1.9077
 7170SOL     OW33145   2.173   0.439   8.011  0.5917 -0.0138  0.0505
 7170SOL    HW133146   2.264   0.449   8.036  0.4534 -0.5652  0.7830
 7170SOL    HW233147   2.188   0.397   7.926  1.8697 -0.1962  0.3653
 7171SOL     OW33148   4.099   3.490   4.659 -0.1706  0.4016  0.7733
 7171SOL    HW133149   4.172   3.481   4.720  0.1653  1.6133  0.5687
 7171SOL    HW233150   4.067   3.579   4.673 -1.4128  0.2517 -1.1080
 7172SOL     OW33151   0.136   3.615  13.360  0.0398 -0.4221  0.2213
 7172SOL    HW133152   0.072   3.653  13.419  1.4108 -0.9487  2.0399
 7172SOL    HW233153   0.213   3.659  13.397 -1.9343  2.5438  0.7965
 7173SOL     OW33154   1.838   0.413   1.532 -0.0937 -0.5528  0.2270
 7173SOL    HW133155   1.873   0.375   1.451  0.0681  2.8387 -1.3020
 7173SOL    HW233156   1.754   0.370   1.546 -0.9149  0.3662 -1.8620
 7174SOL     OW33157   0.381   2.957   2.327 -0.7099 -0.2695 -0.0874
 7174SOL    HW133158   0.376   3.050   2.303  0.5538 -0.1817  0.0262
 7174SOL    HW233159   0.419   2.973   2.414  1.9064 -0.5297 -1.1856
 7175SOL     OW33160   4.546   3.257   2.664 -0.0561  0.0066 -0.5737
 7175SOL    HW133161   4.611   3.210   2.716 -0.5783  0.4389  0.4780
 7175SOL    HW233162   4.559   3.346   2.699  1.9115 -0.7699  0.6960
 7176SOL     OW33163   1.323   2.219   3.881 -0.1304  0.2668 -0.3530
 7176SOL    HW133164   1.404   2.174   3.903 -0.5159 -0.6080 -0.7262
 7176SOL    HW233165   1.266   2.143   3.894  1.2833 -0.5392  1.1337
 7177SOL     OW33166   0.410   3.908   5.961  0.1143  0.5352  0.4089
 7177SOL    HW133167   0.493   3.953   5.972  0.9919 -0.6575 -1.3299
 7177SOL    HW233168   0.367   3.945   5.883 -0.1852 -0.4447  0.1018
 7178SOL     OW33169   2.939   2.179   6.245  0.6935 -0.3683 -0.2747
 7178SOL    HW133170   2.923   2.128   6.166  0.6061  1.0512 -1.1684
 7178SOL    HW233171   3.030   2.155   6.261  0.4512 -0.1174  1.5269
 7179SOL     OW33172   0.733   1.956   7.716  0.2915 -0.0029  0.4462
 7179SOL    HW133173   0.801   1.998   7.769  0.0358  0.9968 -0.0296
 7179SOL    HW233174   0.683   2.023   7.669  1.8655  0.7263 -0.1665
 7180SOL     OW33175   3.859   3.705   2.930 -0.1333  0.5700  0.5960
 7180SOL    HW133176   3.786   3.646   2.910  1.0744 -0.3924 -1.0027
 7180SOL    HW233177   3.828   3.784   2.885 -0.2947 -0.6279 -1.3723
 7181SOL     OW33178   4.442   4.350  11.533 -0.3240  0.1217 -0.3769
 7181SOL    HW133179   4.519   4.297  11.551  0.0930  1.5408  2.0662
 7181SOL    HW233180   4.479   4.436  11.554 -0.1063 -0.3658  1.2716
 7182SOL     OW33181   3.088   1.458   6.471 -0.3722  0.5103 -0.0289
 7182SOL    HW133182   2.993   1.453   6.462 -0.1778 -2.0565 -0.4956
 7182SOL    HW233183   3.108   1.510   6.394 -0.8213 -0.2906 -0.6793
 7183SOL     OW33184   0.834   2.531   9.240 -0.3051  0.4314  0.1924
 7183SOL    HW133185   0.843   2.508   9.333  1.1865  3.9917  0.9580
 7183SOL    HW233186   0.789   2.455   9.205  1.2894 -1.8923  3.1412
 7184SOL     OW33187   2.613   0.231   2.040 -0.3307  0.4853 -0.1592
 7184SOL    HW133188   2.605   0.235   1.945 -0.9583  1.9320 -0.0490
 7184SOL    HW233189   2.681   0.297   2.054  2.7246 -3.0552  1.4969
 7185SOL     OW33190   3.288   3.355   5.020  0.1024  0.4613  0.3900
 7185SOL    HW133191   3.366   3.343   4.966 -0.2297 -2.2352  0.5400
 7185SOL    HW233192   3.251   3.269   5.003 -2.0812  1.6216 -0.7506
 7186SOL     OW33193   2.971   1.036   3.736  0.0269 -0.3985 -0.0191
 7186SOL    HW133194   3.051   1.019   3.686 -1.2503 -4.2932 -0.7434
 7186SOL    HW233195   2.928   1.088   3.668 -0.0288 -1.2889 -0.6653
 7187SOL     OW33196   2.493   3.536   4.916 -0.4489 -0.2266 -0.3210
 7187SOL    HW133197   2.450   3.455   4.887 -0.9558  0.3100 -1.0697
 7187SOL    HW233198   2.422   3.596   4.939  0.4396  0.9503 -0.6488
 7188SOL     OW33199   1.317   3.973   3.205  0.1759  0.7724 -0.5230
 7188SOL    HW133200   1.309   3.972   3.110  1.0803  0.2931 -0.5935
 7188SOL    HW233201   1.228   3.963   3.239 -0.2956  0.2964 -1.9067
 7189SOL     OW33202   4.599   1.171  12.696 -0.1039 -0.1613  0.1000
 7189SOL    HW133203   4.627   1.237  12.760 -0.5174 -0.8702  1.0105
 7189SOL    HW233204   4.596   1.226  12.618 -0.1596 -0.5181 -0.1457
 7190SOL     OW33205   1.802   0.025   1.453 -0.3045 -0.0133  0.2105
 7190SOL    HW133206   1.757   0.010   1.370 -1.0595 -0.7000  0.7483
 7190SOL    HW233207   1.731   0.012   1.515 -0.3135 -0.4377  0.1059
 7191SOL     OW33208   4.569   2.220   9.701  0.4200 -0.1685  0.0757
 7191SOL    HW133209   4.621   2.153   9.747 -1.2990 -1.0167  0.7631
 7191SOL    HW233210   4.513   2.246   9.774 -1.0280  0.4022 -1.2684
 7192SOL     OW33211   1.216   2.835   6.029  0.1621  0.4020 -0.0906
 7192SOL    HW133212   1.246   2.801   5.945 -0.1185 -1.6304  0.6275
 7192SOL    HW233213   1.253   2.923   6.038 -0.7849  0.8686 -0.9194
 7193SOL     OW33214   0.136   1.676  15.281 -0.2223  0.4758 -0.4743
 7193SOL    HW133215   0.205   1.662  15.346 -0.1835  1.2931 -0.3366
 7193SOL    HW233216   0.187   1.657  15.203  0.5369  0.9262 -0.0931
 7194SOL     OW33217   0.235   2.593  16.581 -0.2318 -0.1189  0.2331
 7194SOL    HW133218   0.206   2.554  16.664  2.6443 -2.0407  0.3454
 7194SOL    HW233219   0.269   2.677  16.610 -0.7674  0.9168 -2.1183
 7195SOL     OW33220   2.872   0.483  12.032 -0.3903 -0.0287  0.0347
 7195SOL    HW133221   2.878   0.436  12.115 -3.3203  1.2737  0.9689
 7195SOL    HW233222   2.845   0.573  12.051 -2.4290 -0.4588 -0.8675
 7196SOL     OW33223   3.607   1.640  16.807  0.0659  0.0263 -0.7850
 7196SOL    HW133224   3.533   1.700  16.805 -0.9983 -1.2129  0.7265
 7196SOL    HW233225   3.667   1.681  16.869  1.5592 -2.1903 -0.7578
 7197SOL     OW33226   4.672   3.592   8.373 -0.1169 -0.4808 -0.2284
 7197SOL    HW133227   4.704   3.503   8.361  0.2694 -0.2886 -0.6409
 7197SOL    HW233228   4.586   3.574   8.411  0.3274  1.9651  1.9385
 7198SOL     OW33229   3.388   3.769  15.636 -0.4997  0.2379  0.2767
 7198SOL    HW133230   3.310   3.804  15.680 -0.4802 -0.2242  0.6845
 7198SOL    HW233231   3.427   3.712  15.703 -0.0749  0.9651  0.6532
 7199SOL     OW33232   1.647   1.564   0.352 -0.1677  0.7059  0.2073
 7199SOL    HW133233   1.598   1.488   0.383  2.0517 -1.2373 -1.0156
 7199SOL    HW233234   1.644   1.617   0.432  0.4572 -2.3392  2.2510
 7200SOL     OW33235   1.846   3.764  12.217  0.3969 -0.1271  0.2286
 7200SOL    HW133236   1.904   3.840  12.208  0.4504 -0.1055  0.7958
 7200SOL    HW233237   1.830   3.768  12.311 -1.4347  2.6341 -0.1781
 7201SOL     OW33238   2.243   4.461   4.116  0.4463  0.4921 -0.3451
 7201SOL    HW133239   2.221   4.537   4.062 -3.5964 -0.1506  0.3916
 7201SOL    HW233240   2.332   4.451   4.083  0.0174  1.0743 -1.6511
 7202SOL     OW33241   0.338   1.608   5.856 -0.3091  0.3202  0.0005
 7202SOL    HW133242   0.293   1.616   5.940 -1.4517  0.8158 -0.6549
 7202SOL    HW233243   0.370   1.697   5.842 -0.6165  0.3436 -0.5655
 7203SOL     OW33244   2.642   2.610   4.784 -0.2069 -0.1755 -0.0918
 7203SOL    HW133245   2.548   2.626   4.784 -0.3133 -0.7958 -0.8140
 7203SOL    HW233246   2.650   2.576   4.873  0.2388 -1.6107 -0.6738
 7204SOL     OW33247   1.471   3.059   2.775 -0.3294  0.0682  0.4436
 7204SOL    HW133248   1.378   3.064   2.793 -0.4952  1.0090 -0.6178
 7204SOL    HW233249   1.503   3.122   2.839 -0.3553 -0.2915  0.8092
 7205SOL     OW33250   0.183   1.226   4.070 -0.3651 -0.2168  0.1383
 7205SOL    HW133251   0.216   1.238   4.159 -0.8952 -2.3394  0.6253
 7205SOL    HW233252   0.173   1.131   4.059 -1.6794  0.0208 -0.6855
 7206SOL     OW33253   4.467   3.847  16.086 -0.0160 -0.1588 -0.2950
 7206SOL    HW133254   4.501   3.764  16.053  1.7348  1.1406 -1.7084
 7206SOL    HW233255   4.484   3.831  16.179  0.9707  0.1217 -0.4351
 7207SOL     OW33256   4.137   1.178   2.608 -0.2430  0.4642 -0.3591
 7207SOL    HW133257   4.112   1.231   2.685  4.2711 -1.0088  2.1464
 7207SOL    HW233258   4.048   1.149   2.591 -0.2118 -0.6811  1.3965
 7208SOL     OW33259   1.247   1.003   8.376 -0.5066  0.3192  0.0729
 7208SOL    HW133260   1.194   0.972   8.302  0.0043  2.9146 -1.3683
 7208SOL    HW233261   1.328   1.029   8.334 -0.4921  2.5711  1.4651
 7209SOL     OW33262   4.117   2.802   4.971 -0.3358  0.2247 -0.3528
 7209SOL    HW133263   4.030   2.795   5.009  0.1384 -0.6787  0.5765
 7209SOL    HW233264   4.114   2.868   4.901  0.8137 -2.1089 -2.6188
 7210SOL     OW33265   3.028   4.459   7.766 -0.1767 -0.2990 -0.7223
 7210SOL    HW133266   3.097   4.416   7.816  0.6319  0.9234 -0.7922
 7210SOL    HW233267   3.071   4.543   7.748  0.4232 -0.4743 -0.1156
 7211SOL     OW33268   4.124   0.350  16.820  0.2040 -0.0404  0.3585
 7211SOL    HW133269   4.083   0.333  16.735  0.3295 -0.6849  0.4266
 7211SOL    HW233270   4.045   0.351  16.873  0.5104  0.2337  0.8087
 7212SOL     OW33271   1.413   3.863  13.693 -0.4537  0.0561  0.3732
 7212SOL    HW133272   1.401   3.786  13.637  1.5213  0.3329 -0.4162
 7212SOL    HW233273   1.331   3.850  13.741 -0.6630 -1.7962 -0.4867
 7213SOL     OW33274   0.983   0.648   5.900  0.1896  0.0512 -0.3673
 7213SOL    HW133275   0.943   0.724   5.858 -1.4583  0.2252  1.5695
 7213SOL    HW233276   1.078   0.662   5.895  0.2640 -0.6699 -0.9818
 7214SOL     OW33277   1.862   1.101  10.638 -0.2589 -0.0307  0.3212
 7214SOL    HW133278   1.948   1.106  10.680 -0.5059  0.9738  0.7180
 7214SOL    HW233279   1.885   1.035  10.572  0.3354  2.0634 -1.5845
 7215SOL     OW33280   2.704   0.038   9.385 -0.2251 -0.0987 -0.1316
 7215SOL    HW133281   2.765   0.111   9.376 -2.0122  1.5658  1.4019
 7215SOL    HW233282   2.690   0.046   9.479  2.3672  0.8255  0.1810
 7216SOL     OW33283   4.009   1.276   4.980  0.1852 -0.6257 -0.3065
 7216SOL    HW133284   3.942   1.332   4.940  0.4392 -0.7468 -0.9093
 7216SOL    HW233285   3.947   1.211   5.014 -1.1249  0.2998 -0.9275
 7217SOL     OW33286   1.335   1.995   2.829  0.0523  0.0557  0.2431
 7217SOL    HW133287   1.263   1.935   2.811  2.9495 -3.8765  1.7725
 7217SOL    HW233288   1.390   1.944   2.889 -0.8028 -1.9748 -0.6809
 7218SOL     OW33289   1.423   2.837   2.186  0.6634 -0.0751 -0.2928
 7218SOL    HW133290   1.518   2.837   2.178  0.6169 -0.6050 -0.8237
 7218SOL    HW233291   1.396   2.883   2.266  1.1849  0.3546 -0.3610
 7219SOL     OW33292   0.513   1.876  17.192 -0.4457 -0.3082 -0.7652
 7219SOL    HW133293   0.476   1.820  17.260  1.3119 -1.8807 -1.0925
 7219SOL    HW233294   0.505   1.966  17.225  0.4421 -1.4312  2.5501
 7220SOL     OW33295   0.423   0.817  10.005 -0.1116  0.7331  0.1453
 7220SOL    HW133296   0.337   0.814  10.047 -0.1971  0.6802 -0.0343
 7220SOL    HW233297   0.452   0.725  10.002  0.5636  0.9490 -0.0485
 7221SOL     OW33298   0.760   4.482  17.069  0.4233 -0.4195 -0.7535
 7221SOL    HW133299   0.717   4.480  17.154  1.3804 -1.4115 -0.2893
 7221SOL    HW233300   0.831   4.545  17.086  0.2895  0.3185 -2.8956
 7222SOL     OW33301   0.693   0.315  13.109 -0.1706 -0.2115 -0.6623
 7222SOL    HW133302   0.744   0.392  13.084 -0.6972 -1.0319 -4.1755
 7222SOL    HW233303   0.695   0.320  13.205  0.6967 -2.5715 -0.5478
 7223SOL     OW33304   1.511   2.144   8.156  0.1922 -0.6888  0.4429
 7223SOL    HW133305   1.487   2.124   8.066  2.6713 -3.1431  0.3420
 7223SOL    HW233306   1.583   2.206   8.145  0.0113 -0.4959  0.3380
 7224SOL     OW33307   0.823   2.706   5.369  0.6808  0.0381 -0.4024
 7224SOL    HW133308   0.825   2.786   5.317  0.6240 -0.2667 -0.8751
 7224SOL    HW233309   0.730   2.708   5.392  0.6904 -2.0154 -0.1685
 7225SOL     OW33310   0.626   0.741   7.672  0.3766  0.1711  0.1696
 7225SOL    HW133311   0.618   0.803   7.745  0.8865  0.6452 -0.1849
 7225SOL    HW233312   0.649   0.806   7.605  1.5715  0.2031  0.6229
 7226SOL     OW33313   2.109   4.452   0.266  0.0087  0.0275  0.0520
 7226SOL    HW133314   2.100   4.473   0.359  1.3825  0.1357  0.1703
 7226SOL    HW233315   2.170   4.380   0.280  0.2552  0.1865 -0.2026
 7227SOL     OW33316   2.753   2.022   7.752 -0.5948 -0.7090 -0.1764
 7227SOL    HW133317   2.822   1.968   7.790  1.2614  1.5001 -0.4448
 7227SOL    HW233318   2.682   2.009   7.814  0.7451 -0.9637  1.3020
 7228SOL     OW33319   1.615   2.547   1.430  0.1386 -0.1630  0.2013
 7228SOL    HW133320   1.683   2.615   1.420  1.1921 -1.7071 -3.3023
 7228SOL    HW233321   1.543   2.602   1.461  0.2911  0.8693 -1.2468
 7229SOL     OW33322   2.556   0.013   1.808  0.3705  0.2554 -0.5050
 7229SOL    HW133323   2.476   4.706   1.776 -0.0660 -0.4254  1.4585
 7229SOL    HW233324   2.527   0.056   1.889  0.7960 -0.4162 -0.0013
 7230SOL     OW33325   3.459   4.608  14.860  0.4936  0.1293 -0.5191
 7230SOL    HW133326   3.457   4.529  14.914  4.1982  0.1890 -0.2973
 7230SOL    HW233327   3.414   4.668  14.920 -1.2874 -1.3810 -0.3673
 7231SOL     OW33328   4.469   1.652   5.111 -0.1719  0.3657  0.1190
 7231SOL    HW133329   4.510   1.720   5.163  0.1691 -0.4446  0.9181
 7231SOL    HW233330   4.497   1.687   5.026 -0.0331 -0.7527 -0.2984
 7232SOL     OW33331   0.688   2.677  15.711  1.4670  0.1170  0.3311
 7232SOL    HW133332   0.749   2.689  15.638  0.6634  1.3521 -0.1316
 7232SOL    HW233333   0.737   2.732  15.772  0.6365  2.1911 -0.8616
 7233SOL     OW33334   2.594   3.709  10.358 -0.2950 -0.4276  0.2250
 7233SOL    HW133335   2.549   3.665  10.430 -2.9947  0.1258 -1.1142
 7233SOL    HW233336   2.671   3.735  10.407  0.2951 -0.0148 -0.9172
 7234SOL     OW33337   0.984   1.449   3.379  0.1442  0.5767 -0.1884
 7234SOL    HW133338   0.924   1.396   3.432 -0.6229  1.6119 -0.0067
 7234SOL    HW233339   1.013   1.516   3.441 -0.4856 -1.2967  2.1015
 7235SOL     OW33340   2.951   1.773  12.135  0.3193  0.4825  0.4331
 7235SOL    HW133341   3.007   1.725  12.195 -1.7736 -1.3720  0.9224
 7235SOL    HW233342   2.961   1.724  12.053 -0.1768  0.2128  0.5304
 7236SOL     OW33343   2.088   3.410  11.916 -0.3923  0.2246  0.6323
 7236SOL    HW133344   2.109   3.356  11.840 -0.0288 -1.1322  1.6894
 7236SOL    HW233345   2.046   3.484  11.874  0.0102  0.1657  0.1256
 7237SOL     OW33346   3.455   1.104   0.388 -0.0709  0.7244  0.5023
 7237SOL    HW133347   3.507   1.104   0.468  0.0559 -4.3825  0.4356
 7237SOL    HW233348   3.480   1.191   0.358  1.5640  0.8826  2.2954
 7238SOL     OW33349   4.067   3.942   1.668  0.1339 -0.3789  0.2553
 7238SOL    HW133350   4.035   3.928   1.758  1.6136 -1.2698  0.6407
 7238SOL    HW233351   4.077   3.854   1.632 -3.0502  0.4414 -2.6535
 7239SOL     OW33352   3.525   1.774   5.638 -0.1079 -0.1814 -0.2446
 7239SOL    HW133353   3.505   1.725   5.717 -2.7293  2.9070  1.0134
 7239SOL    HW233354   3.464   1.738   5.574  0.1032 -0.3058 -0.3750
 7240SOL     OW33355   0.481   2.916   0.156  0.3528 -0.3040 -0.1674
 7240SOL    HW133356   0.401   2.921   0.210 -0.9536  1.2003 -2.2549
 7240SOL    HW233357   0.530   2.855   0.212 -0.3128 -1.4687 -0.8395
 7241SOL     OW33358   3.085   4.172  15.620 -0.1064  0.1245  0.5190
 7241SOL    HW133359   3.062   4.255  15.578  0.3172  0.3581  0.7451
 7241SOL    HW233360   3.162   4.160  15.564 -0.3499  0.4055  0.1238
 7242SOL     OW33361   3.838   0.698  17.700  0.6378 -0.1860  0.4585
 7242SOL    HW133362   3.842   0.786   0.001  0.9101 -0.0190  0.0248
 7242SOL    HW233363   3.836   0.706  17.604  1.4889 -0.2202  0.4332
 7243SOL     OW33364   3.865   3.901   6.825  0.3332  0.1235 -0.1911
 7243SOL    HW133365   3.867   3.806   6.830 -1.5055  0.1034  0.1029
 7243SOL    HW233366   3.831   3.919   6.737  0.5009 -0.3058 -0.3456
 7244SOL     OW33367   1.426   1.219   3.056 -0.1806 -0.8636  0.6007
 7244SOL    HW133368   1.509   1.241   3.099  0.1810  1.4863 -1.2783
 7244SOL    HW233369   1.411   1.133   3.095 -1.9588 -0.3902  0.9596
 7245SOL     OW33370   3.086   3.102   8.230  0.3559 -0.1126 -0.0478
 7245SOL    HW133371   3.002   3.087   8.188  0.7562  1.4869 -1.4318
 7245SOL    HW233372   3.062   3.106   8.323 -0.5299 -0.4455 -0.2677
 7246SOL     OW33373   2.234   2.083   1.860 -0.1600 -0.1885 -0.1667
 7246SOL    HW133374   2.280   2.164   1.837  0.1819 -0.7729 -1.4924
 7246SOL    HW233375   2.171   2.105   1.928  1.0184  2.7422 -0.0005
 7247SOL     OW33376   4.010   4.338  10.438 -0.3037 -0.4573 -0.2823
 7247SOL    HW133377   4.076   4.387  10.388 -1.2500  3.1909  2.0248
 7247SOL    HW233378   3.975   4.282  10.369 -3.3514  1.7063 -0.5133
 7248SOL     OW33379   2.735   2.686   8.892  0.0547  0.0247 -0.4258
 7248SOL    HW133380   2.655   2.686   8.945  0.9972 -1.3814  1.0004
 7248SOL    HW233381   2.700   2.679   8.803  0.2612  1.4741 -0.6286
 7249SOL     OW33382   1.455   1.097  13.771 -0.5271 -0.1837  0.6358
 7249SOL    HW133383   1.401   1.166  13.733  2.7515  1.5380 -0.9559
 7249SOL    HW233384   1.524   1.086  13.706 -1.7046  3.3003 -1.1773
 7250SOL     OW33385   2.660   2.495  11.571 -0.0791  0.5161  0.2740
 7250SOL    HW133386   2.645   2.412  11.525 -0.7955  1.8586 -1.9159
 7250SOL    HW233387   2.635   2.556  11.502  0.2400  1.1042  0.6746
 7251SOL     OW33388   3.193   3.564   4.160  0.1144 -0.2592  0.0701
 7251SOL    HW133389   3.138   3.611   4.223 -0.8507 -1.8081  0.3867
 7251SOL    HW233390   3.247   3.633   4.122  1.6152 -1.0336  0.8098
 7252SOL     OW33391   1.850   1.884   7.580 -0.6882 -0.2053  0.2578
 7252SOL    HW133392   1.816   1.806   7.537 -1.5328 -0.4685  1.4033
 7252SOL    HW233393   1.934   1.896   7.536  0.1443 -0.0239  1.8842
 7253SOL     OW33394   2.889   3.738   4.086  0.3115 -0.1157 -0.1720
 7253SOL    HW133395   2.936   3.812   4.048 -0.0396 -0.6880 -1.7051
 7253SOL    HW233396   2.939   3.735   4.168  0.6387  1.3359 -0.3239
 7254SOL     OW33397   3.351   3.964  15.253  0.1471 -0.7491  0.2911
 7254SOL    HW133398   3.444   3.953  15.270 -0.0139  0.9263  2.3147
 7254SOL    HW233399   3.343   3.964  15.158  0.4535 -0.2589  0.2669
 7255SOL     OW33400   4.583   3.156  17.449 -0.0812 -0.3139  0.4831
 7255SOL    HW133401   4.515   3.168  17.515  0.6847 -0.8093  1.3466
 7255SOL    HW233402   4.580   3.063  17.428  1.4626  0.0324 -1.2769
 7256SOL     OW33403   2.663   4.325  13.533  0.2581 -0.1628  0.2502
 7256SOL    HW133404   2.599   4.273  13.582  0.5961 -0.9325 -0.1155
 7256SOL    HW233405   2.606   4.395  13.500  1.6100 -0.6655 -3.1839
 7257SOL     OW33406   0.479   0.094   3.232  0.2732 -0.5940  0.0645
 7257SOL    HW133407   0.392   0.097   3.273  0.4870  0.6098  0.4005
 7257SOL    HW233408   0.521   0.179   3.233 -0.8357 -0.0303 -0.9757
 7258SOL     OW33409   4.193   0.014   8.199  0.0491 -0.4548 -0.3582
 7258SOL    HW133410   4.229   0.072   8.267  2.2528 -2.3026  0.0827
 7258SOL    HW233411   4.267   0.009   8.138 -1.2190  0.8346 -1.9841
 7259SOL     OW33412   0.096   4.264   8.660 -0.5299 -0.1217  0.4134
 7259SOL    HW133413   0.096   4.308   8.745 -0.1154  0.0656  0.3170
 7259SOL    HW233414   0.103   4.343   8.607 -1.9291  0.6287  1.3495
 7260SOL     OW33415   3.166   4.488   6.910  0.0262 -0.5644 -0.0400
 7260SOL    HW133416   3.203   4.400   6.897 -0.6376 -0.8576  0.0381
 7260SOL    HW233417   3.218   4.544   6.852  0.7009 -1.8979 -0.7386
 7261SOL     OW33418   0.353   0.097   9.231  0.3032  0.6904  0.0308
 7261SOL    HW133419   0.275   0.128   9.186 -0.4201  1.3291  1.7341
 7261SOL    HW233420   0.382   0.172   9.283  2.1535 -0.2537  0.3468
 7262SOL     OW33421   2.601   3.398   2.358 -0.6144  0.7375 -0.3302
 7262SOL    HW133422   2.616   3.422   2.449 -1.2620  0.5541 -0.1756
 7262SOL    HW233423   2.560   3.314   2.376 -0.5194  1.0248  1.2079
 7263SOL     OW33424   2.002   3.572   9.042  0.2539  0.1776 -0.1539
 7263SOL    HW133425   2.043   3.616   8.968  0.0134 -0.8090 -0.8849
 7263SOL    HW233426   1.931   3.628   9.074  2.1980  2.5675 -0.0856
 7264SOL     OW33427   2.922   1.279   2.277  0.2643  0.1318  0.3164
 7264SOL    HW133428   2.956   1.198   2.238  2.3731  0.8592  0.6404
 7264SOL    HW233429   2.954   1.339   2.210  0.6764 -0.7231 -0.2519
 7265SOL     OW33430   3.955   2.007   9.960 -0.1383  0.4256 -0.2277
 7265SOL    HW133431   4.033   2.032   9.910  0.1096 -2.0578 -1.0917
 7265SOL    HW233432   3.898   1.990   9.885  1.6013  0.0096 -1.4649
 7266SOL     OW33433   4.307   2.172   4.845  0.0841 -0.0732  0.1586
 7266SOL    HW133434   4.355   2.097   4.810 -1.1973 -0.4004 -0.8886
 7266SOL    HW233435   4.220   2.133   4.836 -0.4122  1.3922 -1.2123
 7267SOL     OW33436   2.757   1.862  16.417  0.4524 -0.4538 -0.9620
 7267SOL    HW133437   2.774   1.945  16.372  1.3577  0.5832  1.2961
 7267SOL    HW233438   2.662   1.869  16.414  0.4680 -0.5182 -1.7939
 7268SOL     OW33439   4.603   2.125   8.904 -0.5141  0.0317 -0.3030
 7268SOL    HW133440   4.550   2.097   8.829  1.3031  2.0886 -2.3971
 7268SOL    HW233441   4.683   2.081   8.877 -0.8801  0.0866 -1.5032
 7269SOL     OW33442   2.667   2.400   7.044  0.0409 -1.3247 -0.3821
 7269SOL    HW133443   2.591   2.435   6.996  1.7442 -1.4373 -3.1860
 7269SOL    HW233444   2.745   2.410   6.990  1.0009 -0.5541  1.1658
 7270SOL     OW33445   0.705   1.882  11.356 -0.1578 -0.3067 -0.2545
 7270SOL    HW133446   0.774   1.821  11.382 -0.9945  0.0880  2.9386
 7270SOL    HW233447   0.667   1.904  11.441 -1.8034  1.1748 -1.3790
 7271SOL     OW33448   1.204   0.778   5.780  0.1407 -0.1662 -0.2535
 7271SOL    HW133449   1.180   0.794   5.689  0.3923 -2.6150 -0.7334
 7271SOL    HW233450   1.258   0.857   5.786 -0.5728  0.1206  2.5295
 7272SOL     OW33451   1.564   2.505   6.522 -0.0144  0.2206 -0.1872
 7272SOL    HW133452   1.622   2.570   6.484 -1.2027  1.0884 -0.5248
 7272SOL    HW233453   1.474   2.527   6.497  0.0397  0.4593 -0.1741
 7273SOL     OW33454   0.471   2.240   1.953 -0.5665  0.5638  0.0890
 7273SOL    HW133455   0.427   2.182   1.891  1.3658  1.2411 -1.8875
 7273SOL    HW233456   0.452   2.191   2.034 -0.8425 -0.6893 -0.7337
 7274SOL     OW33457   4.661   3.643   5.441 -0.4301  0.3856  0.2328
 7274SOL    HW133458   4.613   3.634   5.358 -0.6437  1.3022  0.2580
 7274SOL    HW233459   4.607   3.586   5.497 -0.9887 -0.0449 -0.7348
 7275SOL     OW33460   0.934   1.512   5.791 -0.0743  0.2252 -0.3142
 7275SOL    HW133461   1.025   1.531   5.813  0.1173 -1.7847  0.6242
 7275SOL    HW233462   0.905   1.602   5.806 -0.8203 -0.0689 -0.0212
 7276SOL     OW33463   4.588   0.767   5.181 -0.1209 -0.2319 -0.2158
 7276SOL    HW133464   4.496   0.789   5.172 -0.2352 -1.0538 -1.0470
 7276SOL    HW233465   4.613   0.829   5.250 -0.1947 -0.2811 -0.1452
 7277SOL     OW33466   4.304   4.694   8.507 -0.1329  0.2934 -1.0495
 7277SOL    HW133467   4.275   0.044   8.543  0.1907 -0.3863  0.7930
 7277SOL    HW233468   4.387   4.715   8.465  0.3382  0.1242 -0.1888
 7278SOL     OW33469   1.395   0.795   1.545  0.0450 -0.4216  0.2812
 7278SOL    HW133470   1.361   0.839   1.623 -0.9089 -2.7662  1.1794
 7278SOL    HW233471   1.337   0.836   1.481  0.4010  0.0291  0.2469
 7279SOL     OW33472   2.290   0.470  12.612  0.8439  0.1516 -0.0124
 7279SOL    HW133473   2.352   0.418  12.664  2.4168  0.8838 -1.1288
 7279SOL    HW233474   2.234   0.510  12.679  0.1266  0.9783 -1.1075
 7280SOL     OW33475   4.717   0.063   7.416  0.1218  0.3040 -0.0159
 7280SOL    HW133476   4.643   0.031   7.363  0.5018 -0.9253  0.1890
 7280SOL    HW233477   0.043   0.078   7.343  0.4150  2.5124  0.7101
 7281SOL     OW33478   4.137   3.957   8.490 -0.2635  0.2621 -0.0313
 7281SOL    HW133479   4.212   3.904   8.462 -1.1299  0.0536 -1.9899
 7281SOL    HW233480   4.075   3.948   8.417  0.7443 -2.0373 -0.6275
 7282SOL     OW33481   0.415   1.173   5.946  0.2112  0.5787 -0.2627
 7282SOL    HW133482   0.372   1.092   5.971 -2.3487  2.2793  0.9179
 7282SOL    HW233483   0.458   1.191   6.029  0.2535  0.6622 -0.3024
 7283SOL     OW33484   2.383   4.564  10.078  0.1749 -0.0828  0.4324
 7283SOL    HW133485   2.359   4.583  10.168  1.9451  1.2853  0.6024
 7283SOL    HW233486   2.471   4.531  10.094 -0.6595 -2.4667  0.1292
 7284SOL     OW33487   2.784   0.835  10.672 -0.1558  0.0830 -0.0090
 7284SOL    HW133488   2.697   0.827  10.712 -0.2857  0.5586 -0.1904
 7284SOL    HW233489   2.839   0.836  10.750 -2.3659  0.8666  1.5387
 7285SOL     OW33490   1.020   2.127   9.322 -0.0958  0.1947 -0.2788
 7285SOL    HW133491   1.063   2.165   9.246  1.7086 -1.5513 -0.1395
 7285SOL    HW233492   0.984   2.051   9.275  1.2569 -0.1149 -0.8174
 7286SOL     OW33493   1.056   0.848   6.309 -0.0772 -0.1268  0.9612
 7286SOL    HW133494   0.999   0.920   6.281  1.3528  1.7112  2.7526
 7286SOL    HW233495   1.124   0.838   6.242 -1.5683  0.4395 -0.6177
 7287SOL     OW33496   1.366   1.012   7.577 -0.6442  0.3195 -0.1046
 7287SOL    HW133497   1.315   1.086   7.543 -0.5867  1.3069  1.9798
 7287SOL    HW233498   1.446   1.051   7.612 -0.5336  0.7056 -0.7789
 7288SOL     OW33499   2.461   2.674   8.879 -0.1827  0.4828 -0.2483
 7288SOL    HW133500   2.403   2.608   8.917 -0.0091  0.8237  0.5877
 7288SOL    HW233501   2.421   2.694   8.794  1.9913 -0.1875 -1.4196
 7289SOL     OW33502   1.898   3.878   0.369 -0.2792 -0.7318 -0.2875
 7289SOL    HW133503   1.936   3.965   0.382  2.4652 -1.6196 -2.2025
 7289SOL    HW233504   1.927   3.835   0.450  0.1762 -0.1422 -0.1371
 7290SOL     OW33505   2.694   1.893  10.809  0.8924 -0.1527 -0.3548
 7290SOL    HW133506   2.608   1.852  10.804  1.8536 -2.4667  2.2972
 7290SOL    HW233507   2.676   1.987  10.810  1.6605  0.0090 -1.2534
 7291SOL     OW33508   1.782   1.289  13.984  0.2598  0.3250  0.1019
 7291SOL    HW133509   1.793   1.197  13.963  0.8901  0.3234  0.4313
 7291SOL    HW233510   1.687   1.296  13.995  0.5153  3.0432  0.7411
 7292SOL     OW33511   4.114   2.153   3.810  0.3307 -0.2747 -0.7805
 7292SOL    HW133512   4.148   2.076   3.856  2.3134  0.0985 -1.6178
 7292SOL    HW233513   4.190   2.210   3.811 -0.0188  0.1871 -1.1421
 7293SOL     OW33514   3.498   2.301   7.328  0.7587 -0.2801  0.3363
 7293SOL    HW133515   3.437   2.266   7.393 -0.6476 -0.7748 -1.2524
 7293SOL    HW233516   3.462   2.263   7.247 -0.4789 -1.9881  1.6673
 7294SOL     OW33517   0.029   0.242   4.923  0.0014 -0.3088 -0.1415
 7294SOL    HW133518   0.035   0.185   5.000 -0.6678  0.6780  0.6479
 7294SOL    HW233519   0.108   0.295   4.934 -0.2886  0.0776  0.0969
 7295SOL     OW33520   4.622   4.604   2.446  0.3798 -0.0031  0.4146
 7295SOL    HW133521   4.660   4.622   2.532 -0.0898  0.4181  0.5343
 7295SOL    HW233522   4.602   4.510   2.447 -0.8703  0.2585  1.0186
 7296SOL     OW33523   1.101   3.006  16.043  0.3086 -0.0903 -0.7141
 7296SOL    HW133524   1.097   2.994  16.138 -0.4028 -0.9897 -0.8550
 7296SOL    HW233525   1.017   3.044  16.019 -0.9374 -1.9595  0.5972
 7297SOL     OW33526   0.667   0.215   8.106  0.4689 -0.4203  0.0350
 7297SOL    HW133527   0.674   0.273   8.030  2.0402  1.4113  1.5815
 7297SOL    HW233528   0.724   0.241   8.178 -1.2828  0.4579  1.0885
 7298SOL     OW33529   1.994   2.936  14.416  0.4228  0.0549  0.6148
 7298SOL    HW133530   1.997   2.846  14.446  1.2726  0.0191  0.4425
 7298SOL    HW233531   2.083   2.967  14.435  0.1424  1.6321 -0.6060
 7299SOL     OW33532   1.524   2.374   4.272  0.1904 -0.5005  0.2268
 7299SOL    HW133533   1.534   2.466   4.299 -2.2865 -0.3968  0.7960
 7299SOL    HW233534   1.446   2.366   4.217  0.9108 -1.3273 -0.6813
 7300SOL     OW33535   0.357   1.019  10.214 -0.1439  0.4835 -0.3360
 7300SOL    HW133536   0.447   0.990  10.200 -0.6305 -1.5378  0.7357
 7300SOL    HW233537   0.390   1.101  10.249  0.4148  1.1556 -2.4100
 7301SOL     OW33538   0.665   0.586   4.833  0.7453 -0.0676  0.1975
 7301SOL    HW133539   0.758   0.605   4.846  0.7114  0.7964 -0.7783
 7301SOL    HW233540   0.655   0.491   4.832  2.4934 -0.2523 -0.5569
 7302SOL     OW33541   3.818   2.685   5.631 -0.0879 -0.3614 -0.1250
 7302SOL    HW133542   3.852   2.699   5.543 -1.7068  0.5225 -0.6022
 7302SOL    HW233543   3.846   2.767   5.672 -1.0850  0.8968 -1.9380
 7303SOL     OW33544   3.142   4.488   5.023 -0.0692  0.3200 -0.0432
 7303SOL    HW133545   3.063   4.469   5.074  0.1682 -3.0416 -0.9204
 7303SOL    HW233546   3.163   4.562   5.079 -0.0818 -0.1339  0.5637
 7304SOL     OW33547   2.165   2.819   5.528  0.2225  0.3853 -0.8201
 7304SOL    HW133548   2.216   2.899   5.512 -0.6431  1.5056  2.0515
 7304SOL    HW233549   2.189   2.765   5.453 -0.0015 -1.3055  0.3179
 7305SOL     OW33550   2.037   3.738   3.730  0.1661 -0.3742 -0.3005
 7305SOL    HW133551   2.001   3.729   3.819  0.3591  3.4700  0.1779
 7305SOL    HW233552   2.094   3.662   3.724 -0.3708 -0.5724 -2.9179
 7306SOL     OW33553   1.988   0.675   6.127 -0.4314 -0.4357  0.4450
 7306SOL    HW133554   2.053   0.608   6.108 -0.3585 -0.1004 -0.5032
 7306SOL    HW233555   2.040   0.753   6.148 -0.2798 -0.4595  0.1635
 7307SOL     OW33556   2.601   3.147  14.988 -0.1884 -0.4699 -0.3822
 7307SOL    HW133557   2.568   3.078  15.046 -1.1937 -0.7247 -1.2502
 7307SOL    HW233558   2.689   3.167  15.021 -0.5359 -1.5893  1.2647
 7308SOL     OW33559   0.580   3.419   4.515  0.9132 -0.2130  0.2144
 7308SOL    HW133560   0.510   3.411   4.450  0.7659 -1.1110  0.4877
 7308SOL    HW233561   0.659   3.418   4.461  0.0136 -1.6593 -1.0593
 7309SOL     OW33562   2.929   4.587   2.391  0.2088 -0.0649 -0.0120
 7309SOL    HW133563   2.878   4.547   2.320 -1.0442 -1.4952  1.6951
 7309SOL    HW233564   2.852   4.587   2.447  0.0560 -0.9153 -0.2215
 7310SOL     OW33565   4.304   2.440   7.721  0.2221 -0.1089  0.2667
 7310SOL    HW133566   4.210   2.458   7.718  0.1362 -0.9962 -2.3215
 7310SOL    HW233567   4.326   2.532   7.734  1.3186 -0.4518  0.8207
 7311SOL     OW33568   0.952   4.312   8.738  0.2004 -0.1156 -0.4400
 7311SOL    HW133569   0.891   4.362   8.793  0.5103 -1.8495  1.4660
 7311SOL    HW233570   1.038   4.337   8.771  1.3695 -1.2578 -2.6697
 7312SOL     OW33571   0.554   0.577   2.254  0.0436  0.1651  0.8173
 7312SOL    HW133572   0.612   0.652   2.238  0.1043 -0.0896 -0.1134
 7312SOL    HW233573   0.577   0.515   2.185 -1.5633  1.5195 -0.9392
 7313SOL     OW33574   1.295   0.603   9.473  0.4036  0.4076  0.5012
 7313SOL    HW133575   1.282   0.508   9.475  2.3412  0.1008 -1.6773
 7313SOL    HW233576   1.348   0.606   9.394  0.7542  0.8381  0.7504
 7314SOL     OW33577   2.824   4.685   7.122  0.1318  0.3893  0.3479
 7314SOL    HW133578   2.880   0.028   7.116 -0.3708  0.6070 -1.2951
 7314SOL    HW233579   2.889   4.617   7.141  0.2285  0.6943  1.1365
 7315SOL     OW33580   1.513   0.724   7.507 -0.4457 -0.7857  0.1161
 7315SOL    HW133581   1.443   0.659   7.507  0.3738 -1.6778 -3.2352
 7315SOL    HW233582   1.491   0.762   7.422 -1.8564 -1.0106  0.3834
 7316SOL     OW33583   0.191   4.326   8.206  0.3160 -0.8611  0.1501
 7316SOL    HW133584   0.266   4.384   8.189  0.0246 -0.8824 -1.2362
 7316SOL    HW233585   0.122   4.387   8.229  0.5256  0.2548 -2.1353
 7317SOL     OW33586   1.536   3.664   7.372  0.2777  0.1505 -0.0063
 7317SOL    HW133587   1.454   3.664   7.422 -0.9684 -0.9707 -2.0683
 7317SOL    HW233588   1.497   3.643   7.287  0.2668 -0.6005  0.1828
 7318SOL     OW33589   3.262   4.226  15.158 -0.2361 -0.1374  0.0477
 7318SOL    HW133590   3.194   4.264  15.214 -0.6012 -1.2088  0.3325
 7318SOL    HW233591   3.276   4.138  15.191  0.0954 -1.2030 -2.9047
 7319SOL     OW33592   1.364   3.258  11.339 -0.0760 -0.4042 -0.4536
 7319SOL    HW133593   1.289   3.199  11.337 -0.5388  0.2277 -2.1080
 7319SOL    HW233594   1.339   3.314  11.412  1.8040 -2.3547  1.6618
 7320SOL     OW33595   0.295   0.815   2.047  0.0658  0.3118 -0.2821
 7320SOL    HW133596   0.374   0.773   2.013 -1.3304 -2.3287 -0.2416
 7320SOL    HW233597   0.321   0.823   2.139 -0.8100  1.3106 -0.1121
 7321SOL     OW33598   3.357   3.974   3.224 -0.4038 -0.2147 -0.3969
 7321SOL    HW133599   3.353   3.985   3.319  0.7062  1.4818 -0.5566
 7321SOL    HW233600   3.276   3.923   3.212  0.2287 -1.1703 -0.6038
 7322SOL     OW33601   2.326   3.980  14.211  0.0749  0.2780  0.1829
 7322SOL    HW133602   2.316   3.885  14.215 -2.7940  0.4805 -2.1440
 7322SOL    HW233603   2.282   4.018  14.287 -0.4097 -0.4064  0.2437
 7323SOL     OW33604   1.192   2.640  10.175 -0.3259 -0.0447  0.8391
 7323SOL    HW133605   1.189   2.590  10.256  2.6909  0.3746  1.1939
 7323SOL    HW233606   1.218   2.729  10.197  1.9697 -0.5245  0.0535
 7324SOL     OW33607   2.702   2.243   3.256 -0.2316 -0.3491 -0.1219
 7324SOL    HW133608   2.618   2.213   3.221  0.4565 -1.9472 -0.4111
 7324SOL    HW233609   2.689   2.197   3.339  0.8692  0.2646  0.3979
 7325SOL     OW33610   3.143   4.362   9.641 -0.2582  0.3191  0.1626
 7325SOL    HW133611   3.182   4.371   9.728  2.1840 -1.1931 -0.8004
 7325SOL    HW233612   3.054   4.332   9.662 -0.4673  2.1974  1.9574
 7326SOL     OW33613   1.122   3.158   8.510 -0.2199 -0.0237  0.0343
 7326SOL    HW133614   1.195   3.112   8.468 -0.1026  0.6350 -0.4838
 7326SOL    HW233615   1.157   3.246   8.499 -0.7759 -0.0899 -2.2178
 7327SOL     OW33616   1.478   3.350   1.074 -0.4070  0.0631  0.3081
 7327SOL    HW133617   1.414   3.279   1.064  0.7014 -0.9396  0.2497
 7327SOL    HW233618   1.474   3.375   1.166  4.1872  2.7768 -0.2091
 7328SOL     OW33619   3.081   2.089   3.237 -0.3481 -0.4972 -0.1189
 7328SOL    HW133620   3.159   2.034   3.233  0.0667 -0.0147  1.4850
 7328SOL    HW233621   3.011   2.034   3.202 -0.6339 -1.1717  1.5447
 7329SOL     OW33622   1.319   4.205   8.357 -0.2460  0.4282  0.8980
 7329SOL    HW133623   1.272   4.203   8.440  0.9245  1.3587  1.5859
 7329SOL    HW233624   1.277   4.129   8.317  3.0921 -0.8288 -0.2504
 7330SOL     OW33625   4.339   1.737  10.155  0.2956 -0.1814 -0.5104
 7330SOL    HW133626   4.246   1.752  10.172  0.4631  0.5918 -0.3011
 7330SOL    HW233627   4.366   1.822  10.188  1.2438 -0.6578 -0.0645
 7331SOL     OW33628   0.736   4.297  16.499  0.0671 -0.3936 -0.5703
 7331SOL    HW133629   0.698   4.347  16.571  1.4679 -1.5518  0.9776
 7331SOL    HW233630   0.736   4.364  16.431 -0.8646 -0.1585 -0.3379
 7332SOL     OW33631   2.789   4.286   4.970 -0.3199  0.5338 -0.3742
 7332SOL    HW133632   2.786   4.200   5.013  0.5424  1.4072  1.4101
 7332SOL    HW233633   2.827   4.334   5.043 -1.9396  1.5077 -0.1755
 7333SOL     OW33634   3.804   3.334   2.310  0.0138 -0.0598  0.1095
 7333SOL    HW133635   3.763   3.250   2.290  0.5904 -0.3806  0.2744
 7333SOL    HW233636   3.811   3.331   2.405 -1.5973 -0.3783  0.2126
 7334SOL     OW33637   1.040   1.402  12.443 -0.0634 -0.2090  0.1473
 7334SOL    HW133638   1.080   1.347  12.510 -1.4475 -0.8057  0.4924
 7334SOL    HW233639   1.108   1.467  12.426  2.2417 -2.5666  0.3077
 7335SOL     OW33640   2.220   0.965   3.439  0.0388  0.2854 -0.0865
 7335SOL    HW133641   2.140   0.974   3.388 -0.8416  0.5310  1.3209
 7335SOL    HW233642   2.284   0.932   3.376  1.4631  0.0417  1.4770
 7336SOL     OW33643   4.584   3.840  15.647  0.5099 -0.1781  0.5358
 7336SOL    HW133644   4.656   3.832  15.709  1.9608  0.3119 -1.0873
 7336SOL    HW233645   4.634   3.827  15.567 -1.2935  1.8722 -0.9301
 7337SOL     OW33646   0.324   1.290  12.200  0.7023 -0.0833  0.7924
 7337SOL    HW133647   0.290   1.337  12.276  2.0516  1.8943  0.1705
 7337SOL    HW233648   0.260   1.219  12.190 -1.7151  2.3703 -1.2849
 7338SOL     OW33649   0.868   3.182   8.407  0.0041  1.0642  0.2162
 7338SOL    HW133650   0.811   3.233   8.465  1.1820  0.2392  2.0897
 7338SOL    HW233651   0.942   3.179   8.468 -0.5101 -0.5980  0.7601
 7339SOL     OW33652   1.230   1.337   4.471  0.0326  0.2953  0.0033
 7339SOL    HW133653   1.153   1.279   4.473 -0.9711  1.5935 -0.7984
 7339SOL    HW233654   1.279   1.284   4.534 -2.1894  0.4548  1.8632
 7340SOL     OW33655   4.580   3.036  11.807 -0.2145 -0.0100  0.1776
 7340SOL    HW133656   4.572   3.050  11.713  0.4815  0.6590  0.2165
 7340SOL    HW233657   4.621   3.121  11.825 -1.4501  0.0469  2.7893
 7341SOL     OW33658   1.084   1.238  12.684  0.2539  0.2893 -0.3204
 7341SOL    HW133659   1.083   1.298  12.757 -2.0480 -0.3179  0.1266
 7341SOL    HW233660   1.174   1.203  12.690  0.2885  0.2444 -1.0835
 7342SOL     OW33661   0.461   0.081   8.712 -0.7971  0.5456  0.1509
 7342SOL    HW133662   0.490   0.056   8.800  1.1933 -2.8926 -1.4606
 7342SOL    HW233663   0.497   0.168   8.695  0.1882 -0.0697 -0.9626
 7343SOL     OW33664   4.267   3.536   1.563 -0.0659  0.6385  0.0169
 7343SOL    HW133665   4.287   3.583   1.645  2.9282 -0.0029 -0.3319
 7343SOL    HW233666   4.352   3.550   1.522 -0.3326  0.5041 -0.5793
 7344SOL     OW33667   3.964   0.080   2.053  0.1845  0.1516 -0.0247
 7344SOL    HW133668   3.910   0.030   1.993  1.1215  1.6649 -2.1206
 7344SOL    HW233669   3.936   0.169   2.029  0.9804  0.7586  1.2725
 7345SOL     OW33670   0.624   1.646   2.229  0.1387  0.3607 -0.2279
 7345SOL    HW133671   0.570   1.682   2.300 -0.4703 -0.1998 -0.4076
 7345SOL    HW233672   0.595   1.702   2.157 -0.4505  0.0411 -0.2381
 7346SOL     OW33673   0.865   1.372   2.888 -0.1311  0.4020 -0.0687
 7346SOL    HW133674   0.958   1.396   2.886  0.4355 -1.8544 -1.0420
 7346SOL    HW233675   0.854   1.317   2.966  1.1767 -0.5493 -0.5422
 7347SOL     OW33676   0.694   2.861   4.131 -0.2535  0.1582  0.5088
 7347SOL    HW133677   0.669   2.891   4.218  0.3225 -0.8541  1.0178
 7347SOL    HW233678   0.716   2.948   4.099  1.1012 -1.0140 -1.7230
 7348SOL     OW33679   4.010   1.427   8.859  0.2394  0.0245 -0.1099
 7348SOL    HW133680   3.971   1.352   8.904 -0.4371  0.1681 -0.4698
 7348SOL    HW233681   4.024   1.399   8.768  0.0842  0.7821 -0.3665
 7349SOL     OW33682   0.864   0.983  13.736  0.4063  0.1640 -0.3357
 7349SOL    HW133683   0.800   1.052  13.758 -0.6634 -0.7561 -0.5426
 7349SOL    HW233684   0.912   0.973  13.818  1.6166 -0.2930 -1.1027
 7350SOL     OW33685   2.710   3.648   2.945 -0.0665 -0.3483 -0.1107
 7350SOL    HW133686   2.652   3.572   2.956 -0.2161 -0.2767 -0.3984
 7350SOL    HW233687   2.650   3.722   2.940 -0.6237 -0.7116  1.0199
 7351SOL     OW33688   3.946   0.182   6.336 -0.2702 -0.0627  0.0175
 7351SOL    HW133689   3.999   0.118   6.382 -1.0551 -1.1869 -0.6419
 7351SOL    HW233690   4.011   0.201   6.268 -0.7027  2.5241  0.3239
 7352SOL     OW33691   3.698   2.504  12.157 -0.3671 -0.7419  0.3414
 7352SOL    HW133692   3.624   2.479  12.102  0.8260 -2.9381 -0.2466
 7352SOL    HW233693   3.767   2.496  12.092 -0.1771 -0.9450  0.5688
 7353SOL     OW33694   4.144   2.893   7.624 -0.2764 -0.2028 -0.4769
 7353SOL    HW133695   4.153   2.902   7.719  0.3276  0.4695 -0.6013
 7353SOL    HW233696   4.184   2.808   7.606 -0.3279 -0.2074 -0.5677
 7354SOL     OW33697   2.849   0.669   7.289 -0.2311  0.3510  0.1134
 7354SOL    HW133698   2.823   0.754   7.256 -0.9159 -0.6538 -1.9039
 7354SOL    HW233699   2.937   0.679   7.326 -0.1386 -0.1823  0.0455
 7355SOL     OW33700   1.303   2.959   4.035  0.0949  0.3324  0.0468
 7355SOL    HW133701   1.376   2.920   4.083  1.1219 -0.1183 -1.8826
 7355SOL    HW233702   1.244   2.979   4.108  0.7260  2.0717  0.0838
 7356SOL     OW33703   3.970   4.427   5.033  0.0698 -0.0538 -0.1205
 7356SOL    HW133704   4.020   4.398   5.110 -0.4371 -0.3319  0.1080
 7356SOL    HW233705   3.965   4.522   5.036  0.7886 -0.0523  1.0410
 7357SOL     OW33706   1.016   3.553   7.340  0.3906  0.1668  0.0014
 7357SOL    HW133707   1.017   3.648   7.353 -1.0246  0.3046 -0.9226
 7357SOL    HW233708   0.987   3.550   7.249  2.0430 -1.8538 -0.4646
 7358SOL     OW33709   1.619   0.641   3.545  0.2649  0.1323  0.0743
 7358SOL    HW133710   1.695   0.689   3.511 -0.5641  2.1288  1.0539
 7358SOL    HW233711   1.552   0.649   3.477  0.5315  2.2899  0.0584
 7359SOL     OW33712   4.370   2.971  10.741 -0.3853 -0.2239 -0.1823
 7359SOL    HW133713   4.311   2.896  10.744  1.3802 -1.5663  0.8425
 7359SOL    HW233714   4.368   2.994  10.648  2.5817 -1.2279 -0.4840
 7360SOL     OW33715   2.241   3.278   2.137  0.0888  0.0704 -0.2893
 7360SOL    HW133716   2.261   3.211   2.202  0.7502  1.5774  1.0757
 7360SOL    HW233717   2.176   3.226   2.090  0.1258 -0.2308 -0.0100
 7361SOL     OW33718   3.233   3.539   9.310  0.4040  0.5886  0.0185
 7361SOL    HW133719   3.234   3.449   9.342 -0.4138  0.1812 -1.0925
 7361SOL    HW233720   3.182   3.592   9.372  1.1070  1.6887 -0.3300
 7362SOL     OW33721   2.478   0.608  14.894  0.0918 -0.4510  0.8121
 7362SOL    HW133722   2.398   0.574  14.854 -0.6171  0.6802  1.2576
 7362SOL    HW233723   2.500   0.687  14.844 -1.9496 -0.5939 -0.3015
 7363SOL     OW33724   0.317   4.437  16.359 -0.4935  0.0990 -0.5988
 7363SOL    HW133725   0.242   4.378  16.360  0.3493 -0.9023  2.7076
 7363SOL    HW233726   0.332   4.464  16.268 -2.0642 -1.3938 -1.2859
 7364SOL     OW33727   2.079   3.231   7.793 -0.0395  0.3832 -0.4415
 7364SOL    HW133728   2.095   3.149   7.841 -1.2464  0.1630 -0.4197
 7364SOL    HW233729   2.092   3.201   7.703  1.5187 -0.1564 -0.0310
 7365SOL     OW33730   3.227   2.271  11.612 -0.2160 -0.4655  0.0935
 7365SOL    HW133731   3.266   2.291  11.697  0.6473 -2.2966  0.1276
 7365SOL    HW233732   3.141   2.313  11.615 -0.2235 -0.5149  0.5778
 7366SOL     OW33733   1.001   4.114  16.008 -0.0843 -0.1586 -0.7515
 7366SOL    HW133734   0.998   4.033  16.060 -0.6990  0.4806  0.2183
 7366SOL    HW233735   1.054   4.077  15.938  1.1315 -0.3263  0.2700
 7367SOL     OW33736   2.783   3.954   2.799  0.7120  0.0333 -0.0350
 7367SOL    HW133737   2.817   4.029   2.848 -0.7868 -1.5340  3.4552
 7367SOL    HW233738   2.711   3.920   2.853  0.4456 -0.0928 -0.4686
 7368SOL     OW33739   3.074   2.572   6.297  0.2471 -0.2504  0.4459
 7368SOL    HW133740   3.159   2.612   6.315  0.1150 -0.3802  1.3610
 7368SOL    HW233741   3.012   2.645   6.297  0.5414  0.0001 -0.6197
 7369SOL     OW33742   3.882   1.736   6.996  0.0442 -0.2463 -0.1738
 7369SOL    HW133743   3.847   1.767   7.080  0.2125  1.9559 -0.9253
 7369SOL    HW233744   3.915   1.654   7.032 -0.0103 -0.7386 -1.2527
 7370SOL     OW33745   1.644   0.190   8.314  0.3433 -0.1224  0.1437
 7370SOL    HW133746   1.703   0.238   8.371 -2.0379 -0.0477  2.5598
 7370SOL    HW233747   1.645   0.102   8.352 -0.1533 -1.0067 -1.8448
 7371SOL     OW33748   1.438   3.752   1.717 -0.1954 -0.0855  0.2683
 7371SOL    HW133749   1.520   3.791   1.687 -0.6994  1.5382  0.9945
 7371SOL    HW233750   1.463   3.713   1.801  1.7725  1.0838  0.2151
 7372SOL     OW33751   2.197   2.898   2.209  0.0059 -0.1616 -0.2957
 7372SOL    HW133752   2.169   2.848   2.286 -0.9615  0.7188 -0.0802
 7372SOL    HW233753   2.237   2.969   2.260  1.4286 -2.1591  1.3654
 7373SOL     OW33754   0.317   1.052  14.836  0.3933 -0.4157  0.3706
 7373SOL    HW133755   0.239   1.045  14.781  1.3127 -1.5821 -0.7920
 7373SOL    HW233756   0.388   1.065  14.773 -0.6659 -0.7114 -0.8571
 7374SOL     OW33757   1.791   1.581   2.472 -0.5112  0.0094  0.5412
 7374SOL    HW133758   1.753   1.644   2.410 -1.6544 -1.3604 -0.1571
 7374SOL    HW233759   1.848   1.520   2.426  0.3316  1.0078  0.2499
 7375SOL     OW33760   1.680   4.144   1.508 -0.3549  0.0599 -0.1229
 7375SOL    HW133761   1.750   4.107   1.562  0.2454  1.1594 -0.1505
 7375SOL    HW233762   1.616   4.077   1.533  0.2533 -0.3700  0.3026
 7376SOL     OW33763   0.656   3.189   6.148  0.1667 -0.0410  0.3583
 7376SOL    HW133764   0.721   3.245   6.191  0.4228 -0.7513  0.8790
 7376SOL    HW233765   0.605   3.254   6.099  1.9028  1.8669  1.0713
 7377SOL     OW33766   4.459   2.291   4.641 -0.3744  0.1676  0.3074
 7377SOL    HW133767   4.431   2.268   4.730 -2.0501 -3.3476 -1.1321
 7377SOL    HW233768   4.373   2.315   4.609 -0.9116 -0.0928  1.5458
 7378SOL     OW33769   0.515   0.724   1.547 -0.3201  0.5021  0.4446
 7378SOL    HW133770   0.508   0.656   1.480  1.5998 -1.9682  2.7436
 7378SOL    HW233771   0.425   0.711   1.577 -0.2511  3.5665  1.9682
 7379SOL     OW33772   0.540   2.858   5.106 -0.0853  0.0137  0.4666
 7379SOL    HW133773   0.509   2.792   5.044 -2.9235  2.3424 -0.6396
 7379SOL    HW233774   0.502   2.934   5.062 -1.8658 -1.8913 -1.2868
 7380SOL     OW33775   1.755   3.436   7.200 -0.0662 -0.6877  0.2758
 7380SOL    HW133776   1.847   3.416   7.183 -0.1730  0.8310 -2.0394
 7380SOL    HW233777   1.765   3.440   7.295  1.6949 -1.6941  0.1377
 7381SOL     OW33778   3.597   2.287  12.631  0.0228 -0.5046  0.0531
 7381SOL    HW133779   3.622   2.376  12.657 -0.0073 -0.2738 -0.6965
 7381SOL    HW233780   3.628   2.285  12.541  2.9084 -1.6056  1.0845
 7382SOL     OW33781   2.586   0.284   4.284 -0.0517  0.3855  0.0356
 7382SOL    HW133782   2.680   0.280   4.268  0.0958  1.9686  0.4287
 7382SOL    HW233783   2.564   0.361   4.231  2.3570  0.1670 -1.2545
 7383SOL     OW33784   2.822   3.194  14.581  0.4053 -0.0439  0.1757
 7383SOL    HW133785   2.731   3.198  14.611 -0.2712 -5.6644 -0.9791
 7383SOL    HW233786   2.844   3.137  14.655 -0.2741  0.9144  1.1166
 7384SOL     OW33787   1.237   3.218   3.927  0.3475  0.4055 -0.4023
 7384SOL    HW133788   1.238   3.123   3.937 -0.7219  0.5964  1.4689
 7384SOL    HW233789   1.200   3.217   3.839  0.0860 -1.1869 -0.2661
 7385SOL     OW33790   2.776   3.156   7.085 -0.2375  0.1748  0.1684
 7385SOL    HW133791   2.750   3.179   7.174 -1.7273  0.3278 -0.3108
 7385SOL    HW233792   2.688   3.147   7.048  0.2441 -0.6794 -0.7729
 7386SOL     OW33793   3.713   1.501   4.532 -0.0361  0.3082  0.4785
 7386SOL    HW133794   3.672   1.420   4.502  2.4039 -0.6633 -0.2176
 7386SOL    HW233795   3.663   1.567   4.484 -1.4328 -0.8928  0.2975
 7387SOL     OW33796   0.789   3.593  14.578  0.4742  0.4635  0.0089
 7387SOL    HW133797   0.805   3.680  14.541  1.3342  1.3528  2.4863
 7387SOL    HW233798   0.717   3.568  14.520 -0.3361  0.3791  1.0506
 7388SOL     OW33799   2.480   3.461   4.535  0.6356 -0.0264  0.4279
 7388SOL    HW133800   2.471   3.548   4.496  1.2858 -0.5054 -0.7835
 7388SOL    HW233801   2.570   3.467   4.566  0.1710  4.4747  1.0175
 7389SOL     OW33802   2.412   2.460   8.547 -0.3778 -0.3123 -0.1892
 7389SOL    HW133803   2.383   2.490   8.461  0.4942  1.4866  0.1592
 7389SOL    HW233804   2.436   2.370   8.525 -1.4875 -0.7402  0.3623
 7390SOL     OW33805   2.515   1.612   9.221 -0.7033 -0.6579  0.3334
 7390SOL    HW133806   2.482   1.536   9.173  0.0821 -0.3830 -0.6358
 7390SOL    HW233807   2.443   1.674   9.211  0.6194  0.6096 -1.3841
 7391SOL     OW33808   4.389   0.701  14.683 -0.1222 -0.0670  0.2768
 7391SOL    HW133809   4.427   0.782  14.716 -1.3082 -0.1661  1.9149
 7391SOL    HW233810   4.411   0.706  14.590  1.4107 -0.5933  0.6111
 7392SOL     OW33811   0.839   1.621   9.885  0.1621  0.4121 -0.2389
 7392SOL    HW133812   0.898   1.632   9.959  0.7277  1.5322 -0.8461
 7392SOL    HW233813   0.881   1.546   9.843 -1.6312 -0.3059 -0.7308
 7393SOL     OW33814   1.635   4.424  10.153  0.0980  0.2594 -0.3811
 7393SOL    HW133815   1.674   4.506  10.182 -0.0239 -0.4286  1.7421
 7393SOL    HW233816   1.712   4.367  10.143 -1.2891 -1.9748  1.5975
 7394SOL     OW33817   0.004   0.213   3.315 -0.5380 -0.0232  0.4154
 7394SOL    HW133818   4.682   0.206   3.238 -0.2065  0.9807  0.0830
 7394SOL    HW233819   4.686   0.165   3.380  0.0957  0.5252  1.3271
 7395SOL     OW33820   4.277   2.078   6.673  0.0215 -0.3739 -0.4239
 7395SOL    HW133821   4.235   2.152   6.716 -3.3703 -0.8433 -2.9580
 7395SOL    HW233822   4.285   2.025   6.753 -0.7574 -1.4458 -1.0496
 7396SOL     OW33823   2.786   3.158   9.654 -0.3689  0.0942  0.3608
 7396SOL    HW133824   2.721   3.115   9.598  0.0839 -0.7759  0.5043
 7396SOL    HW233825   2.854   3.091   9.642  0.2170  0.7555 -0.0400
 7397SOL     OW33826   1.245   0.653   5.493  0.0988  0.0362  0.2249
 7397SOL    HW133827   1.218   0.583   5.433  1.8505  1.4940 -2.2365
 7397SOL    HW233828   1.334   0.661   5.460 -0.8888  0.2738 -2.4668
 7398SOL     OW33829   2.336   2.308   6.649 -0.1619 -0.4612  0.3104
 7398SOL    HW133830   2.428   2.332   6.661 -1.4417  3.8494  1.7905
 7398SOL    HW233831   2.282   2.387   6.655 -0.1713 -0.3932 -0.6659
 7399SOL     OW33832   0.834   3.747   1.277  0.6706  0.2868  0.7027
 7399SOL    HW133833   0.817   3.802   1.354 -0.3763  0.4949  0.3196
 7399SOL    HW233834   0.844   3.661   1.320 -1.2695 -0.9363 -1.2848
 7400SOL     OW33835   1.009   4.716   5.398  0.1777 -0.1403  0.1973
 7400SOL    HW133836   1.105   4.719   5.404  0.1377  1.2630  0.1278
 7400SOL    HW233837   0.987   4.733   5.489 -1.5839 -0.5868 -0.1432
 7401SOL     OW33838   3.928   2.384   3.713  0.5402  0.3663 -0.2812
 7401SOL    HW133839   3.986   2.321   3.755 -2.0669 -1.6001  0.4096
 7401SOL    HW233840   3.876   2.421   3.785 -0.9635 -0.1275 -1.1157
 7402SOL     OW33841   0.272   1.955   4.658 -0.1051  0.6812  0.3949
 7402SOL    HW133842   0.271   2.040   4.703 -0.0082 -0.3166  2.2792
 7402SOL    HW233843   0.323   1.909   4.724  0.1944 -0.4931 -0.6700
 7403SOL     OW33844   4.216   1.878   3.096  0.5476  0.6355  0.1587
 7403SOL    HW133845   4.211   1.861   3.002  3.1353 -1.3182  0.3904
 7403SOL    HW233846   4.294   1.933   3.102  0.9521 -0.3098  3.8940
 7404SOL     OW33847   4.287   3.565   5.981 -0.8503  0.5841 -0.1539
 7404SOL    HW133848   4.318   3.474   5.986  0.6286  1.0827 -0.2368
 7404SOL    HW233849   4.196   3.556   6.009 -1.0328  1.8784 -0.3722
 7405SOL     OW33850   0.808   0.406   5.424  0.2339 -0.5593  0.4499
 7405SOL    HW133851   0.762   0.490   5.430 -1.0151 -1.4788  3.7356
 7405SOL    HW233852   0.870   0.431   5.356 -0.3593  0.8619  0.4449
 7406SOL     OW33853   0.243   2.830   1.029  0.2485 -0.3206 -0.0525
 7406SOL    HW133854   0.259   2.907   0.975 -0.5276  0.8194  1.3352
 7406SOL    HW233855   0.295   2.853   1.105 -0.7074 -1.0043  0.8182
 7407SOL     OW33856   4.696   2.701   8.079  0.3821 -0.0936 -0.4288
 7407SOL    HW133857   4.667   2.752   8.155  0.3162  0.5901 -0.9182
 7407SOL    HW233858   0.021   2.637   8.119 -1.1465 -1.6924 -0.7442
 7408SOL     OW33859   2.546   2.762  14.001 -0.0460 -0.0193 -0.3975
 7408SOL    HW133860   2.553   2.820  14.077 -0.6988 -0.7091  0.1941
 7408SOL    HW233861   2.463   2.722  14.027  0.1332 -0.7637 -0.9751
 7409SOL     OW33862   2.557   2.016  14.663 -0.1364 -0.0753  0.4207
 7409SOL    HW133863   2.613   1.938  14.658  1.4646  1.0105  1.6808
 7409SOL    HW233864   2.599   2.071  14.729 -0.8930  1.1858 -0.1451
 7410SOL     OW33865   0.004   1.956   5.656 -0.2134 -0.5131  0.3981
 7410SOL    HW133866   0.021   2.022   5.589 -0.2626  2.0949  2.9177
 7410SOL    HW233867   4.643   1.956   5.668 -0.0598 -0.1214  1.5924
 7411SOL     OW33868   2.861   2.370   1.809  0.0572  0.3634 -0.1225
 7411SOL    HW133869   2.788   2.330   1.856  0.7722 -0.8031  0.0038
 7411SOL    HW233870   2.913   2.295   1.780 -2.2213 -0.7562 -1.3270
 7412SOL     OW33871   1.078   2.128   3.026  0.1623  0.0765  0.3149
 7412SOL    HW133872   1.106   2.038   3.043  1.7487  0.9616  2.4135
 7412SOL    HW233873   1.148   2.173   3.073  0.9768 -0.2356 -0.6236
 7413SOL     OW33874   0.896   4.004   8.858 -0.0571  0.0849  0.2827
 7413SOL    HW133875   0.822   4.022   8.915  1.8022 -0.9704  3.0080
 7413SOL    HW233876   0.847   3.994   8.776 -1.1850  0.4713  0.9164
 7414SOL     OW33877   2.208   0.076   6.818  0.3562  0.2448 -0.2956
 7414SOL    HW133878   2.217   0.021   6.896  0.9749 -1.3518 -1.4848
 7414SOL    HW233879   2.155   0.029   6.754  1.5649  1.0504 -1.8750
 7415SOL     OW33880   4.491   3.844   4.385 -0.3922  0.1748  0.4350
 7415SOL    HW133881   4.444   3.888   4.314 -1.2598  0.2598  1.0590
 7415SOL    HW233882   4.495   3.911   4.453 -0.3363 -0.6737  1.2703
 7416SOL     OW33883   3.318   3.482  16.687  0.4361 -0.1161 -0.0900
 7416SOL    HW133884   3.285   3.458  16.601  1.3583  0.6220 -0.6511
 7416SOL    HW233885   3.241   3.482  16.744  1.0580  2.2272  0.7885
 7417SOL     OW33886   4.731   1.295   4.393 -0.0626 -0.3259  0.1195
 7417SOL    HW133887   4.681   1.288   4.475 -0.6432 -0.5589 -0.2499
 7417SOL    HW233888   4.720   1.203   4.371  0.3225 -0.2072 -0.5352
 7418SOL     OW33889   2.233   2.092   0.550  0.0691 -0.0523 -0.2052
 7418SOL    HW133890   2.153   2.052   0.583 -0.2774 -0.4415 -1.5008
 7418SOL    HW233891   2.225   2.065   0.458 -0.9141  0.5199 -0.2820
 7419SOL     OW33892   3.268   3.131   0.775 -0.1124  0.3647  0.2805
 7419SOL    HW133893   3.173   3.142   0.765 -0.3611 -0.2892  1.9142
 7419SOL    HW233894   3.291   3.149   0.866  1.2269 -2.8156  0.5379
 7420SOL     OW33895   2.281   1.967  15.598 -0.3900 -0.3086 -0.4654
 7420SOL    HW133896   2.227   2.011  15.664 -0.4835 -1.3553  0.1459
 7420SOL    HW233897   2.216   1.903  15.567 -0.6436 -1.3452  2.2386
 7421SOL     OW33898   4.233   2.562  11.354  0.5867  0.0598 -0.2995
 7421SOL    HW133899   4.303   2.616  11.316  0.9450  0.2756  0.6573
 7421SOL    HW233900   4.283   2.504  11.411 -1.1834 -0.2881  0.8909
 7422SOL     OW33901   4.336   3.754   6.907  0.1430 -0.0789 -0.2917
 7422SOL    HW133902   4.330   3.848   6.926 -0.2103  0.0653 -1.1152
 7422SOL    HW233903   4.334   3.749   6.811 -0.5483 -1.4741 -0.1907
 7423SOL     OW33904   0.183   0.583   8.219 -0.7984  0.4521 -0.3299
 7423SOL    HW133905   0.269   0.568   8.257  0.1301  0.9018 -2.2368
 7423SOL    HW233906   0.149   0.655   8.272  1.5925  0.1385  1.6140
 7424SOL     OW33907   3.085   3.868  17.531  0.3060  0.2273 -0.1313
 7424SOL    HW133908   3.147   3.849  17.461 -0.1865 -2.5734  0.2163
 7424SOL    HW233909   3.006   3.872  17.478  0.2629 -1.4073 -0.1747
 7425SOL     OW33910   4.679   4.235   3.621 -0.0946  0.4779 -0.4731
 7425SOL    HW133911   4.672   4.148   3.660 -0.1620 -0.0379 -1.6159
 7425SOL    HW233912   4.634   4.234   3.537 -0.4778  1.4428 -0.2769
 7426SOL     OW33913   4.116   0.379   8.170  0.2863  0.0139 -0.1098
 7426SOL    HW133914   4.055   0.443   8.131  0.7477  0.7355  0.3568
 7426SOL    HW233915   4.103   0.304   8.112  2.7626  0.0609 -0.7087
 7427SOL     OW33916   0.810   2.579   6.885  0.1404  0.3668  0.1840
 7427SOL    HW133917   0.748   2.619   6.945 -1.2316  0.3734 -1.2371
 7427SOL    HW233918   0.868   2.536   6.947  1.5509  0.4301 -1.0761
 7428SOL     OW33919   0.838   3.390   6.598  0.1099  1.1283  0.0166
 7428SOL    HW133920   0.809   3.378   6.688  0.1864 -0.7710 -0.2156
 7428SOL    HW233921   0.757   3.373   6.550  0.1590  1.0482 -0.0385
 7429SOL     OW33922   1.713   1.123   8.404  0.0599  0.4285 -0.1114
 7429SOL    HW133923   1.736   1.211   8.434  0.0915  0.0476  1.0061
 7429SOL    HW233924   1.775   1.067   8.451  0.2177  0.2272 -0.5629
 7430SOL     OW33925   2.208   1.449   6.596  0.1226  0.6824 -0.0913
 7430SOL    HW133926   2.155   1.493   6.530  0.8967 -0.9614 -1.8055
 7430SOL    HW233927   2.191   1.358   6.570  1.0845  1.0932 -2.0929
 7431SOL     OW33928   2.091   2.005  11.127  0.3301 -0.1895  0.0858
 7431SOL    HW133929   2.056   2.078  11.076  2.3561  0.1170 -0.8685
 7431SOL    HW233930   2.021   1.942  11.112 -2.3429  3.3145 -2.1500
 7432SOL     OW33931   2.968   3.358  11.255  0.9569  0.6237  0.0818
 7432SOL    HW133932   2.995   3.289  11.195  0.3678  0.5673 -0.1203
 7432SOL    HW233933   2.894   3.308  11.291  0.6050  0.6529 -0.5940
 7433SOL     OW33934   0.166   3.902   2.023 -0.0728  0.2246 -0.2186
 7433SOL    HW133935   0.151   3.994   2.043 -2.1355 -0.0537 -0.4367
 7433SOL    HW233936   0.195   3.903   1.932 -0.7672 -0.4173 -0.4558
 7434SOL     OW33937   4.321   3.713   1.780  0.2432  0.1398  0.3421
 7434SOL    HW133938   4.377   3.787   1.759 -0.7316  0.4106 -1.3482
 7434SOL    HW233939   4.262   3.762   1.837 -0.4159 -1.1970  0.8142
 7435SOL     OW33940   2.842   0.325   5.580 -0.3783  0.2412 -0.6529
 7435SOL    HW133941   2.908   0.361   5.640 -1.5116  0.7775  0.2791
 7435SOL    HW233942   2.870   0.234   5.566 -3.7713 -0.1082 -5.1281
 7436SOL     OW33943   2.004   3.648   7.461 -0.1611  0.4506  0.6817
 7436SOL    HW133944   2.043   3.683   7.381 -0.7042 -3.1179 -1.1209
 7436SOL    HW233945   1.922   3.697   7.467 -1.8751 -2.1799 -1.6311
 7437SOL     OW33946   0.222   2.808   7.448 -0.2696  0.3435  0.3259
 7437SOL    HW133947   0.192   2.884   7.499  0.2582 -0.3267  1.6391
 7437SOL    HW233948   0.182   2.836   7.366  3.0702  2.8083 -0.4645
 7438SOL     OW33949   3.919   1.744   6.721 -0.1673 -0.1151 -0.2519
 7438SOL    HW133950   3.893   1.732   6.813 -1.0297 -0.3757 -0.5218
 7438SOL    HW233951   3.952   1.659   6.691 -1.8576 -0.7733 -0.3080
 7439SOL     OW33952   2.747   2.858  14.523 -0.2555  0.0974 -0.2052
 7439SOL    HW133953   2.753   2.950  14.500 -1.9079  0.1214 -0.5796
 7439SOL    HW233954   2.811   2.813  14.468  0.1567  1.7866 -1.0732
 7440SOL     OW33955   2.780   4.460   9.395 -0.4809  0.6939 -0.3451
 7440SOL    HW133956   2.822   4.544   9.379  2.7705 -0.9410 -0.3346
 7440SOL    HW233957   2.737   4.474   9.479 -0.3624  0.3186 -0.2201
 7441SOL     OW33958   4.144   2.883   0.105 -0.2967  0.0108  0.0262
 7441SOL    HW133959   4.172   2.974   0.098  0.0484 -0.1087 -0.1231
 7441SOL    HW233960   4.164   2.841   0.021  0.2036 -1.1328  0.7210
 7442SOL     OW33961   4.211   0.325   9.647  0.0045 -0.4330 -0.0487
 7442SOL    HW133962   4.148   0.272   9.598 -0.7172  0.3642  0.0193
 7442SOL    HW233963   4.296   0.291   9.616  0.4970 -0.1199  0.9669
 7443SOL     OW33964   1.923   3.369   7.419 -0.6237 -0.1522 -0.2643
 7443SOL    HW133965   1.994   3.318   7.459 -0.7699  0.2264  0.4755
 7443SOL    HW233966   1.964   3.454   7.435 -1.4484  0.0267  0.8999
 7444SOL     OW33967   3.766   1.319   2.289  0.0263  0.0765 -0.2095
 7444SOL    HW133968   3.725   1.303   2.204 -2.1709  0.4117  0.8046
 7444SOL    HW233969   3.786   1.413   2.280 -1.4585  0.4579  0.5674
 7445SOL     OW33970   1.211   1.212   6.273 -0.3783 -0.3554 -0.5479
 7445SOL    HW133971   1.247   1.300   6.266 -0.2037 -0.3609  0.3030
 7445SOL    HW233972   1.181   1.224   6.363  0.0866  0.5417 -0.5138
 7446SOL     OW33973   2.716   1.718  17.458  0.3405 -0.3046  0.3717
 7446SOL    HW133974   2.752   1.632  17.438 -1.0012 -0.2749 -2.2417
 7446SOL    HW233975   2.689   1.708  17.549  1.2349  0.0417  0.6744
 7447SOL     OW33976   0.965   2.655   8.814  0.3857 -0.1466 -0.0526
 7447SOL    HW133977   0.897   2.624   8.755 -0.1366  2.0655 -0.6144
 7447SOL    HW233978   0.925   2.740   8.833  1.5757  0.4536 -0.1802
 7448SOL     OW33979   0.869   2.929   1.499 -0.4877  0.9522  0.4347
 7448SOL    HW133980   0.812   2.992   1.455 -0.9879  0.0091 -0.3029
 7448SOL    HW233981   0.949   2.980   1.494  1.1935 -1.5525  1.6482
 7449SOL     OW33982   1.217   3.980   8.239 -0.3851 -0.0700  0.2185
 7449SOL    HW133983   1.128   4.000   8.268  0.8237  1.6167  2.7954
 7449SOL    HW233984   1.201   3.886   8.227  0.6612  0.0540 -2.2623
 7450SOL     OW33985   1.214   0.874   7.408  0.0164 -0.4391 -0.2036
 7450SOL    HW133986   1.209   0.937   7.336 -1.1353 -2.4283 -1.8433
 7450SOL    HW233987   1.262   0.923   7.475 -0.4831  1.1266 -0.9813
 7451SOL     OW33988   2.625   2.729   5.917 -0.2275  0.0815 -0.1073
 7451SOL    HW133989   2.531   2.712   5.923  0.0564 -1.2872  0.3083
 7451SOL    HW233990   2.660   2.672   5.986 -3.5516 -0.2215  1.3084
 7452SOL     OW33991   2.213   4.512   7.308  0.0749 -0.6148 -0.0285
 7452SOL    HW133992   2.290   4.560   7.337 -0.1812  0.5928 -1.3186
 7452SOL    HW233993   2.139   4.546   7.358  1.6148  0.1223  1.7394
 7453SOL     OW33994   3.547   0.803  10.509 -0.0418 -0.1421 -0.0419
 7453SOL    HW133995   3.613   0.873  10.509  0.9785 -1.1233  0.4989
 7453SOL    HW233996   3.573   0.761  10.590 -0.9112 -1.6153 -0.5118
 7454SOL     OW33997   0.080   1.900   9.842  0.2010  0.0001  0.4619
 7454SOL    HW133998   0.172   1.889   9.867  0.3794 -0.1760 -0.2472
 7454SOL    HW233999   0.054   1.808   9.838 -0.5251  0.2122  0.2348
 7455SOL     OW34000   4.554   2.229   6.364  0.6586  0.0713  0.0331
 7455SOL    HW134001   4.608   2.172   6.309 -1.0617 -2.3529  0.8280
 7455SOL    HW234002   4.520   2.284   6.294  3.2730  0.5629 -0.8604
 7456SOL     OW34003   0.409   4.337  13.195 -0.1235  0.8264 -0.1022
 7456SOL    HW134004   0.343   4.400  13.168 -0.6602 -0.5483 -2.0363
 7456SOL    HW234005   0.451   4.375  13.272 -0.7874 -1.3848  1.3449
 7457SOL     OW34006   0.513   2.480  14.047  0.6255  0.1210  0.0866
 7457SOL    HW134007   0.578   2.448  13.984  1.2483  0.4151  0.5879
 7457SOL    HW234008   0.568   2.537  14.100  2.9516 -1.3854 -0.7136
 7458SOL     OW34009   3.150   0.094   8.306  0.3201  1.0444 -0.3628
 7458SOL    HW134010   3.193   0.066   8.387  2.4472  3.8656 -0.5077
 7458SOL    HW234011   3.222   0.116   8.247  1.0255 -2.2405 -0.6909
 7459SOL     OW34012   4.472   1.824   3.426  0.3179  0.2936  0.0736
 7459SOL    HW134013   4.410   1.754   3.443 -0.8164  1.2717 -0.0509
 7459SOL    HW234014   4.555   1.777   3.434 -0.3134 -1.3206 -2.7401
 7460SOL     OW34015   0.730   1.993   8.953  0.2543  0.0790  0.3495
 7460SOL    HW134016   0.643   2.031   8.963  0.6723  0.8588  1.0861
 7460SOL    HW234017   0.733   1.989   8.858  0.3721 -2.2761  0.4626
 7461SOL     OW34018   2.092   3.208  14.247  0.6267 -0.4346  0.2064
 7461SOL    HW134019   2.130   3.248  14.169  0.0436 -1.7507 -0.7530
 7461SOL    HW234020   2.157   3.140  14.266 -0.0429 -1.0724  0.1930
 7462SOL     OW34021   2.932   2.163  15.240  0.1958  0.4790  0.6910
 7462SOL    HW134022   2.916   2.114  15.321 -3.1391 -0.6086 -0.6196
 7462SOL    HW234023   2.864   2.230  15.246 -1.3940 -1.1338  0.5360
 7463SOL     OW34024   0.496   4.689   8.972  0.0863  0.4586  0.2630
 7463SOL    HW134025   0.585   4.674   9.003  0.6188 -0.0647 -1.5476
 7463SOL    HW234026   0.457   4.604   8.992 -0.9469  0.7835 -0.3808
 7464SOL     OW34027   3.715   2.551   6.244  0.0617 -0.8729  0.4295
 7464SOL    HW134028   3.787   2.591   6.194 -0.9921 -1.9388 -1.9055
 7464SOL    HW234029   3.640   2.598   6.207  0.5540 -0.0169  0.5140
 7465SOL     OW34030   1.147   1.787   0.532  0.0346 -0.1762  0.2037
 7465SOL    HW134031   1.080   1.718   0.530 -0.0041 -0.1366  0.1355
 7465SOL    HW234032   1.209   1.741   0.476  0.1991  0.5901 -0.2330
 7466SOL     OW34033   0.547   3.078   7.865 -0.1101  0.1925  0.1127
 7466SOL    HW134034   0.562   3.167   7.897  0.5476  0.2834 -0.4631
 7466SOL    HW234035   0.494   3.046   7.938 -0.8624 -0.2651 -0.6384
 7467SOL     OW34036   0.545   2.130  10.127  0.2602 -1.0388 -0.7311
 7467SOL    HW134037   0.474   2.160  10.184  0.4548  0.3143 -1.1925
 7467SOL    HW234038   0.529   2.180  10.047  0.4509 -1.0745 -0.7914
 7468SOL     OW34039   2.717   0.084  10.980  0.4836 -0.5334  0.0123
 7468SOL    HW134040   2.749   0.009  11.030 -1.0432 -0.0376  1.7137
 7468SOL    HW234041   2.714   0.046  10.892 -0.3535 -1.7771  0.5698
 7469SOL     OW34042   2.358   0.859  12.345  0.0979  0.5976  0.1625
 7469SOL    HW134043   2.415   0.896  12.412  0.1890 -0.6214  0.7435
 7469SOL    HW234044   2.356   0.773  12.386  3.7241  0.3443 -0.1982
 7470SOL     OW34045   3.756   4.564  15.701  0.1719  0.0181  0.2387
 7470SOL    HW134046   3.780   4.657  15.705  2.5283 -0.6672  1.3501
 7470SOL    HW234047   3.776   4.536  15.790  1.6100 -0.3036 -0.1926
 7471SOL     OW34048   0.847   0.543  13.479  0.1451 -0.1333 -0.1982
 7471SOL    HW134049   0.934   0.509  13.500 -0.3784 -1.5776 -0.3489
 7471SOL    HW234050   0.842   0.629  13.522  1.4872  0.0262 -0.3337
 7472SOL     OW34051   1.645   4.716   0.325 -0.1743 -0.4556 -0.2894
 7472SOL    HW134052   1.613   4.633   0.290 -0.2466 -0.3269 -0.5273
 7472SOL    HW234053   1.702   0.025   0.262  2.1668  1.5794  3.1616
 7473SOL     OW34054   0.754   1.426   7.180 -0.3150  0.2103 -0.1294
 7473SOL    HW134055   0.741   1.411   7.273 -1.3024  1.2655 -0.1055
 7473SOL    HW234056   0.789   1.515   7.180  0.2616 -0.0032 -2.2107
 7474SOL     OW34057   2.823   1.965  17.415 -0.1737 -0.4806 -0.1803
 7474SOL    HW134058   2.804   1.872  17.423  0.6922 -0.4954  1.6345
 7474SOL    HW234059   2.774   1.975  17.333 -0.1886 -0.3354 -0.1533
 7475SOL     OW34060   1.829   2.868  13.529  0.0834 -0.4972  0.4210
 7475SOL    HW134061   1.809   2.921  13.606 -2.0230  1.0305 -1.1671
 7475SOL    HW234062   1.851   2.935  13.464 -2.3384  1.7045  1.8389
 7476SOL     OW34063   0.358   2.525   5.358 -0.1852 -0.0710  0.2597
 7476SOL    HW134064   0.306   2.445   5.354  2.1428 -1.6097  1.1053
 7476SOL    HW234065   0.307   2.582   5.300 -0.8263 -2.8936 -1.9811
 7477SOL     OW34066   3.437   0.486   0.296 -0.6424 -0.0086  0.8093
 7477SOL    HW134067   3.444   0.391   0.304  2.9578  0.1404 -0.6513
 7477SOL    HW234068   3.491   0.510   0.221 -2.3917 -1.8404 -1.0377
 7478SOL     OW34069   3.413   4.640   0.998  0.2533 -0.0335 -0.1100
 7478SOL    HW134070   3.466   4.622   1.076  1.1633  1.5455 -0.3736
 7478SOL    HW234071   3.465   4.704   0.950 -2.1735  2.0523  0.1081
 7479SOL     OW34072   1.050   3.944   1.603 -0.2104 -0.5265 -0.0140
 7479SOL    HW134073   1.095   4.014   1.650  0.3788 -1.4564  0.8030
 7479SOL    HW234074   1.110   3.936   1.530  0.2948  0.7982  0.2568
 7480SOL     OW34075   0.015   3.240   1.482 -0.0092  0.0847  0.0164
 7480SOL    HW134076   4.722   3.157   1.442  1.2718 -0.5176  0.3755
 7480SOL    HW234077   0.110   3.227   1.483 -0.0274 -0.0024  0.6528
 7481SOL     OW34078   1.095   2.092  13.328  0.4743  0.0165  0.1630
 7481SOL    HW134079   1.004   2.108  13.351  0.7053  0.4924  0.7613
 7481SOL    HW234080   1.138   2.084  13.414 -0.7412  0.5265  0.8148
 7482SOL     OW34081   3.704   2.284  16.992 -0.3543  0.8360 -0.6916
 7482SOL    HW134082   3.680   2.199  16.957 -1.7844  1.0006 -0.0925
 7482SOL    HW234083   3.752   2.329  16.922  1.3167 -2.3274 -1.5978
 7483SOL     OW34084   4.515   1.391  17.392  0.0156 -0.1100 -0.0564
 7483SOL    HW134085   4.555   1.374  17.307  0.9489 -0.3275  0.4328
 7483SOL    HW234086   4.487   1.482  17.378  0.1141 -0.0391  0.1979
 7484SOL     OW34087   2.312   4.622  14.681  0.0786 -0.3901  0.1073
 7484SOL    HW134088   2.371   4.683  14.725 -1.4635  0.2296  1.3613
 7484SOL    HW234089   2.248   4.672  14.631 -0.4318  0.1478  1.2967
 7485SOL     OW34090   1.995   2.460  10.193 -0.1502 -0.3215  0.3173
 7485SOL    HW134091   2.089   2.464  10.206 -0.1307 -0.0360  0.1083
 7485SOL    HW234092   1.983   2.548  10.156  0.1428 -0.8208 -0.9479
 7486SOL     OW34093   1.678   2.437  16.894  0.0910  0.5634  0.2471
 7486SOL    HW134094   1.672   2.404  16.984 -1.9697 -3.3356 -1.3690
 7486SOL    HW234095   1.587   2.456  16.872  0.1932  1.5695  0.7013
 7487SOL     OW34096   1.940   1.204   0.200 -0.3523  0.3363  0.0099
 7487SOL    HW134097   1.873   1.242   0.143 -1.8564  0.2296  1.6925
 7487SOL    HW234098   1.897   1.123   0.225  0.9125 -0.2216  0.3635
 7488SOL     OW34099   2.021   2.403   1.356 -0.4918 -0.3957 -0.1868
 7488SOL    HW134100   1.941   2.366   1.320 -1.5639  0.2334  1.4903
 7488SOL    HW234101   2.039   2.336   1.422  0.0076 -1.2351 -1.1819
 7489SOL     OW34102   3.867   2.178   9.005  0.4834  0.2816  0.0586
 7489SOL    HW134103   3.855   2.233   8.927 -0.2981 -0.8010 -0.5747
 7489SOL    HW234104   3.780   2.203   9.038 -0.0414 -1.3163 -0.1100
 7490SOL     OW34105   2.688   1.453   4.069  0.4225  0.4080 -0.2047
 7490SOL    HW134106   2.697   1.392   4.142  2.3245  0.9584  0.0245
 7490SOL    HW234107   2.609   1.423   4.025  0.6630 -1.0073  0.3371
 7491SOL     OW34108   4.521   0.915   8.705  0.0855 -0.0443  0.3881
 7491SOL    HW134109   4.460   0.965   8.759 -0.7183  0.4930 -1.0253
 7491SOL    HW234110   4.501   0.828   8.738  0.2681 -0.1435  0.2412
 7492SOL     OW34111   3.741   3.719   6.001 -0.1944  0.4995  0.3437
 7492SOL    HW134112   3.647   3.711   6.012 -0.2971  0.9389 -0.2309
 7492SOL    HW234113   3.750   3.738   5.908  2.3090 -1.9103  0.0852
 7493SOL     OW34114   0.553   3.550   2.687 -0.1015 -0.5836 -0.3422
 7493SOL    HW134115   0.582   3.608   2.757 -0.8406  0.6732 -1.0790
 7493SOL    HW234116   0.469   3.520   2.721  0.7551 -1.2096  1.2101
 7494SOL     OW34117   0.974   3.986   4.280 -0.0411 -0.2776  0.4680
 7494SOL    HW134118   0.949   4.068   4.323  0.6050  0.1758 -0.0140
 7494SOL    HW234119   0.906   3.925   4.308 -2.3623  1.7372 -0.7194
 7495SOL     OW34120   1.374   2.217  12.211 -0.4228  0.0110  0.1223
 7495SOL    HW134121   1.300   2.265  12.247 -1.4291 -1.3449 -0.1239
 7495SOL    HW234122   1.427   2.208  12.290  1.4892 -0.1603 -1.1590
 7496SOL     OW34123   3.924   0.596   1.723 -0.4750 -0.1258  0.0170
 7496SOL    HW134124   3.928   0.581   1.628 -0.7551  0.4910 -0.0918
 7496SOL    HW234125   3.981   0.670   1.742  0.6382 -0.2034 -2.9477
 7497SOL     OW34126   2.355   0.778  10.123  0.3378 -0.2417  0.5837
 7497SOL    HW134127   2.418   0.850  10.121  0.6082 -0.4628  1.4224
 7497SOL    HW234128   2.329   0.792  10.214  0.5873  1.8749  0.3222
 7498SOL     OW34129   0.493   3.396  17.335 -0.0875 -0.3011 -0.3270
 7498SOL    HW134130   0.403   3.399  17.369 -0.5124  2.1023 -1.6965
 7498SOL    HW234131   0.530   3.315  17.370 -2.6063 -2.9986 -3.9253
 7499SOL     OW34132   2.715   0.019   6.382 -0.3677 -0.1108 -0.0437
 7499SOL    HW134133   2.719   4.671   6.432 -0.2960  1.6881  2.9461
 7499SOL    HW234134   2.750   0.072   6.454 -1.4805  1.2210 -0.4913
 7500SOL     OW34135   0.241   3.009   8.331  0.2398  0.4995 -0.0042
 7500SOL    HW134136   0.169   3.036   8.275  0.9508 -0.2015 -1.2409
 7500SOL    HW234137   0.201   3.007   8.418  1.9842  0.5356  0.7985
 7501SOL     OW34138   2.789   1.238   1.820 -0.2063 -0.0502 -0.6891
 7501SOL    HW134139   2.741   1.221   1.739  2.2753 -2.0189 -1.7326
 7501SOL    HW234140   2.828   1.155   1.846  0.8384  0.6123 -0.1637
 7502SOL     OW34141   4.443   1.604  14.048  0.0676 -0.0554  0.0551
 7502SOL    HW134142   4.451   1.688  14.094  0.9422 -1.1201  1.8800
 7502SOL    HW234143   4.535   1.579  14.045  0.0734 -0.1335  0.7729
 7503SOL     OW34144   3.769   0.509   6.552 -0.1900 -0.3180 -0.5432
 7503SOL    HW134145   3.748   0.443   6.487  1.9892 -0.6109 -0.9493
 7503SOL    HW234146   3.680   0.543   6.566 -1.1640 -2.5355 -1.4005
 7504SOL     OW34147   1.588   1.398  15.764 -0.2050 -0.4124  0.1071
 7504SOL    HW134148   1.495   1.381  15.748 -0.8151  1.4161  1.7084
 7504SOL    HW234149   1.579   1.432  15.853 -2.8871 -1.1860  0.1213
 7505SOL     OW34150   2.272   4.712  17.401 -0.6090  0.1832 -0.1599
 7505SOL    HW134151   2.289   0.033  17.477 -0.6700 -0.9288  0.6530
 7505SOL    HW234152   2.330   4.640  17.424 -0.8569  1.0741  3.1780
 7506SOL     OW34153   3.198   4.208   1.734 -1.0487  0.1518 -0.1906
 7506SOL    HW134154   3.155   4.241   1.813 -1.7644  2.8224 -1.7079
 7506SOL    HW234155   3.172   4.116   1.734 -1.3474  0.2351  0.1265
 7507SOL     OW34156   3.090   2.529   4.765  0.0910  0.0364  0.2258
 7507SOL    HW134157   3.055   2.477   4.692  1.3534 -2.5629  1.4776
 7507SOL    HW234158   3.019   2.584   4.796  1.2150  1.7304 -0.1902
 7508SOL     OW34159   1.626   3.857   6.934  0.1275 -0.0975 -0.1383
 7508SOL    HW134160   1.641   3.765   6.958  0.6957  0.4613  1.5772
 7508SOL    HW234161   1.683   3.862   6.857 -0.8006 -1.8220 -0.9405
 7509SOL     OW34162   1.044   1.511   4.870  0.2566  0.6878 -0.0512
 7509SOL    HW134163   1.131   1.521   4.831 -0.0482  0.4532 -0.7851
 7509SOL    HW234164   0.999   1.570   4.810  0.5579  0.6978 -0.2672
 7510SOL     OW34165   4.110   3.037   5.830  0.4052 -0.2616 -0.4490
 7510SOL    HW134166   4.184   2.983   5.804  0.4755 -0.3086 -0.1435
 7510SOL    HW234167   4.148   3.124   5.813 -0.4154  0.4810  1.4711
 7511SOL     OW34168   0.344   1.479   5.055  0.0392  1.0405 -0.6598
 7511SOL    HW134169   0.266   1.434   5.024  0.2328 -1.2710  2.2022
 7511SOL    HW234170   0.417   1.431   5.016 -0.4479  0.0182 -0.3046
 7512SOL     OW34171   2.049   2.349   3.799  0.0221  0.5815  0.3592
 7512SOL    HW134172   2.029   2.257   3.816  0.0324  0.8472  1.7553
 7512SOL    HW234173   2.115   2.347   3.730 -1.3143 -0.6983 -0.8906
 7513SOL     OW34174   4.481   1.990   3.974 -0.4485  0.2991 -0.5558
 7513SOL    HW134175   4.512   1.936   4.047 -0.3784  0.9200 -0.1285
 7513SOL    HW234176   4.391   1.959   3.964  0.1480 -1.1794 -1.4172
 7514SOL     OW34177   4.331   2.771  14.733 -0.0861 -0.1534  0.7507
 7514SOL    HW134178   4.291   2.742  14.651 -1.7202  1.4286  1.0047
 7514SOL    HW234179   4.308   2.703  14.797  0.6418 -0.8799  0.2472
 7515SOL     OW34180   3.059   3.069   1.921  0.0658  0.7375 -0.1736
 7515SOL    HW134181   3.007   2.991   1.902 -0.7949  1.2837 -0.0623
 7515SOL    HW234182   3.096   3.079   1.834 -0.0605 -1.5539 -0.4935
 7516SOL     OW34183   1.864   3.288   6.701  0.0700 -0.0591 -0.4827
 7516SOL    HW134184   1.956   3.302   6.678 -0.5096  1.1960 -2.0846
 7516SOL    HW234185   1.855   3.371   6.748 -0.3676 -0.6370  0.4437
 7517SOL     OW34186   2.388   0.108  14.482  0.1408 -0.6456 -0.3230
 7517SOL    HW134187   2.434   0.030  14.513  1.6462 -0.9820 -3.4608
 7517SOL    HW234188   2.297   0.092  14.510 -0.4022  0.8466 -1.2627
 7518SOL     OW34189   2.605   4.425  16.839 -0.2855 -0.9549 -0.0445
 7518SOL    HW134190   2.619   4.385  16.925 -1.1125 -0.9090  0.1059
 7518SOL    HW234191   2.694   4.439  16.806 -0.7370  1.2356 -0.3668
 7519SOL     OW34192   0.460   2.369   2.517  0.4539 -0.4314  0.1488
 7519SOL    HW134193   0.412   2.445   2.484 -1.5930 -1.9724 -0.4293
 7519SOL    HW234194   0.397   2.309   2.557  0.6957 -0.4139  0.5561
 7520SOL     OW34195   1.272   4.476   7.433 -0.1563  0.6048  0.5185
 7520SOL    HW134196   1.203   4.419   7.466  0.5308  0.1526  1.1819
 7520SOL    HW234197   1.228   4.561   7.434 -1.8136 -0.2318 -0.3570
 7521SOL     OW34198   2.136   2.363   5.434  0.6170  0.2541 -0.3057
 7521SOL    HW134199   2.069   2.364   5.366  1.0858  1.4823 -0.7357
 7521SOL    HW234200   2.085   2.337   5.511  0.5276  2.0987  0.2385
 7522SOL     OW34201   3.773   1.967   4.512  0.0595 -0.1790 -0.4729
 7522SOL    HW134202   3.842   1.905   4.536  0.1393 -0.7628 -2.2804
 7522SOL    HW234203   3.701   1.916   4.475 -0.6142 -0.2664  0.9373
 7523SOL     OW34204   0.995   0.734  15.550  0.2913  1.6665  0.4892
 7523SOL    HW134205   0.909   0.746  15.509  0.9049 -0.2615 -1.4099
 7523SOL    HW234206   1.003   0.820  15.590  1.4836  1.9110 -0.3010
 7524SOL     OW34207   3.605   3.490   9.751 -0.0793  0.5924  0.1567
 7524SOL    HW134208   3.522   3.521   9.716  0.6860  3.5005  0.9602
 7524SOL    HW234209   3.647   3.575   9.764 -0.3571  0.3777  2.4465
 7525SOL     OW34210   0.819   1.427   6.904 -0.0481 -0.3555 -0.4336
 7525SOL    HW134211   0.796   1.404   6.994 -2.1256  2.3544 -0.2666
 7525SOL    HW234212   0.819   1.342   6.858 -1.0949 -0.8009  0.3902
 7526SOL     OW34213   4.043   2.808  12.057  0.3889 -0.4243 -0.2019
 7526SOL    HW134214   4.082   2.730  12.018  0.3763  0.8567 -2.7646
 7526SOL    HW234215   4.039   2.785  12.150  0.1882 -1.5148 -0.4820
 7527SOL     OW34216   3.397   3.038  10.640  0.1912 -0.7273  0.0867
 7527SOL    HW134217   3.341   3.105  10.681 -0.7504 -1.7502  0.4839
 7527SOL    HW234218   3.364   2.955  10.673 -0.3187 -0.7364 -0.4566
 7528SOL     OW34219   0.996   4.675   4.774  0.0381 -0.2434 -0.3851
 7528SOL    HW134220   1.017   0.032   4.794 -0.5713  0.1435 -1.5165
 7528SOL    HW234221   0.919   4.683   4.717 -1.6049 -1.2782  1.6639
 7529SOL     OW34222   3.631   1.757   5.077  0.0007 -0.4599  0.1881
 7529SOL    HW134223   3.703   1.735   5.136  0.3507  1.3502  0.4322
 7529SOL    HW234224   3.636   1.685   5.014 -1.0378  1.9836 -2.6697
 7530SOL     OW34225   2.792   2.725   6.351  0.0342 -0.2688  0.2109
 7530SOL    HW134226   2.824   2.743   6.439  2.1234 -0.0763 -0.5981
 7530SOL    HW234227   2.816   2.816   6.333  0.0320 -0.5566 -1.2796
 7531SOL     OW34228   0.579   4.464   7.588  0.7836  0.0336 -0.0220
 7531SOL    HW134229   0.506   4.406   7.609  0.0111  1.3998  1.1622
 7531SOL    HW234230   0.561   4.528   7.657 -2.2391 -0.8578  0.0221
 7532SOL     OW34231   3.188   2.278   1.364  0.4728 -0.3664  1.1533
 7532SOL    HW134232   3.142   2.253   1.284 -1.3736  1.2567  1.7046
 7532SOL    HW234233   3.187   2.194   1.410 -0.6825  0.5794  2.8694
 7533SOL     OW34234   3.048   3.810   4.875  0.5991  0.2041 -0.2314
 7533SOL    HW134235   3.109   3.736   4.877  0.2254 -0.0803  0.7193
 7533SOL    HW234236   3.117   3.875   4.889  1.4618 -0.9214  0.7685
 7534SOL     OW34237   4.389   3.124   5.408  0.4646 -0.3866  0.2867
 7534SOL    HW134238   4.345   3.159   5.330 -0.8044 -0.5825  0.9201
 7534SOL    HW234239   4.344   3.174   5.476 -1.3677  1.0036 -1.9031
 7535SOL     OW34240   1.018   2.543   8.268  0.1825 -0.1046  0.0874
 7535SOL    HW134241   1.078   2.503   8.331 -0.9165 -1.2493  0.4030
 7535SOL    HW234242   1.034   2.637   8.276 -0.7011 -0.0715  1.5155
 7536SOL     OW34243   1.111   2.328  14.332  0.1514 -0.5501  0.2400
 7536SOL    HW134244   1.131   2.330  14.426  0.5195  1.2253  0.1179
 7536SOL    HW234245   1.195   2.308  14.292  0.5015 -1.0066  1.1902
 7537SOL     OW34246   4.388   3.780   2.653 -0.8746 -0.0685 -0.1113
 7537SOL    HW134247   4.300   3.772   2.616 -0.9494 -0.1220  0.0779
 7537SOL    HW234248   4.378   3.858   2.707  1.6530 -0.1882  0.5010
 7538SOL     OW34249   4.707   3.271   3.481 -0.0352 -0.8150 -0.5329
 7538SOL    HW134250   4.690   3.287   3.574 -0.3190  0.4749 -0.8113
 7538SOL    HW234251   4.648   3.196   3.474  1.1235 -1.8699  1.1336
 7539SOL     OW34252   2.951   0.132   1.351 -0.6239  0.1046 -0.1214
 7539SOL    HW134253   2.911   0.148   1.437  0.3419 -2.5992  0.8459
 7539SOL    HW234254   3.009   0.208   1.349  0.2238 -0.5619 -0.6022
 7540SOL     OW34255   2.469   1.775   6.556  0.0103  0.0367 -0.0621
 7540SOL    HW134256   2.539   1.833   6.526  0.5362  0.6016  2.2037
 7540SOL    HW234257   2.424   1.831   6.620  0.6128  0.2379  0.1911
 7541SOL     OW34258   4.494   0.141  11.148 -0.3136 -0.3111  0.0112
 7541SOL    HW134259   4.411   0.126  11.103  0.1837  0.3693 -1.1462
 7541SOL    HW234260   4.470   0.207  11.213  0.4216 -0.8346  0.8146
 7542SOL     OW34261   1.703   4.224   3.899 -0.3394  0.2639 -0.3166
 7542SOL    HW134262   1.616   4.191   3.923  0.1549 -1.0275 -0.2881
 7542SOL    HW234263   1.746   4.138   3.895 -1.4118 -0.2671 -0.5363
 7543SOL     OW34264   4.100   2.362   8.472  0.2144 -0.0831  0.3286
 7543SOL    HW134265   4.118   2.446   8.430  0.0397 -0.0256  0.3674
 7543SOL    HW234266   4.005   2.364   8.466  0.2495  0.8759  0.0756
 7544SOL     OW34267   2.875   1.037   5.220  0.0002 -0.4004  0.2805
 7544SOL    HW134268   2.806   0.988   5.178  1.5632 -2.8980  0.6370
 7544SOL    HW234269   2.926   0.969   5.265 -2.0800 -0.4494  2.5798
 7545SOL     OW34270   1.910   4.532   6.946  0.5672  0.2069 -0.0719
 7545SOL    HW134271   1.842   4.560   6.885  1.1063  1.2874 -0.1733
 7545SOL    HW234272   1.865   4.537   7.031  1.9465  1.8441  0.5571
 7546SOL     OW34273   4.038   3.313   1.770  0.0241 -0.3127  0.3762
 7546SOL    HW134274   4.085   3.293   1.689  0.0049 -0.0150  0.2940
 7546SOL    HW234275   3.982   3.375   1.723  2.1018  0.4963 -1.0256
 7547SOL     OW34276   3.970   3.165  12.144 -0.3737  0.5075  0.1298
 7547SOL    HW134277   3.900   3.104  12.166 -0.4650  0.1905 -1.0577
 7547SOL    HW234278   4.015   3.167  12.229 -1.5234  1.0119  0.7263
 7548SOL     OW34279   4.008   2.472   0.718  0.4127 -0.6879  0.5331
 7548SOL    HW134280   4.077   2.532   0.690  0.9057 -0.3297  2.5701
 7548SOL    HW234281   4.055   2.443   0.795  2.4647 -0.0172 -0.4732
 7549SOL     OW34282   4.463   3.582   6.397 -0.2001 -0.6353  0.2370
 7549SOL    HW134283   4.491   3.625   6.316 -0.0047  1.2722  1.3261
 7549SOL    HW234284   4.371   3.610   6.396  0.1201  0.3696 -1.3592
 7550SOL     OW34285   1.298   2.133   6.078 -0.4542 -0.2993 -0.2065
 7550SOL    HW134286   1.326   2.203   6.138 -1.1658  1.2195 -1.6576
 7550SOL    HW234287   1.208   2.122   6.110  0.4152 -2.2035  1.5549
 7551SOL     OW34288   0.608   1.476   5.959 -0.0810 -0.3005 -0.0498
 7551SOL    HW134289   0.610   1.408   5.891 -1.8870 -1.8073  1.4067
 7551SOL    HW234290   0.577   1.559   5.924 -1.7713 -0.0364  2.0566
 7552SOL     OW34291   1.277   4.104   7.750 -0.5204  0.0257  0.2977
 7552SOL    HW134292   1.189   4.076   7.727 -0.6740  0.3308  0.5181
 7552SOL    HW234293   1.266   4.102   7.845 -0.5876  1.4925  0.3182
 7553SOL     OW34294   1.343   4.378   8.617 -0.5831 -0.4474 -0.5585
 7553SOL    HW134295   1.428   4.359   8.578  0.0964 -1.3070  1.3469
 7553SOL    HW234296   1.334   4.467   8.583 -1.0149  0.4885  1.9884
 7554SOL     OW34297   4.460   3.295   6.403 -0.4736 -0.2425 -0.0798
 7554SOL    HW134298   4.452   3.387   6.375  0.2993 -0.4079 -0.8750
 7554SOL    HW234299   4.551   3.303   6.432 -0.2603  3.6011 -1.8276
 7555SOL     OW34300   2.296   3.910  13.343  0.3300 -0.2953  0.6348
 7555SOL    HW134301   2.333   3.823  13.328 -2.5309 -1.1528 -1.2367
 7555SOL    HW234302   2.221   3.904  13.402  0.5303 -0.5179  0.8691
 7556SOL     OW34303   2.517   2.342   8.807  0.3241 -0.6646  0.6229
 7556SOL    HW134304   2.553   2.397   8.737 -0.6285 -0.9861 -0.1219
 7556SOL    HW234305   2.569   2.261   8.804  0.9083 -0.1819 -3.0847
 7557SOL     OW34306   3.712   0.447   4.752  1.0083  0.4599  0.6998
 7557SOL    HW134307   3.637   0.499   4.779 -0.4330 -0.6101 -1.2331
 7557SOL    HW234308   3.681   0.382   4.689 -2.8298 -0.2431  3.3063
 7558SOL     OW34309   3.875   1.954   9.670  0.1805 -0.4052 -0.0505
 7558SOL    HW134310   3.806   1.892   9.693 -1.2767  0.7383 -1.3050
 7558SOL    HW234311   3.933   1.908   9.609 -1.0570 -0.2547 -1.3524
 7559SOL     OW34312   4.040   1.293  14.480 -0.0063 -0.4953 -0.2222
 7559SOL    HW134313   3.958   1.266  14.521  0.0425  0.3575  0.4291
 7559SOL    HW234314   4.031   1.283  14.385 -1.4638  1.0439 -0.2471
 7560SOL     OW34315   1.446   2.258  15.461  0.4572 -0.2879 -0.0567
 7560SOL    HW134316   1.457   2.335  15.405 -1.3232 -2.0472 -2.7816
 7560SOL    HW234317   1.517   2.255  15.525 -0.2371 -2.6278  0.5959
 7561SOL     OW34318   0.459   0.620   4.080 -0.0012  0.8140  0.4953
 7561SOL    HW134319   0.394   0.690   4.081 -2.4145 -1.4592 -0.0215
 7561SOL    HW234320   0.537   0.673   4.100  1.0767 -0.5671 -0.0832
 7562SOL     OW34321   1.516   3.412   5.371  0.3525  0.2181 -0.4978
 7562SOL    HW134322   1.576   3.352   5.417  0.0588 -1.5371 -2.3884
 7562SOL    HW234323   1.488   3.359   5.296 -0.3173  0.8461 -0.6926
 7563SOL     OW34324   2.188   3.019   7.320 -0.1350 -0.2712 -0.5095
 7563SOL    HW134325   2.144   2.988   7.241 -0.3108  0.4694 -0.7028
 7563SOL    HW234326   2.211   2.932   7.354 -0.8186 -0.3851 -0.3532
 7564SOL     OW34327   0.133   0.568  12.737  0.2691  0.1813 -0.1463
 7564SOL    HW134328   0.102   0.477  12.746  0.3123 -0.0292 -2.0260
 7564SOL    HW234329   0.228   0.555  12.742  0.4577  0.4614 -2.9837
 7565SOL     OW34330   1.350   2.891   9.896  0.6513 -0.4511 -0.7502
 7565SOL    HW134331   1.395   2.924   9.818 -0.1380  1.6841 -0.3143
 7565SOL    HW234332   1.404   2.931   9.964  0.7353 -2.5955  0.4214
 7566SOL     OW34333   0.431   2.228   2.813  0.0931  0.1178 -0.0350
 7566SOL    HW134334   0.475   2.196   2.892 -1.3115  2.2399  1.6175
 7566SOL    HW234335   0.381   2.151   2.784 -0.9603  0.8616 -0.1939
 7567SOL     OW34336   0.771   3.647   5.217  0.1933  0.8931 -0.4177
 7567SOL    HW134337   0.813   3.561   5.225 -1.2329 -0.0241 -2.9270
 7567SOL    HW234338   0.855   3.693   5.223  0.2648  0.7842 -0.5943
 7568SOL     OW34339   4.612   1.608   6.811 -0.2407  0.4993  0.5418
 7568SOL    HW134340   4.582   1.682   6.758  1.7003  0.3523 -0.7558
 7568SOL    HW234341   4.700   1.642   6.827 -0.0689 -0.5646  1.8605
 7569SOL     OW34342   0.510   3.675  14.139  0.3020  0.1413 -0.1872
 7569SOL    HW134343   0.537   3.762  14.166  2.0521 -0.0557 -1.3260
 7569SOL    HW234344   0.471   3.648  14.222  0.3714 -0.9928 -0.5146
 7570SOL     OW34345   0.565   2.098   3.009  0.4090  0.4687  0.1216
 7570SOL    HW134346   0.636   2.114   3.072  0.3288 -0.6792  0.5064
 7570SOL    HW234347   0.608   2.020   2.973  0.7212  0.2268  1.0151
 7571SOL     OW34348   2.629   3.460  14.970 -0.4728  0.1290  0.1019
 7571SOL    HW134349   2.668   3.391  15.023  1.2302  0.6148 -0.4927
 7571SOL    HW234350   2.702   3.455  14.907 -0.5921 -0.4358  0.0079
 7572SOL     OW34351   1.657   2.851   4.048 -0.1026 -0.0442 -0.0948
 7572SOL    HW134352   1.643   2.760   4.022  0.1600 -0.4946  1.3953
 7572SOL    HW234353   1.676   2.884   3.960  0.3600 -1.3818 -0.4993
 7573SOL     OW34354   4.447   2.336   5.288 -0.2063  0.1580 -0.2283
 7573SOL    HW134355   4.410   2.422   5.308  0.6289  0.1055  1.5734
 7573SOL    HW234356   4.392   2.307   5.215 -1.0479 -2.1664  1.3350
 7574SOL     OW34357   4.692   0.202   1.505 -0.8420 -0.2230 -0.1518
 7574SOL    HW134358   4.644   0.153   1.438 -0.3481  0.6881 -1.1638
 7574SOL    HW234359   4.637   0.183   1.581 -0.2429 -1.5571 -0.0482
 7575SOL     OW34360   3.895   4.133   3.578 -0.4547 -0.1615  0.4670
 7575SOL    HW134361   3.991   4.137   3.573 -0.4010 -0.2288  1.5918
 7575SOL    HW234362   3.893   4.038   3.592  1.1639 -0.6089 -2.1864
 7576SOL     OW34363   4.332   3.946  10.468 -0.0863  0.3061 -0.1500
 7576SOL    HW134364   4.323   3.884  10.395  1.1686  1.0124 -0.8949
 7576SOL    HW234365   4.291   4.026  10.434  0.1549  0.8522  0.8448
 7577SOL     OW34366   1.098   0.313  14.217  0.6446  0.4496  0.1089
 7577SOL    HW134367   1.142   0.321  14.132 -0.6219 -0.2919 -0.6013
 7577SOL    HW234368   1.012   0.352  14.202  0.6131  0.7225  0.9822
 7578SOL     OW34369   1.905   3.867   5.471 -0.3504 -0.2716 -0.2908
 7578SOL    HW134370   1.866   3.931   5.411 -1.3099  0.0742  0.7011
 7578SOL    HW234371   1.946   3.808   5.408 -1.5576 -0.9445 -0.4434
 7579SOL     OW34372   4.530   1.480   8.045  0.2409  0.1058  0.1673
 7579SOL    HW134373   4.614   1.524   8.059 -0.2060  0.7484  0.8196
 7579SOL    HW234374   4.553   1.430   7.967  0.1212  0.7290 -0.2729
 7580SOL     OW34375   3.294   3.104   4.196 -0.0128 -0.0601 -0.4811
 7580SOL    HW134376   3.319   3.042   4.265  2.9637  0.2158 -1.3056
 7580SOL    HW234377   3.363   3.084   4.133  0.1080  1.0191 -0.6995
 7581SOL     OW34378   3.024   2.911  14.133  0.0177  0.3006 -0.3218
 7581SOL    HW134379   3.057   2.898  14.044  0.1829  0.1124 -0.2321
 7581SOL    HW234380   3.028   3.006  14.143  0.0381  0.0217  2.3529
 7582SOL     OW34381   4.624   3.135   0.028 -0.0141  0.2609  0.0799
 7582SOL    HW134382   4.616   3.044  17.734  0.2727  0.6902 -1.3114
 7582SOL    HW234383   4.656   3.120   0.117  2.4938 -1.9695 -1.1870
 7583SOL     OW34384   3.448   2.044   4.757  0.1355 -0.8735 -0.7524
 7583SOL    HW134385   3.433   1.958   4.719  2.4445 -1.2455 -0.8057
 7583SOL    HW234386   3.521   2.077   4.705  1.6385 -1.0002  1.2569
 7584SOL     OW34387   1.813   4.187   4.698  0.2336  0.6142 -0.4995
 7584SOL    HW134388   1.904   4.158   4.691  0.1950  0.7208 -1.4758
 7584SOL    HW234389   1.817   4.283   4.694 -0.0971  0.5376 -3.1069
 7585SOL     OW34390   0.330   4.437  16.096 -0.1382  0.1267 -0.3651
 7585SOL    HW134391   0.320   4.343  16.105 -0.3753  0.4806  2.8761
 7585SOL    HW234392   0.371   4.449  16.010 -1.2556  2.5756 -0.5587
 7586SOL     OW34393   3.808   1.273   9.713 -0.0798 -0.2268  0.3907
 7586SOL    HW134394   3.892   1.266   9.666 -1.9460 -2.9133 -2.4881
 7586SOL    HW234395   3.835   1.217   9.785  2.4293 -1.5192 -1.5645
 7587SOL     OW34396   0.856   4.215   7.144 -0.5576  0.5817  0.2993
 7587SOL    HW134397   0.781   4.186   7.093 -0.3047 -0.7727  0.7116
 7587SOL    HW234398   0.829   4.291   7.195 -0.0335  1.4081 -0.6458
 7588SOL     OW34399   3.633   3.132   5.440 -0.0589  0.6387 -0.0564
 7588SOL    HW134400   3.724   3.162   5.451  0.0269 -0.0715  1.1472
 7588SOL    HW234401   3.633   3.155   5.347 -1.6934 -0.4008 -0.3043
 7589SOL     OW34402   4.600   2.304   9.311  0.2644 -0.1465  0.1437
 7589SOL    HW134403   4.524   2.281   9.364  1.6987 -4.0402  0.4752
 7589SOL    HW234404   4.569   2.276   9.225  2.7079 -3.4192  0.3306
 7590SOL     OW34405   4.651   1.355   6.036 -0.5221  0.4613  0.2988
 7590SOL    HW134406   4.609   1.273   6.060 -0.0584  0.2274  0.3026
 7590SOL    HW234407   0.004   1.327   6.008 -0.7089 -0.1472  0.3324
 7591SOL     OW34408   3.201   3.786   7.175 -0.3915 -0.6155 -0.8423
 7591SOL    HW134409   3.232   3.792   7.084 -0.0493  2.0857 -0.5564
 7591SOL    HW234410   3.248   3.708   7.202  2.1310  1.4455  0.6871
 7592SOL     OW34411   1.335   2.566   3.387 -0.1025 -0.4099 -0.2599
 7592SOL    HW134412   1.289   2.551   3.304 -1.4389 -0.3674  0.4745
 7592SOL    HW234413   1.414   2.515   3.372 -0.3812 -0.7991 -0.4054
 7593SOL     OW34414   2.764   3.295   3.898  0.1412  0.3946  0.0246
 7593SOL    HW134415   2.687   3.351   3.915 -0.3589 -0.3143  0.0742
 7593SOL    HW234416   2.827   3.367   3.910  0.9625 -0.5547  1.4388
 7594SOL     OW34417   2.318   1.772   5.343 -0.3711 -0.7751 -0.2398
 7594SOL    HW134418   2.306   1.763   5.438  2.2189 -2.1084 -0.0287
 7594SOL    HW234419   2.232   1.743   5.314 -0.9254  2.5471 -1.8395
 7595SOL     OW34420   3.636   3.690   5.529 -0.1087  0.2716  0.3963
 7595SOL    HW134421   3.595   3.609   5.499  0.7378 -0.4322  1.1561
 7595SOL    HW234422   3.573   3.760   5.509  0.2290  0.8800  1.4165
 7596SOL     OW34423   4.219   3.828   3.517 -0.2160  0.6467 -0.2659
 7596SOL    HW134424   4.128   3.799   3.510  0.0161 -0.0730 -0.2887
 7596SOL    HW234425   4.198   3.920   3.532  1.4748  1.0834 -0.6003
 7597SOL     OW34426   0.122   2.847  13.249 -0.2104 -0.2079 -0.1663
 7597SOL    HW134427   0.181   2.923  13.244 -2.2751  1.4497  0.5911
 7597SOL    HW234428   0.179   2.783  13.207 -0.9677 -1.1001  0.1842
 7598SOL     OW34429   3.811   0.473  10.530  0.1416  0.3964  0.2722
 7598SOL    HW134430   3.897   0.474  10.488 -0.4425  1.6110 -0.9302
 7598SOL    HW234431   3.807   0.554  10.581  1.7717  0.2195  0.6596
 7599SOL     OW34432   4.246   4.567   4.317  0.1739  0.5218 -0.1761
 7599SOL    HW134433   4.249   4.656   4.352 -2.5912  1.1912 -1.6439
 7599SOL    HW234434   4.323   4.568   4.261  0.4040  2.4243  0.1725
 7600SOL     OW34435   2.618   3.688  13.544 -0.2069 -0.3714  0.3917
 7600SOL    HW134436   2.672   3.766  13.557  0.6567 -1.1049  1.2188
 7600SOL    HW234437   2.691   3.627  13.545 -0.1665 -0.2786  3.1658
 7601SOL     OW34438   2.378   4.683  11.209 -0.2731  0.7397  0.3484
 7601SOL    HW134439   2.331   4.656  11.287  2.7799 -0.7329  1.6733
 7601SOL    HW234440   2.361   0.043  11.207 -1.2639  0.5372 -0.7919
 7602SOL     OW34441   2.205   4.607   6.990  0.2440 -0.2671 -0.7250
 7602SOL    HW134442   2.246   4.551   7.057  0.3597  1.0806  0.3331
 7602SOL    HW234443   2.177   4.544   6.924  0.3786 -1.4102  0.3023
 7603SOL     OW34444   3.561   2.198   8.798  0.6417  0.4466  0.8811
 7603SOL    HW134445   3.557   2.246   8.715 -2.1731  1.9932  1.9000
 7603SOL    HW234446   3.485   2.141   8.790  0.0432  1.4172 -0.4348
 7604SOL     OW34447   1.747   3.401   3.805 -0.3077 -0.5864 -0.4596
 7604SOL    HW134448   1.686   3.458   3.759 -0.7466  1.7837  3.0386
 7604SOL    HW234449   1.795   3.366   3.729 -1.1695  0.7644 -1.6170
 7605SOL     OW34450   2.909   4.354  13.849 -0.6008 -0.3631  0.2815
 7605SOL    HW134451   2.869   4.293  13.911 -3.0526  1.6652  0.6790
 7605SOL    HW234452   2.972   4.391  13.911 -0.2469 -1.5715  0.6505
 7606SOL     OW34453   2.662   2.909  17.458  0.6940  0.1134  0.2182
 7606SOL    HW134454   2.689   2.904  17.550  0.6929 -2.9879  0.0551
 7606SOL    HW234455   2.742   2.878  17.416 -0.3809 -2.8031  0.3244
 7607SOL     OW34456   1.484   4.345  11.766 -0.4823 -0.6422 -0.2970
 7607SOL    HW134457   1.516   4.422  11.813  0.2758 -0.2730 -1.4279
 7607SOL    HW234458   1.389   4.352  11.779 -0.9942 -0.8604 -3.9382
 7608SOL     OW34459   0.769   1.743   8.718 -0.3162 -0.0768 -0.5822
 7608SOL    HW134460   0.824   1.713   8.645 -2.3335 -0.0240 -2.1241
 7608SOL    HW234461   0.722   1.666   8.749 -1.1504  0.2090 -1.1174
 7609SOL     OW34462   3.015   0.408   2.441  0.3808 -0.0355  0.0601
 7609SOL    HW134463   2.962   0.330   2.455  0.4329 -0.1282 -0.2684
 7609SOL    HW234464   3.073   0.394   2.516  0.0348 -2.1469 -0.0714
 7610SOL     OW34465   3.750   0.851  15.543 -0.6003  0.0209  0.3192
 7610SOL    HW134466   3.844   0.840  15.527 -0.6436 -3.3151  2.5062
 7610SOL    HW234467   3.738   0.946  15.537  0.0880  0.2013  2.0004
 7611SOL     OW34468   2.073   1.823  16.330 -0.0056 -0.1839  0.2926
 7611SOL    HW134469   2.093   1.856  16.418  0.7126  1.5285 -0.5154
 7611SOL    HW234470   2.050   1.733  16.353  0.9895 -0.6308 -0.4827
 7612SOL     OW34471   2.235   1.656   7.945 -0.4141 -0.8214 -0.4304
 7612SOL    HW134472   2.278   1.731   7.904 -1.1099 -1.6251 -2.6877
 7612SOL    HW234473   2.281   1.665   8.028 -1.3509  1.0653 -0.1191
 7613SOL     OW34474   0.266   1.977   8.432 -0.2626 -0.0976  0.2360
 7613SOL    HW134475   0.321   1.958   8.507  0.2296 -0.0545 -0.1148
 7613SOL    HW234476   0.325   2.045   8.399 -0.1538  0.8490  2.4274
 7614SOL     OW34477   3.389   3.345   6.693 -0.0616 -0.5625 -0.6428
 7614SOL    HW134478   3.342   3.339   6.610 -1.1417 -1.5791  0.0297
 7614SOL    HW234479   3.414   3.254   6.707 -2.9774 -1.2612  0.1265
 7615SOL     OW34480   4.588   2.283   1.603  0.2242  0.6224 -0.1106
 7615SOL    HW134481   4.596   2.323   1.690 -4.0453 -1.3134  1.1668
 7615SOL    HW234482   4.549   2.351   1.549  0.6711  0.9519 -0.0133
 7616SOL     OW34483   3.027   1.212   2.753  0.2101 -0.0792  0.4665
 7616SOL    HW134484   3.008   1.295   2.796  1.1852  0.7248 -0.6469
 7616SOL    HW234485   3.037   1.251   2.666 -0.4911 -1.3844 -0.2172
 7617SOL     OW34486   1.653   2.865  16.799  0.3952  0.3156  0.7268
 7617SOL    HW134487   1.666   2.926  16.871  2.1030 -1.7095  2.1470
 7617SOL    HW234488   1.603   2.795  16.841 -2.0165  1.2941 -0.5216
 7618SOL     OW34489   0.092   1.212  16.674  0.2045 -0.3286 -0.0609
 7618SOL    HW134490   0.071   1.301  16.646  0.9256 -0.4102 -0.8482
 7618SOL    HW234491   0.052   1.164  16.602  1.1316  0.8268 -1.3387
 7619SOL     OW34492   2.044   1.697   4.377 -0.7855  0.3703 -0.3486
 7619SOL    HW134493   1.995   1.744   4.444  0.8060  0.4843  0.7473
 7619SOL    HW234494   2.136   1.711   4.401 -2.0398  5.5728  1.5820
 7620SOL     OW34495   0.908   1.987   8.051 -0.0792 -0.0373  0.7648
 7620SOL    HW134496   0.894   2.039   7.972  0.9226 -0.8893  0.0316
 7620SOL    HW234497   0.857   2.036   8.116 -0.4654 -0.0056  0.4354
 7621SOL     OW34498   4.572   2.411   7.347 -0.2678  0.5593  0.4677
 7621SOL    HW134499   4.556   2.504   7.331 -1.3611  0.4993  1.2170
 7621SOL    HW234500   4.482   2.383   7.363  0.1463  0.6277  2.9358
 7622SOL     OW34501   0.899   1.707   6.881  0.2742 -0.0055  0.3443
 7622SOL    HW134502   0.978   1.667   6.919 -0.1845  2.7055  4.1120
 7622SOL    HW234503   0.845   1.628   6.875 -0.8737  0.7165  1.2724
 7623SOL     OW34504   1.511   3.165  11.851 -0.1514 -0.7198  0.3072
 7623SOL    HW134505   1.584   3.220  11.822 -0.9054  0.6799  1.0634
 7623SOL    HW234506   1.484   3.127  11.768  0.6058 -1.6468  0.4902
 7624SOL     OW34507   0.567   0.788   0.125 -0.1809 -0.3228 -0.5988
 7624SOL    HW134508   0.484   0.801   0.171  1.1372  1.8063  1.1690
 7624SOL    HW234509   0.566   0.860   0.061 -1.5473  1.4848  1.4479
 7625SOL     OW34510   1.797   0.072   4.428  0.3682  0.2642 -0.6874
 7625SOL    HW134511   1.782   0.166   4.420 -0.6903  0.4354  2.9743
 7625SOL    HW234512   1.754   0.033   4.353  1.6735  1.0310 -1.8233
 7626SOL     OW34513   0.097   3.081   7.430 -0.0015 -0.5565  0.1974
 7626SOL    HW134514   0.103   3.157   7.373 -2.1702 -1.3999 -1.1754
 7626SOL    HW234515   0.009   3.103   7.461  0.4929 -0.6892  1.7347
 7627SOL     OW34516   1.326   1.849  13.419 -0.3597  0.1584  0.2230
 7627SOL    HW134517   1.248   1.880  13.466  0.8466  1.2477  1.5176
 7627SOL    HW234518   1.401   1.884  13.467 -0.1025 -1.1758  0.7880
 7628SOL     OW34519   2.079   3.131   6.820  0.1017  0.3376 -0.2035
 7628SOL    HW134520   2.104   3.201   6.759  1.2520  1.6617  1.8005
 7628SOL    HW234521   2.038   3.077   6.752  1.8558 -2.1025  0.6835
 7629SOL     OW34522   2.691   2.326   8.311  0.1386 -0.0889  0.2081
 7629SOL    HW134523   2.668   2.308   8.402 -3.3237 -0.9602 -0.8273
 7629SOL    HW234524   2.780   2.359   8.319 -0.2926  1.3678 -1.0009
 7630SOL     OW34525   0.660   3.188   2.715 -0.2412  0.1257 -0.1601
 7630SOL    HW134526   0.641   3.192   2.809  0.7046 -1.8240  0.1187
 7630SOL    HW234527   0.613   3.107   2.694 -1.6455  0.9912 -0.3778
 7631SOL     OW34528   3.116   0.650   6.990  0.4242 -0.0495  0.0860
 7631SOL    HW134529   3.194   0.627   7.040  1.0803 -1.0656 -1.4009
 7631SOL    HW234530   3.084   0.731   7.029 -1.1995  0.3973 -2.1710
 7632SOL     OW34531   4.363   0.724   3.723 -0.2468  0.5490  0.9225
 7632SOL    HW134532   4.348   0.702   3.632 -1.8066 -0.5477  1.4412
 7632SOL    HW234533   4.380   0.638   3.763  0.0518  0.9723  1.7144
 7633SOL     OW34534   0.662   0.700  12.636  0.5775  0.2666 -0.0595
 7633SOL    HW134535   0.617   0.731  12.715  0.1459  1.8689 -0.9254
 7633SOL    HW234536   0.688   0.782  12.595 -1.1335  0.6663 -0.3313
 7634SOL     OW34537   2.042   2.082   3.868  0.5828  0.1687 -0.3704
 7634SOL    HW134538   2.014   2.000   3.827  2.1007 -0.8465  0.6188
 7634SOL    HW234539   2.038   2.060   3.961 -0.7391 -1.0100 -0.7013
 7635SOL     OW34540   4.101   2.453   1.180 -0.5214 -0.4206  0.6477
 7635SOL    HW134541   4.144   2.507   1.246 -0.9817  0.3254  0.3215
 7635SOL    HW234542   4.035   2.404   1.229  0.0907 -3.2432 -1.2824
 7636SOL     OW34543   4.427   0.554  13.618 -0.5807  0.3154  0.1434
 7636SOL    HW134544   4.403   0.549  13.526 -2.7943  0.0689  0.7216
 7636SOL    HW234545   4.436   0.648  13.635  2.3217  0.1261 -0.4716
 7637SOL     OW34546   2.377   2.377   3.022  0.3474  0.1254 -0.6135
 7637SOL    HW134547   2.295   2.427   3.022  0.4606  0.3011 -1.1654
 7637SOL    HW234548   2.445   2.442   3.008  0.7580 -0.4826 -1.4320
 7638SOL     OW34549   0.755   3.048   9.434 -0.5266 -0.6416  0.6763
 7638SOL    HW134550   0.848   3.061   9.455 -0.3993  1.6965 -1.2772
 7638SOL    HW234551   0.733   3.138   9.410  0.1393 -0.6002  0.2087
 7639SOL     OW34552   1.823   3.966   5.234  0.2434  0.3457  0.3549
 7639SOL    HW134553   1.789   3.995   5.149 -1.4292  0.4489  1.0574
 7639SOL    HW234554   1.853   4.051   5.267  0.1882 -0.3473  2.1772
 7640SOL     OW34555   3.774   0.674   5.080 -0.4679 -0.7242 -0.2156
 7640SOL    HW134556   3.815   0.726   5.012 -0.4144 -2.4082 -1.4684
 7640SOL    HW234557   3.842   0.612   5.106 -1.0423 -0.3146  2.2888
 7641SOL     OW34558   2.728   4.632   9.667  0.1144 -0.4994 -0.6095
 7641SOL    HW134559   2.824   4.633   9.664  0.2337 -1.3304  2.6486
 7641SOL    HW234560   2.722   4.674   9.752 -3.3867 -1.1367 -0.5545
 7642SOL     OW34561   4.526   3.354  11.487  0.0616  0.0913  0.0165
 7642SOL    HW134562   4.532   3.448  11.506 -1.4728  0.0691  0.6214
 7642SOL    HW234563   4.506   3.352  11.394  4.2645  1.2816 -0.9193
 7643SOL     OW34564   2.048   1.531   1.223  0.1071  0.0280  0.1256
 7643SOL    HW134565   1.981   1.546   1.156 -1.0760 -0.7485  1.1469
 7643SOL    HW234566   2.006   1.480   1.292  0.5737  0.8555  1.0262
 7644SOL     OW34567   1.876   0.977   3.827  0.4577  0.1368 -0.0064
 7644SOL    HW134568   1.942   1.030   3.782 -0.2216 -0.3214 -1.5432
 7644SOL    HW234569   1.801   1.004   3.774  0.3464  1.5654  0.8534
 7645SOL     OW34570   2.273   1.176  17.534 -0.3958  0.2069  0.7790
 7645SOL    HW134571   2.180   1.158  17.550  0.4167 -4.1343  0.5185
 7645SOL    HW234572   2.264   1.195  17.441  0.3811  0.3777  0.7427
 7646SOL     OW34573   3.738   1.985   8.403 -0.1448 -0.0249 -0.3319
 7646SOL    HW134574   3.717   2.078   8.416 -0.1840 -0.7160  4.6114
 7646SOL    HW234575   3.755   1.960   8.493  0.6310 -2.2052 -1.1026
 7647SOL     OW34576   4.115   0.752   9.636 -0.0760 -0.1636  0.2914
 7647SOL    HW134577   4.123   0.816   9.707 -0.3356 -0.6157  0.7229
 7647SOL    HW234578   4.204   0.756   9.601  0.3137 -1.4703  1.1726
 7648SOL     OW34579   3.436   3.981  13.245 -0.1975 -0.1256  0.6025
 7648SOL    HW134580   3.343   3.970  13.266 -0.3887 -1.0908 -0.7801
 7648SOL    HW234581   3.453   3.915  13.178 -0.2058  1.9641 -1.4590
 7649SOL     OW34582   3.601   1.765   4.393  0.0052  0.0899  0.3014
 7649SOL    HW134583   3.544   1.698   4.355 -0.5156  0.6289  0.1408
 7649SOL    HW234584   3.624   1.812   4.313 -0.6924 -0.1100 -0.0098
 7650SOL     OW34585   0.989   1.387   5.283 -0.2456  0.1404  0.0575
 7650SOL    HW134586   1.022   1.472   5.256  0.2080  0.3608  1.3280
 7650SOL    HW234587   0.995   1.331   5.206 -1.2836 -1.0726  0.8442
 7651SOL     OW34588   1.969   2.382   5.697 -0.3819 -0.7701 -0.4309
 7651SOL    HW134589   1.969   2.287   5.709 -0.1003 -0.6780  0.3114
 7651SOL    HW234590   1.880   2.407   5.721  0.5226  3.1082 -1.1200
 7652SOL     OW34591   1.550   2.217   1.817 -0.5597 -0.5315 -0.3064
 7652SOL    HW134592   1.630   2.265   1.793 -0.3204 -0.4414  0.6475
 7652SOL    HW234593   1.501   2.292   1.851 -1.7651 -1.5471  0.2088
 7653SOL     OW34594   2.677   0.102   4.923  0.2699  0.0364  0.4463
 7653SOL    HW134595   2.584   0.110   4.900  0.4999  0.8220 -0.2262
 7653SOL    HW234596   2.713   0.060   4.844 -0.8776  0.7031 -0.4397
 7654SOL     OW34597   3.224   4.328   6.428 -0.5261 -0.0310 -0.3671
 7654SOL    HW134598   3.175   4.261   6.381  0.2848 -0.0376 -1.2089
 7654SOL    HW234599   3.177   4.341   6.511  0.7252 -0.9525  0.4782
 7655SOL     OW34600   3.222   0.208   0.571  0.0168  0.0029 -0.8363
 7655SOL    HW134601   3.184   0.177   0.489  1.9456  2.1104 -2.5274
 7655SOL    HW234602   3.245   0.299   0.552  0.1115 -0.1284 -1.3344
 7656SOL     OW34603   0.417   2.970   3.901 -0.2549  0.5319  0.2082
 7656SOL    HW134604   0.453   3.027   3.970 -0.1154 -0.3230  0.8418
 7656SOL    HW234605   0.343   3.020   3.868  0.1599 -0.0944 -1.6473
 7657SOL     OW34606   1.654   2.577   4.015 -0.0620 -0.3174  0.3199
 7657SOL    HW134607   1.738   2.553   4.056  0.2327  2.7472  1.5286
 7657SOL    HW234608   1.626   2.492   3.983  1.0272 -0.3184 -0.6314
 7658SOL     OW34609   2.327   3.582   0.494  0.6976 -0.1118  0.2182
 7658SOL    HW134610   2.396   3.533   0.538  1.3215 -1.7458 -2.5435
 7658SOL    HW234611   2.244   3.542   0.519 -0.1337  0.1384 -2.1549
 7659SOL     OW34612   3.456   1.175   2.143  0.2597 -0.1560  0.6507
 7659SOL    HW134613   3.429   1.091   2.181 -0.7472 -0.1668 -0.0973
 7659SOL    HW234614   3.378   1.197   2.093  0.5428  3.4461  1.7324
 7660SOL     OW34615   4.667   0.685  11.052  0.0970 -0.3149 -0.0427
 7660SOL    HW134616   4.599   0.753  11.043  0.7206 -0.0945 -3.2500
 7660SOL    HW234617   0.011   0.738  11.039 -0.0953  0.3641  1.6391
 7661SOL     OW34618   4.144   2.316   4.086  0.0500 -0.1158 -0.2178
 7661SOL    HW134619   4.157   2.319   3.991 -1.4773  2.3183 -0.3493
 7661SOL    HW234620   4.236   2.309   4.113 -0.6371 -0.9639  1.8924
 7662SOL     OW34621   4.587   2.425   4.147 -0.0688  0.7880 -0.0755
 7662SOL    HW134622   4.661   2.466   4.102 -0.1615  0.7847 -0.2329
 7662SOL    HW234623   4.567   2.492   4.211  0.5441 -0.1814  1.1335
 7663SOL     OW34624   3.921   0.282   4.150 -0.1312  0.0035  0.2894
 7663SOL    HW134625   3.897   0.229   4.074  1.5056 -1.6121  0.9125
 7663SOL    HW234626   3.846   0.271   4.209 -0.4301  1.6740  0.2228
 7664SOL     OW34627   0.933   0.144   9.812 -0.1966  0.4334  0.0230
 7664SOL    HW134628   1.027   0.127   9.818 -0.1804  1.8512  4.1150
 7664SOL    HW234629   0.918   0.181   9.725  0.4718  0.8615  0.0873
 7665SOL     OW34630   2.226   0.584   2.553 -0.0394  0.3683  0.1013
 7665SOL    HW134631   2.211   0.678   2.559  0.0785  0.5516 -2.7160
 7665SOL    HW234632   2.287   0.582   2.480 -0.4308  0.2782 -0.2226
 7666SOL     OW34633   2.583   0.717   5.675 -0.3070 -0.5874  0.4758
 7666SOL    HW134634   2.619   0.805   5.669 -0.0744 -0.6259  1.3533
 7666SOL    HW234635   2.641   0.690   5.747  0.0769  0.9612  0.7351
 7667SOL     OW34636   0.885   3.812   7.598 -0.1764 -0.1027 -0.0040
 7667SOL    HW134637   0.832   3.837   7.522 -1.5162  0.1294  0.9958
 7667SOL    HW234638   0.845   3.729   7.622 -0.4359 -0.2214 -0.8547
 7668SOL     OW34639   1.808   0.073  10.988 -0.1040  0.1571  0.5934
 7668SOL    HW134640   1.818   4.718  11.020  0.5841  0.1144  0.2733
 7668SOL    HW234641   1.826   0.118  11.071  2.0924 -0.2711  0.3416
 7669SOL     OW34642   3.983   4.699   5.144 -0.6464 -0.0590 -0.0842
 7669SOL    HW134643   3.937   0.023   5.205 -0.1452  0.1070  0.1350
 7669SOL    HW234644   3.975   0.022   5.068  1.5855  1.0529  0.5049
 7670SOL     OW34645   3.703   4.343   1.659  0.2132 -0.3137  0.0484
 7670SOL    HW134646   3.766   4.289   1.707  1.9962  0.0067 -1.9206
 7670SOL    HW234647   3.625   4.339   1.714  1.1827 -0.5501  1.3933
 7671SOL     OW34648   3.917   3.998  14.585 -0.1684  0.3042  0.0494
 7671SOL    HW134649   3.959   4.032  14.506  0.9279  1.7593  1.2521
 7671SOL    HW234650   3.895   4.076  14.636 -1.1922  0.9251 -1.3304
 7672SOL     OW34651   2.029   2.834   6.712  0.1908 -0.2098  0.6109
 7672SOL    HW134652   1.967   2.890   6.666 -2.1402 -1.6253  2.0024
 7672SOL    HW234653   1.976   2.831   6.792  0.1315 -1.9380  0.4989
 7673SOL     OW34654   0.857   3.381   6.224 -0.2004  0.8586 -0.3700
 7673SOL    HW134655   0.917   3.404   6.295  0.2606 -0.5752 -0.2907
 7673SOL    HW234656   0.903   3.391   6.141  1.0727  1.7279  0.4445
 7674SOL     OW34657   2.528   0.459   0.314  0.4007  0.6396 -0.1197
 7674SOL    HW134658   2.515   0.454   0.219 -0.3790 -0.2099  0.0326
 7674SOL    HW234659   2.537   0.553   0.324  0.5185  0.7585 -1.3701
 7675SOL     OW34660   1.505   3.734   6.399 -0.1838  0.0874  0.0995
 7675SOL    HW134661   1.583   3.700   6.442 -1.0675 -2.5661 -0.4028
 7675SOL    HW234662   1.462   3.777   6.473  0.7767 -1.0603  1.3306
 7676SOL     OW34663   3.323   4.062  15.506  0.2773 -0.4711 -0.3073
 7676SOL    HW134664   3.316   4.019  15.420 -0.0182  0.5369 -0.7996
 7676SOL    HW234665   3.328   3.982  15.557 -1.3648 -0.2218  0.2348
 7677SOL     OW34666   1.357   2.696   2.778  0.4957  0.1380  0.6564
 7677SOL    HW134667   1.356   2.601   2.794 -0.7787  0.6183  3.4571
 7677SOL    HW234668   1.290   2.705   2.710  1.3254 -0.0164 -0.1825
 7678SOL     OW34669   4.621   0.441   4.364 -0.3053 -0.5262  0.8057
 7678SOL    HW134670   4.623   0.527   4.408  0.4298 -0.5389  0.8008
 7678SOL    HW234671   4.674   0.379   4.414 -1.0304 -0.1671  2.0257
 7679SOL     OW34672   4.308   4.074   8.656  0.2769  0.6842 -0.1875
 7679SOL    HW134673   4.239   4.034   8.602  2.3160 -0.1918 -2.1221
 7679SOL    HW234674   4.303   4.164   8.624  0.7166  0.8295  0.1531
 7680SOL     OW34675   4.461   3.720  17.101  0.1271 -0.0898 -0.4342
 7680SOL    HW134676   4.406   3.677  17.035 -0.9317 -0.4661  0.6940
 7680SOL    HW234677   4.486   3.650  17.161  0.3709  1.4894  1.2958
 7681SOL     OW34678   0.694   3.819   0.210 -0.1293 -0.0853  0.1240
 7681SOL    HW134679   0.648   3.879   0.270 -0.7705 -2.6552  2.1943
 7681SOL    HW234680   0.667   3.848   0.123 -0.4583  0.1410  0.3013
 7682SOL     OW34681   4.511   3.795  17.513  0.2263 -0.5276  0.2543
 7682SOL    HW134682   4.492   3.865  17.450 -0.1347  0.5794  1.6085
 7682SOL    HW234683   4.579   3.837  17.565 -0.8008  0.4018  0.8515
 7683SOL     OW34684   1.175   1.203   7.488 -0.2787  0.0677  0.0780
 7683SOL    HW134685   1.166   1.299   7.484 -2.6826 -0.1216  1.3491
 7683SOL    HW234686   1.136   1.199   7.575  0.5467  1.3890  0.5232
 7684SOL     OW34687   0.472   1.206   2.706  0.3181  0.1943  0.5820
 7684SOL    HW134688   0.531   1.280   2.692 -1.2118  1.6789  2.0292
 7684SOL    HW234689   0.497   1.168   2.790  1.4537 -2.0369 -0.7491
 7685SOL     OW34690   4.705   1.013   9.542  0.1920  0.2780 -0.2659
 7685SOL    HW134691   0.037   1.080   9.522 -0.5114  1.3548  1.0774
 7685SOL    HW234692   0.029   0.957   9.593 -0.6981  0.3612  0.8315
 7686SOL     OW34693   1.154   4.050   5.558  0.5136 -0.4634 -0.6146
 7686SOL    HW134694   1.232   4.102   5.538  0.9331 -1.0265 -0.4639
 7686SOL    HW234695   1.198   3.993   5.622  1.3096  0.4194 -0.3684
 7687SOL     OW34696   3.851   3.183   7.321 -0.8257 -0.3940  0.0355
 7687SOL    HW134697   3.888   3.174   7.408  0.5335 -1.6127 -0.6725
 7687SOL    HW234698   3.914   3.239   7.276  0.8327 -0.4833  2.2990
 7688SOL     OW34699   2.089   2.614   2.037 -0.0925 -0.1182 -0.3094
 7688SOL    HW134700   2.017   2.629   2.099  0.8168 -0.0943  0.7328
 7688SOL    HW234701   2.045   2.626   1.953 -0.5963 -0.2050 -0.0622
 7689SOL     OW34702   0.978   4.576   1.582 -0.1937 -0.1763  0.0623
 7689SOL    HW134703   0.902   4.520   1.598 -0.6245  0.5576  0.6192
 7689SOL    HW234704   0.959   4.651   1.638 -1.1608 -0.5913  0.2874
 7690SOL     OW34705   3.550   2.029   1.495 -0.0233  0.1239 -0.1052
 7690SOL    HW134706   3.514   1.986   1.418 -0.1750  0.9455 -0.4942
 7690SOL    HW234707   3.566   2.117   1.460  0.4430  0.2459  0.3970
 7691SOL     OW34708   0.280   3.426   1.379  0.1822  0.1777  0.3262
 7691SOL    HW134709   0.329   3.372   1.441 -1.7473 -0.5750  1.2058
 7691SOL    HW234710   0.354   3.447   1.322 -0.8516  3.3172  0.1290
 7692SOL     OW34711   0.105   4.332  11.520  0.4908 -0.0125  0.4855
 7692SOL    HW134712   0.190   4.326  11.564  0.5915  0.5093  0.3582
 7692SOL    HW234713   0.100   4.427  11.507  1.0611 -0.0694 -0.1682
 7693SOL     OW34714   0.040   3.479   0.105 -0.5408  0.0687  0.2915
 7693SOL    HW134715   4.693   3.530   0.099  0.8683  2.1318 -1.2820
 7693SOL    HW234716   0.089   3.534   0.044 -0.8804  1.5366  1.3451
 7694SOL     OW34717   3.972   2.221  17.050 -0.2382 -0.1600 -0.4722
 7694SOL    HW134718   3.981   2.173  16.967 -0.8179 -4.0823  1.7517
 7694SOL    HW234719   3.877   2.224  17.052 -0.2321 -0.5849  0.3394
 7695SOL     OW34720   0.863   3.618  14.861 -0.3156  0.6618 -0.1565
 7695SOL    HW134721   0.850   3.530  14.899  1.8180  0.4673  0.1037
 7695SOL    HW234722   0.820   3.600  14.778  2.9657 -2.6903 -1.1481
 7696SOL     OW34723   2.486   4.662   0.781 -0.0350  0.2541 -0.5820
 7696SOL    HW134724   2.431   4.583   0.783 -0.0762  0.3426  1.4031
 7696SOL    HW234725   2.574   4.630   0.762 -0.0589 -0.0111 -0.2397
 7697SOL     OW34726   2.648   1.450   3.721  0.2664  0.6740  0.0867
 7697SOL    HW134727   2.601   1.385   3.772  1.6624  0.6846  1.3793
 7697SOL    HW234728   2.596   1.451   3.640 -1.1392 -2.5190  0.9599
 7698SOL     OW34729   2.866   3.607  14.663  0.3229  0.4940 -0.1851
 7698SOL    HW134730   2.886   3.592  14.571  1.8481  0.1560  0.2132
 7698SOL    HW234731   2.842   3.699  14.663 -1.2205  0.1166  1.8383
 7699SOL     OW34732   3.511   3.803  14.072 -0.8532 -0.3009  0.1067
 7699SOL    HW134733   3.426   3.769  14.044 -1.3586  1.2748 -0.2693
 7699SOL    HW234734   3.482   3.825  14.160 -0.4590 -2.5189  0.7914
 7700SOL     OW34735   4.201   0.760  17.599  0.3130 -0.2466  0.4235
 7700SOL    HW134736   4.277   0.814  17.576  0.3458 -0.2405  0.5425
 7700SOL    HW234737   4.164   0.811  17.671  1.1705 -0.9258  1.3467
 7701SOL     OW34738   1.914   1.102  12.956  0.5362  0.4618 -0.3646
 7701SOL    HW134739   1.891   1.179  12.905  1.0979  1.2548  0.5635
 7701SOL    HW234740   1.998   1.132  12.991 -0.1669 -0.1679  1.9136
 7702SOL     OW34741   2.301   0.001  16.197 -0.1395 -0.1130 -0.3337
 7702SOL    HW134742   2.290   4.653  16.244 -0.7824 -0.4168 -1.0128
 7702SOL    HW234743   2.284   4.706  16.108 -2.8274 -0.8889  0.4368
 7703SOL     OW34744   1.053   1.260  13.756  0.5413 -0.1399 -0.0704
 7703SOL    HW134745   1.072   1.186  13.698 -1.4918  0.3459 -1.3641
 7703SOL    HW234746   0.967   1.235  13.789  0.2459  0.3286 -0.4876
 7704SOL     OW34747   0.466   3.390   6.875  0.0097 -0.3423  0.5514
 7704SOL    HW134748   0.410   3.345   6.812  2.1160 -1.1551 -0.7242
 7704SOL    HW234749   0.402   3.430   6.934  0.4974  1.7919 -0.3581
 7705SOL     OW34750   4.353   3.375   7.379  0.4503  0.0162  0.2553
 7705SOL    HW134751   4.436   3.382   7.428  1.2685 -2.6271 -0.7934
 7705SOL    HW234752   4.383   3.324   7.304  0.4070  1.9539 -1.0700
 7706SOL     OW34753   2.090   0.445   8.304  1.0044  0.1588 -0.6057
 7706SOL    HW134754   2.154   0.393   8.353  2.6250  0.4263 -2.4715
 7706SOL    HW234755   2.122   0.436   8.215  2.0797 -0.4063 -0.1632
 7707SOL     OW34756   1.755   1.863   7.032 -0.6470  0.1444 -0.3633
 7707SOL    HW134757   1.831   1.804   7.035  0.1324  1.1529 -0.3775
 7707SOL    HW234758   1.717   1.867   6.944  1.0273 -0.2067 -1.1079
 7708SOL     OW34759   2.583   4.648   1.453  0.0669  1.0166  0.3325
 7708SOL    HW134760   2.603   4.723   1.511  1.0675 -0.4095  1.8295
 7708SOL    HW234761   2.571   4.585   1.524 -1.0717 -0.2695 -1.0278
 7709SOL     OW34762   2.923   2.094   7.414 -0.3000 -0.5994  0.3680
 7709SOL    HW134763   2.921   2.118   7.321  1.1921 -0.7602  0.2933
 7709SOL    HW234764   2.955   2.004   7.408  0.5337 -0.2913  0.1339
 7710SOL     OW34765   4.144   1.931   2.181 -0.2758 -0.1669  0.0653
 7710SOL    HW134766   4.054   1.908   2.161 -0.0872  0.2116 -1.1889
 7710SOL    HW234767   4.177   1.915   2.093 -1.3387 -0.1534 -0.3245
 7711SOL     OW34768   0.019   2.667   6.733  0.2178 -0.1819  0.0244
 7711SOL    HW134769   0.028   2.758   6.703 -3.0602 -1.0372 -3.4953
 7711SOL    HW234770   0.049   2.623   6.654  1.4083  3.0817 -1.3361
 7712SOL     OW34771   2.528   2.651   7.035 -0.3483  0.2873  0.2915
 7712SOL    HW134772   2.459   2.588   7.017  2.3092 -3.5791  3.7643
 7712SOL    HW234773   2.481   2.731   7.058 -2.2327 -0.2195 -1.8213
 7713SOL     OW34774   0.667   4.199   3.783  0.4117 -0.0184 -0.7288
 7713SOL    HW134775   0.724   4.173   3.856 -2.3676  0.8100  1.7290
 7713SOL    HW234776   0.710   4.277   3.749  2.3161  0.4798  2.7392
 7714SOL     OW34777   3.421   3.896   5.448  0.1946  0.3267 -0.2624
 7714SOL    HW134778   3.341   3.899   5.500  0.2059  0.0050 -0.2316
 7714SOL    HW234779   3.392   3.971   5.396 -0.6722  0.6185  0.6597
 7715SOL     OW34780   4.317   4.265   8.468  0.3711  0.0540 -0.4663
 7715SOL    HW134781   4.396   4.318   8.484  0.8576 -0.6233 -0.6008
 7715SOL    HW234782   4.253   4.333   8.448 -1.8596 -1.3865  1.8208
 7716SOL     OW34783   2.983   3.338   6.654  0.5316 -0.3294  0.5252
 7716SOL    HW134784   2.975   3.245   6.674  1.9322 -0.4563  0.4920
 7716SOL    HW234785   2.894   3.373   6.658  0.6446 -0.2833  2.4894
 7717SOL     OW34786   0.739   2.468  13.882  0.6312  0.1690 -0.3622
 7717SOL    HW134787   0.821   2.478  13.834  0.7353  0.6144 -0.0896
 7717SOL    HW234788   0.749   2.531  13.954  0.9306  0.2717 -0.4945
 7718SOL     OW34789   3.003   2.329   5.762  0.2062 -0.1141 -0.1926
 7718SOL    HW134790   2.927   2.361   5.811  0.7696  0.8979  0.0336
 7718SOL    HW234791   3.072   2.370   5.814  1.1433 -1.0123 -0.7378
 7719SOL     OW34792   3.865   0.053   6.844  0.0385  0.4773 -0.3045
 7719SOL    HW134793   3.828   4.716   6.792 -0.6080 -0.0937  0.9344
 7719SOL    HW234794   3.791   0.111   6.863  0.0024  0.4181 -0.2659
 7720SOL     OW34795   0.733   0.459  11.752  0.1092  0.1904 -0.0802
 7720SOL    HW134796   0.722   0.465  11.657  0.7155 -0.5622 -0.1880
 7720SOL    HW234797   0.669   0.389  11.765  0.0398  0.0096 -1.4115
 7721SOL     OW34798   0.886   1.065   2.947 -0.3124  0.5046 -0.9361
 7721SOL    HW134799   0.930   1.081   2.864  2.1588 -1.0208  0.0982
 7721SOL    HW234800   0.907   1.135   3.009 -0.7118  2.2927 -2.8014
 7722SOL     OW34801   1.531   1.310   7.503 -0.6445  0.5386 -0.2972
 7722SOL    HW134802   1.537   1.236   7.563  1.4685  0.1953 -0.9323
 7722SOL    HW234803   1.569   1.377   7.559  0.5135  0.7760 -1.3670
 7723SOL     OW34804   4.529   4.230   7.119 -0.4505  0.2417  0.2124
 7723SOL    HW134805   4.474   4.248   7.196 -0.0940  4.4843 -0.5321
 7723SOL    HW234806   4.524   4.135   7.111 -2.5255  0.2836  0.9854
 7724SOL     OW34807   3.308   1.367   2.470 -0.3325  0.2905 -0.1624
 7724SOL    HW134808   3.398   1.337   2.457  0.4229  1.9455  1.4024
 7724SOL    HW234809   3.296   1.429   2.398 -0.5175 -0.7187 -1.0178
 7725SOL     OW34810   4.004   1.107   1.385  0.3138  0.3588 -0.3693
 7725SOL    HW134811   4.049   1.165   1.447  2.4930 -2.2493  0.5034
 7725SOL    HW234812   3.979   1.169   1.317 -1.4623  0.7493  0.6394
 7726SOL     OW34813   2.294   4.652   1.082  0.0250 -0.1369 -0.1390
 7726SOL    HW134814   2.338   4.726   1.040 -0.8181  0.2360 -0.3781
 7726SOL    HW234815   2.356   4.622   1.148  0.6931 -0.8302 -1.0838
 7727SOL     OW34816   2.091   2.563   3.983 -0.2682  0.1036  0.2089
 7727SOL    HW134817   2.078   2.479   3.939  1.7477  1.5222 -3.1036
 7727SOL    HW234818   2.080   2.620   3.907  1.4928  0.1256 -0.0422
 7728SOL     OW34819   3.882   0.374   0.915  0.2199 -0.2140 -0.4692
 7728SOL    HW134820   3.868   0.446   0.977  0.7446  1.9763 -2.9308
 7728SOL    HW234821   3.880   0.417   0.830 -1.4245 -0.1798 -0.4062
 7729SOL     OW34822   1.530   4.407   4.706 -0.2165 -0.4064 -0.9986
 7729SOL    HW134823   1.440   4.406   4.673 -0.9701  2.2808  0.9033
 7729SOL    HW234824   1.585   4.424   4.630  0.4287 -0.2021 -0.4893
 7730SOL     OW34825   1.722   4.614   5.637  0.2364  0.6133  0.2593
 7730SOL    HW134826   1.699   4.705   5.652  2.0163  1.1443 -0.2407
 7730SOL    HW234827   1.658   4.578   5.575  0.2437 -0.4889  0.8819
 7731SOL     OW34828   0.097   2.594   8.407  0.4899  0.5405 -0.0683
 7731SOL    HW134829   0.116   2.569   8.316  1.1329  0.0198  0.2039
 7731SOL    HW234830   0.106   2.515   8.461  0.2551  1.2585  1.0180
 7732SOL     OW34831   1.517   0.095   2.618 -0.3948 -0.8050  0.3841
 7732SOL    HW134832   1.475   0.175   2.587 -0.6440 -0.1977  2.2778
 7732SOL    HW234833   1.533   0.116   2.710 -0.6344  0.6724  0.0828
 7733SOL     OW34834   0.590   0.973   8.164 -0.5635  0.4270 -0.1860
 7733SOL    HW134835   0.620   0.996   8.252 -1.8296 -0.8563  0.5695
 7733SOL    HW234836   0.529   0.901   8.176 -0.4860  0.2679 -0.7435
 7734SOL     OW34837   4.613   1.747  10.656  0.3045 -0.2441 -0.4107
 7734SOL    HW134838   4.583   1.836  10.673  0.9522 -0.2604  0.8220
 7734SOL    HW234839   4.700   1.748  10.696  1.5769 -0.7560 -3.1298
 7735SOL     OW34840   2.689   3.700  15.103 -0.0309  0.0629 -0.4641
 7735SOL    HW134841   2.651   3.631  15.050  0.6621  0.0790 -0.9890
 7735SOL    HW234842   2.670   3.682  15.195  2.1726 -2.3192 -0.4735
 7736SOL     OW34843   3.902   2.063   3.095  0.2399  0.1548  0.2825
 7736SOL    HW134844   3.896   2.001   3.023 -1.9025  0.4820  0.1586
 7736SOL    HW234845   3.908   2.142   3.041  0.1528 -0.6221 -0.8619
 7737SOL     OW34846   3.731   3.224   2.903 -0.0481  0.1378 -0.2897
 7737SOL    HW134847   3.644   3.202   2.937  0.7280 -0.7159  1.1133
 7737SOL    HW234848   3.755   3.142   2.860 -3.3487 -1.0050  0.0481
 7738SOL     OW34849   0.877   3.920   2.487 -0.1506  0.2569 -0.4605
 7738SOL    HW134850   0.908   3.861   2.418  0.4068 -0.0783  0.0815
 7738SOL    HW234851   0.849   3.853   2.549  0.6908  1.6136  1.3726
 7739SOL     OW34852   4.514   1.121   9.363  0.1975 -0.2201  0.3581
 7739SOL    HW134853   4.576   1.091   9.430 -1.0648 -0.7455  1.2952
 7739SOL    HW234854   4.442   1.060   9.380 -2.0949  2.3210 -0.3025
 7740SOL     OW34855   0.351   2.504  13.809  0.1794 -0.5707  0.4924
 7740SOL    HW134856   0.423   2.485  13.749  0.1149 -1.4859  0.7109
 7740SOL    HW234857   0.400   2.526  13.888  1.1267 -0.4573 -0.1245
 7741SOL     OW34858   3.322   3.605  14.312 -0.4022  0.3923 -0.5434
 7741SOL    HW134859   3.311   3.629  14.405  1.4391 -0.3657 -0.1324
 7741SOL    HW234860   3.383   3.532  14.307  0.6547  1.1377  1.1050
 7742SOL     OW34861   1.343   0.093   1.220  0.2008  0.2794  0.0638
 7742SOL    HW134862   1.409   0.096   1.151 -0.0905  1.4060 -0.1739
 7742SOL    HW234863   1.363   0.008   1.259 -0.7679 -0.1661 -0.4118
 7743SOL     OW34864   1.014   1.332   2.551 -0.4309  0.2852  0.1366
 7743SOL    HW134865   0.932   1.328   2.502 -1.0937 -0.2312  1.2778
 7743SOL    HW234866   1.017   1.242   2.584  1.5663  1.1275  2.3160
 7744SOL     OW34867   4.196   0.508  17.283  0.8271  0.6956 -0.3313
 7744SOL    HW134868   4.228   0.471  17.366  0.1627 -1.2786 -0.9592
 7744SOL    HW234869   4.208   0.441  17.215  1.4480  0.2419  0.2182
 7745SOL     OW34870   4.254   2.051   8.140 -0.3460  0.3690  0.0392
 7745SOL    HW134871   4.268   2.116   8.208  1.0105  1.0616 -0.8851
 7745SOL    HW234872   4.186   1.996   8.178  1.0168 -1.4413 -0.1085
 7746SOL     OW34873   3.560   4.407   5.422  0.4994 -0.0129 -0.2676
 7746SOL    HW134874   3.615   4.485   5.419  1.3915 -0.6058  0.2606
 7746SOL    HW234875   3.494   4.427   5.357  0.5697  0.4496 -0.1964
 7747SOL     OW34876   0.536   1.811   1.213 -1.0846  0.1196 -0.7499
 7747SOL    HW134877   0.475   1.768   1.153 -0.5604 -1.1430 -0.3778
 7747SOL    HW234878   0.619   1.782   1.175 -0.8476 -0.9297  0.5821
 7748SOL     OW34879   1.939   1.082   5.874  0.1469 -0.3703 -0.4135
 7748SOL    HW134880   1.917   1.012   5.935 -2.9573  3.4927  2.8714
 7748SOL    HW234881   1.853   1.086   5.833  0.5000  0.5110 -1.0677
 7749SOL     OW34882   1.582   4.536   7.678  0.0299 -0.4350  0.2618
 7749SOL    HW134883   1.513   4.566   7.737 -0.8098 -0.2800 -0.7774
 7749SOL    HW234884   1.538   4.457   7.647 -2.1057  0.1822  1.7421
 7750SOL     OW34885   3.065   3.668   7.543 -0.0262  0.2221  0.1972
 7750SOL    HW134886   3.103   3.608   7.478  1.9533  0.8351  0.8045
 7750SOL    HW234887   3.114   3.747   7.519  0.4459  0.2004  1.0901
 7751SOL     OW34888   3.014   0.802   0.443  0.0642 -0.7531  0.3039
 7751SOL    HW134889   3.064   0.883   0.442  0.0746 -0.7540  0.9241
 7751SOL    HW234890   2.923   0.829   0.457  0.6584 -0.6119  3.9113
 7752SOL     OW34891   3.762   0.645  15.768 -0.3353  0.2764  0.0280
 7752SOL    HW134892   3.736   0.579  15.703 -2.6134  1.2579 -0.0612
 7752SOL    HW234893   3.781   0.716  15.706 -0.4199  0.2823  0.0081
 7753SOL     OW34894   4.428   2.885  12.387 -0.3632 -0.1154  0.8126
 7753SOL    HW134895   4.474   2.965  12.409  2.1496 -1.3316 -0.0477
 7753SOL    HW234896   4.427   2.888  12.292  1.1428 -2.6768  0.7056
 7754SOL     OW34897   3.215   4.400   3.647  0.0753  0.0419  0.0153
 7754SOL    HW134898   3.127   4.437   3.651 -0.1546 -0.5683  0.5882
 7754SOL    HW234899   3.273   4.470   3.619  1.0800 -0.2302  1.4212
 7755SOL     OW34900   1.250   4.277   3.274  0.0160  0.2571 -0.1729
 7755SOL    HW134901   1.235   4.186   3.248 -0.2437  0.1168  0.4748
 7755SOL    HW234902   1.333   4.291   3.228  1.1986  2.3126  2.5657
 7756SOL     OW34903   2.347   4.432   0.788  0.0016  0.1634 -0.2337
 7756SOL    HW134904   2.430   4.385   0.785 -1.2718 -2.1057 -0.2220
 7756SOL    HW234905   2.310   4.392   0.867  0.4572  1.7898  0.7929
 7757SOL     OW34906   3.445   3.456   1.396  0.1076  0.3563  0.1406
 7757SOL    HW134907   3.524   3.445   1.343 -0.5244 -2.6200 -0.1755
 7757SOL    HW234908   3.425   3.365   1.416  0.4636  0.6936  2.0335
 7758SOL     OW34909   1.120   0.516   8.641 -0.8182  0.0939 -0.1191
 7758SOL    HW134910   1.188   0.466   8.686 -0.7016  0.8999  0.5869
 7758SOL    HW234911   1.123   0.485   8.551  0.6979 -2.6179  0.8700
 7759SOL     OW34912   3.491   2.387   7.670  0.2070 -0.1708 -0.5324
 7759SOL    HW134913   3.417   2.371   7.612 -1.8949 -0.5846  2.2987
 7759SOL    HW234914   3.477   2.479   7.691  1.6491  0.2895 -1.5487
 7760SOL     OW34915   3.854   1.300  16.109  0.5820  0.2276  0.3475
 7760SOL    HW134916   3.913   1.229  16.086 -1.6350 -1.3894 -0.2825
 7760SOL    HW234917   3.857   1.348  16.026 -0.9332 -1.7039 -0.8265
 7761SOL     OW34918   3.521   3.460   8.379 -0.4113 -0.1211 -0.1337
 7761SOL    HW134919   3.516   3.437   8.472  1.5967 -0.1351 -0.0113
 7761SOL    HW234920   3.445   3.416   8.341 -0.1793  0.0475 -0.7888
 7762SOL     OW34921   3.458   0.233   3.371  0.3641  0.1301  0.1899
 7762SOL    HW134922   3.440   0.313   3.322 -1.1901 -0.4837 -0.2346
 7762SOL    HW234923   3.373   0.193   3.387  1.3690 -1.9413  0.4304
 7763SOL     OW34924   3.825   4.553  12.779 -0.0029  0.3484 -0.3550
 7763SOL    HW134925   3.866   4.479  12.734  1.1736  0.7946 -0.0092
 7763SOL    HW234926   3.735   4.518  12.784  1.0105 -1.8875  1.9875
 7764SOL     OW34927   0.631   4.694   6.655  0.4445 -0.4948  0.0087
 7764SOL    HW134928   0.617   4.722   6.746 -0.0972 -0.6945 -0.0104
 7764SOL    HW234929   0.545   4.710   6.616 -0.7239 -1.2103  2.2573
 7765SOL     OW34930   2.826   2.589   4.572 -0.1477 -0.4761  0.2536
 7765SOL    HW134931   2.786   2.602   4.658 -0.5740 -0.9097  0.1170
 7765SOL    HW234932   2.753   2.545   4.529 -0.7407 -0.0800  0.8432
 7766SOL     OW34933   1.935   1.309  12.584  0.4558  0.4072 -0.8041
 7766SOL    HW134934   2.025   1.340  12.577 -0.1298  2.0637 -0.9665
 7766SOL    HW234935   1.918   1.262  12.502  1.1257 -1.4187  0.1244
 7767SOL     OW34936   2.435   4.172   1.762 -0.2859 -0.4259 -0.8380
 7767SOL    HW134937   2.521   4.166   1.803 -0.5869  1.7032  0.1127
 7767SOL    HW234938   2.451   4.124   1.681  1.3312 -0.8607 -0.2594
 7768SOL     OW34939   3.801   4.406   7.566  0.2136  0.0226  0.5394
 7768SOL    HW134940   3.844   4.478   7.520  1.0431 -0.7975  0.0411
 7768SOL    HW234941   3.868   4.341   7.586  0.8761  0.3251 -0.6912
 7769SOL     OW34942   0.832   1.060   1.135  0.0224 -0.1937 -0.5489
 7769SOL    HW134943   0.765   1.053   1.066 -0.2232  0.8111 -0.4035
 7769SOL    HW234944   0.876   0.975   1.129  1.2836  0.3551  0.8451
 7770SOL     OW34945   2.044   3.828  10.128 -0.7970  0.1969 -0.1241
 7770SOL    HW134946   2.089   3.859  10.207  0.0774 -1.9009  0.1958
 7770SOL    HW234947   1.953   3.845  10.152 -1.3997  1.2264 -3.1528
 7771SOL     OW34948   3.339   3.326   8.269 -0.4247  0.5326 -0.0662
 7771SOL    HW134949   3.320   3.234   8.254  2.6694  0.1607 -1.7918
 7771SOL    HW234950   3.248   3.353   8.280 -0.3108  0.8129  0.2050
 7772SOL     OW34951   3.645   3.752   7.548 -0.1697 -1.2921  0.0842
 7772SOL    HW134952   3.695   3.678   7.582 -1.2724 -1.6254  0.9712
 7772SOL    HW234953   3.649   3.814   7.620  1.1263 -0.4975 -0.6674
 7773SOL     OW34954   2.310   0.460  14.712  0.1081  0.0518 -0.3506
 7773SOL    HW134955   2.390   0.430  14.668 -0.9267  0.4869 -2.4982
 7773SOL    HW234956   2.253   0.383  14.717  1.2549 -0.7510  0.4464
 7774SOL     OW34957   1.914   0.923   8.397  0.5072 -0.0939 -0.0930
 7774SOL    HW134958   1.871   0.874   8.327  2.2019  0.9517 -1.8803
 7774SOL    HW234959   1.967   0.851   8.434  1.6476  0.5200 -0.5326
 7775SOL     OW34960   1.481   0.812   1.222 -0.5866  1.0244  0.1897
 7775SOL    HW134961   1.413   0.879   1.234  1.2701  2.4052  2.9141
 7775SOL    HW234962   1.517   0.850   1.142 -2.6684 -1.4697 -1.9264
 7776SOL     OW34963   0.424   2.779   6.265 -0.7155 -0.2097 -0.2380
 7776SOL    HW134964   0.450   2.688   6.277  0.3094 -0.1204 -1.8351
 7776SOL    HW234965   0.512   2.817   6.265 -0.6665 -0.3119  1.1280
 7777SOL     OW34966   1.422   2.444   2.869  0.1437  0.2417  0.8419
 7777SOL    HW134967   1.386   2.374   2.815  1.3141 -0.1737  0.6066
 7777SOL    HW234968   1.508   2.402   2.870  0.8679  1.6402 -1.3971
 7778SOL     OW34969   4.185   1.285   5.199  0.2400  0.1636 -0.1035
 7778SOL    HW134970   4.114   1.296   5.136 -0.8889  0.2572  1.1808
 7778SOL    HW234971   4.241   1.355   5.166 -2.1910  1.1834 -2.0455
 7779SOL     OW34972   1.938   3.516   8.216  0.5678 -0.1607 -0.3570
 7779SOL    HW134973   1.890   3.565   8.149  1.0970  0.7435 -0.0710
 7779SOL    HW234974   1.962   3.440   8.162  0.0425  1.4652 -2.8752
 7780SOL     OW34975   3.145   0.711   5.433  0.0253 -0.0773 -0.4484
 7780SOL    HW134976   3.219   0.650   5.431 -0.5599 -0.8518  1.8663
 7780SOL    HW234977   3.192   0.795   5.439  0.8111 -0.6317  1.1610
 7781SOL     OW34978   0.404   3.588   0.590 -0.8634 -0.0999  0.9916
 7781SOL    HW134979   0.499   3.583   0.583 -0.8614 -1.4913  1.9242
 7781SOL    HW234980   0.380   3.542   0.670 -2.9729 -0.1480  0.3207
 7782SOL     OW34981   0.498   0.243   9.019  0.1000  0.0434 -0.2803
 7782SOL    HW134982   0.495   0.151   9.044  2.4658 -0.3988 -1.6260
 7782SOL    HW234983   0.589   0.252   8.990  0.6361 -2.0248  0.7891
 7783SOL     OW34984   0.363   2.013   1.803  0.1214 -0.4308  0.4798
 7783SOL    HW134985   0.339   1.989   1.892  0.1552 -1.8200  0.1108
 7783SOL    HW234986   0.278   2.007   1.760  1.5398 -0.9689 -2.2822
 7784SOL     OW34987   2.558   0.248   7.457  0.5667  0.0384  0.3620
 7784SOL    HW134988   2.546   0.209   7.544  0.5630 -0.9099 -0.0617
 7784SOL    HW234989   2.467   0.271   7.444  0.5777  0.4904  1.0917
 7785SOL     OW34990   3.419   2.365   1.696  0.1627 -0.3414 -0.2115
 7785SOL    HW134991   3.410   2.390   1.604 -1.6586 -0.1483  0.0257
 7785SOL    HW234992   3.509   2.346   1.721  0.1544  0.8597  0.7304
 7786SOL     OW34993   3.832   2.700   3.543  0.3306 -0.1078 -0.8251
 7786SOL    HW134994   3.795   2.704   3.632  1.6337 -0.5016 -0.2723
 7786SOL    HW234995   3.851   2.609   3.522  1.4987  0.1545 -0.9068
 7787SOL     OW34996   3.737   2.181   7.402 -0.0897  0.2538  0.2951
 7787SOL    HW134997   3.667   2.244   7.387  1.0117  2.1184  2.9531
 7787SOL    HW234998   3.690   2.111   7.448 -0.9239 -0.1265 -1.1291
 7788SOL     OW34999   3.958   0.577  17.362 -0.1679 -0.8097  0.4988
 7788SOL    HW135000   4.036   0.539  17.323 -0.3271  0.2088 -0.7923
 7788SOL    HW235001   3.933   0.511  17.428  0.6252 -0.9930  0.6073
 7789SOL     OW35002   2.515   1.801   7.290 -0.0508  0.0273  0.0725
 7789SOL    HW135003   2.567   1.734   7.245 -0.2024  0.4327 -0.7083
 7789SOL    HW235004   2.581   1.825   7.355 -1.0215  0.0666  1.0375
 7790SOL     OW35005   4.303   3.989  13.630 -0.2481  0.4581 -0.7814
 7790SOL    HW135006   4.260   4.069  13.601 -1.8610  0.4787  1.7046
 7790SOL    HW235007   4.397   4.000  13.613 -0.5826  1.4673 -1.9688
 7791SOL     OW35008   4.068   1.282   1.925  0.1470  0.6763 -0.2003
 7791SOL    HW135009   4.066   1.357   1.985  0.1348  0.1024  0.5198
 7791SOL    HW235010   4.149   1.295   1.877  0.3441  1.1893  0.2710
 7792SOL     OW35011   1.562   0.537   1.078 -0.1394  0.0313 -0.2359
 7792SOL    HW135012   1.547   0.632   1.080 -1.1899 -0.1450  0.4309
 7792SOL    HW235013   1.481   0.507   1.037 -1.0853  0.8319  1.0578
 7793SOL     OW35014   2.195   0.465   0.344 -0.0625 -0.0737 -0.2092
 7793SOL    HW135015   2.167   0.515   0.421 -1.3867 -0.4831 -0.4255
 7793SOL    HW235016   2.244   0.526   0.290  0.0030  0.4700  0.4586
 7794SOL     OW35017   4.220   4.343  14.022 -0.0862  0.0299 -0.0759
 7794SOL    HW135018   4.303   4.391  14.027  2.0097 -3.6094 -0.2689
 7794SOL    HW235019   4.190   4.375  13.937 -0.7332 -1.5898 -0.4542
 7795SOL     OW35020   0.903   1.777   5.877 -0.7912  0.7315 -0.3889
 7795SOL    HW135021   0.939   1.760   5.964 -0.2388  0.4763 -0.6670
 7795SOL    HW235022   0.837   1.844   5.894 -1.0628  0.6096 -0.9768
 7796SOL     OW35023   1.191   2.761  15.923 -0.2300  0.2208 -0.4219
 7796SOL    HW135024   1.229   2.727  16.004 -2.6777  0.4527  0.8129
 7796SOL    HW235025   1.180   2.853  15.947  2.0090 -0.2190  2.2585
 7797SOL     OW35026   3.967   4.046   7.316  0.3867  0.3082  0.1432
 7797SOL    HW135027   3.948   4.092   7.234 -0.5723  0.6634  0.5669
 7797SOL    HW235028   4.040   4.088   7.361  2.7471 -1.5900 -1.8832
 7798SOL     OW35029   3.912   4.158   2.465 -0.2954  0.3930  0.0476
 7798SOL    HW135030   3.905   4.254   2.469 -0.2601  0.4019 -0.0978
 7798SOL    HW235031   3.992   4.149   2.517 -0.5228  1.5014  0.5853
 7799SOL     OW35032   3.727   4.074   5.966  0.4369 -0.5612 -0.4893
 7799SOL    HW135033   3.737   3.993   5.915 -1.5772 -1.4700  0.5687
 7799SOL    HW235034   3.811   4.115   5.946  0.0625  1.4251  2.0389
 7800SOL     OW35035   4.673   3.300  10.714  0.5033 -0.0500 -0.3613
 7800SOL    HW135036   4.632   3.252  10.785  0.6231 -0.4365 -0.5533
 7800SOL    HW235037   4.699   3.225  10.661  0.1762  0.7573 -1.6600
 7801SOL     OW35038   4.531   0.112   3.476 -0.3199 -0.4303 -0.0012
 7801SOL    HW135039   4.514   0.134   3.568  1.3994 -0.1827  0.2507
 7801SOL    HW235040   4.533   0.017   3.487  0.0703 -0.1091  2.6947
 7802SOL     OW35041   0.190   3.119   3.835 -0.1513  0.3291 -0.3149
 7802SOL    HW135042   0.187   3.130   3.740  1.0723  0.3554 -0.3619
 7802SOL    HW235043   0.193   3.208   3.871 -1.0451 -0.7290  2.3483
 7803SOL     OW35044   4.021   1.267   7.969 -0.3957 -0.2659  0.4743
 7803SOL    HW135045   3.980   1.187   8.002  1.3051 -1.1587  0.4174
 7803SOL    HW235046   4.043   1.312   8.051  0.2389  2.0965 -0.9883
 7804SOL     OW35047   0.594   4.439   5.190  0.1109 -0.1714 -0.2610
 7804SOL    HW135048   0.627   4.479   5.271  1.1652 -0.7680 -0.4048
 7804SOL    HW235049   0.643   4.501   5.137  0.1470  0.3771  0.4036
 7805SOL     OW35050   3.874   4.178   1.801 -0.3264  0.2161  0.3579
 7805SOL    HW135051   3.917   4.197   1.884  0.8986 -0.1286 -0.1870
 7805SOL    HW235052   3.912   4.095   1.771  1.2195  0.4149  1.7816
 7806SOL     OW35053   1.001   0.539   4.761 -0.7864 -0.1958 -0.6781
 7806SOL    HW135054   1.075   0.540   4.822 -0.1574 -0.4559 -1.4527
 7806SOL    HW235055   0.989   0.444   4.764  0.1495 -0.3978 -3.6233
 7807SOL     OW35056   0.897   1.022   1.436  0.1084 -0.1219 -0.3367
 7807SOL    HW135057   0.868   0.958   1.370  0.1748 -2.2951  1.7772
 7807SOL    HW235058   0.851   1.003   1.517 -1.2336 -0.7247 -1.2231
 7808SOL     OW35059   0.723   3.121   1.018 -0.3932  0.0519 -0.1195
 7808SOL    HW135060   0.714   3.064   1.094 -0.2247 -0.9515 -0.8519
 7808SOL    HW235061   0.816   3.100   1.006 -0.4153 -0.6369  0.9058
 7809SOL     OW35062   3.616   2.976   4.984  0.0622  0.0193 -0.2622
 7809SOL    HW135063   3.531   2.946   5.014  0.1467 -0.9652 -1.0089
 7809SOL    HW235064   3.621   2.922   4.905 -0.9855 -2.8591  1.5951
 7810SOL     OW35065   0.038   0.310  12.773  0.4605 -0.5045 -0.4094
 7810SOL    HW135066   4.694   0.259  12.750  0.6163 -0.7612 -0.3731
 7810SOL    HW235067   0.060   0.289  12.863  0.9093 -0.0786 -0.4199
 7811SOL     OW35068   3.705   0.310   6.349  0.2217  0.5400 -0.2408
 7811SOL    HW135069   3.668   0.226   6.375  0.6801  0.6522  0.7558
 7811SOL    HW235070   3.796   0.279   6.350  0.0363 -0.0442 -1.1194
 7812SOL     OW35071   4.551   4.097   8.893 -0.9741 -0.3963 -0.5476
 7812SOL    HW135072   4.569   4.003   8.890 -1.3721 -0.4571 -0.9708
 7812SOL    HW235073   4.514   4.097   8.804 -0.0343 -1.2449 -0.9392
 7813SOL     OW35074   2.805   4.595   7.585 -0.1212 -0.2664 -0.3552
 7813SOL    HW135075   2.783   4.511   7.544  3.4730 -0.2646 -2.2241
 7813SOL    HW235076   2.724   4.643   7.570 -0.9741 -1.9092 -0.9813
 7814SOL     OW35077   2.216   2.227   8.884 -0.2335 -0.4362  0.0419
 7814SOL    HW135078   2.199   2.137   8.914 -2.1754  0.2662  1.1079
 7814SOL    HW235079   2.206   2.218   8.789 -1.7399 -0.9050  0.2372
 7815SOL     OW35080   0.241   3.627   4.470 -0.2431  0.7433 -0.0168
 7815SOL    HW135081   0.210   3.717   4.480  0.2312  0.8911  0.1696
 7815SOL    HW235082   0.239   3.601   4.562 -1.0663 -3.1685 -1.1460
 7816SOL     OW35083   1.808   4.321   5.602  0.6251 -0.4119 -0.0123
 7816SOL    HW135084   1.841   4.284   5.684  2.6402  0.3859 -0.4447
 7816SOL    HW235085   1.880   4.383   5.587 -0.3917  0.4913 -1.1837
 7817SOL     OW35086   2.613   3.585   7.440  0.2248  0.7877 -0.3135
 7817SOL    HW135087   2.674   3.650   7.475 -0.4471  0.3755  1.5796
 7817SOL    HW235088   2.604   3.518   7.507 -0.5919  1.2225  0.0059
 7818SOL     OW35089   4.332   0.513   9.783 -0.1337  0.0789 -0.6290
 7818SOL    HW135090   4.337   0.469   9.867  0.4105  1.1838 -0.0818
 7818SOL    HW235091   4.284   0.457   9.722 -0.0668 -1.1921  0.5057
 7819SOL     OW35092   4.483   4.028   3.845  0.7726  0.0988 -0.3794
 7819SOL    HW135093   4.515   4.013   3.756  0.0659  0.8509 -0.7622
 7819SOL    HW235094   4.566   4.033   3.891  0.8812 -0.9169 -0.4816
 7820SOL     OW35095   2.127   0.253   4.027  0.2347  0.3042  0.2653
 7820SOL    HW135096   2.090   0.318   3.966  1.1524 -1.4756 -2.2059
 7820SOL    HW235097   2.091   0.287   4.109 -0.0200 -0.4858  0.4788
 7821SOL     OW35098   4.701   1.752   8.850 -0.3079  0.0980 -0.3686
 7821SOL    HW135099   4.725   1.841   8.875  0.0472 -0.1241  0.0729
 7821SOL    HW235100   4.678   1.770   8.758  0.5624 -0.3710 -0.6760
 7822SOL     OW35101   2.232   2.055   5.688  0.1488 -0.0088  0.6272
 7822SOL    HW135102   2.244   2.148   5.707  1.2095  0.8707 -4.2082
 7822SOL    HW235103   2.156   2.069   5.632  0.0014 -0.7690  0.6331
 7823SOL     OW35104   1.949   3.994  12.571  0.2070 -0.7861  0.8065
 7823SOL    HW135105   1.899   4.069  12.539  3.1306  1.6006  1.9263
 7823SOL    HW235106   2.032   4.018  12.529  0.6289 -1.2318  1.3808
 7824SOL     OW35107   1.993   1.963   1.731  0.2672  0.3650 -0.0657
 7824SOL    HW135108   2.066   1.960   1.792  1.9685 -0.9112 -2.1874
 7824SOL    HW235109   1.919   1.941   1.788 -0.4972 -0.7235 -1.4850
 7825SOL     OW35110   1.347   0.432   0.935 -0.2220  0.1293 -0.5448
 7825SOL    HW135111   1.334   0.339   0.915 -2.7240  0.9890 -2.8676
 7825SOL    HW235112   1.258   0.464   0.941 -0.8018 -1.6034  0.0428
 7826SOL     OW35113   3.486   1.365   7.965  0.0262 -0.1462  0.3280
 7826SOL    HW135114   3.412   1.307   7.984  0.2587 -1.1843 -1.9102
 7826SOL    HW235115   3.476   1.430   8.035 -1.5551 -0.6734  0.5973
 7827SOL     OW35116   3.369   4.640   3.551 -0.0143 -0.1106  0.3619
 7827SOL    HW135117   3.378   4.650   3.646 -1.5996  0.1008  0.4929
 7827SOL    HW235118   3.460   4.631   3.522 -0.6546 -1.0384 -1.3596
 7828SOL     OW35119   2.687   1.903   6.495 -0.5259  0.4507  0.0883
 7828SOL    HW135120   2.694   1.923   6.402  0.0155  0.9574  0.2422
 7828SOL    HW235121   2.710   1.986   6.536  1.8827  0.7014 -1.8250
 7829SOL     OW35122   0.923   0.870  10.512 -0.1594  0.9099 -0.0455
 7829SOL    HW135123   1.004   0.912  10.482  2.3785 -1.8706  3.0379
 7829SOL    HW235124   0.881   0.934  10.568 -1.7933  0.8923 -1.2418
 7830SOL     OW35125   4.642   0.332   5.683 -0.0525 -0.2911  0.5649
 7830SOL    HW135126   4.546   0.339   5.683 -0.0799 -0.6133 -0.9397
 7830SOL    HW235127   4.666   0.394   5.752  1.6065 -0.3903  0.0562
 7831SOL     OW35128   2.096   0.828   4.632  0.6901  0.1410  0.2815
 7831SOL    HW135129   2.021   0.886   4.621  2.3739  2.2976  0.3722
 7831SOL    HW235130   2.094   0.790   4.544 -1.1832 -0.6890  0.6687
 7832SOL     OW35131   2.065   4.682   3.997 -0.2827 -0.1539 -0.9036
 7832SOL    HW135132   2.033   4.656   4.083  0.5900 -2.9498 -1.4284
 7832SOL    HW235133   2.008   4.639   3.933 -0.6192  0.6963 -1.1756
 7833SOL     OW35134   1.882   4.576  11.142  0.2223 -0.6321  0.3519
 7833SOL    HW135135   1.952   4.526  11.101  2.1786  1.4070  1.2278
 7833SOL    HW235136   1.916   4.627  11.215 -0.4368  0.3605 -0.0361
 7834SOL     OW35137   2.391   4.452   3.106  0.2632 -0.1246  0.4456
 7834SOL    HW135138   2.387   4.546   3.094 -2.1395 -0.3878 -0.8428
 7834SOL    HW235139   2.475   4.457   3.153 -0.0248  1.6018  0.7649
 7835SOL     OW35140   2.197   3.637   1.474  0.2903 -0.4445 -0.5289
 7835SOL    HW135141   2.249   3.558   1.491  1.5789  0.2697 -1.1628
 7835SOL    HW235142   2.235   3.701   1.533  0.2851 -2.1339  1.2965
 7836SOL     OW35143   2.026   3.899   7.313 -0.1444  0.2740  0.4630
 7836SOL    HW135144   2.121   3.906   7.313 -0.2000  1.0545  1.0511
 7836SOL    HW235145   2.016   3.855   7.228  0.4181  0.7101  0.1766
 7837SOL     OW35146   2.251   0.628   5.237 -0.0928  0.1261 -0.3304
 7837SOL    HW135147   2.311   0.610   5.309  0.6145  1.3887 -0.6074
 7837SOL    HW235148   2.197   0.693   5.283  0.9088  0.9822 -0.3561
 7838SOL     OW35149   2.327   3.017   5.500  0.9757  0.1304  0.2841
 7838SOL    HW135150   2.335   3.111   5.513  3.3181 -0.1472  0.9725
 7838SOL    HW235151   2.418   2.996   5.477 -0.3565 -2.2057 -2.8709
 7839SOL     OW35152   4.608   3.386   1.671  0.0959 -0.1711  0.4963
 7839SOL    HW135153   4.659   3.352   1.598  0.9719 -0.0468  1.0516
 7839SOL    HW235154   4.557   3.453   1.626  0.5299 -0.7273 -0.8150
 7840SOL     OW35155   4.259   2.567  14.914  0.7700  0.2881  0.6152
 7840SOL    HW135156   4.287   2.556  15.004 -0.2755 -0.6817  0.8218
 7840SOL    HW235157   4.163   2.574  14.920  0.5701 -1.0435 -0.8767
 7841SOL     OW35158   3.839   4.310  12.647  0.1751 -0.1591  0.0828
 7841SOL    HW135159   3.930   4.304  12.620  0.0711 -1.4241 -0.0019
 7841SOL    HW235160   3.849   4.291  12.741 -2.3695 -0.7176  0.2557
 7842SOL     OW35161   0.241   0.013  13.505  0.4646 -0.5356  0.0188
 7842SOL    HW135162   0.311   4.698  13.547  0.0038 -1.0427  0.1848
 7842SOL    HW235163   0.210   4.680  13.443 -1.7976 -0.9225  1.5596
 7843SOL     OW35164   1.073   3.341   9.012 -0.0248 -0.3476 -0.1079
 7843SOL    HW135165   1.080   3.387   8.928  0.2253 -0.7109 -0.2871
 7843SOL    HW235166   1.140   3.376   9.071  1.7710 -3.2645 -0.3878
 7844SOL     OW35167   0.648   3.187   1.513 -0.4008  0.1488 -0.2110
 7844SOL    HW135168   0.632   3.211   1.422  0.4051 -0.2699 -0.4580
 7844SOL    HW235169   0.575   3.239   1.548 -0.0982 -0.7185  1.7643
 7845SOL     OW35170   2.105   0.143  10.025  0.3645  0.0448 -0.1327
 7845SOL    HW135171   2.171   0.193  10.073 -2.6686  1.9989  2.0168
 7845SOL    HW235172   2.069   0.082  10.089 -0.7358  1.7391  0.8376
 7846SOL     OW35173   1.125   0.705   4.570  0.1658 -0.1557 -0.5669
 7846SOL    HW135174   1.105   0.723   4.662  1.8294  0.3542 -0.3051
 7846SOL    HW235175   1.136   0.610   4.569  0.7841 -0.0885  0.0969
 7847SOL     OW35176   1.482   3.788  14.364  0.1984 -0.2701  0.2213
 7847SOL    HW135177   1.403   3.757  14.408  0.1230  0.0119  0.2851
 7847SOL    HW235178   1.470   3.880  14.385  3.0952  0.1957 -0.1741
 7848SOL     OW35179   2.503   4.509   6.400  0.0730 -0.5235 -0.0672
 7848SOL    HW135180   2.547   4.552   6.474 -0.1259 -0.8561  0.2451
 7848SOL    HW235181   2.515   4.419   6.432 -2.0309 -0.1950  1.6706
 7849SOL     OW35182   0.981   2.457   7.496 -0.2795 -0.3818  0.3804
 7849SOL    HW135183   0.994   2.534   7.440 -2.1675 -1.5601 -1.6555
 7849SOL    HW235184   1.008   2.394   7.429  0.1324  0.9474 -0.6945
 7850SOL     OW35185   4.435   0.750  14.438  0.1034  0.2996 -0.2517
 7850SOL    HW135186   4.413   0.810  14.367 -0.0584 -1.7195 -1.9023
 7850SOL    HW235187   4.475   0.675  14.394 -0.7592 -0.7724  0.7753
 7851SOL     OW35188   2.348   3.041  14.327 -0.2479 -0.4699  0.6100
 7851SOL    HW135189   2.437   3.033  14.292  0.1465  5.5547  0.3497
 7851SOL    HW235190   2.352   2.969  14.391 -0.0518 -1.4408 -0.4845
 7852SOL     OW35191   1.579   4.448   2.392 -0.1003  0.2105  0.3569
 7852SOL    HW135192   1.648   4.479   2.333 -0.2113 -1.4906 -0.6421
 7852SOL    HW235193   1.505   4.433   2.334 -1.6704 -0.8337  2.6340
 7853SOL     OW35194   3.766   1.626   4.007 -0.1364 -0.2807  0.3532
 7853SOL    HW135195   3.682   1.667   4.031 -0.3576  0.2922 -1.3927
 7853SOL    HW235196   3.782   1.564   4.077 -0.7855 -2.1569 -1.1662
 7854SOL     OW35197   0.252   0.220   4.324 -0.2438  0.1756 -0.5591
 7854SOL    HW135198   0.199   0.140   4.328  0.2794 -0.1708 -0.4653
 7854SOL    HW235199   0.332   0.168   4.312  0.2526  1.2448 -1.8798
 7855SOL     OW35200   1.544   3.728  12.438  0.8106  0.4231 -0.0774
 7855SOL    HW135201   1.516   3.790  12.370 -2.0562 -0.8973 -0.0898
 7855SOL    HW235202   1.560   3.650  12.384 -0.8035 -2.7939  4.1067
 7856SOL     OW35203   1.224   0.011   0.820  0.4143  0.4790  0.8349
 7856SOL    HW135204   1.194   4.669   0.871  0.9710  0.8175  1.6669
 7856SOL    HW235205   1.263   4.701   0.745  0.1134 -1.1613  1.6315
 7857SOL     OW35206   0.469   0.484   1.385 -0.0708 -0.1122 -0.1586
 7857SOL    HW135207   0.377   0.463   1.373 -0.2010  1.3688 -1.6683
 7857SOL    HW235208   0.502   0.399   1.415  0.7975  0.5555  0.8255
 7858SOL     OW35209   4.589   3.475   2.807  0.1458 -0.0312 -0.2695
 7858SOL    HW135210   4.624   3.563   2.797 -1.2117  0.4799 -0.5870
 7858SOL    HW235211   4.503   3.497   2.844 -0.3331 -0.5873 -1.0596
 7859SOL     OW35212   0.666   0.409   3.832  0.1961 -0.2127  0.1865
 7859SOL    HW135213   0.741   0.458   3.867 -0.4272  0.1401  1.0228
 7859SOL    HW235214   0.703   0.323   3.852  1.3723  0.1540 -0.3922
 7860SOL     OW35215   4.681   4.541  11.982  0.1760  0.2372 -0.2775
 7860SOL    HW135216   0.025   4.495  12.015  1.0771  0.9181 -1.4807
 7860SOL    HW235217   4.639   4.564  12.065 -1.1277 -2.6792 -0.1395
 7861SOL     OW35218   4.699   4.733  11.782 -0.2508 -0.5445  0.3033
 7861SOL    HW135219   0.041   0.056  11.793 -0.2661 -0.7211  1.3239
 7861SOL    HW235220   4.703   4.684  11.864 -0.1552  1.2788  1.3727
 7862SOL     OW35221   1.579   1.717   0.616  0.7426 -0.4454  0.3686
 7862SOL    HW135222   1.605   1.804   0.586 -3.4000  0.6942  0.1417
 7862SOL    HW235223   1.571   1.730   0.710  1.4093 -1.5481  0.5775
 7863SOL     OW35224   2.183   1.683   6.980  0.5771 -0.4788  0.0268
 7863SOL    HW135225   2.128   1.632   6.920 -2.1356  2.1306  0.3034
 7863SOL    HW235226   2.182   1.620   7.052  1.6616 -0.7840 -0.2215
 7864SOL     OW35227   0.409   3.214   2.241 -0.2304  0.3459  0.1334
 7864SOL    HW135228   0.434   3.270   2.314  0.4305 -0.3109  0.4085
 7864SOL    HW235229   0.335   3.262   2.203  0.7212  1.0731 -0.7641
 7865SOL     OW35230   3.081   2.005   8.832 -0.5251 -0.0098  0.3291
 7865SOL    HW135231   2.987   2.020   8.835 -0.6622 -0.3794 -2.3182
 7865SOL    HW235232   3.101   2.003   8.926 -1.3804  1.2694  0.5310
 7866SOL     OW35233   2.612   2.961   3.593  0.2962 -0.2327 -0.0066
 7866SOL    HW135234   2.608   2.873   3.554  0.6958  0.2532 -1.1369
 7866SOL    HW235235   2.526   2.966   3.636 -1.0523  2.0716 -3.0574
 7867SOL     OW35236   3.402   0.395   3.114 -0.1283 -0.4332 -0.7492
 7867SOL    HW135237   3.434   0.310   3.082 -0.1004 -0.5995 -0.2824
 7867SOL    HW235238   3.484   0.442   3.128 -1.2272  1.8241 -2.0591
 7868SOL     OW35239   4.574   1.394   5.389 -0.0452  0.8211  0.0500
 7868SOL    HW135240   4.623   1.475   5.403 -1.0010  1.1254  1.6500
 7868SOL    HW235241   4.492   1.415   5.432 -0.6702  0.3155 -0.8974
 7869SOL     OW35242   3.256   3.713   2.335 -0.3143  0.3068  0.3927
 7869SOL    HW135243   3.182   3.741   2.389 -0.5541  1.7230 -0.6680
 7869SOL    HW235244   3.212   3.641   2.288 -0.6613  0.7485  0.0395
 7870SOL     OW35245   3.625   3.898   3.995  0.0672 -0.3468  0.1860
 7870SOL    HW135246   3.589   3.986   4.009 -3.3517 -2.1043  2.5477
 7870SOL    HW235247   3.677   3.868   4.070 -1.4172 -1.8557  0.6197
 7871SOL     OW35248   2.132   3.855   5.653  0.1515  0.4750 -0.4402
 7871SOL    HW135249   2.173   3.777   5.617  0.0977  1.0825 -1.8227
 7871SOL    HW235250   2.063   3.872   5.588  0.0224 -0.7773 -0.6292
 7872SOL     OW35251   3.513   1.435   5.670  0.1390 -0.3534 -0.1121
 7872SOL    HW135252   3.473   1.499   5.728 -1.9037 -0.7347 -1.1035
 7872SOL    HW235253   3.605   1.437   5.695  0.7123 -1.1774 -2.1365
 7873SOL     OW35254   1.183   4.076   8.814  0.1736 -0.2956 -0.2353
 7873SOL    HW135255   1.089   4.061   8.820  0.0044  0.4508 -1.0372
 7873SOL    HW235256   1.214   4.093   8.902  1.4366  2.1230 -1.1530
 7874SOL     OW35257   1.062   2.867  10.858  1.0001 -0.0672 -0.0161
 7874SOL    HW135258   1.115   2.890  10.934 -0.4791  1.9035  0.4191
 7874SOL    HW235259   0.996   2.805  10.891  0.4673  1.4064  1.6690
 7875SOL     OW35260   3.838   2.418   8.511 -0.2651  0.0214 -0.4572
 7875SOL    HW135261   3.772   2.481   8.540 -1.2397 -2.0123  1.8149
 7875SOL    HW235262   3.789   2.367   8.446  1.5171  0.2397 -1.9494
 7876SOL     OW35263   3.325   4.475   4.830  0.1464  0.4760 -0.0337
 7876SOL    HW135264   3.401   4.444   4.880 -1.5024 -1.0707  1.5197
 7876SOL    HW235265   3.271   4.487   4.908  3.1256  2.8322  1.6701
 7877SOL     OW35266   1.915   0.285   6.612 -0.6621 -0.3900 -0.2023
 7877SOL    HW135267   1.960   0.315   6.691  0.8450  0.6393 -1.4644
 7877SOL    HW235268   1.830   0.319   6.640 -0.5975 -1.8262  1.6778
 7878SOL     OW35269   2.080   4.287   1.070  0.3968  0.5304 -0.0587
 7878SOL    HW135270   2.168   4.271   1.035  1.0506  2.3959  0.7200
 7878SOL    HW235271   2.094   4.252   1.158  3.7384  0.3734 -0.6558
 7879SOL     OW35272   0.214   3.619   0.386 -0.1101 -0.0862 -0.5588
 7879SOL    HW135273   0.285   3.636   0.447 -0.7525  0.1400  0.1315
 7879SOL    HW235274   0.242   3.657   0.303  2.4181  0.1232  0.4171
 7880SOL     OW35275   0.651   4.599  12.847  0.0603 -0.6114  0.1822
 7880SOL    HW135276   0.644   4.680  12.897 -0.3221 -1.2154  1.1138
 7880SOL    HW235277   0.670   4.532  12.913  0.2877 -1.2917 -0.5785
 7881SOL     OW35278   1.657   0.525   0.765  0.0835 -0.0319 -0.0417
 7881SOL    HW135279   1.662   0.459   0.696  0.5350  0.7689 -0.7779
 7881SOL    HW235280   1.603   0.470   0.821  0.4677 -0.6125 -0.2421
 7882SOL     OW35281   2.325   2.026   7.515 -0.3024 -0.2102  0.0441
 7882SOL    HW135282   2.258   2.093   7.527  0.0523  0.3484 -1.0578
 7882SOL    HW235283   2.402   2.081   7.499 -0.0415 -0.5977 -0.0197
 7883SOL     OW35284   3.784   1.008   4.672  0.6551  0.0678 -0.7514
 7883SOL    HW135285   3.830   1.041   4.595  0.2526 -0.6507 -1.3091
 7883SOL    HW235286   3.781   0.922   4.629  1.5678 -0.7039  0.7147
 7884SOL     OW35287   3.338   0.036   8.921 -0.1789 -0.6425  0.5161
 7884SOL    HW135288   3.408   0.023   8.857  0.5587  1.9070  0.7752
 7884SOL    HW235289   3.300   4.683   8.927 -1.7773 -0.0829 -1.2595
 7885SOL     OW35290   1.591   2.962   5.929 -0.4975 -0.3279  0.3078
 7885SOL    HW135291   1.669   2.938   5.879 -0.0710  0.2276  0.7032
 7885SOL    HW235292   1.526   2.916   5.876 -1.2684  1.0206  0.0791
 7886SOL     OW35293   3.996   4.506   4.399 -0.4160 -0.5037  0.2902
 7886SOL    HW135294   4.023   4.445   4.467  1.5823 -0.2852 -0.3174
 7886SOL    HW235295   4.078   4.554   4.388  0.0462 -1.7966 -1.7489
 7887SOL     OW35296   2.035   4.192   7.506  0.2620 -0.4999 -1.3260
 7887SOL    HW135297   2.069   4.212   7.419 -0.5546  1.3923 -1.2155
 7887SOL    HW235298   2.102   4.237   7.558  1.6179 -0.7112 -2.8776
 7888SOL     OW35299   1.185   4.215   1.533  0.5899  0.0147 -0.2764
 7888SOL    HW135300   1.219   4.235   1.446 -2.6350 -0.1382 -1.5996
 7888SOL    HW235301   1.098   4.255   1.523  1.0869  1.1361 -0.1316
 7889SOL     OW35302   4.336   3.557   7.091  0.1060  0.0105  0.4253
 7889SOL    HW135303   4.262   3.498   7.082  1.5974 -1.8261  0.1769
 7889SOL    HW235304   4.307   3.626   7.032  0.3465 -1.1703 -1.0582
 7890SOL     OW35305   2.295   4.613   0.159  0.0403  0.2195  0.2386
 7890SOL    HW135306   2.303   4.575   0.071 -1.5218  1.0398 -0.2563
 7890SOL    HW235307   2.223   4.559   0.190  0.4688 -1.3535 -1.5413
 7891SOL     OW35308   1.019   3.020   8.235 -0.0838  0.1947  0.2260
 7891SOL    HW135309   1.076   3.072   8.179  0.8388 -0.8177  0.2304
 7891SOL    HW235310   0.992   3.088   8.298 -1.3178  0.6369 -0.7830
 7892SOL     OW35311   2.007   1.835   8.707 -0.3316  0.1294 -0.2664
 7892SOL    HW135312   2.007   1.783   8.788 -1.5829 -1.4528 -1.2794
 7892SOL    HW235313   2.102   1.836   8.695 -0.4370  0.0285 -1.1000
 7893SOL     OW35314   1.226   4.311  13.555  0.1274 -0.5091 -0.2310
 7893SOL    HW135315   1.153   4.358  13.516 -0.2317 -1.5466 -0.8112
 7893SOL    HW235316   1.285   4.376  13.593 -1.8097 -0.2244  2.3348
 7894SOL     OW35317   4.431   4.562   9.208  0.3602  0.2627  0.1278
 7894SOL    HW135318   4.363   4.508   9.249 -0.1373  1.7623  1.2902
 7894SOL    HW235319   4.508   4.512   9.233  1.8962  1.4633 -2.2058
 7895SOL     OW35320   3.716   1.499   8.615 -0.2167  0.0924  0.3957
 7895SOL    HW135321   3.759   1.416   8.592  1.0387  0.5149  1.2099
 7895SOL    HW235322   3.794   1.555   8.622 -0.6353  0.5670  1.1854
 7896SOL     OW35323   1.834   3.682   8.019 -0.3242  0.1849 -0.0367
 7896SOL    HW135324   1.894   3.670   7.945 -2.8844  0.3004 -2.1486
 7896SOL    HW235325   1.803   3.768   7.990 -1.7452 -0.1445  0.5226
 7897SOL     OW35326   1.945   2.029   0.607  0.5095 -0.0786 -0.1823
 7897SOL    HW135327   1.871   2.056   0.553 -0.2329  1.2781  1.5136
 7897SOL    HW235328   1.942   2.096   0.675  1.1603 -0.0868 -0.1467
 7898SOL     OW35329   0.748   4.057   3.989 -0.0652 -0.2434 -0.0132
 7898SOL    HW135330   0.718   3.981   4.039 -2.6346  0.7324 -0.0777
 7898SOL    HW235331   0.835   4.079   4.023 -0.1137  0.1566 -0.1532
 7899SOL     OW35332   4.707   3.506  16.364 -0.8326  0.4266  0.4584
 7899SOL    HW135333   0.063   3.529  16.387  0.3427 -0.4316 -3.2575
 7899SOL    HW235334   4.725   3.448  16.290 -0.4053 -0.1571  1.0152
 7900SOL     OW35335   2.032   1.725   5.365 -0.4287 -0.5542 -0.5591
 7900SOL    HW135336   2.060   1.665   5.433  0.8650  0.6684 -0.0366
 7900SOL    HW235337   1.966   1.770   5.419  0.6289 -0.0154  0.2699
 7901SOL     OW35338   2.966   2.287   7.165 -0.7235  0.5160 -0.3005
 7901SOL    HW135339   2.893   2.347   7.153  0.2295  1.6952 -0.2022
 7901SOL    HW235340   3.014   2.301   7.082 -2.0730  0.2893 -1.1120
 7902SOL     OW35341   3.686   1.779   8.739  0.1920 -0.0293  0.2130
 7902SOL    HW135342   3.731   1.849   8.692  1.9866 -1.1987  0.1857
 7902SOL    HW235343   3.671   1.822   8.822 -0.4835  1.9107 -0.9302
 7903SOL     OW35344   2.250   0.670   3.020 -0.0599 -0.2834  0.0933
 7903SOL    HW135345   2.185   0.620   3.069  0.0878 -0.6614 -0.0953
 7903SOL    HW235346   2.223   0.659   2.928 -2.3829  1.2817  0.5754
 7904SOL     OW35347   4.041   0.435  16.235 -0.3368 -0.1220 -0.0110
 7904SOL    HW135348   4.031   0.446  16.140 -1.9140  1.5190  0.3406
 7904SOL    HW235349   3.957   0.457  16.276  1.0222  0.0326  2.6908
 7905SOL     OW35350   1.920   2.445   4.420 -0.2666 -0.8154 -0.7393
 7905SOL    HW135351   1.953   2.447   4.510  1.8099 -0.0012 -1.5014
 7905SOL    HW235352   1.849   2.384   4.437  0.2171 -1.5044 -1.2175
 7906SOL     OW35353   3.328   2.142   2.771 -0.0094 -0.1483  0.1970
 7906SOL    HW135354   3.403   2.161   2.714 -0.2483 -1.2978 -0.4887
 7906SOL    HW235355   3.255   2.170   2.716 -0.0067 -0.7808 -0.1230
 7907SOL     OW35356   4.700   4.369   6.303  0.7859  0.1888 -0.0214
 7907SOL    HW135357   4.720   4.452   6.346 -1.4442  1.0436 -0.6277
 7907SOL    HW235358   4.711   4.304   6.373  2.6142 -1.2163 -1.5982
 7908SOL     OW35359   1.650   4.013   6.439  0.3238  0.2572 -0.5860
 7908SOL    HW135360   1.639   4.082   6.374  2.6342 -0.2401 -1.5319
 7908SOL    HW235361   1.739   3.980   6.426  0.7225  1.3639 -0.6712
 7909SOL     OW35362   2.637   0.420   9.100 -0.2031 -0.0353  0.2348
 7909SOL    HW135363   2.729   0.412   9.124  0.2145  2.4296 -0.4824
 7909SOL    HW235364   2.626   0.515   9.097 -3.3701 -0.4688 -1.2600
 7910SOL     OW35365   2.262   2.852   8.248 -0.6447 -0.1465  0.6211
 7910SOL    HW135366   2.336   2.820   8.197 -0.9818 -1.7598  1.1425
 7910SOL    HW235367   2.200   2.779   8.255 -1.6211  0.6653  0.4794
 7911SOL     OW35368   4.211   2.062  16.838 -0.1748  0.1325 -0.9238
 7911SOL    HW135369   4.123   2.025  16.845  0.6419 -1.1431  2.7134
 7911SOL    HW235370   4.197   2.144  16.790 -1.6351  0.8473  0.7252
 7912SOL     OW35371   0.965   4.658   1.015 -0.4906  0.3491  0.4425
 7912SOL    HW135372   0.927   4.619   1.094  1.4376  1.9470  2.1863
 7912SOL    HW235373   0.931   0.014   1.010  2.8048  1.4779 -1.9306
 7913SOL     OW35374   1.923   1.414   5.340 -0.2486  0.6088 -0.1619
 7913SOL    HW135375   1.911   1.497   5.387 -2.1365 -0.1969  0.7709
 7913SOL    HW235376   1.999   1.368   5.373  1.2481  2.3098 -1.2070
 7914SOL     OW35377   4.218   2.165  16.516 -0.2013  0.1126 -0.6425
 7914SOL    HW135378   4.287   2.102  16.537 -0.3250  0.3540  0.5207
 7914SOL    HW235379   4.156   2.125  16.578 -0.7879  1.9187 -0.0471
 7915SOL     OW35380   3.228   0.276   6.153  0.0379 -0.3838 -0.7374
 7915SOL    HW135381   3.136   0.298   6.144 -0.0097 -0.2144  0.2355
 7915SOL    HW235382   3.271   0.338   6.094 -0.2881  0.1482 -0.4090
 7916SOL     OW35383   0.927   4.070  15.611 -0.3556 -0.3964 -0.2672
 7916SOL    HW135384   0.949   4.157  15.644  0.9727 -0.5268 -0.8196
 7916SOL    HW235385   0.894   4.086  15.522  2.8152 -1.9552 -1.7247
 7917SOL     OW35386   0.425   0.319   5.796 -0.3837 -0.2591 -0.1016
 7917SOL    HW135387   0.429   0.241   5.851 -0.6003 -0.3618 -0.2316
 7917SOL    HW235388   0.469   0.392   5.841  1.5000 -0.9121 -0.9221
 7918SOL     OW35389   0.142   1.901  15.505 -0.0753 -0.3005  0.1504
 7918SOL    HW135390   0.188   1.866  15.429  1.3978 -0.9986  1.3694
 7918SOL    HW235391   0.175   1.847  15.577 -1.9012 -0.6052  0.7796
 7919SOL     OW35392   2.869   1.760   1.809  0.2268 -0.6287 -0.1924
 7919SOL    HW135393   2.887   1.695   1.742  1.4274  0.3163 -0.7950
 7919SOL    HW235394   2.790   1.717   1.842  0.8502 -1.8861 -0.3365
 7920SOL     OW35395   4.166   1.760   2.865  0.0610 -0.2370 -0.9085
 7920SOL    HW135396   4.241   1.731   2.814 -0.3839 -0.2000 -1.5910
 7920SOL    HW235397   4.096   1.702   2.833  0.1573 -0.8391 -0.0281
 7921SOL     OW35398   2.623   0.831  11.302  0.7887 -0.4139  0.2209
 7921SOL    HW135399   2.625   0.900  11.369 -0.7520 -0.1816  0.0420
 7921SOL    HW235400   2.665   0.753  11.339  2.3474  0.1353 -0.3899
 7922SOL     OW35401   4.181   1.942  11.524 -0.2578  0.0290  0.1806
 7922SOL    HW135402   4.112   1.940  11.457 -0.0446  1.7382 -0.0930
 7922SOL    HW235403   4.199   2.035  11.533 -1.7941  0.3773 -0.2962
 7923SOL     OW35404   2.625   1.106   5.412  0.3665  0.1099  0.0317
 7923SOL    HW135405   2.720   1.090   5.415 -0.0220 -2.3634 -0.8012
 7923SOL    HW235406   2.619   1.200   5.394 -1.6679 -0.3445 -1.6172
 7924SOL     OW35407   1.996   3.878   7.052  0.0350  0.0408 -0.2518
 7924SOL    HW135408   2.014   3.855   6.960 -0.0658 -0.4557 -0.1470
 7924SOL    HW235409   1.973   3.971   7.054  0.2441  0.0952 -0.3506
 7925SOL     OW35410   3.425   2.927   7.871  0.1153 -0.2559 -0.5415
 7925SOL    HW135411   3.334   2.921   7.901  0.1165 -0.4095 -0.5684
 7925SOL    HW235412   3.452   3.012   7.906 -2.8712  0.0758  0.9581
 7926SOL     OW35413   3.449   3.324   7.706  0.0778  0.3931 -0.0926
 7926SOL    HW135414   3.456   3.344   7.613  1.7165  0.0756 -0.0384
 7926SOL    HW235415   3.510   3.250   7.711  0.0504  0.4527  0.9808
 7927SOL     OW35416   3.292   4.522   0.043  0.0177  0.1477  0.2981
 7927SOL    HW135417   3.257   4.563  17.700  0.3518  0.0986  0.1234
 7927SOL    HW235418   3.328   4.441   0.006  1.5975  1.2228 -0.5572
 7928SOL     OW35419   1.147   4.671  10.020  0.3723 -0.5468 -0.1742
 7928SOL    HW135420   1.102   4.617  10.085 -0.7066  0.8802  0.2412
 7928SOL    HW235421   1.237   4.644  10.042  1.3216  1.2584 -1.8936
 7929SOL     OW35422   4.015   3.820   6.244  0.2827  0.3246  0.2171
 7929SOL    HW135423   4.051   3.892   6.296 -0.9257  2.2113 -1.5583
 7929SOL    HW235424   4.019   3.858   6.156 -0.0510  0.8680  0.4358
 7930SOL     OW35425   3.382   3.257  14.273 -0.3113 -0.0543  0.3468
 7930SOL    HW135426   3.290   3.282  14.284  0.4738  2.1415  1.9547
 7930SOL    HW235427   3.423   3.337  14.238  0.7150  0.6966  3.2355
 7931SOL     OW35428   2.710   1.789   9.493 -0.3576 -0.7919 -0.4329
 7931SOL    HW135429   2.779   1.723   9.491  1.8016  1.4504  0.8117
 7931SOL    HW235430   2.742   1.837   9.569  0.7264 -0.8283 -0.8701
 7932SOL     OW35431   0.474   2.418   3.106 -0.0029 -0.1485  0.5533
 7932SOL    HW135432   0.563   2.406   3.140  0.2935 -0.8741 -0.4604
 7932SOL    HW235433   0.493   2.444   3.015  0.0272  0.8059  0.8276
 7933SOL     OW35434   1.093   0.173   5.977 -0.2844  0.2727 -0.4731
 7933SOL    HW135435   1.167   0.222   6.013 -2.1805  0.7889  2.6904
 7933SOL    HW235436   1.014   0.228   5.977  0.1981  0.9711 -1.3850
 7934SOL     OW35437   1.432   1.426   1.547  0.5024  0.2187 -0.3592
 7934SOL    HW135438   1.349   1.409   1.591  1.4925 -0.2219  1.3242
 7934SOL    HW235439   1.430   1.521   1.542 -0.3335  0.3246  2.0581
 7935SOL     OW35440   4.254   1.792   6.937 -0.5601  0.2259  0.1822
 7935SOL    HW135441   4.184   1.847   6.901 -0.9517 -1.4349 -1.6562
 7935SOL    HW235442   4.295   1.858   6.992 -1.9013  0.5336  0.7995
 7936SOL     OW35443   2.988   4.693   6.030 -0.5821  0.3857 -0.0525
 7936SOL    HW135444   3.040   4.696   6.110 -0.4255  0.2562 -0.1497
 7936SOL    HW235445   2.903   4.705   6.073 -1.0937 -1.9430 -0.3865
 7937SOL     OW35446   0.819   2.651  12.312 -0.4065 -0.0603  0.6356
 7937SOL    HW135447   0.811   2.728  12.368  1.9404  0.9026 -0.3590
 7937SOL    HW235448   0.810   2.590  12.385 -1.0915  0.8641  1.3251
 7938SOL     OW35449   4.216   4.178   7.180 -0.0581  0.0179 -0.6960
 7938SOL    HW135450   4.276   4.122   7.228  1.2213  0.9966 -1.1507
 7938SOL    HW235451   4.213   4.257   7.234 -0.9576  0.5218 -1.4832
 7939SOL     OW35452   3.179   4.241  10.339  0.3034 -0.1001  0.8958
 7939SOL    HW135453   3.202   4.316  10.284 -3.1250 -0.9586 -1.7355
 7939SOL    HW235454   3.265   4.205  10.361  0.1512 -0.0932  1.4866
 7940SOL     OW35455   1.033   4.717   2.816  0.0987  0.1575 -0.3634
 7940SOL    HW135456   0.965   4.677   2.871  0.1774  2.4976  1.4386
 7940SOL    HW235457   1.114   4.684   2.856 -3.3295 -2.0291  4.8064
 7941SOL     OW35458   4.255   3.713  17.444 -0.2425 -0.2229 -0.2792
 7941SOL    HW135459   4.342   3.728  17.481 -0.9001  1.2993  0.6637
 7941SOL    HW235460   4.267   3.628  17.402  0.9893 -0.7609  1.1821
 7942SOL     OW35461   0.204   4.491  12.814  0.0555  0.3341  0.5607
 7942SOL    HW135462   0.275   4.445  12.769 -1.1794  1.5001 -2.5303
 7942SOL    HW235463   0.151   4.515  12.738  1.4523 -0.5967 -0.6933
 7943SOL     OW35464   3.733   4.719   2.586 -0.0241 -0.0793  0.1310
 7943SOL    HW135465   3.667   4.654   2.560  0.6375 -0.4949 -0.5124
 7943SOL    HW235466   3.752   4.701   2.678  0.8855  0.2997  0.0109
 7944SOL     OW35467   2.106   3.613   2.952 -0.4647  0.3409  0.1599
 7944SOL    HW135468   2.095   3.539   3.011 -0.5156  0.8639  0.8149
 7944SOL    HW235469   2.044   3.587   2.883 -0.5294  0.1032  0.3095
 7945SOL     OW35470   2.274   4.331   7.589  0.5059  0.2134  0.3950
 7945SOL    HW135471   2.284   4.361   7.499 -0.1614  1.0014  0.5903
 7945SOL    HW235472   2.364   4.304   7.606 -0.1958 -2.5600 -0.3115
 7946SOL     OW35473   0.929   2.222   2.214 -0.5310 -0.2530 -0.1984
 7946SOL    HW135474   0.875   2.233   2.292  0.4230  1.0798  0.2716
 7946SOL    HW235475   0.876   2.253   2.140  1.7822 -0.5738 -2.0060
 7947SOL     OW35476   0.975   2.782  14.174  0.1185  0.5107 -0.1209
 7947SOL    HW135477   1.014   2.869  14.168  1.2991  0.1361  2.2430
 7947SOL    HW235478   1.043   2.737  14.123 -1.8468 -2.6315  0.0116
 7948SOL     OW35479   2.792   2.993   1.468  0.2321  0.5429 -0.0842
 7948SOL    HW135480   2.700   2.975   1.487  0.4380 -0.8981 -0.4310
 7948SOL    HW235481   2.811   3.053   1.540 -0.5220  0.6683  0.0071
 7949SOL     OW35482   0.501   2.512   7.943  0.5044  0.5436 -0.0733
 7949SOL    HW135483   0.470   2.573   8.010 -1.2361 -0.2056 -0.1906
 7949SOL    HW235484   0.463   2.556   7.867 -1.5835 -1.0053  0.0795
 7950SOL     OW35485   0.728   3.729   7.873  0.4701 -0.6607 -0.2732
 7950SOL    HW135486   0.737   3.813   7.829  0.4381 -0.2531  0.4937
 7950SOL    HW235487   0.659   3.754   7.935  0.6103  0.8009 -0.7205
 7951SOL     OW35488   3.557   1.846  10.788  0.3146  0.3035  0.4857
 7951SOL    HW135489   3.530   1.856  10.879 -3.5087 -1.2024 -0.4515
 7951SOL    HW235490   3.499   1.907  10.743  0.0073 -0.7789 -0.5999
 7952SOL     OW35491   2.103   2.879  10.835  0.5708  0.0596  0.4137
 7952SOL    HW135492   2.101   2.900  10.741 -0.4310  0.5166  0.5373
 7952SOL    HW235493   2.182   2.932  10.850  0.8500 -0.5101  0.9356
 7953SOL     OW35494   3.277   3.852   7.777  0.2978  0.1829 -0.4826
 7953SOL    HW135495   3.196   3.803   7.790 -1.0231  1.9522 -2.0169
 7953SOL    HW235496   3.297   3.824   7.688  0.8597  2.3111 -1.0340
 7954SOL     OW35497   2.271   1.345   6.890  0.0478 -0.6090  0.0093
 7954SOL    HW135498   2.202   1.300   6.842 -0.1189  0.6568 -0.9364
 7954SOL    HW235499   2.218   1.383   6.961 -0.1508  0.6110 -0.7882
 7955SOL     OW35500   3.031   2.073   1.082 -0.1061  0.3799 -0.6326
 7955SOL    HW135501   2.976   2.024   1.020 -1.2184 -1.3794  1.7657
 7955SOL    HW235502   2.969   2.131   1.125 -1.2721 -1.0895 -0.3360
 7956SOL     OW35503   2.781   3.009   4.583  0.0214 -0.0215  0.1240
 7956SOL    HW135504   2.700   3.058   4.566  0.9989  1.7403  0.4732
 7956SOL    HW235505   2.763   2.957   4.661  0.0908  0.6310  0.5759
 7957SOL     OW35506   2.387   4.301  13.114 -0.6434  0.0994  0.3404
 7957SOL    HW135507   2.295   4.308  13.136 -0.3917 -0.9556  1.7546
 7957SOL    HW235508   2.408   4.238  13.183  0.0692  2.0858  1.9359
 7958SOL     OW35509   3.096   3.203  14.590 -0.4292 -0.2184 -0.0166
 7958SOL    HW135510   3.003   3.224  14.582  0.5014  3.0184 -2.2010
 7958SOL    HW235511   3.099   3.142  14.664  0.1125  0.5858  0.6262
 7959SOL     OW35512   2.505   4.585  12.082 -0.0868  0.0253 -0.0575
 7959SOL    HW135513   2.462   4.585  12.168  1.4455  0.2931  0.7011
 7959SOL    HW235514   2.452   4.650  12.036  1.6326  0.7862 -0.9541
 7960SOL     OW35515   3.364   2.574   7.102  0.2322  0.1260 -0.4685
 7960SOL    HW135516   3.377   2.620   7.186 -0.1630  0.7012 -0.7240
 7960SOL    HW235517   3.274   2.605   7.091 -1.1764 -3.2352  1.8514
 7961SOL     OW35518   0.063   2.119  14.851  0.0869  0.0598  0.5771
 7961SOL    HW135519   0.070   2.033  14.808  1.2924  1.9371 -2.9879
 7961SOL    HW235520   0.123   2.101  14.923  1.3622  1.4328 -0.1405
 7962SOL     OW35521   3.730   0.931   4.342 -0.8641  0.1637 -0.2162
 7962SOL    HW135522   3.680   0.881   4.277 -2.3012  0.6293  0.5269
 7962SOL    HW235523   3.727   1.018   4.303  0.4952 -0.3494 -1.4518
 7963SOL     OW35524   1.178   3.506   8.232  0.2129  0.0231  0.3713
 7963SOL    HW135525   1.213   3.480   8.317  0.8446 -0.6102 -0.0725
 7963SOL    HW235526   1.259   3.536   8.191 -0.0470 -1.2502 -1.0865
 7964SOL     OW35527   4.472   2.276   6.845  0.1371  0.2551  0.8471
 7964SOL    HW135528   4.388   2.300   6.883 -0.1403  1.4671 -0.5227
 7964SOL    HW235529   4.454   2.291   6.752  0.2045 -1.9896  0.4676
 7965SOL     OW35530   2.219   2.392   4.341 -0.0841  0.1780 -0.6014
 7965SOL    HW135531   2.284   2.366   4.276  1.6018  0.7661  0.8417
 7965SOL    HW235532   2.137   2.356   4.309 -0.8912  0.9063  0.6398
 7966SOL     OW35533   1.985   2.441   5.199 -0.5565  0.3086 -0.0875
 7966SOL    HW135534   1.919   2.384   5.159  0.1346 -0.3705 -0.2640
 7966SOL    HW235535   1.930   2.519   5.207 -1.4342 -0.2851 -0.3248
 7967SOL     OW35536   2.327   3.146   8.461  0.8110 -0.7074  0.1206
 7967SOL    HW135537   2.347   3.156   8.368  0.5130  1.1802  0.2715
 7967SOL    HW235538   2.305   3.236   8.485 -0.5171 -0.9371 -0.1865
 7968SOL     OW35539   4.618   0.299   8.399  0.1935 -0.2683 -0.0675
 7968SOL    HW135540   4.631   0.282   8.305  1.6754 -0.0764  0.1060
 7968SOL    HW235541   4.636   0.207   8.417 -0.8757 -0.2165  1.2402
 7969SOL     OW35542   3.680   0.748   8.195 -0.3140  0.0517 -0.2552
 7969SOL    HW135543   3.632   0.829   8.209 -0.2798  0.3424 -1.8789
 7969SOL    HW235544   3.642   0.697   8.267 -0.5351 -1.1950 -1.2411
 7970SOL     OW35545   1.882   3.914   1.412  0.1904  0.2650 -0.1173
 7970SOL    HW135546   1.878   3.827   1.372 -3.2243  0.3457  0.1294
 7970SOL    HW235547   1.941   3.895   1.486 -0.8497  0.9118  0.8808
 7971SOL     OW35548   4.403   3.973   6.265 -0.7791  0.3407  0.2091
 7971SOL    HW135549   4.401   3.954   6.359  1.8863 -0.5443  0.1032
 7971SOL    HW235550   4.472   4.039   6.254  1.2971 -2.0284 -1.1846
 7972SOL     OW35551   3.769   0.044   3.585 -0.1436 -0.5409 -0.1998
 7972SOL    HW135552   3.856   0.068   3.617 -1.7322  3.8575  0.7513
 7972SOL    HW235553   3.738   0.127   3.549 -1.1163  0.4331  2.8610
 7973SOL     OW35554   3.907   1.177   1.750 -0.2884 -0.0195 -0.0403
 7973SOL    HW135555   3.955   1.192   1.668 -1.1111 -0.6743 -0.6457
 7973SOL    HW235556   3.968   1.221   1.810  0.0505  0.1659 -0.5161
 7974SOL     OW35557   3.465   4.173   7.044  0.2326  0.3433  0.3450
 7974SOL    HW135558   3.521   4.096   7.031 -0.5197  0.1230 -1.7429
 7974SOL    HW235559   3.525   4.242   7.014 -0.9437  1.5023  0.6903
 7975SOL     OW35560   2.186   1.829   2.875 -0.3222 -0.6103  0.3506
 7975SOL    HW135561   2.173   1.756   2.815  0.8723 -0.8648  0.4040
 7975SOL    HW235562   2.107   1.821   2.928 -0.6667  0.0864 -0.0558
 7976SOL     OW35563   1.468   0.008   5.578  0.3058 -0.4387  0.4011
 7976SOL    HW135564   1.383   4.730   5.620 -1.0312 -0.5347 -2.3493
 7976SOL    HW235565   1.440   0.011   5.486  2.9915  1.3127 -0.3671
 7977SOL     OW35566   2.040   4.600  17.632 -0.6682 -0.1606  0.1808
 7977SOL    HW135567   1.993   4.615  17.714 -0.1426  1.8961  0.1087
 7977SOL    HW235568   2.022   4.689  17.603  0.6792 -0.7299 -2.3670
 7978SOL     OW35569   0.301   2.749   9.308  0.0958 -0.4271 -0.1172
 7978SOL    HW135570   0.362   2.811   9.268 -0.5829  0.6586  0.5109
 7978SOL    HW235571   0.270   2.797   9.385  0.5355  0.9724 -0.8126
 7979SOL     OW35572   3.094   1.724   3.371 -0.2416 -0.3212  0.2197
 7979SOL    HW135573   3.030   1.661   3.405  0.3695 -1.3544 -0.5427
 7979SOL    HW235574   3.110   1.681   3.287  0.2376 -1.6489  0.9851
 7980SOL     OW35575   1.953   4.628   8.655 -0.2588 -0.9648 -0.1405
 7980SOL    HW135576   2.026   4.685   8.677 -0.3407 -0.8175 -0.2459
 7980SOL    HW235577   1.886   4.691   8.626  2.2238  1.7897  0.1856
 7981SOL     OW35578   0.438   1.707   8.320  0.3768  0.0410 -0.2424
 7981SOL    HW135579   0.496   1.771   8.362  0.1879 -0.4312  0.7589
 7981SOL    HW235580   0.378   1.693   8.394 -0.4634 -1.0540 -1.1124
 7982SOL     OW35581   1.877   4.222   6.522  0.6524  0.2885  0.1167
 7982SOL    HW135582   1.810   4.274   6.567  2.1335  1.0425  1.4483
 7982SOL    HW235583   1.837   4.137   6.539  0.5283  0.4683  0.7415
 7983SOL     OW35584   3.739   1.561   8.088  0.3047  0.0634 -0.5728
 7983SOL    HW135585   3.779   1.542   8.172 -0.3565  1.3768  0.0424
 7983SOL    HW235586   3.649   1.586   8.111  0.0516  0.1373 -1.6261
 7984SOL     OW35587   0.144   2.270  13.792  0.4772  0.1516  0.0144
 7984SOL    HW135588   0.231   2.307  13.781 -0.3699  1.6924 -1.4377
 7984SOL    HW235589   0.107   2.264  13.704 -0.9174  1.3668  0.5143
 7985SOL     OW35590   3.050   1.794   9.713  0.1355  0.0208 -0.2242
 7985SOL    HW135591   2.980   1.825   9.770 -1.2624 -1.9842 -0.8810
 7985SOL    HW235592   3.085   1.724   9.768 -1.3658 -0.1976  0.4407
 7986SOL     OW35593   3.665   4.721   3.173 -0.8146 -0.5572  0.9654
 7986SOL    HW135594   3.603   0.058   3.186  0.5738  0.7460  0.4533
 7986SOL    HW235595   3.624   4.647   3.218 -0.3097 -0.7566  1.0933
 7987SOL     OW35596   0.845   0.858   5.550 -0.4757  0.0503  0.4869
 7987SOL    HW135597   0.874   0.878   5.639 -0.3414 -0.2819  0.5171
 7987SOL    HW235598   0.929   0.859   5.505 -2.0878  0.9129 -2.5178
 7988SOL     OW35599   3.535   4.466   5.970  0.1779  0.8014  0.0852
 7988SOL    HW135600   3.574   4.434   6.051 -3.7836 -1.4389  1.0805
 7988SOL    HW235601   3.514   4.380   5.932  0.1570  0.4588  0.8839
 7989SOL     OW35602   2.113   0.207  15.461 -0.1167 -0.1553  0.2153
 7989SOL    HW135603   2.139   0.282  15.408 -2.7809 -0.6332 -1.8077
 7989SOL    HW235604   2.181   0.147  15.430 -0.3483  0.6956 -1.9577
 7990SOL     OW35605   4.259   0.257  16.207 -0.0686  0.6445 -0.0517
 7990SOL    HW135606   4.330   0.322  16.207 -0.5226  1.1251  3.7295
 7990SOL    HW235607   4.186   0.307  16.243 -0.3900 -1.8167  2.6556
 7991SOL     OW35608   4.384   3.020   0.334  0.1558  0.2358 -0.3509
 7991SOL    HW135609   4.329   3.040   0.257 -0.4637 -2.0416 -0.4938
 7991SOL    HW235610   4.430   2.939   0.315 -2.7498 -2.1284  2.6772
 7992SOL     OW35611   4.356   2.499   2.008  0.2171 -0.1081  0.1759
 7992SOL    HW135612   4.406   2.539   2.079  2.0853  0.0887 -1.2502
 7992SOL    HW235613   4.292   2.446   2.056 -0.3348  1.5817  1.2768
 7993SOL     OW35614   1.528   3.444   3.207 -0.8897  0.3095  0.1260
 7993SOL    HW135615   1.485   3.378   3.261  0.2412 -0.8321 -0.3763
 7993SOL    HW235616   1.454   3.501   3.186 -1.3251  0.5223  2.2415
 7994SOL     OW35617   3.283   3.082   6.486  0.1745  0.5881  0.2621
 7994SOL    HW135618   3.369   3.063   6.449  0.4152  0.4723  0.8797
 7994SOL    HW235619   3.310   3.093   6.577  0.9227 -2.0816  0.3582
 7995SOL     OW35620   2.760   4.261   6.961 -0.2162 -0.0916 -0.5440
 7995SOL    HW135621   2.773   4.284   7.053  0.1738 -0.0559 -0.6045
 7995SOL    HW235622   2.754   4.349   6.925  0.6743  0.5037  0.7454
 7996SOL     OW35623   4.115   2.983   4.742 -0.1364 -0.0361 -0.2889
 7996SOL    HW135624   4.167   2.978   4.662 -0.3076 -2.6403 -0.2200
 7996SOL    HW235625   4.071   3.064   4.714 -1.4552 -0.6596  0.0228
 7997SOL     OW35626   0.357   2.354   3.791  0.4019  0.0267  0.4250
 7997SOL    HW135627   0.278   2.407   3.801 -0.5672 -1.1963 -0.5985
 7997SOL    HW235628   0.327   2.263   3.799 -2.9851  1.2734  2.0533
 7998SOL     OW35629   1.649   1.044   7.061  0.1557  0.3610  0.6416
 7998SOL    HW135630   1.743   1.030   7.077 -0.0750 -0.3891  1.3268
 7998SOL    HW235631   1.643   1.028   6.967  0.2283 -3.2082  1.2719
 7999SOL     OW35632   2.238   2.768   2.922 -0.3407 -0.1273 -0.8519
 7999SOL    HW135633   2.326   2.797   2.898 -0.4550  1.2796  0.4018
 7999SOL    HW235634   2.176   2.812   2.863  1.1834 -0.0108 -2.3684
 8000SOL     OW35635   3.749   4.587   5.796 -0.2850 -0.2273  0.8764
 8000SOL    HW135636   3.660   4.561   5.820 -0.2070 -1.5379 -0.2489
 8000SOL    HW235637   3.790   4.506   5.763  2.7929  1.1939  1.1853
 8001SOL     OW35638   4.541   1.680   1.822 -0.2002 -0.4129 -0.3230
 8001SOL    HW135639   4.457   1.720   1.843 -0.6644 -1.0187 -1.0417
 8001SOL    HW235640   4.525   1.673   1.728 -2.1131  1.6494 -0.1252
 8002SOL     OW35641   0.712   0.923   1.625  0.1909 -0.2751  0.4417
 8002SOL    HW135642   0.633   0.972   1.604  0.8679  1.0455  0.9828
 8002SOL    HW235643   0.693   0.832   1.604  2.1232 -0.6234  0.1378
 8003SOL     OW35644   2.810   0.117   2.847  0.2188 -0.4141 -0.1930
 8003SOL    HW135645   2.873   0.046   2.834  0.5914  0.0902 -1.1595
 8003SOL    HW235646   2.749   0.062   2.896  1.0895  0.4435  1.8180
 8004SOL     OW35647   1.035   1.604   3.168 -0.4664  0.0929 -0.2569
 8004SOL    HW135648   1.005   1.547   3.240  1.0361  1.5925  1.5432
 8004SOL    HW235649   1.115   1.554   3.153  0.8599  1.6665  1.6921
 8005SOL     OW35650   4.416   1.426  16.650  0.5523  0.0326 -0.1511
 8005SOL    HW135651   4.328   1.434  16.613  0.4591  1.3957  0.3415
 8005SOL    HW235652   4.460   1.396  16.571 -1.9125  1.2239 -1.9830
 8006SOL     OW35653   1.127   2.973   8.908 -0.3441  0.1568 -0.1373
 8006SOL    HW135654   1.192   3.040   8.887  1.6085 -1.1600  1.7980
 8006SOL    HW235655   1.071   3.021   8.969  0.7178  3.2412 -1.5924
 8007SOL     OW35656   3.115   2.333   4.935 -0.4265  0.2453  0.2000
 8007SOL    HW135657   3.174   2.265   4.902 -0.4331 -0.2558  1.2365
 8007SOL    HW235658   3.125   2.402   4.870  0.5342 -0.4821 -0.4262
 8008SOL     OW35659   0.149   4.723   5.341 -0.3175 -0.0834  0.0872
 8008SOL    HW135660   0.116   0.057   5.399 -1.8477 -0.2275 -0.6003
 8008SOL    HW235661   0.117   0.031   5.261 -0.4950  1.1176  0.7994
 8009SOL     OW35662   0.912   3.105  11.165 -0.0873  0.5140 -0.2781
 8009SOL    HW135663   0.880   3.049  11.236 -2.9189 -0.0896 -2.0418
 8009SOL    HW235664   0.995   3.072  11.130  0.0593  0.0543  0.5114
 8010SOL     OW35665   3.865   1.083  12.729  0.0779 -0.0942 -0.2459
 8010SOL    HW135666   3.879   1.066  12.822 -0.0897 -0.1174 -0.2265
 8010SOL    HW235667   3.773   1.065  12.711  0.3103  0.8164 -2.3760
 8011SOL     OW35668   1.388   0.130   2.948 -0.1052  0.0961  0.1095
 8011SOL    HW135669   1.483   0.121   2.954 -0.2128 -0.5396  0.8956
 8011SOL    HW235670   1.375   0.038   2.927  1.7182  0.3456 -2.1036
 8012SOL     OW35671   0.772   0.744   3.572 -0.3316  0.7416 -0.3826
 8012SOL    HW135672   0.802   0.736   3.481 -0.2480 -1.4023 -0.1616
 8012SOL    HW235673   0.809   0.667   3.614  0.7257  1.8859  0.7563
 8013SOL     OW35674   1.355   2.783   5.807  0.8533 -0.1456 -0.4649
 8013SOL    HW135675   1.333   2.690   5.795 -0.1860  0.2457 -1.4612
 8013SOL    HW235676   1.386   2.816   5.723 -4.6851  0.9848 -2.0151
 8014SOL     OW35677   2.132   3.190   9.359  0.2790  0.2409 -0.7188
 8014SOL    HW135678   2.066   3.190   9.289 -0.6950  0.8909  0.1942
 8014SOL    HW235679   2.079   3.192   9.439 -0.0603  0.7507 -0.9530
 8015SOL     OW35680   0.783   2.974  12.960 -0.2620 -0.3405 -0.1574
 8015SOL    HW135681   0.814   2.884  12.972 -0.3891 -0.1605  1.5431
 8015SOL    HW235682   0.693   2.976  12.992  0.4037 -0.4942  1.7820
 8016SOL     OW35683   2.331   0.649   9.185  0.4323 -0.2922  0.6912
 8016SOL    HW135684   2.279   0.690   9.254  0.9598  1.9501 -0.2364
 8016SOL    HW235685   2.318   0.555   9.195 -3.5135  0.2662  0.7081
 8017SOL     OW35686   4.054   4.607   6.920  0.2971  0.0392  0.4800
 8017SOL    HW135687   4.072   4.575   6.831  1.7969 -1.1939  1.2258
 8017SOL    HW235688   3.995   4.680   6.901 -0.8345 -0.7227  1.0786
 8018SOL     OW35689   1.761   2.384   4.905  0.2898 -0.0723  0.5894
 8018SOL    HW135690   1.759   2.291   4.882 -1.8185  0.3624 -1.0069
 8018SOL    HW235691   1.827   2.420   4.845 -1.3861 -0.3051 -1.4041
 8019SOL     OW35692   1.326   2.372   4.100  0.2299 -0.5374 -0.2597
 8019SOL    HW135693   1.369   2.350   4.017  0.5187  1.1069 -0.5320
 8019SOL    HW235694   1.238   2.341   4.079 -0.2785  0.9911 -0.3249
 8020SOL     OW35695   2.352   0.947  11.974 -0.5762 -0.2073 -0.0162
 8020SOL    HW135696   2.446   0.938  11.993  0.0136  2.4893 -1.6615
 8020SOL    HW235697   2.318   0.895  12.047  0.5340  0.4682  0.9953
 8021SOL     OW35698   2.341   0.931   4.619  0.0270  0.3648  0.2226
 8021SOL    HW135699   2.257   0.885   4.617 -1.5236  3.1257  1.6533
 8021SOL    HW235700   2.323   1.003   4.559 -2.0176 -1.0084 -0.8114
 8022SOL     OW35701   2.883   0.136   9.817  0.1175  0.2572  0.1624
 8022SOL    HW135702   2.798   0.180   9.816 -0.9354 -1.8669 -3.0812
 8022SOL    HW235703   2.939   0.163   9.744 -0.6015  1.5659  0.1070
 8023SOL     OW35704   0.976   4.541  11.035  0.0486  0.2905 -0.2239
 8023SOL    HW135705   0.962   4.636  11.029 -0.0790  0.2253 -0.9012
 8023SOL    HW235706   0.978   4.526  10.941  0.4415 -0.9836 -0.0090
 8024SOL     OW35707   2.229   4.255   3.194  0.0333  0.5605 -0.3374
 8024SOL    HW135708   2.252   4.233   3.285 -0.9557  0.3830 -0.1305
 8024SOL    HW235709   2.293   4.322   3.169 -2.0323  1.6048 -2.7771
 8025SOL     OW35710   1.560   1.449  16.030 -0.5257 -0.2689 -0.2825
 8025SOL    HW135711   1.596   1.520  16.083  0.7818 -1.4229  0.3985
 8025SOL    HW235712   1.477   1.433  16.075  0.1590  2.5551  1.9699
 8026SOL     OW35713   0.403   2.945   1.682 -0.3677 -0.0195  0.2330
 8026SOL    HW135714   0.437   2.867   1.639  1.1844  0.6686  0.1888
 8026SOL    HW235715   0.416   2.910   1.771  0.5312 -0.4292 -0.0539
 8027SOL     OW35716   4.540   3.108  14.432  0.5200  0.1365 -0.2799
 8027SOL    HW135717   4.556   3.040  14.498 -1.1343  0.8422  0.8534
 8027SOL    HW235718   4.458   3.073  14.398 -0.1887  0.8845  0.6582
 8028SOL     OW35719   1.261   0.747   6.111 -0.5432  0.0594 -0.7578
 8028SOL    HW135720   1.317   0.731   6.035 -3.0063 -1.4834 -2.2474
 8028SOL    HW235721   1.289   0.827   6.155  2.6668 -1.2244 -0.4525
 8029SOL     OW35722   0.497   2.136   4.950  0.4889 -0.5628 -0.1769
 8029SOL    HW135723   0.457   2.088   5.023  0.7134  1.0974  1.0465
 8029SOL    HW235724   0.504   2.226   4.981 -0.0237 -0.9508  1.0961
 8030SOL     OW35725   1.282   2.525   5.386 -0.1158 -0.0667  0.7124
 8030SOL    HW135726   1.321   2.600   5.342 -3.4419  0.4583 -1.3343
 8030SOL    HW235727   1.311   2.453   5.331  1.8711  2.1587 -1.1635
 8031SOL     OW35728   0.587   0.767   5.839  0.0538  0.1306 -0.6348
 8031SOL    HW135729   0.547   0.790   5.756  0.1245  1.6171 -0.2472
 8031SOL    HW235730   0.639   0.841   5.869 -1.0640  0.5708  0.1998
 8032SOL     OW35731   4.657   0.081   8.591  0.2356  0.5703  0.1388
 8032SOL    HW135732   4.617   0.031   8.662  0.1217 -0.4390 -0.6290
 8032SOL    HW235733   0.011   0.093   8.626  0.5760 -3.4383  0.6036
 8033SOL     OW35734   4.708   0.936   2.158 -0.3230 -0.1771  0.3593
 8033SOL    HW135735   0.005   0.845   2.155  0.6277  0.1340  0.8741
 8033SOL    HW235736   0.036   0.970   2.223 -2.2377  0.9130  1.6074
 8034SOL     OW35737   2.273   3.279   4.539 -0.4798  0.5851 -0.6979
 8034SOL    HW135738   2.342   3.339   4.568  1.9292 -1.8456 -1.2940
 8034SOL    HW235739   2.226   3.332   4.475 -2.3458 -0.9480 -0.5913
 8035SOL     OW35740   3.498   4.621   2.426  0.0189  0.2557  0.1656
 8035SOL    HW135741   3.510   4.560   2.354 -1.7793 -1.0102  0.9218
 8035SOL    HW235742   3.502   4.554   2.495  1.8352  0.3278  0.1168
 8036SOL     OW35743   2.707   4.498  16.573 -0.2565 -0.5451  0.1148
 8036SOL    HW135744   2.628   4.462  16.532  0.6342  1.8989 -3.7326
 8036SOL    HW235745   2.674   4.587  16.586  0.5001 -0.3627  0.7678
 8037SOL     OW35746   2.418   3.549  12.818 -0.0027 -0.4199 -0.5556
 8037SOL    HW135747   2.419   3.584  12.907  0.3816 -0.1423 -0.6687
 8037SOL    HW235748   2.511   3.543  12.794 -0.1216 -1.0806 -0.8702
 8038SOL     OW35749   4.071   0.079  16.829  0.3324 -0.3574  0.0779
 8038SOL    HW135750   4.106   0.157  16.872  1.2214 -0.6041 -0.1871
 8038SOL    HW235751   4.149   0.068  16.774  2.1044  2.4159  2.1082
 8039SOL     OW35752   3.522   2.392   9.739  0.7355 -0.1632  0.1794
 8039SOL    HW135753   3.546   2.365   9.828 -0.3491  1.9800  1.1128
 8039SOL    HW235754   3.518   2.307   9.695 -1.3224 -0.1565  0.3471
 8040SOL     OW35755   4.608   4.718   5.130 -0.3110  0.9333  0.4062
 8040SOL    HW135756   4.604   4.625   5.112  1.9688  1.2757 -1.9205
 8040SOL    HW235757   4.660   0.006   5.052 -0.2206  3.0986  1.0628
 8041SOL     OW35758   3.825   0.494  14.568 -0.5703 -0.6302  0.5263
 8041SOL    HW135759   3.860   0.531  14.650  1.2045 -0.6187 -0.2494
 8041SOL    HW235760   3.735   0.467  14.589 -0.9567 -0.5071 -1.0156
 8042SOL     OW35761   1.624   2.498   6.202  0.3457 -0.4970  0.0787
 8042SOL    HW135762   1.650   2.577   6.155  0.0219 -1.0656 -1.0642
 8042SOL    HW235763   1.673   2.499   6.284  0.4174 -2.1157  0.0571
 8043SOL     OW35764   1.192   3.621   9.926 -0.2374 -0.0208  0.5045
 8043SOL    HW135765   1.130   3.668   9.870 -0.8057 -2.1333 -0.6437
 8043SOL    HW235766   1.219   3.547   9.873 -0.8303  0.7862 -0.9090
 8044SOL     OW35767   2.629   0.469   4.675 -0.3103 -0.1051 -0.4759
 8044SOL    HW135768   2.623   0.392   4.619 -0.3818 -0.4707  0.0330
 8044SOL    HW235769   2.570   0.536   4.640  0.4970  1.3776  0.9764
 8045SOL     OW35770   2.847   4.205  17.541 -0.1742 -0.0398  0.3414
 8045SOL    HW135771   2.773   4.145  17.554  0.1273 -0.7603 -1.3072
 8045SOL    HW235772   2.810   4.262  17.474  0.6417 -0.5958 -0.5779
 8046SOL     OW35773   1.223   4.054   1.902 -0.4815  0.2387  0.2827
 8046SOL    HW135774   1.302   4.074   1.952 -0.3310  2.9581 -1.0866
 8046SOL    HW235775   1.265   4.054   1.816 -0.6542 -0.0988  0.1955
 8047SOL     OW35776   4.279   2.152  15.900  0.2003 -0.3876  0.4455
 8047SOL    HW135777   4.330   2.121  15.825 -1.1719  1.6634 -1.3539
 8047SOL    HW235778   4.232   2.226  15.862  0.7596  0.2939  1.0880
 8048SOL     OW35779   4.018   0.927  11.751 -0.0350  0.1463  0.0578
 8048SOL    HW135780   4.068   0.865  11.803  0.0687 -0.5702 -0.8837
 8048SOL    HW235781   3.992   0.998  11.810  0.9320  0.4746  0.0889
 8049SOL     OW35782   1.402   1.414   3.811  0.0545 -0.4601  0.0603
 8049SOL    HW135783   1.497   1.415   3.797 -0.0565 -2.3353 -0.7736
 8049SOL    HW235784   1.384   1.322   3.827 -0.0809 -0.5001 -0.3383
 8050SOL     OW35785   2.131   3.893  13.578  0.0708 -0.6782  0.4390
 8050SOL    HW135786   2.143   3.821  13.640  0.6695 -1.4696 -0.5948
 8050SOL    HW235787   2.066   3.861  13.516  0.5806 -1.3569  0.2524
 8051SOL     OW35788   2.426   4.093   8.446  0.1340  0.3779 -0.1651
 8051SOL    HW135789   2.376   4.021   8.406  0.0647  0.3769 -0.0784
 8051SOL    HW235790   2.499   4.122   8.392 -0.1988 -1.4669 -1.6189
 8052SOL     OW35791   2.354   3.923   1.600  0.7114  0.0044 -0.0212
 8052SOL    HW135792   2.389   3.834   1.604  0.5831  0.0291  1.6207
 8052SOL    HW235793   2.375   3.953   1.512 -1.6883 -1.0860 -0.9647
 8053SOL     OW35794   1.082   0.893   8.157  0.2446 -0.2659  0.8103
 8053SOL    HW135795   1.115   0.933   8.076 -0.6519 -1.0639  0.0387
 8053SOL    HW235796   0.991   0.882   8.127  0.7519  0.1892 -0.9265
 8054SOL     OW35797   3.164   4.380   0.381 -0.1295  0.5807 -0.7562
 8054SOL    HW135798   3.120   4.407   0.462 -1.1350 -3.3125  0.0102
 8054SOL    HW235799   3.257   4.401   0.391 -0.0476  0.7120 -1.7973
 8055SOL     OW35800   3.731   0.746  11.011 -0.2040  0.1379  0.7342
 8055SOL    HW135801   3.777   0.683  11.066  1.3842  1.2902  0.7345
 8055SOL    HW235802   3.643   0.710  11.019  0.3633 -1.0908  1.4611
 8056SOL     OW35803   4.000   0.864   4.038  0.1200  0.3542  0.0920
 8056SOL    HW135804   3.931   0.800   4.024  1.8493 -1.3185 -0.8796
 8056SOL    HW235805   4.014   0.887   3.946 -1.3881 -3.2037 -1.0179
 8057SOL     OW35806   2.463   2.609  12.135 -0.0890 -0.6463 -0.0010
 8057SOL    HW135807   2.408   2.686  12.124  0.5256 -0.3410 -0.9013
 8057SOL    HW235808   2.551   2.645  12.145  1.0202 -3.0342 -1.2501
 8058SOL     OW35809   2.651   0.064   2.290  0.7576  0.0141 -0.3879
 8058SOL    HW135810   2.697   0.109   2.219 -0.3589  0.0134 -1.1179
 8058SOL    HW235811   2.561   0.074   2.259  1.0372  1.5644 -0.6956
 8059SOL     OW35812   3.236   4.270  11.944 -0.3106 -0.2334 -0.0537
 8059SOL    HW135813   3.304   4.260  11.878  0.3731  0.8399  0.4895
 8059SOL    HW235814   3.159   4.250  11.891 -0.4441  0.9831 -0.3047
 8060SOL     OW35815   1.024   0.058   5.659  0.0676  0.5928 -0.1322
 8060SOL    HW135816   1.103   0.101   5.692  0.3168  0.1192 -0.1051
 8060SOL    HW235817   0.958   0.110   5.705 -1.4133 -0.4655 -1.0399
 8061SOL     OW35818   3.147   2.296   7.374 -0.2298  0.5157  0.4493
 8061SOL    HW135819   3.087   2.286   7.300 -1.0747 -1.8532  1.4409
 8061SOL    HW235820   3.100   2.258   7.448 -1.8403 -0.0284 -0.8743
 8062SOL     OW35821   2.278   0.418   9.321  0.2953 -0.2168  0.8241
 8062SOL    HW135822   2.226   0.358   9.374  0.2011 -0.3842  0.5405
 8062SOL    HW235823   2.368   0.394   9.342 -0.5929 -1.9911  2.5642
 8063SOL     OW35824   1.466   4.237  15.386 -0.4101 -0.7952  0.0913
 8063SOL    HW135825   1.480   4.327  15.416 -2.7521 -0.0174 -1.1995
 8063SOL    HW235826   1.401   4.269  15.325 -1.2989  0.3844  1.6610
 8064SOL     OW35827   3.402   2.058  14.324  0.2905 -0.2024  0.5576
 8064SOL    HW135828   3.366   2.146  14.319  0.8557  0.0324  0.6621
 8064SOL    HW235829   3.333   2.013  14.374 -0.3728  0.7566  0.5073
 8065SOL     OW35830   3.619   1.996   6.848 -0.3037  0.2546  0.6745
 8065SOL    HW135831   3.524   1.993   6.849 -0.3273  1.2010  1.2327
 8065SOL    HW235832   3.652   2.012   6.759 -1.0027 -0.3672  0.3107
 8066SOL     OW35833   2.275   0.247  14.286  0.6864 -0.6087 -0.3929
 8066SOL    HW135834   2.321   0.256  14.203  1.9514 -2.7165  0.0640
 8066SOL    HW235835   2.327   0.181  14.334  0.4931 -0.0980  0.5237
 8067SOL     OW35836   3.730   4.336   2.093  0.7039 -0.1554  0.2073
 8067SOL    HW135837   3.734   4.273   2.166 -1.5245  1.5568  1.7923
 8067SOL    HW235838   3.820   4.334   2.059  0.4424  0.1699 -0.4979
 8068SOL     OW35839   1.770   4.468  10.855 -0.1606 -0.0220 -0.0045
 8068SOL    HW135840   1.705   4.398  10.861 -0.3870  0.3664  1.9096
 8068SOL    HW235841   1.749   4.517  10.934  1.0393  0.9435 -0.2842
 8069SOL     OW35842   3.852   3.530   5.823 -0.1418 -0.5622 -0.4689
 8069SOL    HW135843   3.851   3.456   5.762  0.2986 -0.8680 -0.1011
 8069SOL    HW235844   3.762   3.561   5.813  1.2697  3.4144 -0.7385
 8070SOL     OW35845   3.050   0.216   4.832  0.2071  0.5086 -0.4361
 8070SOL    HW135846   2.992   0.275   4.879  3.4503  3.3346 -0.0226
 8070SOL    HW235847   2.986   0.175   4.773  0.2676  0.9767 -0.8216
 8071SOL     OW35848   3.936   3.476   6.529  0.2256 -0.3751 -0.1527
 8071SOL    HW135849   3.850   3.434   6.525  0.5767 -1.0751 -0.3207
 8071SOL    HW235850   3.966   3.452   6.442 -0.0933 -2.5327  0.3276
 8072SOL     OW35851   3.657   0.315  17.730  0.1628 -0.3599  0.7643
 8072SOL    HW135852   3.732   0.343  17.679 -1.1223  0.4809 -0.6583
 8072SOL    HW235853   3.700   0.267   0.065 -0.1110 -0.6612  0.7259
 8073SOL     OW35854   4.350   2.438   9.653 -0.1310  0.1931 -0.3044
 8073SOL    HW135855   4.350   2.532   9.668 -0.2730 -0.1757  2.0330
 8073SOL    HW235856   4.419   2.420   9.718 -1.3483  1.0768  1.2326
 8074SOL     OW35857   1.680   4.115   2.177  0.3873 -1.0886 -0.0738
 8074SOL    HW135858   1.772   4.135   2.194  0.4605 -1.0616 -0.5016
 8074SOL    HW235859   1.643   4.200   2.200 -0.7578 -1.7764  0.6141
 8075SOL     OW35860   0.670   1.947   4.200  0.1278 -0.4495 -0.2094
 8075SOL    HW135861   0.727   2.017   4.233  0.0115  0.1023 -1.1854
 8075SOL    HW235862   0.694   1.869   4.249  0.1946  0.2574  0.9010
 8076SOL     OW35863   2.202   1.520   8.717 -0.0426 -0.7475  0.0378
 8076SOL    HW135864   2.150   1.534   8.637 -0.6548 -0.7426  0.4340
 8076SOL    HW235865   2.147   1.465   8.773 -0.4853  0.5833  0.9150
 8077SOL     OW35866   2.281   3.094  12.259 -0.1173  0.3923  0.6004
 8077SOL    HW135867   2.257   3.086  12.352 -0.5196  1.5478  0.5927
 8077SOL    HW235868   2.205   3.130  12.213  0.4232 -0.1150 -0.6819
 8078SOL     OW35869   2.867   2.901   4.324 -0.0829 -0.3559  0.1554
 8078SOL    HW135870   2.858   2.932   4.414  0.1455  1.2637 -0.3737
 8078SOL    HW235871   2.775   2.879   4.308 -0.5227 -1.1413  3.7306
 8079SOL     OW35872   4.183   3.123  14.609  0.2961 -0.0565  0.5234
 8079SOL    HW135873   4.106   3.070  14.587 -0.3800  0.9575  0.4541
 8079SOL    HW235874   4.243   3.099  14.538 -0.6015 -1.0332  0.0863
 8080SOL     OW35875   4.569   2.400   6.554  0.0017  0.4220  0.3183
 8080SOL    HW135876   4.476   2.408   6.571 -0.2809 -1.2228 -0.5620
 8080SOL    HW235877   4.558   2.331   6.490 -0.9161  0.7189  0.1573
 8081SOL     OW35878   0.691   3.667   7.332 -0.2253  0.0648 -0.2551
 8081SOL    HW135879   0.687   3.632   7.242 -0.0034 -1.8466  0.4695
 8081SOL    HW235880   0.714   3.757   7.311  1.3004 -0.3735 -0.4629
 8082SOL     OW35881   0.737   1.918   2.586  0.0979 -1.1426 -0.1014
 8082SOL    HW135882   0.737   2.013   2.599  1.5694 -1.1227 -0.1936
 8082SOL    HW235883   0.689   1.894   2.664 -0.6137 -0.3488 -0.2926
 8083SOL     OW35884   2.141   2.512   3.042  0.6135 -0.3724  0.1741
 8083SOL    HW135885   2.158   2.605   3.030  1.3828 -0.2365  2.3479
 8083SOL    HW235886   2.054   2.499   3.004  0.0198 -0.0302  1.4116
 8084SOL     OW35887   4.496   4.670   2.936  0.2800  0.1863  0.3722
 8084SOL    HW135888   4.421   4.634   2.982  0.4722 -1.5685 -0.6827
 8084SOL    HW235889   4.556   4.706   3.001 -0.4300 -0.1550  1.2129
 8085SOL     OW35890   4.609   0.550   2.950  0.5969 -0.4539 -0.0322
 8085SOL    HW135891   4.515   0.532   2.956  0.8403 -1.6408  0.0643
 8085SOL    HW235892   4.614   0.570   2.856 -1.7021 -1.2756 -0.3417
 8086SOL     OW35893   0.066   2.554   4.040  0.0331 -0.4116  0.5652
 8086SOL    HW135894   0.056   2.646   4.016 -1.1156 -0.5714  0.4426
 8086SOL    HW235895   0.150   2.546   4.085 -0.0982 -1.0544  0.6894
 8087SOL     OW35896   0.299   2.221   3.174  0.3256 -0.8221  0.0348
 8087SOL    HW135897   0.366   2.284   3.148 -0.8342  1.3323  2.1907
 8087SOL    HW235898   0.227   2.236   3.113  0.5893  1.0144  0.1611
 8088SOL     OW35899   0.622   1.766   1.462 -0.1410  0.0944 -0.4264
 8088SOL    HW135900   0.572   1.840   1.425 -0.8259  0.8536  2.0309
 8088SOL    HW235901   0.591   1.696   1.404  1.2672 -0.5007 -0.4471
 8089SOL     OW35902   0.295   3.591  14.535 -0.3178 -0.3407  0.5932
 8089SOL    HW135903   0.363   3.538  14.493  0.5746  1.0441  0.3067
 8089SOL    HW235904   0.217   3.561  14.488  0.7229  1.4667 -2.2596
 8090SOL     OW35905   0.118   0.340   2.954  0.1476 -0.5400  0.2715
 8090SOL    HW135906   0.148   0.386   3.033 -0.7907  0.4166  0.0710
 8090SOL    HW235907   0.042   0.389   2.925  0.2231 -0.4279  0.2623
 8091SOL     OW35908   0.358   3.697   0.162 -0.5405 -0.4229 -0.4404
 8091SOL    HW135909   0.366   3.790   0.139 -1.4746 -0.3676 -0.5642
 8091SOL    HW235910   0.347   3.662   0.074  1.0242  1.5928 -1.4486
 8092SOL     OW35911   1.422   1.623   6.536 -0.1555 -0.1020  0.3070
 8092SOL    HW135912   1.384   1.703   6.572 -0.5077 -1.1026  2.1881
 8092SOL    HW235913   1.418   1.642   6.443  0.2099  0.4249  0.4019
 8093SOL     OW35914   2.224   0.510   3.662 -0.3298 -0.3852 -0.0129
 8093SOL    HW135915   2.281   0.535   3.589  0.8218 -2.8065  0.0745
 8093SOL    HW235916   2.166   0.440   3.631 -0.6728  0.0133 -0.2769
 8094SOL     OW35917   1.707   1.733   2.257  0.4949  0.1175  0.0399
 8094SOL    HW135918   1.716   1.679   2.179  0.8007  0.0634  0.1094
 8094SOL    HW235919   1.615   1.755   2.247  0.4441 -0.3259 -0.4513
 8095SOL     OW35920   0.054   3.190   6.144 -0.2098 -0.2195  0.3011
 8095SOL    HW135921   4.714   3.246   6.121  0.2467 -0.3757 -1.5404
 8095SOL    HW235922   0.005   3.107   6.138  0.7337 -0.8064  0.7278
 8096SOL     OW35923   1.097   1.359  12.922 -0.0284 -0.0561 -0.3815
 8096SOL    HW135924   1.193   1.364  12.928  0.2170 -0.2838 -4.3668
 8096SOL    HW235925   1.090   1.272  12.961  0.2403 -0.6282 -1.6127
 8097SOL     OW35926   3.021   0.866   8.230 -0.2450  0.6555 -0.4938
 8097SOL    HW135927   2.993   0.847   8.319 -1.1936  0.3965 -0.8468
 8097SOL    HW235928   3.111   0.835   8.233 -0.9473 -1.3242  0.0413
 8098SOL     OW35929   4.313   3.400   6.619  0.8550  0.1142 -0.4170
 8098SOL    HW135930   4.360   3.384   6.538 -0.8664  2.9435 -1.9716
 8098SOL    HW235931   4.385   3.395   6.682  0.7667  1.3792 -0.2113
 8099SOL     OW35932   1.048   1.650   6.404  1.0013 -0.0196  0.1832
 8099SOL    HW135933   1.133   1.678   6.436  1.0058 -0.7863  0.8381
 8099SOL    HW235934   1.029   1.580   6.467  1.6966 -1.1457 -0.8530
 8100SOL     OW35935   1.856   1.847   6.427 -0.0658 -0.3375  0.3520
 8100SOL    HW135936   1.875   1.805   6.512 -1.2860 -0.6130  0.4941
 8100SOL    HW235937   1.899   1.786   6.368  0.3603 -0.7028  1.0452
 8101SOL     OW35938   0.097   4.545   5.822  0.2373  0.3358 -0.0542
 8101SOL    HW135939   0.165   4.543   5.890  0.2767 -1.2028 -0.1411
 8101SOL    HW235940   0.129   4.625   5.780  0.7778  0.6888  1.0279
 8102SOL     OW35941   2.509   2.039   1.608  0.1467  0.4321 -0.1518
 8102SOL    HW135942   2.428   2.054   1.560  0.2062 -1.1690 -0.7526
 8102SOL    HW235943   2.531   1.946   1.599  1.4032  0.6527  0.6096
 8103SOL     OW35944   1.227   2.479   8.641 -0.8506  0.6360  0.0052
 8103SOL    HW135945   1.270   2.555   8.680 -0.8709 -0.8478  2.9157
 8103SOL    HW235946   1.198   2.428   8.716  0.4187 -1.1425 -0.7079
 8104SOL     OW35947   1.290   3.001   1.634  0.0823 -0.0993  0.1514
 8104SOL    HW135948   1.266   2.995   1.727 -0.2015 -0.9194  0.0245
 8104SOL    HW235949   1.230   2.942   1.588  0.4359 -0.2044 -0.1744
 8105SOL     OW35950   2.504   0.882   5.317 -0.3619 -0.2700 -0.1679
 8105SOL    HW135951   2.535   0.969   5.342 -0.8181 -0.1973  0.1404
 8105SOL    HW235952   2.466   0.853   5.400  0.2045  0.8667  0.4875
 8106SOL     OW35953   4.509   0.267   1.981  0.0908 -0.5873  0.0649
 8106SOL    HW135954   4.416   0.247   1.971 -0.1111  1.6133 -2.5880
 8106SOL    HW235955   4.531   0.266   1.888  0.9813 -0.9020  0.2867
 8107SOL     OW35956   4.682   3.345  15.791  0.1428 -0.2796 -0.2484
 8107SOL    HW135957   0.042   3.356  15.802  0.2667 -1.8047  0.1748
 8107SOL    HW235958   4.681   3.285  15.716  2.6245 -2.0594  1.1529
 8108SOL     OW35959   0.090   2.815   8.544 -0.2394 -0.6666 -0.2506
 8108SOL    HW135960   0.139   2.800   8.624 -1.6130 -1.8700  0.3682
 8108SOL    HW235961   0.102   2.723   8.520  1.0102 -0.6112  0.1566
 8109SOL     OW35962   2.279   0.115  14.932 -0.0780 -0.0392  0.2179
 8109SOL    HW135963   2.215   0.149  14.869  0.1157 -0.1109 -0.0192
 8109SOL    HW235964   2.353   0.111  14.872  0.1231  1.4127  0.3939
 8110SOL     OW35965   0.933   3.986   5.788 -0.8135 -0.6992 -0.2349
 8110SOL    HW135966   0.918   4.007   5.696  4.7335  2.4671 -0.4472
 8110SOL    HW235967   0.958   4.073   5.819 -1.4527 -0.8208  0.6141
 8111SOL     OW35968   0.124   1.328   7.009 -0.0257  0.4203 -0.1048
 8111SOL    HW135969   0.078   1.350   6.928 -0.0134  3.2393  0.6482
 8111SOL    HW235970   0.133   1.233   6.999  1.0531  0.3480  1.5812
 8112SOL     OW35971   2.830   3.718  12.149  0.4084  0.2214  0.2849
 8112SOL    HW135972   2.890   3.702  12.222  0.7167  0.2529  0.0368
 8112SOL    HW235973   2.766   3.646  12.154 -1.6958  2.2623  2.8138
 8113SOL     OW35974   0.794   2.385   2.889 -0.5414 -0.1596  0.1355
 8113SOL    HW135975   0.878   2.340   2.890 -0.0153  0.7928 -0.4198
 8113SOL    HW235976   0.782   2.406   2.982  2.1543  0.3929  0.3563
 8114SOL     OW35977   1.071   1.883   7.143 -0.0007 -0.0983  0.2696
 8114SOL    HW135978   1.047   1.944   7.073 -0.8880  0.1724  0.8086
 8114SOL    HW235979   1.017   1.908   7.218  0.2719 -0.4410  0.5776
 8115SOL     OW35980   3.674   0.308   5.199  0.1522 -0.1609  0.4918
 8115SOL    HW135981   3.647   0.342   5.284  0.8030 -0.0849  0.6663
 8115SOL    HW235982   3.617   0.367   5.149 -1.2090 -2.5826 -0.8532
 8116SOL     OW35983   0.454   4.568   3.714 -0.3133 -0.0263 -0.2669
 8116SOL    HW135984   0.485   4.576   3.804  2.7769  0.7884 -1.3792
 8116SOL    HW235985   0.500   4.641   3.671 -0.2826  1.2601  1.9124
 8117SOL     OW35986   3.588   2.461   6.905 -0.2307 -0.0321 -0.4339
 8117SOL    HW135987   3.517   2.492   6.849 -0.1711  0.9366  0.0329
 8117SOL    HW235988   3.559   2.495   6.989  0.6258  2.3739 -1.1057
 8118SOL     OW35989   4.095   2.305   9.084  0.2150  0.5941  0.1073
 8118SOL    HW135990   4.018   2.290   9.028  2.1458 -1.2240 -2.0567
 8118SOL    HW235991   4.068   2.263   9.166  0.6650 -2.2547 -1.1798
 8119SOL     OW35992   0.152   1.680   3.252  0.4863 -0.3773 -0.1957
 8119SOL    HW135993   0.079   1.624   3.274 -0.1027  1.4991  2.6773
 8119SOL    HW235994   0.164   1.668   3.158  1.0805  1.5071 -0.3678
 8120SOL     OW35995   2.122   1.882  16.801  0.1827  0.5104  0.3569
 8120SOL    HW135996   2.144   1.812  16.739 -2.8106 -1.5849  1.6435
 8120SOL    HW235997   2.115   1.838  16.886 -2.3452  1.7125  0.7747
 8121SOL     OW35998   4.297   2.040   2.359 -0.4361 -0.2435 -0.4080
 8121SOL    HW135999   4.241   2.003   2.291 -2.2572  2.0564 -0.1620
 8121SOL    HW236000   4.277   1.972   2.423  0.9538  2.0787  2.4933
 8122SOL     OW36001   0.181   0.233   3.806 -0.0092 -0.4744 -0.1106
 8122SOL    HW136002   0.164   0.139   3.804  0.7867 -0.6080 -0.4840
 8122SOL    HW236003   0.160   0.246   3.899  0.6601 -2.2352  0.2892
 8123SOL     OW36004   0.814   4.367   6.314 -0.3782 -0.7528  0.5910
 8123SOL    HW136005   0.838   4.446   6.265  0.0173 -1.5357 -0.4707
 8123SOL    HW236006   0.810   4.295   6.252 -0.1569  0.2051 -0.5322
 8124SOL     OW36007   3.644   0.460   3.133  0.4209 -0.4974 -0.5041
 8124SOL    HW136008   3.706   0.462   3.206 -2.3455 -1.1426  1.8910
 8124SOL    HW236009   3.695   0.418   3.065  0.4227 -1.0938 -0.1351
 8125SOL     OW36010   2.498   2.685  10.266  0.0968 -0.2419  0.1143
 8125SOL    HW136011   2.566   2.625  10.298 -1.2386 -1.5357  0.4989
 8125SOL    HW236012   2.515   2.681  10.172 -1.3218 -3.2255 -0.0158
 8126SOL     OW36013   3.308   4.537  13.784  0.1587 -0.5041 -0.2221
 8126SOL    HW136014   3.356   4.617  13.759 -1.0722  0.0665 -0.7861
 8126SOL    HW236015   3.222   4.573  13.805  0.3736  0.8670 -1.5957
 8127SOL     OW36016   0.177   0.357   4.055  0.4470 -0.0769 -0.0643
 8127SOL    HW136017   0.261   0.378   4.015  1.4528 -1.5593  1.2407
 8127SOL    HW236018   0.208   0.303   4.128 -0.9112  1.5093  1.6656
 8128SOL     OW36019   4.556   4.370   1.182  0.1494 -0.6590 -0.1687
 8128SOL    HW136020   4.516   4.289   1.149 -2.0328  0.8175 -1.1704
 8128SOL    HW236021   4.646   4.346   1.161  0.6086 -1.7598  3.0747
 8129SOL     OW36022   0.939   0.461  10.474  0.0028  0.2304 -0.2353
 8129SOL    HW136023   0.980   0.385  10.515  3.1987  1.7112 -0.6597
 8129SOL    HW236024   0.881   0.417  10.413  0.4481 -2.1715  1.0815
 8130SOL     OW36025   2.861   1.089   7.486  0.7565  0.8662  0.7563
 8130SOL    HW136026   2.859   1.176   7.447  0.8635  0.3801 -0.3404
 8130SOL    HW236027   2.823   1.033   7.418  0.3611  0.1572  1.5599
 8131SOL     OW36028   3.487   4.288   1.805  0.3945 -0.1972  0.5498
 8131SOL    HW136029   3.406   4.273   1.756  2.0659 -1.0572 -1.9136
 8131SOL    HW236030   3.477   4.232   1.883 -1.6817 -2.5133 -1.3904
 8132SOL     OW36031   1.109   4.706   7.016 -0.0620 -0.5886 -0.4621
 8132SOL    HW136032   1.094   0.066   7.021  0.4195 -0.5485  0.3342
 8132SOL    HW236033   1.022   4.668   7.025 -1.4848  2.2271 -2.2945
 8133SOL     OW36034   0.891   3.549   0.979 -0.5733  0.1992 -0.2189
 8133SOL    HW136035   0.979   3.540   1.014 -0.8868 -4.2402 -0.5767
 8133SOL    HW236036   0.879   3.639   0.948  1.0600 -0.2848 -2.1911
 8134SOL     OW36037   4.167   3.081   8.182 -0.3448 -0.0622 -0.4446
 8134SOL    HW136038   4.186   3.175   8.178 -0.0328 -0.0600  1.2374
 8134SOL    HW236039   4.153   3.064   8.275  1.0334  0.3305 -0.1658
 8135SOL     OW36040   0.148   4.451   4.114 -0.4383  0.2743 -0.2327
 8135SOL    HW136041   0.164   4.542   4.142 -0.2668 -0.5554  2.4324
 8135SOL    HW236042   0.193   4.440   4.031 -0.1926 -3.1859  0.3665
 8136SOL     OW36043   2.683   2.776   2.074 -0.3594 -0.0505  0.0372
 8136SOL    HW136044   2.636   2.717   2.133  1.5979 -1.4844  0.1521
 8136SOL    HW236045   2.740   2.816   2.139 -1.3348  0.8743  0.3110
 8137SOL     OW36046   0.635   3.294   1.251  0.2211  0.3954  0.1003
 8137SOL    HW136047   0.630   3.238   1.174 -0.7928  0.8765 -0.1918
 8137SOL    HW236048   0.608   3.377   1.211  0.1628  0.7763  0.9197
 8138SOL     OW36049   3.888   1.507   0.794  0.4901  0.5206  0.0761
 8138SOL    HW136050   3.841   1.425   0.811 -0.8694  0.9776 -1.4083
 8138SOL    HW236051   3.912   1.543   0.879  0.6659 -1.1160  0.7037
 8139SOL     OW36052   1.744   2.330   9.592  0.2805  0.3420 -0.1086
 8139SOL    HW136053   1.708   2.370   9.672  1.4232 -3.1590  2.1481
 8139SOL    HW236054   1.836   2.339   9.618 -0.0968  0.3763  1.2173
 8140SOL     OW36055   1.157   4.442  15.407  0.3905 -0.1450  0.0892
 8140SOL    HW136056   1.236   4.475  15.365 -0.7038 -0.5736 -2.2808
 8140SOL    HW236057   1.166   4.350  15.383 -0.3449 -0.1615 -0.1163
 8141SOL     OW36058   2.724   3.007   0.261  0.3578  0.3263 -0.3069
 8141SOL    HW136059   2.637   3.023   0.299  0.3809  1.8466 -0.8877
 8141SOL    HW236060   2.766   3.087   0.294  0.4009  0.4909 -0.7696
 8142SOL     OW36061   3.577   4.430   3.240  0.1352  0.0619 -0.2183
 8142SOL    HW136062   3.602   4.360   3.300 -0.9738 -0.4651 -0.3815
 8142SOL    HW236063   3.626   4.403   3.163 -1.6877  0.5471 -1.5329
 8143SOL     OW36064   0.648   0.972   2.303  0.2203  0.2609 -0.0859
 8143SOL    HW136065   0.712   0.914   2.262 -0.1454 -1.1396  1.2808
 8143SOL    HW236066   0.685   1.005   2.385 -0.0559 -3.0348  1.3903
 8144SOL     OW36067   0.845   4.002   5.075 -0.0661  0.0659  0.3646
 8144SOL    HW136068   0.917   4.039   5.023 -0.4460  0.5773  0.1962
 8144SOL    HW236069   0.890   3.928   5.114  0.4901  0.0936 -0.2195
 8145SOL     OW36070   0.298   2.671  11.786 -0.2695  0.2123  0.7593
 8145SOL    HW136071   0.301   2.616  11.864  1.6829 -2.5539 -1.2626
 8145SOL    HW236072   0.388   2.702  11.787  0.3896 -1.6436 -2.2659
 8146SOL     OW36073   1.335   2.800  16.178 -0.1982  0.6480 -0.4957
 8146SOL    HW136074   1.335   2.824  16.271 -1.0331 -0.5539 -0.1922
 8146SOL    HW236075   1.306   2.709  16.183  0.9980  0.4261  2.6215
 8147SOL     OW36076   0.355   0.416   7.327 -0.6861  0.0476 -0.6440
 8147SOL    HW136077   0.309   0.500   7.332 -1.4909 -0.4478  0.1857
 8147SOL    HW236078   0.435   0.444   7.283 -0.9849 -1.1851 -1.9858
 8148SOL     OW36079   1.654   4.290   6.628  0.0734 -0.0301 -0.7053
 8148SOL    HW136080   1.596   4.353   6.670  1.5035 -0.8959  2.5339
 8148SOL    HW236081   1.640   4.211   6.682 -1.3833 -0.1629 -1.2661
 8149SOL     OW36082   4.675   2.854  16.582  0.2471 -0.1104 -0.2165
 8149SOL    HW136083   4.611   2.877  16.649 -0.2891  1.2293 -1.1790
 8149SOL    HW236084   4.674   2.943  16.545 -0.0142  0.1503  0.4269
 8150SOL     OW36085   1.708   0.860   1.045 -0.1512 -0.0501  0.6324
 8150SOL    HW136086   1.726   0.866   0.951 -1.0203  1.1624  0.5512
 8150SOL    HW236087   1.784   0.813   1.081 -0.1300 -0.1938  0.4028
 8151SOL     OW36088   0.394   2.827   7.022 -0.8791  0.2078 -0.2142
 8151SOL    HW136089   0.479   2.868   7.036 -0.6958  0.1160 -1.0505
 8151SOL    HW236090   0.421   2.738   7.000 -2.8224 -0.4857  0.2279
 8152SOL     OW36091   2.995   4.158  11.770  0.0278 -0.5109 -0.2208
 8152SOL    HW136092   3.081   4.140  11.730 -0.7514 -1.0169 -1.6565
 8152SOL    HW236093   2.980   4.251  11.757 -1.0955 -0.7048 -0.3097
 8153SOL     OW36094   0.777   1.030   2.558 -0.5782 -0.4497 -0.1269
 8153SOL    HW136095   0.870   1.041   2.580  0.4875 -0.5294 -4.4564
 8153SOL    HW236096   0.755   0.968   2.627 -1.4903  1.1096  0.9649
 8154SOL     OW36097   3.662   2.222   3.140  0.0644  0.1717  0.3470
 8154SOL    HW136098   3.602   2.269   3.082  2.5036  3.7716  0.7148
 8154SOL    HW236099   3.699   2.148   3.092 -1.8404 -1.2702  1.0836
 8155SOL     OW36100   2.393   2.696  15.616 -0.6185  0.2560  0.1140
 8155SOL    HW136101   2.406   2.674  15.524 -1.5042 -0.1711  0.0911
 8155SOL    HW236102   2.343   2.778  15.622 -0.8849  0.0783  0.3590
 8156SOL     OW36103   1.816   1.095   2.701 -0.2615 -0.2382  0.1999
 8156SOL    HW136104   1.828   1.001   2.713 -0.8218 -0.1462  1.4269
 8156SOL    HW236105   1.837   1.103   2.608 -3.6021 -1.3405 -0.6445
 8157SOL     OW36106   0.307   4.668   2.425 -0.0458 -0.4074  0.4246
 8157SOL    HW136107   0.390   4.622   2.410  1.5221  2.3803  0.5775
 8157SOL    HW236108   0.304   4.636   2.515 -0.4021 -0.5046  0.3808
 8158SOL     OW36109   4.608   1.854   4.223 -0.5259  0.4587 -0.1038
 8158SOL    HW136110   4.629   1.761   4.213 -1.1580  0.1207  1.8661
 8158SOL    HW236111   4.697   1.889   4.211 -0.4887  0.1675 -0.6827
 8159SOL     OW36112   2.586   0.855  12.086 -0.4190 -0.2310 -0.0257
 8159SOL    HW136113   2.548   0.774  12.119 -1.3076 -0.6292 -2.0164
 8159SOL    HW236114   2.677   0.837  12.066 -0.4752 -1.1090  0.5242
 8160SOL     OW36115   1.176   3.851   4.396 -0.2993 -0.1120  0.2182
 8160SOL    HW136116   1.191   3.864   4.490  0.6731 -0.6766  0.1507
 8160SOL    HW236117   1.120   3.923   4.369 -0.6580 -0.8531 -1.0085
 8161SOL     OW36118   0.504   1.906   8.544 -0.0673 -0.2967  0.3635
 8161SOL    HW136119   0.569   1.920   8.475 -1.4705 -0.8221 -1.0698
 8161SOL    HW236120   0.550   1.873   8.621 -0.6498  0.1615  0.9080
 8162SOL     OW36121   1.320   3.290   2.148  0.1109  0.5139  0.6804
 8162SOL    HW136122   1.230   3.262   2.131 -0.1169  2.9082 -2.0978
 8162SOL    HW236123   1.326   3.355   2.078 -0.1318  1.6318  1.7005
 8163SOL     OW36124   4.699   0.922   5.371 -0.1675 -0.3016  0.6545
 8163SOL    HW136125   4.650   0.995   5.408  0.3479  0.2621  0.2292
 8163SOL    HW236126   4.732   0.891   5.455  2.0129 -0.7284 -0.3641
 8164SOL     OW36127   0.001   1.525   7.163 -0.0273  0.2919  0.5988
 8164SOL    HW136128   0.084   1.564   7.191  0.9964  0.5187 -2.8313
 8164SOL    HW236129   0.030   1.455   7.105  0.4679  0.4873  0.6084
 8165SOL     OW36130   2.205   4.280   0.593  0.0042  0.2441 -0.5107
 8165SOL    HW136131   2.300   4.286   0.582  0.0633 -0.9808 -0.7137
 8165SOL    HW236132   2.176   4.369   0.576 -2.0905 -0.7641 -2.2270
 8166SOL     OW36133   2.532   4.308   5.233  0.6088  0.2790  0.3372
 8166SOL    HW136134   2.451   4.280   5.190  1.5250 -0.4263 -0.9357
 8166SOL    HW236135   2.494   4.286   5.318 -0.7569 -1.1287 -0.6478
 8167SOL     OW36136   0.518   0.346   8.663  0.3188  0.2874  0.3012
 8167SOL    HW136137   0.515   0.421   8.723 -1.0082  1.0351 -0.6975
 8167SOL    HW236138   0.575   0.377   8.593  0.9167 -2.8842 -0.5856
 8168SOL     OW36139   0.066   1.852   5.108  0.4982  0.2621 -0.6885
 8168SOL    HW136140   0.160   1.831   5.104  0.5666  0.7904 -2.0733
 8168SOL    HW236141   0.050   1.874   5.016  0.0695 -2.9419 -1.3828
 8169SOL     OW36142   1.130   0.916   7.039  0.3601 -0.6538 -0.3570
 8169SOL    HW136143   1.063   0.972   7.000  0.7051  0.8992  1.2509
 8169SOL    HW236144   1.153   0.968   7.116  0.8413 -2.9061  1.0088
 8170SOL     OW36145   4.173   4.702   1.446 -0.2626 -0.4285 -0.1138
 8170SOL    HW136146   4.124   4.719   1.527 -3.3859 -0.8364 -1.9075
 8170SOL    HW236147   4.227   4.625   1.463  0.1401 -0.4021 -1.2959
 8171SOL     OW36148   3.615   3.193   5.179 -0.1036  0.6511 -0.2330
 8171SOL    HW136149   3.604   3.109   5.133 -1.5549  1.2337 -0.9270
 8171SOL    HW236150   3.562   3.247   5.122 -2.3901  0.7434  1.9744
 8172SOL     OW36151   0.829   2.722   3.090 -0.2861  0.2039 -0.2591
 8172SOL    HW136152   0.823   2.672   3.172 -2.4927  0.1173 -0.4791
 8172SOL    HW236153   0.870   2.654   3.037 -0.2308 -0.0093  0.0565
 8173SOL     OW36154   2.553   0.885   3.418  0.0297 -0.0925 -0.0015
 8173SOL    HW136155   2.493   0.825   3.463  0.7198 -1.4881 -0.9535
 8173SOL    HW236156   2.525   0.872   3.328  0.8191 -2.8162  0.1391
 8174SOL     OW36157   4.609   1.170   0.697 -0.1404  0.4025  0.1812
 8174SOL    HW136158   4.601   1.208   0.785  0.9222 -1.9898  1.3064
 8174SOL    HW236159   4.544   1.101   0.692  1.7231 -1.2635 -1.1062
 8175SOL     OW36160   3.977   4.035  14.329  0.2464  0.2005 -0.1212
 8175SOL    HW136161   3.991   3.944  14.301 -0.3114  0.6009 -1.6727
 8175SOL    HW236162   4.053   4.071  14.282 -0.4372  1.8342  0.0502
 8176SOL     OW36163   2.958   3.249   5.815 -0.6937  0.5247  0.0501
 8176SOL    HW136164   2.910   3.167   5.813 -3.8996  2.4015 -0.0675
 8176SOL    HW236165   3.008   3.245   5.733  1.1550  1.3848  1.1143
 8177SOL     OW36166   0.588   4.079   7.190  0.4076 -0.1806 -0.6472
 8177SOL    HW136167   0.561   4.144   7.255 -1.0791 -0.4603 -0.9840
 8177SOL    HW236168   0.517   4.016   7.196  0.2376 -0.1426 -2.3086
 8178SOL     OW36169   1.453   2.810   6.738  0.3514 -0.0755  0.6173
 8178SOL    HW136170   1.486   2.894   6.769  0.9868 -0.2589  0.4376
 8178SOL    HW236171   1.365   2.834   6.711  1.0942  1.3506 -0.5427
 8179SOL     OW36172   2.034   4.557  12.864  0.6070  0.0002  0.1795
 8179SOL    HW136173   1.961   4.609  12.831 -0.1853  0.8338  3.2356
 8179SOL    HW236174   1.993   4.471  12.877  3.0632 -1.2394 -0.1495
 8180SOL     OW36175   1.696   4.532   5.129  0.0638 -0.1907 -0.3732
 8180SOL    HW136176   1.676   4.451   5.083  1.9623 -1.1488  0.4879
 8180SOL    HW236177   1.764   4.565   5.070 -0.9474 -0.0820 -1.4727
 8181SOL     OW36178   1.546   1.703   5.966 -0.2976 -0.7796  0.1271
 8181SOL    HW136179   1.515   1.669   5.882  2.2399 -1.3050 -0.5926
 8181SOL    HW236180   1.572   1.630   6.021  1.3241 -0.9172 -0.8148
 8182SOL     OW36181   2.391   0.020  11.896 -0.5205  0.6396  0.2519
 8182SOL    HW136182   2.350   0.006  11.811  0.6337 -0.1065 -0.1837
 8182SOL    HW236183   2.365   0.111  11.901 -0.4115  0.5096  3.0791
 8183SOL     OW36184   3.245   2.716   1.475  0.0234 -0.4802 -0.5757
 8183SOL    HW136185   3.172   2.684   1.423 -0.1036 -1.3561  0.1377
 8183SOL    HW236186   3.301   2.648   1.512  2.5555  1.0299 -1.6142
 8184SOL     OW36187   0.899   1.212   7.952 -0.4251  0.7401 -0.0323
 8184SOL    HW136188   0.839   1.286   7.948  1.0060  2.0215  2.0841
 8184SOL    HW236189   0.957   1.243   8.022  1.2964  1.6718 -1.8447
 8185SOL     OW36190   2.151   4.249   7.262 -0.1015 -0.1516 -0.1471
 8185SOL    HW136191   2.159   4.344   7.273 -0.0211 -0.3293  1.3566
 8185SOL    HW236192   2.243   4.224   7.258 -0.9964 -3.5804  0.6034
 8186SOL     OW36193   2.715   1.373   2.894  0.0326  0.2564  0.5682
 8186SOL    HW136194   2.792   1.370   2.950  0.0887  0.3637  0.4984
 8186SOL    HW236195   2.715   1.300   2.832 -0.9147  0.3644  0.4339
 8187SOL     OW36196   2.438   4.438   2.352  0.1114 -0.2195 -0.1372
 8187SOL    HW136197   2.349   4.461   2.377  0.2198  1.8711 -1.7096
 8187SOL    HW236198   2.452   4.386   2.431 -2.8029 -0.4870  0.1732
 8188SOL     OW36199   2.138   3.284  15.891  0.6282 -0.6724 -0.5005
 8188SOL    HW136200   2.205   3.246  15.949  0.7588 -1.1217 -0.9484
 8188SOL    HW236201   2.099   3.335  15.962  2.5083 -0.5596  0.4418
 8189SOL     OW36202   1.181   1.919   4.191 -0.2996  0.5496 -0.6684
 8189SOL    HW136203   1.270   1.901   4.221  0.7560  0.1785 -4.0047
 8189SOL    HW236204   1.176   1.858   4.118 -0.6762 -1.3438  0.9198
 8190SOL     OW36205   1.628   1.891   5.403 -0.1286 -0.1542  0.0366
 8190SOL    HW136206   1.612   1.810   5.354 -1.1749  1.1322 -1.7422
 8190SOL    HW236207   1.635   1.843   5.485  0.1839 -2.9847 -1.6414
 8191SOL     OW36208   1.256   3.513   9.143 -0.2781  0.0523  0.1070
 8191SOL    HW136209   1.273   3.586   9.084  0.3731 -1.1837 -1.1996
 8191SOL    HW236210   1.280   3.541   9.232  0.2161 -2.2997  0.7157
 8192SOL     OW36211   1.508   0.727   5.919 -0.3517  0.0790  0.1559
 8192SOL    HW136212   1.552   0.691   5.842 -0.8605 -3.4111  1.5031
 8192SOL    HW236213   1.554   0.689   5.994 -0.0128 -1.3499 -0.7690
 8193SOL     OW36214   1.802   4.342   2.882  0.2675  0.5001 -0.0782
 8193SOL    HW136215   1.881   4.344   2.935  1.2936 -1.0192 -1.5710
 8193SOL    HW236216   1.760   4.265   2.920 -1.6561  0.5402 -2.0867
 8194SOL     OW36217   0.679   1.974   6.262  0.3767 -0.0682  0.1802
 8194SOL    HW136218   0.678   2.040   6.332 -1.3462 -1.0246  1.0514
 8194SOL    HW236219   0.759   1.923   6.276  0.2697 -0.7466 -1.6927
 8195SOL     OW36220   4.034   0.506   9.602 -0.2893  0.3689 -0.0847
 8195SOL    HW136221   4.115   0.457   9.615 -1.8771 -2.0357  0.6933
 8195SOL    HW236222   4.048   0.601   9.605  0.0130  0.3216  0.0110
 8196SOL     OW36223   0.494   1.837  13.063 -0.1471  0.6800 -0.1056
 8196SOL    HW136224   0.511   1.773  13.133  1.1755  1.1744  0.0120
 8196SOL    HW236225   0.400   1.855  13.074 -0.7470 -1.0817 -2.2128
 8197SOL     OW36226   3.530   0.584   7.985  0.2113 -0.2268  0.2982
 8197SOL    HW136227   3.442   0.581   8.024 -0.1516  0.7198 -0.4695
 8197SOL    HW236228   3.574   0.622   8.061 -1.0298  1.5591  0.1136
 8198SOL     OW36229   0.460   1.041   5.359  0.4066 -0.3364 -0.3448
 8198SOL    HW136230   0.548   1.004   5.357 -0.1512 -1.5721 -2.9067
 8198SOL    HW236231   0.399   0.967   5.364  1.3659 -1.1791 -0.9567
 8199SOL     OW36232   4.524   1.109   7.438 -0.5702  0.6926  0.2232
 8199SOL    HW136233   4.521   1.205   7.440  0.6364  0.7389 -0.0230
 8199SOL    HW236234   4.458   1.086   7.372 -0.9282  1.0155  0.4696
 8200SOL     OW36235   1.363   2.525   8.103 -0.2565  0.0368 -0.6756
 8200SOL    HW136236   1.411   2.605   8.124 -1.8439  0.8990 -0.3419
 8200SOL    HW236237   1.373   2.466   8.177  3.1233  0.5134 -0.7394
 8201SOL     OW36238   0.953   1.946   9.114 -0.0695 -0.2510  0.7357
 8201SOL    HW136239   0.866   1.972   9.084 -0.3345  1.1574  2.7042
 8201SOL    HW236240   0.966   1.883   9.043  0.3794 -1.6106  2.0393
 8202SOL     OW36241   2.270   2.508   0.567 -0.0654 -0.2333 -0.2898
 8202SOL    HW136242   2.178   2.485   0.550 -0.1320 -1.7698  2.0387
 8202SOL    HW236243   2.262   2.557   0.649  4.3167  0.7869 -0.4634
 8203SOL     OW36244   2.016   3.625   7.788 -0.9303  0.0850 -0.0646
 8203SOL    HW136245   2.055   3.713   7.795 -2.4919  0.7047  0.8884
 8203SOL    HW236246   2.017   3.619   7.692  1.5514 -0.4037 -0.0093
 8204SOL     OW36247   3.622   0.264   0.820 -0.0677 -0.1750 -0.1167
 8204SOL    HW136248   3.621   0.212   0.900 -0.3571 -1.2102 -0.7958
 8204SOL    HW236249   3.705   0.231   0.785 -0.7240  0.2233 -2.0588
 8205SOL     OW36250   0.962   0.327  11.864  0.1172  0.3365  0.0546
 8205SOL    HW136251   0.878   0.282  11.870  1.7698 -2.3538  3.0862
 8205SOL    HW236252   0.937   0.419  11.852 -2.3473 -0.4871 -0.9998
 8206SOL     OW36253   3.102   2.522   2.819  0.1151 -0.7424 -0.0052
 8206SOL    HW136254   3.108   2.483   2.907  0.0283 -0.5760  0.0740
 8206SOL    HW236255   3.094   2.445   2.762 -0.4837 -0.0232 -0.8791
 8207SOL     OW36256   0.138   1.441   9.309  0.0896  0.9728 -0.2129
 8207SOL    HW136257   0.203   1.403   9.249  1.8192  0.8928  1.7088
 8207SOL    HW236258   0.074   1.467   9.243 -1.1762 -2.1940 -0.2698
 8208SOL     OW36259   0.344   0.793   3.751  0.9671  0.2443 -0.0161
 8208SOL    HW136260   0.433   0.784   3.785  1.0785  1.0517 -0.0801
 8208SOL    HW236261   0.310   0.707   3.774  0.8985 -0.2888 -2.1659
 8209SOL     OW36262   2.384   4.310   8.260 -0.6651 -0.7130  0.1248
 8209SOL    HW136263   2.474   4.277   8.252 -0.8740 -1.6599  1.7571
 8209SOL    HW236264   2.395   4.404   8.275  0.2516 -0.7317 -0.4007
 8210SOL     OW36265   3.393   1.269   7.121 -0.3503  0.0021 -0.3248
 8210SOL    HW136266   3.371   1.247   7.030  0.6359 -0.5756 -0.4151
 8210SOL    HW236267   3.307   1.305   7.145 -0.3197  0.6587 -1.1902
 8211SOL     OW36268   3.114   2.396  11.858 -0.1573  0.8353  0.1504
 8211SOL    HW136269   3.067   2.384  11.940  2.6153 -2.2561  1.3217
 8211SOL    HW236270   3.041   2.419  11.801 -0.6724  2.2585  1.4067
 8212SOL     OW36271   4.556   2.429  11.289  0.0816 -0.0185 -0.1233
 8212SOL    HW136272   4.605   2.435  11.371 -0.1561  0.7803 -0.0405
 8212SOL    HW236273   4.620   2.461  11.225  1.2185 -0.6154  0.7107
 8213SOL     OW36274   0.236   1.265   4.801 -0.2744  0.2463 -0.2202
 8213SOL    HW136275   0.200   1.183   4.768 -1.3841  0.9577 -0.7711
 8213SOL    HW236276   0.196   1.262   4.888 -1.7846 -1.6345 -0.9664
 8214SOL     OW36277   0.549   2.124   1.604 -0.3919  0.0605 -0.1285
 8214SOL    HW136278   0.499   2.082   1.674 -1.4287  1.9095  0.2077
 8214SOL    HW236279   0.511   2.076   1.530  1.4727 -0.5256 -0.7096
 8215SOL     OW36280   2.098   2.819   7.124 -0.3319 -0.3160  0.0333
 8215SOL    HW136281   2.035   2.851   7.059 -0.5735 -0.3769  0.2418
 8215SOL    HW236282   2.051   2.745   7.162  1.3904 -0.4102  1.9668
 8216SOL     OW36283   0.172   3.322   2.152 -0.1736  0.1217 -0.1127
 8216SOL    HW136284   0.087   3.364   2.157 -0.7124 -0.9830 -0.0509
 8216SOL    HW236285   0.163   3.264   2.077 -0.0410 -0.9017  0.6496
 8217SOL     OW36286   1.483   0.512   8.382 -0.1508  0.4300 -0.2652
 8217SOL    HW136287   1.428   0.568   8.327 -0.7713  1.1422  1.1089
 8217SOL    HW236288   1.547   0.579   8.405 -0.4324  0.1876  1.2083
 8218SOL     OW36289   2.754   1.358   4.639  0.3577 -0.2105  0.0795
 8218SOL    HW136290   2.722   1.286   4.585 -1.2361 -1.4266  2.6658
 8218SOL    HW236291   2.836   1.376   4.592  1.1080  0.6736  1.7386
 8219SOL     OW36292   1.602   4.487  14.928  0.7494  0.7887 -0.7480
 8219SOL    HW136293   1.626   4.510  15.018  2.4660 -1.7232 -0.5611
 8219SOL    HW236294   1.536   4.552  14.903 -2.9493 -2.6660  0.0796
 8220SOL     OW36295   3.535   0.542   4.387  0.0712 -0.3593  0.2949
 8220SOL    HW136296   3.459   0.585   4.424 -1.3326  0.0076 -3.0021
 8220SOL    HW236297   3.501   0.455   4.407 -0.5839  0.2751  1.8762
 8221SOL     OW36298   1.202   1.353   3.117 -0.0390  0.6631 -0.1092
 8221SOL    HW136299   1.288   1.328   3.084  0.0728  1.4989 -0.4527
 8221SOL    HW236300   1.231   1.388   3.201  1.7030  1.1545 -0.9257
 8222SOL     OW36301   0.758   0.000   2.008  0.1547  0.4947  0.0235
 8222SOL    HW136302   0.814   4.684   2.065  0.3538  3.8270  2.7732
 8222SOL    HW236303   0.766   0.083   2.055  0.4749  0.7483 -0.4691
 8223SOL     OW36304   4.236   1.232   3.579 -1.0308  0.1440 -0.0332
 8223SOL    HW136305   4.300   1.254   3.647 -1.7776 -0.0816  0.7430
 8223SOL    HW236306   4.160   1.288   3.591  0.6615  2.6583 -0.9288
 8224SOL     OW36307   1.366   4.645   2.490 -0.2142 -0.3537 -0.5673
 8224SOL    HW136308   1.416   4.619   2.412  0.7947 -0.1757  0.0118
 8224SOL    HW236309   1.431   4.685   2.548 -2.6154  0.9709  1.1877
 8225SOL     OW36310   3.399   3.875  12.396 -0.5336 -0.1603  0.5403
 8225SOL    HW136311   3.355   3.939  12.453  1.2731  0.5342  1.1580
 8225SOL    HW236312   3.419   3.934  12.324  0.3698 -0.0169  0.9105
 8226SOL     OW36313   0.732   1.196  15.378 -0.5577 -0.4407  0.4508
 8226SOL    HW136314   0.761   1.243  15.300  0.7364 -0.6719  0.7867
 8226SOL    HW236315   0.725   1.263  15.446 -1.6384 -0.5011  0.4075
 8227SOL     OW36316   1.179   4.462   7.140  0.1599 -0.4187  0.4497
 8227SOL    HW136317   1.230   4.543   7.133  1.8340 -1.3035  2.2626
 8227SOL    HW236318   1.127   4.468   7.221 -0.1835  1.2114  0.1015
 8228SOL     OW36319   0.961   0.101  10.988  0.3731  0.1866 -0.0763
 8228SOL    HW136320   0.952   0.180  11.041 -0.0455  0.5562 -0.6995
 8228SOL    HW236321   1.053   0.112  10.963  0.6426  2.2357  1.7500
 8229SOL     OW36322   3.429   3.732   4.254  0.1439 -0.1473 -0.4289
 8229SOL    HW136323   3.426   3.752   4.161  4.3236 -1.0207 -0.7649
 8229SOL    HW236324   3.480   3.651   4.253  2.8335  1.5539  0.1256
 8230SOL     OW36325   4.360   4.387  15.291  0.6412  0.7157  0.2244
 8230SOL    HW136326   4.364   4.479  15.316  0.3716  1.1687 -1.4070
 8230SOL    HW236327   4.453   4.367  15.300  0.4240  0.5794  2.3524
 8231SOL     OW36328   3.456   2.232   4.408 -0.4283 -0.0897 -0.2488
 8231SOL    HW136329   3.519   2.191   4.468 -1.4127 -1.6802 -0.2828
 8231SOL    HW236330   3.517   2.285   4.358 -0.9841 -0.1560 -0.9878
 8232SOL     OW36331   2.467   4.120  13.303 -0.4697  0.6212 -0.5672
 8232SOL    HW136332   2.405   4.049  13.320 -0.9646  1.2031  0.0558
 8232SOL    HW236333   2.551   4.082  13.329 -0.7335 -0.4676 -1.3572
 8233SOL     OW36334   2.077   4.150   3.836 -0.3376  0.0835  0.1849
 8233SOL    HW136335   2.116   4.186   3.915  0.2093  1.4716 -0.7129
 8233SOL    HW236336   2.158   4.123   3.791  0.0004  2.5644 -0.6977
 8234SOL     OW36337   3.538   2.118   9.057  0.1732  0.3322 -0.0729
 8234SOL    HW136338   3.548   2.152   8.968  0.2204  1.1840  0.2492
 8234SOL    HW236339   3.585   2.035   9.057 -1.6590 -0.7028 -1.3313
 8235SOL     OW36340   0.241   0.869   0.646 -0.1937  0.0480  0.3476
 8235SOL    HW136341   0.173   0.803   0.654  0.8064 -0.9309  0.6147
 8235SOL    HW236342   0.313   0.840   0.701  0.6343  1.3541 -0.0412
 8236SOL     OW36343   4.731   4.539   5.473  0.1418  0.4340 -0.2117
 8236SOL    HW136344   0.054   4.594   5.420  2.3829 -2.3125 -0.6967
 8236SOL    HW236345   0.063   4.476   5.502 -1.1798 -0.9145 -0.1317
 8237SOL     OW36346   0.079   1.056   2.661  0.1024  0.4140 -0.1493
 8237SOL    HW136347   4.722   1.035   2.682 -0.3090  0.3980 -1.9610
 8237SOL    HW236348   0.106   1.087   2.748  1.1679  0.1642 -0.3857
 8238SOL     OW36349   0.749   3.261  16.553  0.4612  0.3053 -0.7135
 8238SOL    HW136350   0.833   3.255  16.599  1.7569  1.5226 -2.9063
 8238SOL    HW236351   0.778   3.266  16.462 -2.3197 -1.7649 -1.7055
 8239SOL     OW36352   3.499   1.927  11.717  1.0821 -0.0278  0.1005
 8239SOL    HW136353   3.554   1.921  11.795 -2.1656  0.9532  2.4439
 8239SOL    HW236354   3.418   1.899  11.759  0.3384 -0.4231 -1.5780
 8240SOL     OW36355   1.789   2.419   3.842 -0.5803  0.2455  0.2366
 8240SOL    HW136356   1.877   2.395   3.813 -0.2176 -0.4106  1.8629
 8240SOL    HW236357   1.769   2.507   3.810 -0.0633  0.9240  1.7748
 8241SOL     OW36358   1.402   3.951  10.685  0.3720 -0.1670  0.4079
 8241SOL    HW136359   1.347   3.986  10.755 -2.7478 -0.9898 -1.6222
 8241SOL    HW236360   1.388   4.020  10.619  0.2123  0.8921  1.5541
 8242SOL     OW36361   1.945   3.521   1.550 -0.7155 -0.4485  0.3176
 8242SOL    HW136362   1.916   3.562   1.469  0.6771 -1.7883 -0.8688
 8242SOL    HW236363   2.039   3.538   1.543 -0.6399 -0.5487  1.0650
 8243SOL     OW36364   3.530   4.122  14.125 -0.4553  0.6233 -0.1431
 8243SOL    HW136365   3.584   4.159  14.195  1.0977  0.6115 -1.3123
 8243SOL    HW236366   3.532   4.030  14.153 -1.6733  0.6192 -0.1066
 8244SOL     OW36367   3.256   1.258   6.857  0.2241 -0.5041  0.0475
 8244SOL    HW136368   3.167   1.278   6.828  0.6456  1.3708  0.0426
 8244SOL    HW236369   3.313   1.244   6.782 -0.8453  0.1255 -0.8749
 8245SOL     OW36370   1.381   0.461   7.568  0.2210  0.2102 -0.0950
 8245SOL    HW136371   1.422   0.434   7.486  0.2346 -0.3922  0.1148
 8245SOL    HW236372   1.299   0.413   7.576  1.0281 -1.2664 -0.7280
 8246SOL     OW36373   1.706   2.355   8.168 -0.5194 -0.1048 -0.1080
 8246SOL    HW136374   1.753   2.400   8.098 -0.1116 -1.4129 -0.6815
 8246SOL    HW236375   1.666   2.432   8.207  1.8766  0.7930  0.5781
 8247SOL     OW36376   1.751   0.625   6.614 -0.8294  0.4240  0.8531
 8247SOL    HW136377   1.769   0.608   6.707  0.6342 -1.7929  0.1565
 8247SOL    HW236378   1.824   0.687   6.612  0.0915 -0.7452 -0.9996
 8248SOL     OW36379   1.905   4.562   0.176  0.4515  0.3820 -0.1113
 8248SOL    HW136380   1.851   4.484   0.159  0.3474  0.4701 -0.1874
 8248SOL    HW236381   1.993   4.529   0.194  0.3697  0.5231  0.5759
 8249SOL     OW36382   2.217   0.195   1.687  0.2605  0.2230  0.3632
 8249SOL    HW136383   2.305   0.230   1.698 -0.2258  1.0177  1.6666
 8249SOL    HW236384   2.204   0.170   1.596  0.2002 -0.0208  0.4366
 8250SOL     OW36385   3.959   1.525   4.389 -0.3168 -0.0042  0.0221
 8250SOL    HW136386   3.911   1.513   4.471 -1.5191  0.7269 -0.5764
 8250SOL    HW236387   4.028   1.462   4.409  0.2396  0.6532  0.1527
 8251SOL     OW36388   3.127   0.934   5.790 -1.1337  0.3054 -0.6214
 8251SOL    HW136389   3.209   0.888   5.773  0.0579  2.3330 -0.3298
 8251SOL    HW236390   3.065   0.870   5.756 -0.3009 -0.7670 -0.1103
 8252SOL     OW36391   1.757   1.148   5.390  0.3752  0.1690  0.7596
 8252SOL    HW136392   1.822   1.215   5.409 -0.2790  0.8729  0.5092
 8252SOL    HW236393   1.811   1.072   5.366 -0.8217 -0.8277  1.2076
 8253SOL     OW36394   0.500   1.593   7.704  0.0664  0.2039  0.1529
 8253SOL    HW136395   0.436   1.628   7.766  0.5176 -1.6230  1.6335
 8253SOL    HW236396   0.533   1.521   7.756 -0.4659 -0.8750 -0.9884
 8254SOL     OW36397   3.882   0.643   8.784  0.8298  0.3909  0.2664
 8254SOL    HW136398   3.814   0.669   8.723 -0.9002  0.1404  2.0940
 8254SOL    HW236399   3.953   0.696   8.747  0.4438  1.5026  1.1427
 8255SOL     OW36400   1.258   0.570   3.207 -0.0524 -0.0592 -0.3509
 8255SOL    HW136401   1.230   0.649   3.162 -0.2097  0.1430  0.1034
 8255SOL    HW236402   1.197   0.499   3.188  1.7149 -1.8102  0.4884
 8256SOL     OW36403   2.214   3.828   3.348 -0.2821 -0.5043  0.2974
 8256SOL    HW136404   2.284   3.799   3.406 -0.8328 -2.8614 -0.1981
 8256SOL    HW236405   2.263   3.839   3.267 -0.8672  0.8064  0.1313
 8257SOL     OW36406   0.717   1.274   2.484 -1.0271  0.4618  0.1922
 8257SOL    HW136407   0.694   1.315   2.568 -0.7530  1.6433 -0.3067
 8257SOL    HW236408   0.731   1.186   2.519 -0.2272  0.1460 -0.9336
 8258SOL     OW36409   0.559   0.415  12.420 -0.4351  0.3570 -0.0348
 8258SOL    HW136410   0.465   0.420  12.435  0.2640 -0.1265  4.2912
 8258SOL    HW236411   0.584   0.339  12.473  1.0424  1.6581  1.1215
 8259SOL     OW36412   4.425   2.211   9.097 -0.1538 -0.5672 -0.1281
 8259SOL    HW136413   4.469   2.186   9.016  0.5508 -0.4478  0.2138
 8259SOL    HW236414   4.373   2.132   9.110 -2.2879  0.4305 -2.5989
 8260SOL     OW36415   3.372   0.071   5.314 -0.2540  0.3524 -0.3709
 8260SOL    HW136416   3.373   0.104   5.224 -2.5129  0.7343 -0.2387
 8260SOL    HW236417   3.434   0.000   5.296 -0.9834 -0.5235  0.5977
 8261SOL     OW36418   2.365   1.261   8.519 -0.2589 -0.1928  0.3066
 8261SOL    HW136419   2.335   1.171   8.534 -2.3388  0.0652 -2.3746
 8261SOL    HW236420   2.280   1.301   8.501  0.4352  1.7037  1.2398
 8262SOL     OW36421   2.476   0.569   5.088 -0.0356 -0.0468 -0.2469
 8262SOL    HW136422   2.526   0.542   5.165 -0.9089 -2.5964 -0.5955
 8262SOL    HW236423   2.395   0.605   5.125 -1.4846 -1.4051 -2.1138
 8263SOL     OW36424   1.128   4.391   2.746 -0.0623  0.3279  0.7810
 8263SOL    HW136425   1.112   4.297   2.742 -0.2178  0.3354  1.1795
 8263SOL    HW236426   1.172   4.404   2.662 -1.4225  1.9412  0.3189
 8264SOL     OW36427   0.356   4.320   5.087  0.1749 -0.4216  0.1530
 8264SOL    HW136428   0.448   4.334   5.109  0.0789 -0.3441  0.5070
 8264SOL    HW236429   0.325   4.410   5.077  0.7112 -0.3290 -0.7030
 8265SOL     OW36430   1.570   3.934   7.195 -0.3007  0.3886 -0.2893
 8265SOL    HW136431   1.576   3.900   7.105 -1.6990 -1.6166  0.3771
 8265SOL    HW236432   1.477   3.929   7.215  0.1430  0.4671  1.7428
 8266SOL     OW36433   4.414   2.174   9.484  1.0270  0.1402 -0.3393
 8266SOL    HW136434   4.463   2.201   9.562 -2.6919 -0.1646  2.0601
 8266SOL    HW236435   4.431   2.080   9.486 -0.0241 -0.0428 -0.3759
 8267SOL     OW36436   0.906   2.686   1.955 -0.1006 -0.6290  0.6688
 8267SOL    HW136437   0.968   2.618   1.929  0.9016  0.6273 -0.2528
 8267SOL    HW236438   0.835   2.685   1.891 -0.7708  3.0770  1.3324
 8268SOL     OW36439   2.166   1.461   6.053  0.1960  0.1572  0.4925
 8268SOL    HW136440   2.259   1.441   6.041 -0.1026 -0.7065 -0.3183
 8268SOL    HW236441   2.168   1.478   6.148  0.9717  1.6390  0.2304
 8269SOL     OW36442   1.172   3.080   3.437 -0.3615  0.0952 -0.1684
 8269SOL    HW136443   1.197   2.988   3.432 -0.6973 -0.0952  1.7535
 8269SOL    HW236444   1.124   3.088   3.354 -1.1394 -1.4065  0.1473
 8270SOL     OW36445   0.522   1.226  15.060 -0.5274 -0.3035  0.2405
 8270SOL    HW136446   0.432   1.240  15.089 -0.3970 -0.0191  0.5150
 8270SOL    HW236447   0.533   1.133  15.080 -0.6935 -0.7889 -1.9547
 8271SOL     OW36448   1.323   3.406   2.905  0.1963  0.0116  0.0024
 8271SOL    HW136449   1.330   3.339   2.973  1.5449 -0.7696 -0.8922
 8271SOL    HW236450   1.233   3.398   2.875  0.4128  1.8474 -1.1105
 8272SOL     OW36451   3.481   2.638   7.783 -0.0533 -0.5206  0.4068
 8272SOL    HW136452   3.491   2.730   7.808  0.6263  0.3020 -2.9724
 8272SOL    HW236453   3.406   2.612   7.836 -0.1659 -0.1049  0.4506
 8273SOL     OW36454   2.500   1.465   5.878  0.1873 -0.5882 -0.1491
 8273SOL    HW136455   2.540   1.540   5.834 -0.1481 -0.2351  0.1455
 8273SOL    HW236456   2.500   1.486   5.972  1.7935 -2.6946  0.3267
 8274SOL     OW36457   4.668   4.330   7.893  0.0586  0.6060  0.6154
 8274SOL    HW136458   4.595   4.285   7.851  1.0632  0.6199 -1.1161
 8274SOL    HW236459   0.004   4.334   7.828  0.0262 -2.7489  0.3865
 8275SOL     OW36460   0.611   3.370  10.278 -0.1700  0.3870  0.3854
 8275SOL    HW136461   0.524   3.382  10.315 -1.1704 -0.0398 -1.8529
 8275SOL    HW236462   0.612   3.278  10.251  4.8011  0.8789 -1.2089
 8276SOL     OW36463   3.581   2.746  15.792 -0.1070  0.1106  0.1339
 8276SOL    HW136464   3.527   2.667  15.796  2.0618 -1.2275  2.7860
 8276SOL    HW236465   3.562   2.771  15.702  0.2442 -1.9255 -0.4938
 8277SOL     OW36466   4.355   2.332  15.356 -0.3813  0.4570 -0.4289
 8277SOL    HW136467   4.361   2.274  15.280  1.4478  1.5182 -1.0699
 8277SOL    HW236468   4.269   2.307  15.392  0.2172  0.1561  0.7996
 8278SOL     OW36469   1.075   2.261   6.275  0.1078  0.2454 -0.1639
 8278SOL    HW136470   1.057   2.280   6.367 -1.5264  1.4330 -0.7295
 8278SOL    HW236471   0.999   2.292   6.226  1.6794  3.8837 -0.2402
 8279SOL     OW36472   2.457   0.294   7.161 -0.4998 -0.3091  0.1879
 8279SOL    HW136473   2.465   0.234   7.087  0.2755  0.8023 -0.6279
 8279SOL    HW236474   2.542   0.269   7.196 -0.7523 -0.6472  0.5525
 8280SOL     OW36475   0.973   1.076  13.282 -0.1323  0.0203 -0.0011
 8280SOL    HW136476   0.919   0.998  13.291 -1.2161  0.6072 -1.2681
 8280SOL    HW236477   0.965   1.092  13.188  1.5111  2.0956  0.2034
 8281SOL     OW36478   2.716   3.917   5.420 -0.0972  0.0547 -0.3850
 8281SOL    HW136479   2.754   3.970   5.490  1.4933 -1.7016  0.0872
 8281SOL    HW236480   2.798   3.887   5.379 -0.1487 -1.0974  0.3386
 8282SOL     OW36481   0.968   4.052   8.361 -0.0924  0.3735  0.1323
 8282SOL    HW136482   1.012   4.112   8.421  0.0522 -0.2913  0.6768
 8282SOL    HW236483   0.890   4.105   8.343  0.2521  0.6912 -0.4514
 8283SOL     OW36484   0.949   0.482   5.196 -0.8197 -0.5807  0.1164
 8283SOL    HW136485   0.918   0.557   5.145 -0.1755  0.3012  1.0232
 8283SOL    HW236486   1.044   0.499   5.192 -0.9098 -0.0584  0.1697
 8284SOL     OW36487   1.988   0.937  14.718 -0.5761 -0.2343  0.4891
 8284SOL    HW136488   2.044   0.914  14.644  1.3838  0.0458  1.8766
 8284SOL    HW236489   2.013   1.028  14.735  3.0005 -1.2736  0.8556
 8285SOL     OW36490   0.744   1.594   5.281  0.2909 -0.8588  0.2368
 8285SOL    HW136491   0.816   1.538   5.254  0.9551 -0.4835  1.2249
 8285SOL    HW236492   0.721   1.559   5.367 -1.4355  0.6472  0.3848
 8286SOL     OW36493   1.675   3.119   8.204 -0.5111 -0.3591  1.0197
 8286SOL    HW136494   1.697   3.121   8.111  0.0345 -4.3150  1.0716
 8286SOL    HW236495   1.600   3.177   8.216 -0.3609  0.5220 -2.2978
 8287SOL     OW36496   0.137   2.274   4.307  0.4857 -0.1720 -0.1547
 8287SOL    HW136497   0.057   2.296   4.258 -0.1342  0.9605  1.3663
 8287SOL    HW236498   0.197   2.239   4.241 -0.5919 -0.9103 -0.7470
 8288SOL     OW36499   1.708   4.407   4.486  0.4150 -0.0285  0.2014
 8288SOL    HW136500   1.779   4.456   4.444 -0.3285  1.8635  1.1605
 8288SOL    HW236501   1.695   4.333   4.426 -0.4697  0.1276  0.1922
 8289SOL     OW36502   2.422   2.698   1.804 -0.3462 -0.1538 -0.4823
 8289SOL    HW136503   2.362   2.756   1.850 -0.4405 -1.4147  0.9750
 8289SOL    HW236504   2.385   2.702   1.716  0.3953 -0.3647 -0.8039
 8290SOL     OW36505   1.635   1.473   6.125  0.5992 -1.0685 -0.0164
 8290SOL    HW136506   1.628   1.383   6.093 -2.1883 -1.1174  0.7525
 8290SOL    HW236507   1.714   1.454   6.176  2.1147  3.6067 -0.6152
 8291SOL     OW36508   1.745   0.821   0.761 -0.6048  0.3710 -0.7435
 8291SOL    HW136509   1.835   0.844   0.739 -0.5236 -1.3515 -2.2323
 8291SOL    HW236510   1.758   0.726   0.757 -2.2870  0.0313  1.7715
 8292SOL     OW36511   2.627   0.390   6.737 -0.1452 -0.6783  0.2248
 8292SOL    HW136512   2.556   0.328   6.717  0.6078 -0.0932 -4.2002
 8292SOL    HW236513   2.629   0.387   6.833  1.5134  0.4648  0.2294
 8293SOL     OW36514   4.576   0.459   4.866 -0.5192  0.1679 -0.3394
 8293SOL    HW136515   4.625   0.504   4.797 -0.9906  1.4230  0.1361
 8293SOL    HW236516   4.619   0.374   4.870 -2.3256 -0.7310 -0.1371
 8294SOL     OW36517   0.785   0.154  12.170  1.0208 -0.0880  0.0505
 8294SOL    HW136518   0.702   0.202  12.173  0.5716 -0.9631  2.1526
 8294SOL    HW236519   0.804   0.137  12.263 -0.1048  0.5819  0.4065
 8295SOL     OW36520   1.851   4.195  10.798  0.7251 -0.1578 -0.0578
 8295SOL    HW136521   1.852   4.100  10.804 -2.0870 -0.1544  0.3057
 8295SOL    HW236522   1.779   4.223  10.855  1.2517  0.5089  0.2798
 8296SOL     OW36523   1.270   1.145  16.188 -0.0354  0.3327  0.0729
 8296SOL    HW136524   1.193   1.099  16.156  0.4441 -2.3234  2.8039
 8296SOL    HW236525   1.290   1.086  16.260 -0.3068 -0.5485 -0.5747
 8297SOL     OW36526   4.125   2.816  13.586  0.1095 -0.1361 -0.0122
 8297SOL    HW136527   4.177   2.797  13.508 -2.0071  0.3723 -1.5659
 8297SOL    HW236528   4.034   2.809  13.556 -0.0738 -0.6605  0.6763
 8298SOL     OW36529   1.738   1.113   5.672  0.4181 -0.5004 -0.3744
 8298SOL    HW136530   1.735   1.126   5.577 -0.6000 -0.8650 -0.3806
 8298SOL    HW236531   1.674   1.046   5.692  0.7202 -1.0730 -1.3464
 8299SOL     OW36532   4.141   2.476   2.187 -0.4120 -0.2871 -0.0988
 8299SOL    HW136533   4.072   2.410   2.190  0.1495 -0.8683  0.0907
 8299SOL    HW236534   4.162   2.494   2.279  1.4795 -1.1012 -0.3729
 8300SOL     OW36535   0.997   4.069   4.566 -0.2680 -0.0418 -0.3663
 8300SOL    HW136536   0.921   4.011   4.576  0.4670 -0.6693  1.5344
 8300SOL    HW236537   1.026   4.082   4.656 -0.4910 -2.8165  0.1039
 8301SOL     OW36538   0.987   1.681   8.555 -0.4417  0.3079  0.2181
 8301SOL    HW136539   0.957   1.708   8.468  0.8890 -1.3928 -0.7632
 8301SOL    HW236540   1.030   1.597   8.538  1.2497  1.1656  0.2787
 8302SOL     OW36541   3.429   0.689   2.910  0.1800  0.5418 -0.2633
 8302SOL    HW136542   3.403   0.636   2.985 -0.7602  1.0590 -0.2102
 8302SOL    HW236543   3.524   0.689   2.911  0.1885 -1.1148 -1.4649
 8303SOL     OW36544   2.801   2.742   5.675  0.2596 -0.1220  0.0406
 8303SOL    HW136545   2.796   2.654   5.713  0.8218 -0.2706 -0.2255
 8303SOL    HW236546   2.896   2.752   5.683  0.2974 -0.3107 -0.1821
 8304SOL     OW36547   0.263   0.982  15.073 -0.1594 -0.0023 -0.2268
 8304SOL    HW136548   0.251   1.073  15.099 -0.0265 -0.2902  0.8348
 8304SOL    HW236549   0.277   0.996  14.980 -1.6565  1.0202 -0.3006
 8305SOL     OW36550   3.401   1.889   0.110  0.0106 -0.4072  0.3077
 8305SOL    HW136551   3.409   1.895   0.205  2.3682  1.1113 -0.0020
 8305SOL    HW236552   3.358   1.971   0.087  0.3064 -0.0747  0.9834
 8306SOL     OW36553   0.859   0.248   2.081 -0.4492  0.4567 -0.1426
 8306SOL    HW136554   0.794   0.317   2.096 -0.8982 -0.4628  2.2010
 8306SOL    HW236555   0.904   0.246   2.166 -1.8597 -1.5877  0.5512
 8307SOL     OW36556   0.366   2.880   0.582 -0.0778  0.1039  0.0709
 8307SOL    HW136557   0.455   2.897   0.552 -0.0103  0.6245  0.5641
 8307SOL    HW236558   0.357   2.921   0.668  0.1025 -0.5053  0.3778
 8308SOL     OW36559   4.135   0.884   1.772 -0.1231 -0.0234  0.1431
 8308SOL    HW136560   4.209   0.944   1.767 -0.7680  0.6907 -0.7556
 8308SOL    HW236561   4.164   0.806   1.819 -0.1129  0.0083  0.1892
 8309SOL     OW36562   3.198   3.340   9.533  0.6859  0.2996 -0.1925
 8309SOL    HW136563   3.242   3.255   9.537  0.5850  0.3368  1.8688
 8309SOL    HW236564   3.191   3.347   9.628  0.2918 -1.4700 -0.0920
 8310SOL     OW36565   4.350   0.434   4.457 -0.2526  0.1924 -0.0586
 8310SOL    HW136566   4.365   0.348   4.496 -1.5518 -0.7695 -1.7262
 8310SOL    HW236567   4.424   0.436   4.396 -0.2267 -0.7130 -0.0532
 8311SOL     OW36568   2.203   3.438  12.189 -0.2334 -0.3939 -0.3572
 8311SOL    HW136569   2.163   3.357  12.220  2.3259 -0.4811  2.6323
 8311SOL    HW236570   2.177   3.435  12.097 -0.7313 -0.3711 -0.2142
 8312SOL     OW36571   3.352   4.375  13.550  0.0008  0.2131  0.1097
 8312SOL    HW136572   3.362   4.431  13.627 -0.6674  0.7105 -0.1733
 8312SOL    HW236573   3.269   4.335  13.573  0.4531  0.0506  1.4602
 8313SOL     OW36574   1.593   1.627  10.942  0.0469  0.4508  0.6976
 8313SOL    HW136575   1.536   1.561  10.981 -0.4805  0.7109  0.3655
 8313SOL    HW236576   1.552   1.705  10.982 -1.9906 -0.0439 -0.4609
 8314SOL     OW36577   2.879   0.667   2.105 -0.4580 -0.0383  0.0825
 8314SOL    HW136578   2.887   0.736   2.171  1.4051  1.6379 -1.8734
 8314SOL    HW236579   2.955   0.685   2.049 -0.4419 -1.0536 -0.2301
 8315SOL     OW36580   0.575   0.936  14.762 -0.1956 -0.2273  1.1348
 8315SOL    HW136581   0.634   0.867  14.730  1.0074  0.9266  0.9002
 8315SOL    HW236582   0.572   1.005  14.696 -0.6910 -3.0148 -1.7989
 8316SOL     OW36583   4.168   1.731   5.746 -0.4588  0.1003  0.3458
 8316SOL    HW136584   4.148   1.794   5.815  3.1347  0.4201  1.0613
 8316SOL    HW236585   4.142   1.784   5.670  1.0944 -1.4517 -1.2598
 8317SOL     OW36586   0.486   1.354   4.847  0.0613 -0.2427  0.9092
 8317SOL    HW136587   0.401   1.320   4.818 -0.1190  0.8967  0.1018
 8317SOL    HW236588   0.475   1.444   4.816  1.8579  0.5917  2.7179
 8318SOL     OW36589   0.070   1.440  12.676  0.9999  1.1962  0.1432
 8318SOL    HW136590   0.109   1.489  12.749  2.2539  1.8625 -0.9773
 8318SOL    HW236591   0.062   1.517  12.620 -0.5275  0.0291 -1.2321
 8319SOL     OW36592   0.461   4.187   1.463  0.3272 -0.3835 -0.2448
 8319SOL    HW136593   0.506   4.266   1.494 -1.2517  0.3697  0.1283
 8319SOL    HW236594   0.472   4.124   1.535  1.7300  0.1606  0.0277
 8320SOL     OW36595   2.175   4.032   2.686 -0.8370  0.3019  0.5429
 8320SOL    HW136596   2.128   4.106   2.647  0.0288  1.0172  0.8411
 8320SOL    HW236597   2.263   4.060   2.657 -1.0761 -0.8264 -1.2687
 8321SOL     OW36598   0.654   2.601   1.818 -0.1626  0.3993 -0.2335
 8321SOL    HW136599   0.579   2.562   1.773  0.8913 -1.5992 -0.2088
 8321SOL    HW236600   0.626   2.593   1.909 -0.9542  0.4504 -0.4721
 8322SOL     OW36601   3.478   3.542  11.028 -0.5977 -0.5721 -0.5797
 8322SOL    HW136602   3.476   3.561  11.122 -0.1485  2.3253 -1.1464
 8322SOL    HW236603   3.396   3.586  11.005 -0.8238 -1.3146 -1.1894
 8323SOL     OW36604   4.710   3.975   6.718 -0.1957  0.0951  0.6328
 8323SOL    HW136605   4.713   3.944   6.808  2.9486 -1.8061 -0.1129
 8323SOL    HW236606   4.700   3.889   6.675 -2.3154 -0.6802  2.7215
 8324SOL     OW36607   3.120   1.545   4.741  0.3856  0.1925  0.2402
 8324SOL    HW136608   3.085   1.547   4.830 -1.1936  1.6823 -0.4215
 8324SOL    HW236609   3.043   1.585   4.701  0.4187  0.1901  0.1732
 8325SOL     OW36610   1.357   3.225   7.695 -0.4020  0.1075 -0.6188
 8325SOL    HW136611   1.450   3.247   7.697 -0.9734  2.5864 -1.0590
 8325SOL    HW236612   1.326   3.308   7.659  1.5664 -0.2825 -3.2281
 8326SOL     OW36613   2.376   0.139   4.013  0.6999  0.4483  0.3874
 8326SOL    HW136614   2.287   0.156   4.043 -0.1758 -2.2528 -0.6740
 8326SOL    HW236615   2.383   0.228   3.976  0.3752  0.9049  1.4262
 8327SOL     OW36616   3.881   2.575   7.005  0.1469 -0.3190  0.0303
 8327SOL    HW136617   3.805   2.627   6.977 -1.0240 -1.7320  0.6272
 8327SOL    HW236618   3.845   2.486   7.005 -0.0458 -0.2422 -0.0368
 8328SOL     OW36619   3.618   2.454   4.014 -0.3672  0.0806 -0.5773
 8328SOL    HW136620   3.578   2.407   3.941 -0.8051 -1.0738  0.3875
 8328SOL    HW236621   3.552   2.458   4.084 -0.4743 -0.7953 -0.6212
 8329SOL     OW36622   1.236   2.867   3.015  0.8263  0.4696 -0.0121
 8329SOL    HW136623   1.235   2.834   2.925  2.4236 -0.6650  0.3915
 8329SOL    HW236624   1.328   2.866   3.043  1.0131 -0.0914 -0.6509
 8330SOL     OW36625   2.435   3.847   0.410 -0.5224  0.2086  0.2060
 8330SOL    HW136626   2.504   3.798   0.367  0.3011  0.9622  0.6545
 8330SOL    HW236627   2.408   3.780   0.473  0.2663 -0.5268 -0.2369
 8331SOL     OW36628   3.519   4.300  17.423 -0.0686  0.3848  0.0705
 8331SOL    HW136629   3.484   4.221  17.464 -1.2377  0.7347 -0.2660
 8331SOL    HW236630   3.446   4.339  17.375 -0.2437  0.2623  0.2374
 8332SOL     OW36631   4.044   0.825   7.293  0.7664  1.0636  0.2627
 8332SOL    HW136632   3.989   0.831   7.215  0.1283  1.9325  0.7802
 8332SOL    HW236633   4.046   0.729   7.290 -1.0665  1.0853 -1.7491
 8333SOL     OW36634   4.371   4.305   4.218 -0.4345  0.1221  0.2660
 8333SOL    HW136635   4.317   4.289   4.295 -0.0794 -1.0466  0.2669
 8333SOL    HW236636   4.321   4.262   4.148  0.5138 -0.5560  0.0163
 8334SOL     OW36637   3.472   4.119   4.004  0.5810 -0.4695  0.1160
 8334SOL    HW136638   3.408   4.164   3.949 -1.3139 -2.0467  1.0184
 8334SOL    HW236639   3.412   4.085   4.070 -0.4512  0.0053 -0.5815
 8335SOL     OW36640   2.143   2.248   6.831  0.7223 -0.1003  0.3957
 8335SOL    HW136641   2.213   2.251   6.765 -0.6733  2.3489 -0.9984
 8335SOL    HW236642   2.069   2.211   6.782  1.0009  0.8294 -0.7443
 8336SOL     OW36643   1.547   3.408   6.855  0.1894  0.2811 -0.1722
 8336SOL    HW136644   1.460   3.387   6.820  0.6311  0.1739 -1.1786
 8336SOL    HW236645   1.561   3.337   6.918  0.7343  1.8932  1.5361
 8337SOL     OW36646   3.015   3.250   6.195 -1.1209 -0.2472 -0.6851
 8337SOL    HW136647   3.081   3.231   6.128  0.3319  3.0624 -0.2068
 8337SOL    HW236648   3.073   3.285   6.264 -1.4277  0.4016 -0.7506
 8338SOL     OW36649   0.496   3.736   8.906  0.4536  0.4270 -0.0668
 8338SOL    HW136650   0.465   3.646   8.901 -0.5090  0.5719  3.0597
 8338SOL    HW236651   0.590   3.723   8.923  0.5693  1.6638  0.2772
 8339SOL     OW36652   3.818   4.218   5.329  0.3090  0.2805 -0.0169
 8339SOL    HW136653   3.891   4.277   5.351  0.6525 -0.4441  0.7864
 8339SOL    HW236654   3.743   4.274   5.350 -1.4175 -1.9612 -0.3163
 8340SOL     OW36655   2.035   3.561   4.678 -0.3991 -0.2999 -0.6021
 8340SOL    HW136656   2.072   3.609   4.604  2.3668 -0.1445  0.8710
 8340SOL    HW236657   1.949   3.541   4.642 -0.3847  1.5806 -1.6894
 8341SOL     OW36658   2.413   2.742   4.356  0.2356  0.4871 -0.0539
 8341SOL    HW136659   2.353   2.738   4.282 -0.3517 -3.2228  0.6202
 8341SOL    HW236660   2.352   2.694   4.413 -0.1345  1.9355  0.7737
 8342SOL     OW36661   3.330   4.171   5.593  0.0211  0.2954  0.4970
 8342SOL    HW136662   3.273   4.195   5.666  0.6497  1.1011  0.7189
 8342SOL    HW236663   3.279   4.105   5.546  0.5191 -0.3733  0.8958
 8343SOL     OW36664   4.505   1.015   8.120 -0.2077  0.2475 -0.4417
 8343SOL    HW136665   4.570   1.038   8.186 -1.2554  0.4927  0.5052
 8343SOL    HW236666   4.565   0.965   8.065  1.0117  0.0559  1.0680
 8344SOL     OW36667   2.540   2.804   5.527 -0.2034  0.4744 -0.6998
 8344SOL    HW136668   2.627   2.816   5.564 -0.1781  0.6866 -0.8235
 8344SOL    HW236669   2.559   2.756   5.446  0.4255 -1.8712  0.8606
 8345SOL     OW36670   4.518   0.466   2.678 -0.0390 -0.3682 -0.5288
 8345SOL    HW136671   4.434   0.475   2.722 -0.3721 -1.4343 -0.9423
 8345SOL    HW236672   4.521   0.370   2.685  0.3941 -0.2425  0.9931
 8346SOL     OW36673   1.571   1.385   5.444  1.0308 -0.0431  0.5419
 8346SOL    HW136674   1.498   1.352   5.497  1.2719 -1.8689 -0.2412
 8346SOL    HW236675   1.593   1.307   5.392  0.9768  1.0418 -1.0949
 8347SOL     OW36676   1.010   1.284   5.029  0.4558  0.3017 -0.2587
 8347SOL    HW136677   1.035   1.344   4.959 -0.4550 -0.3904 -1.1823
 8347SOL    HW236678   0.935   1.250   4.979 -0.0192 -0.0993  0.7296
 8348SOL     OW36679   4.236   1.073   2.253 -0.0075  0.3039 -0.1313
 8348SOL    HW136680   4.220   1.167   2.262  0.8758  0.4262  0.2076
 8348SOL    HW236681   4.177   1.044   2.183  1.4704  0.9983 -1.6697
 8349SOL     OW36682   4.006   2.500   4.252  0.3952 -0.2315 -0.1493
 8349SOL    HW136683   4.039   2.432   4.194 -0.9520 -1.8016  0.9549
 8349SOL    HW236684   3.959   2.450   4.319  1.3466 -0.1951  0.5530
 8350SOL     OW36685   1.715   3.593   6.997 -0.7928  0.0231  0.1297
 8350SOL    HW136686   1.627   3.575   6.966 -1.0885 -0.7925  1.4711
 8350SOL    HW236687   1.728   3.532   7.069  1.8962  1.1601  0.6321
 8351SOL     OW36688   2.419   1.178   4.172 -0.3192  0.2107 -0.0723
 8351SOL    HW136689   2.428   1.271   4.153 -0.7636  0.0082 -1.3124
 8351SOL    HW236690   2.325   1.167   4.157 -0.3256  2.8747 -2.0256
 8352SOL     OW36691   0.769   3.425   8.269  0.1201  0.2991 -0.0843
 8352SOL    HW136692   0.771   3.364   8.342  1.0634  0.5270  0.0750
 8352SOL    HW236693   0.680   3.435   8.234  0.9321 -1.8604 -2.7630
 8353SOL     OW36694   0.415   3.271   5.779  0.4999 -0.4337 -0.5515
 8353SOL    HW136695   0.468   3.307   5.850 -0.3324 -2.0844  0.8923
 8353SOL    HW236696   0.433   3.330   5.706 -0.6850  1.5331  0.7429
 8354SOL     OW36697   4.659   3.006   2.092  0.0957  0.6272  0.3395
 8354SOL    HW136698   4.586   3.018   2.154 -1.6506  0.2092 -1.6155
 8354SOL    HW236699   4.671   3.095   2.057  0.0476  1.4166  2.3308
 8355SOL     OW36700   1.616   1.953   1.022 -0.3555  0.0103 -0.1982
 8355SOL    HW136701   1.554   1.976   1.091 -0.3639 -0.3158 -0.0986
 8355SOL    HW236702   1.697   1.991   1.056  0.3894 -1.2630 -0.5362
 8356SOL     OW36703   2.001   4.564   3.206  0.1753  0.2327 -0.3772
 8356SOL    HW136704   2.046   4.574   3.122  0.9086 -1.1945 -0.1455
 8356SOL    HW236705   1.961   4.478   3.195  1.3705 -0.3202 -0.4063
 8357SOL     OW36706   0.504   2.883   5.611  0.7218  0.3895 -0.1157
 8357SOL    HW136707   0.584   2.893   5.662  0.7009 -0.4847  0.0913
 8357SOL    HW236708   0.528   2.913   5.523 -1.2048  2.0006 -0.0969
 8358SOL     OW36709   2.373   3.763   3.587  0.2255 -0.1000  0.1792
 8358SOL    HW136710   2.457   3.776   3.544  0.8886 -1.8938  0.9544
 8358SOL    HW236711   2.359   3.851   3.622 -0.8197 -0.7261  1.3301
 8359SOL     OW36712   1.148   2.575   9.441  0.1975  0.0774 -0.1960
 8359SOL    HW136713   1.219   2.532   9.489  1.0424 -0.4933 -1.9558
 8359SOL    HW236714   1.198   2.613   9.369 -1.5624  0.0687 -1.4152
 8360SOL     OW36715   0.121   1.208   2.102 -0.2418 -0.0717 -0.2853
 8360SOL    HW136716   0.089   1.195   2.191 -0.3046  0.4984 -0.2223
 8360SOL    HW236717   0.081   1.291   2.075 -0.0711  0.2617  0.5008
 8361SOL     OW36718   1.259   3.914  16.456 -0.6227 -0.4730 -0.0190
 8361SOL    HW136719   1.256   3.866  16.539  0.6816 -0.2303  0.1715
 8361SOL    HW236720   1.304   3.847  16.403  0.0365 -1.2729  1.5498
 8362SOL     OW36721   3.383   4.519   9.822  0.5000 -0.4925 -0.0485
 8362SOL    HW136722   3.323   4.461   9.869  1.7751 -0.4393  1.6259
 8362SOL    HW236723   3.438   4.562   9.887 -0.3258  1.5607 -0.7247
 8363SOL     OW36724   2.062   3.366   5.345 -0.2008  0.1507  0.4629
 8363SOL    HW136725   2.047   3.272   5.341 -2.0604  0.4246  1.0638
 8363SOL    HW236726   2.136   3.368   5.406 -0.1174  0.8398  0.3411
 8364SOL     OW36727   0.880   0.639   4.477  0.1358  0.1729  0.0125
 8364SOL    HW136728   0.889   0.655   4.383  0.3733  0.7600  0.1353
 8364SOL    HW236729   0.963   0.665   4.516 -0.9512  0.9638  1.8061
 8365SOL     OW36730   1.586   1.506   7.690 -0.0948 -0.5292 -0.1960
 8365SOL    HW136731   1.640   1.547   7.757  2.6381 -1.4603 -1.8368
 8365SOL    HW236732   1.527   1.445   7.735 -0.3956 -0.2606 -0.2226
 8366SOL     OW36733   4.348   0.577   6.260 -1.1598 -0.3880 -0.0691
 8366SOL    HW136734   4.301   0.507   6.305 -1.0705  0.5811  1.5348
 8366SOL    HW236735   4.304   0.583   6.175 -1.8507 -0.0675  0.3184
 8367SOL     OW36736   0.586   1.186  14.643 -0.4646  0.0596 -0.1733
 8367SOL    HW136737   0.529   1.241  14.697 -0.9781 -0.4932 -0.1520
 8367SOL    HW236738   0.674   1.215  14.665  0.2689 -0.1599 -2.8244
 8368SOL     OW36739   2.425   2.465  15.008  0.3865  0.0403  0.2124
 8368SOL    HW136740   2.373   2.507  15.076 -0.2797  0.4601 -0.5602
 8368SOL    HW236741   2.361   2.405  14.972 -0.0223  0.5868  0.0352
 8369SOL     OW36742   2.477   3.373   5.706  0.3754 -0.3544 -0.2330
 8369SOL    HW136743   2.430   3.429   5.768 -0.9383 -1.5745 -0.1230
 8369SOL    HW236744   2.507   3.315   5.776  0.5072 -0.5868 -0.4832
 8370SOL     OW36745   0.598   0.079   3.664 -0.2618 -0.3571  0.5555
 8370SOL    HW136746   0.656   0.113   3.597  0.8910 -1.0557  1.1943
 8370SOL    HW236747   0.516   0.126   3.653  0.2203  0.5252  0.7033
 8371SOL     OW36748   2.485   0.036   9.202  0.1651  0.3969  0.4929
 8371SOL    HW136749   2.554   0.033   9.268 -1.6678  3.5487  2.5529
 8371SOL    HW236750   2.518   4.716   9.130 -0.2994  1.8573 -0.8092
 8372SOL     OW36751   2.327   2.139   3.910  0.0926  0.3090 -0.2894
 8372SOL    HW136752   2.335   2.129   4.005  0.0949 -1.0348 -0.4308
 8372SOL    HW236753   2.232   2.144   3.899  0.0618 -0.2493 -0.2738
 8373SOL     OW36754   0.121   4.426   9.533  0.1818 -0.3004  0.3354
 8373SOL    HW136755   0.132   4.425   9.438  1.4951 -1.7997  0.4955
 8373SOL    HW236756   0.183   4.355   9.551  1.2497  0.7866  0.9770
 8374SOL     OW36757   2.297   1.707   1.378  0.3244 -0.1164  0.1315
 8374SOL    HW136758   2.275   1.774   1.313  0.2517  0.7954  1.1015
 8374SOL    HW236759   2.219   1.709   1.433 -1.3660 -0.7576 -2.2063
 8375SOL     OW36760   3.210   0.691   2.746  0.1882 -0.1715  0.1037
 8375SOL    HW136761   3.304   0.702   2.757  0.1736  0.3680 -0.3637
 8375SOL    HW236762   3.181   0.769   2.699  0.5963 -1.4648 -2.3116
 8376SOL     OW36763   0.594   4.163   9.332 -0.1371  0.2008 -0.0237
 8376SOL    HW136764   0.548   4.079   9.339  2.3921 -1.1034  1.0336
 8376SOL    HW236765   0.687   4.143   9.328  0.0643  1.4064 -1.7266
 8377SOL     OW36766   3.524   0.449   6.224 -0.0825 -0.0726 -0.5562
 8377SOL    HW136767   3.602   0.418   6.270 -0.0867 -1.5535 -1.5212
 8377SOL    HW236768   3.490   0.366   6.189 -0.7780  0.4685 -1.1604
 8378SOL     OW36769   0.114   1.967   4.121  0.0980  0.1938  0.4399
 8378SOL    HW136770   0.092   2.059   4.105 -0.7189  0.2348  1.7768
 8378SOL    HW236771   0.209   1.959   4.121  0.2013  1.3600  0.9533
 8379SOL     OW36772   2.805   1.314  11.248 -0.0906  0.4300  0.5115
 8379SOL    HW136773   2.711   1.298  11.254 -0.1632  1.0912  1.0712
 8379SOL    HW236774   2.810   1.385  11.183  0.4006 -0.8489 -0.8593
 8380SOL     OW36775   2.985   2.148   3.710 -0.2997  0.9225 -0.2485
 8380SOL    HW136776   3.005   2.079   3.646 -1.5866  1.0265 -0.7712
 8380SOL    HW236777   2.988   2.101   3.793 -0.0527 -0.7111 -1.1730
 8381SOL     OW36778   3.804   0.491   3.346 -0.3162  0.3698  0.3651
 8381SOL    HW136779   3.861   0.418   3.321  0.2532  0.9195  0.0535
 8381SOL    HW236780   3.864   0.561   3.372 -0.9105  0.4651  1.4932
 8382SOL     OW36781   0.454   0.828   8.673  0.3723  0.3189 -0.1960
 8382SOL    HW136782   0.449   0.758   8.738 -1.4100  1.2930  0.7177
 8382SOL    HW236783   0.549   0.838   8.676  0.5502 -1.0896 -1.0230
 8383SOL     OW36784   2.786   4.310   0.655  0.3713 -0.1083  0.3088
 8383SOL    HW136785   2.724   4.346   0.719 -1.4715 -1.2011 -0.8566
 8383SOL    HW236786   2.814   4.391   0.614 -0.0259 -0.9006 -1.5209
 8384SOL     OW36787   2.944   2.054   4.296 -0.1482 -0.3238  0.0230
 8384SOL    HW136788   2.939   1.963   4.268  0.4531 -0.0833 -0.8578
 8384SOL    HW236789   3.039   2.059   4.292 -0.2393  1.4280 -0.0545
 8385SOL     OW36790   0.150   2.008   7.641 -0.7450 -0.4333  0.1581
 8385SOL    HW136791   0.138   2.096   7.677 -0.2402  0.2233 -1.2757
 8385SOL    HW236792   0.094   1.968   7.708  0.5024 -3.3561 -0.5479
 8386SOL     OW36793   1.165   3.740   6.563 -0.0130 -0.1446  0.6558
 8386SOL    HW136794   1.244   3.755   6.616  0.9015 -0.1819 -0.7026
 8386SOL    HW236795   1.172   3.813   6.502  1.0750  0.3514  1.3677
 8387SOL     OW36796   4.248   4.728  12.873 -0.6100  0.2126  0.1127
 8387SOL    HW136797   4.337   0.008  12.906 -0.6043  0.0557  0.1647
 8387SOL    HW236798   4.221   0.080  12.841 -0.5352  0.6184  1.1186
 8388SOL     OW36799   3.974   0.481  15.985  0.2181  0.1427  0.3732
 8388SOL    HW136800   3.984   0.544  15.914  0.9677 -0.2748  0.1045
 8388SOL    HW236801   3.880   0.485  16.000  0.1372  0.4747 -0.2163
 8389SOL     OW36802   1.253   4.666   5.983  0.4789  0.0129  0.0409
 8389SOL    HW136803   1.225   4.643   6.071  1.0179  1.5420  0.6084
 8389SOL    HW236804   1.198   0.008   5.968  0.9926  0.2830 -0.4767
 8390SOL     OW36805   2.488   2.056   2.354  0.1459 -0.0076 -0.2782
 8390SOL    HW136806   2.414   2.107   2.321 -0.0821 -0.5867 -0.6773
 8390SOL    HW236807   2.448   2.008   2.426 -1.4956  0.6269 -0.7512
 8391SOL     OW36808   4.631   4.385  15.347 -0.1044 -0.6346 -0.1612
 8391SOL    HW136809   4.663   4.312  15.400 -1.4610 -0.4795  0.8604
 8391SOL    HW236810   4.695   4.456  15.360 -0.6586  0.1849 -1.9702
 8392SOL     OW36811   2.624   2.281  15.069 -0.2760 -0.0640 -0.4560
 8392SOL    HW136812   2.590   2.249  15.153  2.7906 -4.0746 -0.7949
 8392SOL    HW236813   2.560   2.350  15.053 -0.5707  0.0169  1.0151
 8393SOL     OW36814   1.193   0.928  10.012 -0.1643 -0.6894 -0.3213
 8393SOL    HW136815   1.212   0.885   9.929  0.3061 -2.5469  0.7291
 8393SOL    HW236816   1.174   1.016   9.980 -1.3644 -0.5062  0.8731
 8394SOL     OW36817   1.508   0.156   6.731  0.1308 -0.4725 -0.0931
 8394SOL    HW136818   1.454   0.144   6.810 -0.2000  0.3674 -0.1926
 8394SOL    HW236819   1.443   0.127   6.667 -0.4398 -3.7835  1.9871
 8395SOL     OW36820   4.664   2.426  10.985  0.0479  0.0311 -0.0735
 8395SOL    HW136821   4.722   2.354  10.961 -0.1952 -0.6034  1.2429
 8395SOL    HW236822   4.628   2.453  10.900  0.4333 -1.2448 -0.6463
 8396SOL     OW36823   1.033   3.752   8.167  0.2898  0.0465  0.3646
 8396SOL    HW136824   1.030   3.752   8.071 -0.0060 -2.0804  0.3901
 8396SOL    HW236825   1.074   3.671   8.195 -1.7493 -0.2085  2.6324
 8397SOL     OW36826   3.570   2.073  11.487  0.4281 -0.3451  0.7902
 8397SOL    HW136827   3.492   2.051  11.538  0.4608 -0.9496  0.5776
 8397SOL    HW236828   3.635   2.046  11.551  1.1334  0.9850  0.6307
 8398SOL     OW36829   2.815   4.000   4.339  0.3528 -0.2918 -0.0461
 8398SOL    HW136830   2.881   3.998   4.409 -1.9728 -1.1469  2.1148
 8398SOL    HW236831   2.778   4.081   4.373  0.0085  0.0514 -1.2385
 8399SOL     OW36832   3.842   1.471   4.858  0.3481 -0.5480 -0.3332
 8399SOL    HW136833   3.895   1.550   4.869  0.7361 -0.7916 -0.4510
 8399SOL    HW236834   3.753   1.494   4.885  0.4239 -0.1533 -0.4165
 8400SOL     OW36835   3.093   0.352  10.134 -0.0864 -0.1923 -0.6325
 8400SOL    HW136836   3.014   0.405  10.123 -0.7364 -0.7186  1.4703
 8400SOL    HW236837   3.141   0.413  10.190 -0.5829  0.3770 -0.8292
 8401SOL     OW36838   2.927   2.396  12.784  0.2973  0.3944  0.1828
 8401SOL    HW136839   3.007   2.350  12.760 -0.7931 -0.5836 -1.5754
 8401SOL    HW236840   2.962   2.479  12.819 -1.0275  1.4203 -0.9283
 8402SOL     OW36841   3.413   1.117   6.303  0.1781  0.6603  0.3849
 8402SOL    HW136842   3.499   1.125   6.260  0.6243  3.2627  1.7649
 8402SOL    HW236843   3.382   1.207   6.305  3.7004  1.8207  2.4302
 8403SOL     OW36844   2.658   0.034  16.679  0.4228 -0.1551  0.1023
 8403SOL    HW136845   2.728   0.060  16.618 -1.1583  1.6533 -0.9376
 8403SOL    HW236846   2.691   0.045  16.768  1.8224 -3.0792 -0.0520
 8404SOL     OW36847   3.340   4.542   3.143 -0.3781  0.1652 -0.2570
 8404SOL    HW136848   3.422   4.503   3.171  0.2479 -0.0326 -2.3969
 8404SOL    HW236849   3.355   4.549   3.049 -0.4288 -0.6551 -0.3246
 8405SOL     OW36850   0.606   2.926   4.421 -0.4653 -0.0036 -0.1072
 8405SOL    HW136851   0.589   2.870   4.497 -1.9685  0.9819  0.2730
 8405SOL    HW236852   0.527   2.977   4.407 -2.1812 -2.3197  1.2290
 8406SOL     OW36853   2.345   1.932   5.139 -0.3988 -0.2184  0.3989
 8406SOL    HW136854   2.279   1.992   5.175  0.4108 -0.3936  2.2036
 8406SOL    HW236855   2.342   1.861   5.203 -0.7648 -0.4643  0.1081
 8407SOL     OW36856   3.205   2.349   8.625  0.4939 -0.3549  0.1324
 8407SOL    HW136857   3.205   2.405   8.548  1.1242  0.2160  0.5479
 8407SOL    HW236858   3.292   2.311   8.621  0.1538 -0.7959 -2.9550
 8408SOL     OW36859   4.288   2.836  13.323  0.6636  0.2849  0.4180
 8408SOL    HW136860   4.373   2.798  13.299  0.0608 -0.3698 -0.6587
 8408SOL    HW236861   4.320   2.909  13.376  0.2318  1.2232 -0.6196
 8409SOL     OW36862   1.392   3.183   6.263 -0.4312  0.3073 -0.4537
 8409SOL    HW136863   1.481   3.206   6.291 -0.6589  0.9216 -0.2348
 8409SOL    HW236864   1.372   3.093   6.286  0.0414  0.0444 -1.0640
 8410SOL     OW36865   4.439   1.779  10.879 -0.0636  0.2133  0.3492
 8410SOL    HW136866   4.497   1.841  10.924 -0.8449  2.1773 -1.3083
 8410SOL    HW236867   4.503   1.730  10.828  1.2386  1.8467  0.4157
 8411SOL     OW36868   3.211   4.291   0.792  0.0981 -0.0433 -0.1644
 8411SOL    HW136869   3.137   4.274   0.850  2.0286 -0.1037  2.3384
 8411SOL    HW236870   3.168   4.270   0.709  0.6782 -1.3852 -0.1365
 8412SOL     OW36871   1.817   1.160   8.682  0.2868 -0.2785  0.3185
 8412SOL    HW136872   1.886   1.120   8.629 -2.2811 -0.9042 -2.5226
 8412SOL    HW236873   1.835   1.252   8.666  0.3560 -0.1505  1.1243
 8413SOL     OW36874   0.922   1.660   7.254 -0.3974 -0.1105  0.3517
 8413SOL    HW136875   0.876   1.744   7.248 -0.6830 -0.4521 -2.4797
 8413SOL    HW236876   0.984   1.665   7.181  2.1917  2.1135  2.7235
 8414SOL     OW36877   2.807   2.034   2.037  0.3633  0.3596 -0.3698
 8414SOL    HW136878   2.739   2.101   2.044 -1.0297 -1.1516  0.6564
 8414SOL    HW236879   2.861   2.065   1.964 -0.0877 -1.4860 -1.4777
 8415SOL     OW36880   4.180   0.831   6.360 -0.2113 -0.3131 -0.4451
 8415SOL    HW136881   4.246   0.768   6.387 -0.4952 -1.7349 -3.0774
 8415SOL    HW236882   4.103   0.804   6.409 -0.8410  1.5654 -0.3928
 8416SOL     OW36883   0.311   0.594   3.408  0.5862 -0.2128 -0.2510
 8416SOL    HW136884   0.323   0.689   3.404 -0.2829 -0.0797  0.2368
 8416SOL    HW236885   0.383   0.564   3.464  0.0541  0.4364  0.7799
 8417SOL     OW36886   4.721   3.053   8.463 -0.2083 -0.3035  0.0285
 8417SOL    HW136887   4.643   3.060   8.519  0.4824  1.3454  0.7781
 8417SOL    HW236888   0.013   2.964   8.486  0.1379  0.1565  1.4481
 8418SOL     OW36889   3.864   1.229   5.310  0.0306 -0.3804 -0.8585
 8418SOL    HW136890   3.905   1.167   5.370  1.7102  0.8367 -0.7439
 8418SOL    HW236891   3.901   1.195   5.228  0.1893 -1.7170 -0.2336
 8419SOL     OW36892   4.015   4.218   9.373 -0.0051 -0.8181 -0.1551
 8419SOL    HW136893   3.986   4.181   9.290  2.7403 -0.1893 -1.3810
 8419SOL    HW236894   3.939   4.265   9.408  1.6212  1.6525  0.0854
 8420SOL     OW36895   0.005   0.377   7.328  0.2741  0.1217  0.4052
 8420SOL    HW136896   4.680   0.451   7.338  0.5162  0.5050 -1.1186
 8420SOL    HW236897   0.009   0.341   7.417 -2.8997 -0.8745  0.1465
 8421SOL     OW36898   3.675   0.240   2.545 -0.3961 -0.2691  0.4851
 8421SOL    HW136899   3.590   0.229   2.502  0.0404 -1.4231 -0.0827
 8421SOL    HW236900   3.698   0.150   2.569 -1.3794 -0.6995 -0.1823
 8422SOL     OW36901   2.491   1.783   4.608 -0.2002 -0.0278  0.2815
 8422SOL    HW136902   2.519   1.874   4.618  0.3674  0.0524 -2.0163
 8422SOL    HW236903   2.531   1.754   4.690  1.3534 -0.4652 -0.6493
 8423SOL     OW36904   2.617   2.762   8.373 -0.2756 -0.2593 -0.2162
 8423SOL    HW136905   2.560   2.812   8.432  1.1446  0.5525  0.4794
 8423SOL    HW236906   2.581   2.791   8.289  1.1375 -2.5183 -1.5900
 8424SOL     OW36907   2.584   4.024   3.572  0.2913 -0.7025  0.1072
 8424SOL    HW136908   2.593   4.011   3.478  1.1731  0.9757 -0.0389
 8424SOL    HW236909   2.598   4.118   3.588  2.4080 -1.3746  2.1086
 8425SOL     OW36910   0.014   1.759   3.639 -0.0836  0.5965  0.4510
 8425SOL    HW136911   4.702   1.675   3.641  0.0252  0.5450  0.8217
 8425SOL    HW236912   0.033   1.763   3.732  0.5804 -0.5657  0.3636
 8426SOL     OW36913   3.841   1.631   2.319  0.2198  0.4999 -0.1907
 8426SOL    HW136914   3.849   1.614   2.225 -1.3757  1.0546 -0.4151
 8426SOL    HW236915   3.928   1.613   2.356 -0.1573 -0.2714  0.3188
 8427SOL     OW36916   0.017   3.917   2.363  0.1378  0.5149 -0.0009
 8427SOL    HW136917   4.698   3.949   2.291  0.6698  0.4580 -0.4184
 8427SOL    HW236918   0.104   3.957   2.356  0.2748  0.0656 -0.8485
 8428SOL     OW36919   4.606   3.178   9.672  0.1005 -0.4083  0.4014
 8428SOL    HW136920   4.601   3.217   9.760 -0.8943  1.1156 -0.3329
 8428SOL    HW236921   4.700   3.175   9.655 -0.1940  1.2673 -1.4611
 8429SOL     OW36922   2.836   0.553  15.702  0.4408 -0.7937 -0.3183
 8429SOL    HW136923   2.873   0.631  15.662 -0.6744  0.3279  0.8244
 8429SOL    HW236924   2.780   0.599  15.765  1.4294 -1.3188  0.9579
 8430SOL     OW36925   0.078   2.927   2.894 -0.0459 -0.0834 -0.0790
 8430SOL    HW136926   0.067   2.999   2.831  2.5999 -0.3538 -0.8773
 8430SOL    HW236927   0.168   2.951   2.918 -0.5503  1.6495  0.1204
 8431SOL     OW36928   3.296   1.190   8.047 -0.5625  0.2796  0.2663
 8431SOL    HW136929   3.210   1.204   8.085 -0.3520 -0.5266  1.0245
 8431SOL    HW236930   3.302   1.095   8.048  0.2302  0.3455  1.0363
 8432SOL     OW36931   2.552   3.490   6.966  0.6823  0.7773 -0.6700
 8432SOL    HW136932   2.584   3.492   7.056 -2.4029  0.1797  0.4190
 8432SOL    HW236933   2.635   3.521   6.929 -0.7929 -0.4774 -5.0303
 8433SOL     OW36934   1.544   0.710   8.748 -0.9404  0.2406 -0.2585
 8433SOL    HW136935   1.554   0.694   8.654 -2.1026 -2.2718  0.0347
 8433SOL    HW236936   1.565   0.803   8.755 -0.8513  0.3360 -1.7074
 8434SOL     OW36937   4.278   3.384   4.135 -0.0306 -0.3217  0.3391
 8434SOL    HW136938   4.283   3.479   4.145  0.0118 -0.1491 -1.3320
 8434SOL    HW236939   4.341   3.380   4.063 -1.4209  0.3111 -0.9220
 8435SOL     OW36940   3.434   4.143   2.311  0.1350  0.0415  0.2253
 8435SOL    HW136941   3.370   4.139   2.382 -0.4548  3.9218 -0.0647
 8435SOL    HW236942   3.490   4.070   2.333 -1.3172 -1.7041 -1.8199
 8436SOL     OW36943   0.731   0.806   0.631 -0.3725  0.3605  0.1831
 8436SOL    HW136944   0.685   0.728   0.663  0.3216 -0.2136 -0.2159
 8436SOL    HW236945   0.793   0.763   0.572 -0.3379  1.8001 -0.8284
 8437SOL     OW36946   3.878   1.904   0.394 -0.1787  0.0650  0.3066
 8437SOL    HW136947   3.813   1.877   0.329  2.0312  1.7479 -2.6415
 8437SOL    HW236948   3.899   1.825   0.443  0.7529 -0.6965 -1.3185
 8438SOL     OW36949   1.095   4.454  17.706  0.6180  0.4941  0.0829
 8438SOL    HW136950   1.012   4.410  17.718  0.1097  1.4790  0.1729
 8438SOL    HW236951   1.137   4.428   0.053 -0.6118 -0.4076  0.4218
 8439SOL     OW36952   1.142   1.825   9.386  0.2824  0.5536 -0.2637
 8439SOL    HW136953   1.128   1.883   9.461  0.1500  1.5702 -1.0893
 8439SOL    HW236954   1.226   1.852   9.349  0.0760  2.2637  0.5552
 8440SOL     OW36955   2.026   1.752   0.919 -0.2118  0.2562  0.0352
 8440SOL    HW136956   1.986   1.724   0.836 -1.3081 -1.1755  1.0467
 8440SOL    HW236957   1.988   1.682   0.972  1.0080 -0.8260 -0.4922
 8441SOL     OW36958   2.643   1.729  15.688 -0.5674 -0.2852 -0.1620
 8441SOL    HW136959   2.681   1.652  15.730 -1.0180 -1.4897 -1.9503
 8441SOL    HW236960   2.583   1.764  15.754  1.0111  0.2693  0.9668
 8442SOL     OW36961   1.485   4.411   8.288 -0.1140 -0.4504 -1.4423
 8442SOL    HW136962   1.560   4.398   8.346 -0.6636 -2.2974 -1.1409
 8442SOL    HW236963   1.444   4.325   8.300  0.3045 -0.2587  1.4614
 8443SOL     OW36964   4.483   1.123   8.545 -0.2586  0.2104 -0.5957
 8443SOL    HW136965   4.499   1.056   8.611  1.5394 -0.2370 -1.4550
 8443SOL    HW236966   4.566   1.171   8.537  0.5268 -1.3870 -2.3362
 8444SOL     OW36967   0.604   1.168  13.618 -0.0616  0.6857  0.2541
 8444SOL    HW136968   0.662   1.172  13.541 -0.6844  2.1344 -0.1340
 8444SOL    HW236969   0.586   1.261  13.632 -1.0186  0.4660  0.4653
 8445SOL     OW36970   0.908   1.308   4.708 -0.6060  0.0826  0.1538
 8445SOL    HW136971   0.824   1.315   4.662 -1.1764 -1.8741  0.8864
 8445SOL    HW236972   0.927   1.390   4.753  0.4667 -0.9593  1.6060
 8446SOL     OW36973   2.859   1.048  10.469  0.1820 -0.6476  0.3224
 8446SOL    HW136974   2.766   1.028  10.462  0.4246 -1.8561  0.4454
 8446SOL    HW236975   2.892   0.963  10.498  0.8234 -1.8632 -3.9294
 8447SOL     OW36976   0.989   2.974   9.226 -0.1867  0.1125  0.7510
 8447SOL    HW136977   0.944   3.029   9.162  2.3127  1.9769  0.5864
 8447SOL    HW236978   0.983   3.040   9.296 -2.3409  0.8724 -0.1404
 8448SOL     OW36979   4.705   0.979   3.437 -0.2945  0.4923  0.0344
 8448SOL    HW136980   0.061   1.009   3.434  0.3195 -0.9902  2.9290
 8448SOL    HW236981   4.679   1.034   3.511  0.9262 -0.7251  1.3706
 8449SOL     OW36982   3.569   0.055   9.317  0.2095  0.5252  0.0367
 8449SOL    HW136983   3.537   0.142   9.292 -1.9404 -0.0768  0.7097
 8449SOL    HW236984   3.596   0.031   9.228  3.6034 -2.0137  1.7734
 8450SOL     OW36985   2.699   3.183   8.607  0.1877  0.1205  0.1663
 8450SOL    HW136986   2.726   3.246   8.674  1.0790 -2.1804  1.9443
 8450SOL    HW236987   2.606   3.206   8.601 -0.2662 -1.1179  2.4442
 8451SOL     OW36988   0.504   2.869   9.197  0.5989  0.2322 -0.4949
 8451SOL    HW136989   0.505   2.888   9.103  0.1604  0.8459 -0.3794
 8451SOL    HW236990   0.577   2.807   9.196  2.3427  2.2842  0.8480
 8452SOL     OW36991   2.113   0.149  10.977 -0.6653 -0.3403  0.0288
 8452SOL    HW136992   2.174   0.178  10.909 -0.1942 -1.3591  0.0260
 8452SOL    HW236993   2.050   0.094  10.930 -0.4585 -0.6202  0.0824
 8453SOL     OW36994   0.472   4.260   6.176  0.1556 -0.0324 -0.1401
 8453SOL    HW136995   0.472   4.195   6.247 -2.0933 -0.4379 -0.5127
 8453SOL    HW236996   0.385   4.297   6.184 -0.3450 -1.1070 -0.6391
 8454SOL     OW36997   2.978   4.049   1.560  0.0109  0.6353 -0.2015
 8454SOL    HW136998   2.998   4.095   1.479  2.8270 -0.5761 -0.1953
 8454SOL    HW236999   3.012   3.962   1.540 -0.8025  0.2327  0.1670
 8455SOL     OW37000   1.792   0.766   8.228  0.4253 -0.4871 -0.3301
 8455SOL    HW137001   1.777   0.801   8.140 -0.1268 -0.4633 -0.2237
 8455SOL    HW237002   1.834   0.683   8.206 -0.0603 -0.4243 -1.4873
 8456SOL     OW37003   4.372   0.428  10.033 -0.3244 -0.1092 -0.1663
 8456SOL    HW137004   4.378   0.500  10.096  0.4629 -2.0540  2.0242
 8456SOL    HW237005   4.436   0.367  10.070  0.5264 -0.8887 -2.9231
 8457SOL     OW37006   3.082   1.660   1.346  0.2886 -0.2820  0.0452
 8457SOL    HW137007   3.148   1.710   1.297 -2.1295  0.6693 -2.2362
 8457SOL    HW237008   3.000   1.678   1.300 -0.3059 -0.3432  1.0818
 8458SOL     OW37009   3.836   1.762   7.282 -0.2192  1.0013 -0.1975
 8458SOL    HW137010   3.815   1.726   7.369  0.1597  0.0121 -0.5098
 8458SOL    HW237011   3.751   1.786   7.247 -0.8989 -0.8444  0.1952
 8459SOL     OW37012   4.695   2.583   3.580  0.5012  0.2765 -0.3375
 8459SOL    HW137013   4.726   2.533   3.504  2.7472 -0.9495  1.3864
 8459SOL    HW237014   4.692   2.671   3.542  0.2015 -0.0001 -0.9484
 8460SOL     OW37015   3.322   4.356   9.439 -0.3650 -0.0329  0.8037
 8460SOL    HW137016   3.401   4.360   9.493  0.0779  1.5378  0.0264
 8460SOL    HW237017   3.262   4.367   9.513 -1.5680  1.5181 -0.4072
 8461SOL     OW37018   0.429   2.681   7.311  0.2041  0.0652  0.4780
 8461SOL    HW137019   0.364   2.729   7.363  0.8216  0.8718  0.5014
 8461SOL    HW237020   0.364   2.639   7.254 -0.8409 -2.2174  3.3018
 8462SOL     OW37021   1.721   1.310   1.290 -0.0173  0.5131 -0.1431
 8462SOL    HW137022   1.706   1.262   1.209 -0.3910  0.8229 -0.2600
 8462SOL    HW237023   1.700   1.398   1.257  0.3358 -0.0451 -1.8720
 8463SOL     OW37024   0.918   2.950   8.588 -0.2693  0.4982 -1.0549
 8463SOL    HW137025   0.976   3.012   8.543  1.8566 -1.3932 -0.9158
 8463SOL    HW237026   0.928   2.976   8.680  0.2627 -4.1648  0.1593
 8464SOL     OW37027   0.511   3.337   5.504 -0.4445 -0.4758 -0.0238
 8464SOL    HW137028   0.541   3.250   5.530  1.1505  0.2981  0.6914
 8464SOL    HW237029   0.588   3.388   5.479 -1.7928  1.0671 -1.0168
 8465SOL     OW37030   0.557   3.950   1.919 -0.4571  0.2615 -0.1312
 8465SOL    HW137031   0.515   3.923   2.001 -1.6901  1.1762 -0.4565
 8465SOL    HW237032   0.649   3.938   1.943 -0.8708 -0.6386  1.0335
 8466SOL     OW37033   0.481   0.752   3.101 -0.4685 -0.1982  0.0411
 8466SOL    HW137034   0.428   0.677   3.072 -0.6464  0.7694 -2.0863
 8466SOL    HW237035   0.418   0.821   3.118 -2.7166 -2.4960  1.0453
 8467SOL     OW37036   1.187   2.919   1.281  0.0041  0.1229  0.5133
 8467SOL    HW137037   1.164   2.826   1.282 -1.7309  0.5634  0.4679
 8467SOL    HW237038   1.281   2.923   1.262 -0.3578  3.2916 -0.6015
 8468SOL     OW37039   2.665   3.242  14.094  0.1365  0.5526  0.1226
 8468SOL    HW137040   2.735   3.297  14.131  0.4177  1.4509 -1.7221
 8468SOL    HW237041   2.596   3.308  14.089 -1.1048 -0.6775  0.9925
 8469SOL     OW37042   3.061   4.251   1.310 -1.1402  0.1420  0.2773
 8469SOL    HW137043   3.043   4.318   1.245 -0.4423 -0.5012 -0.5706
 8469SOL    HW237044   3.155   4.233   1.308 -1.3928 -1.4524  2.5050
 8470SOL     OW37045   3.033   0.851  16.330  0.4828 -0.2122  0.0804
 8470SOL    HW137046   3.081   0.929  16.359 -0.6556  0.2468  0.7668
 8470SOL    HW237047   2.998   0.824  16.415 -0.6141 -2.9111 -1.2315
 8471SOL     OW37048   2.643   3.663   6.504  0.1156 -0.3711 -0.2082
 8471SOL    HW137049   2.682   3.709   6.430 -0.3378  0.0233 -0.2062
 8471SOL    HW237050   2.557   3.707   6.510  0.8298  0.7368  2.1277
 8472SOL     OW37051   0.265   1.270  15.123  0.5320 -0.3045  0.4258
 8472SOL    HW137052   0.188   1.302  15.075  1.5576  1.6617  0.1206
 8472SOL    HW237053   0.260   1.316  15.207  2.1942 -0.9598  0.8858
 8473SOL     OW37054   3.660   4.242  17.129  0.6430 -0.5581  0.8123
 8473SOL    HW137055   3.703   4.322  17.099  0.3658 -0.1534  1.5016
 8473SOL    HW237056   3.605   4.268  17.203  0.8263  0.5361  0.5695
 8474SOL     OW37057   1.095   3.736  14.790  0.0079 -0.2925  0.0871
 8474SOL    HW137058   1.085   3.697  14.703 -1.8278  1.9627 -0.7173
 8474SOL    HW237059   1.022   3.690  14.832  1.3191 -1.1179  1.4602
 8475SOL     OW37060   1.443   2.799   9.251 -0.2602 -0.3068 -0.8591
 8475SOL    HW137061   1.463   2.717   9.297 -1.3402 -2.2281 -3.8072
 8475SOL    HW237062   1.379   2.766   9.188 -1.8663  0.2366  0.4821
 8476SOL     OW37063   1.143   0.218   0.980 -0.8320  0.1676 -0.1432
 8476SOL    HW137064   1.183   0.182   1.060 -1.9309 -1.0973 -0.1580
 8476SOL    HW237065   1.179   0.158   0.916 -0.4045 -1.0968  1.2781
 8477SOL     OW37066   4.649   4.551   6.772  0.2447  0.6971  0.0708
 8477SOL    HW137067   4.652   4.513   6.685 -0.1139 -1.1728  0.8797
 8477SOL    HW237068   4.629   4.473   6.824 -0.4396  0.2892 -0.8202
 8478SOL     OW37069   3.272   0.879   7.301  0.1099 -0.0612  0.0944
 8478SOL    HW137070   3.368   0.873   7.304  0.1737  1.0445  0.2085
 8478SOL    HW237071   3.260   0.953   7.361  1.4009 -0.2947  0.6520
 8479SOL     OW37072   1.631   2.903   3.056  0.0309  0.2575 -0.8356
 8479SOL    HW137073   1.602   2.936   3.141  1.4613  3.4585 -1.6223
 8479SOL    HW237074   1.654   2.988   3.019 -0.9548 -0.4619 -3.1384
 8480SOL     OW37075   2.807   3.516  11.050  0.3557  0.5953 -0.3306
 8480SOL    HW137076   2.829   3.478  10.965 -1.1905  0.0940 -0.5115
 8480SOL    HW237077   2.885   3.498  11.102 -0.5999 -1.3596  0.4296
 8481SOL     OW37078   1.879   3.047   6.581  0.2467  0.0497  0.4369
 8481SOL    HW137079   1.910   3.105   6.511  0.9759  0.0727  0.7845
 8481SOL    HW237080   1.820   3.107   6.626 -0.4956  0.5896 -1.2304
 8482SOL     OW37081   4.107   0.642  13.389  0.2440  0.0391  0.5411
 8482SOL    HW137082   4.023   0.595  13.390  0.3337 -0.1485 -0.4133
 8482SOL    HW237083   4.174   0.573  13.385 -0.7152 -1.0026  2.4378
 8483SOL     OW37084   4.496   3.749  13.918  0.0050  0.0533  0.6774
 8483SOL    HW137085   4.441   3.817  13.957 -1.3830 -1.2973  1.0869
 8483SOL    HW237086   4.434   3.680  13.895 -0.2472  0.6194 -0.3073
 8484SOL     OW37087   2.235   3.059   3.031 -0.4003 -0.8384  0.4979
 8484SOL    HW137088   2.207   2.971   3.056 -1.2197 -0.2639  1.6290
 8484SOL    HW237089   2.291   3.083   3.105 -1.6236 -0.3060  1.2461
 8485SOL     OW37090   1.585   3.134   8.521 -0.6761 -0.0929  0.2471
 8485SOL    HW137091   1.639   3.137   8.442  0.6553 -0.0113  1.1730
 8485SOL    HW237092   1.512   3.077   8.496 -0.7118  1.0076 -2.1405
 8486SOL     OW37093   0.466   4.622  10.898 -0.0444  0.9944 -0.2345
 8486SOL    HW137094   0.503   4.645  10.812 -0.2220 -1.2094 -0.8997
 8486SOL    HW237095   0.390   4.680  10.905  0.0293  1.2185 -1.2944
 8487SOL     OW37096   2.280   2.574  15.196  0.1262 -0.0801  0.0531
 8487SOL    HW137097   2.214   2.505  15.206 -2.3435  2.0992 -1.4156
 8487SOL    HW237098   2.236   2.649  15.235 -0.3297 -0.5474  0.4256
 8488SOL     OW37099   2.596   0.463   2.315 -0.0979  0.3236  0.0382
 8488SOL    HW137100   2.662   0.508   2.367  0.3627 -0.6160  0.2562
 8488SOL    HW237101   2.646   0.410   2.253 -0.2203  0.1054  0.1272
 8489SOL     OW37102   2.218   4.407   5.712  0.9473  0.1325 -0.1081
 8489SOL    HW137103   2.192   4.450   5.794  1.9988 -1.1688  0.9032
 8489SOL    HW237104   2.143   4.420   5.655  0.3909  1.9857  1.0196
 8490SOL     OW37105   0.084   3.975  11.318 -0.8017 -0.1222  0.6581
 8490SOL    HW137106   0.145   3.972  11.392  1.4224 -1.7499 -1.2784
 8490SOL    HW237107   0.140   3.951  11.245 -1.0229  1.3965 -0.0214
 8491SOL     OW37108   3.615   0.139   6.927 -0.3708  0.0508  0.5872
 8491SOL    HW137109   3.617   0.227   6.965 -0.3038  1.0461 -1.6951
 8491SOL    HW237110   3.567   0.148   6.845 -0.4497  1.4381  0.7760
 8492SOL     OW37111   3.834   1.648   5.245 -0.1645  0.1356  0.3676
 8492SOL    HW137112   3.882   1.730   5.234 -0.7224  0.2284 -1.4204
 8492SOL    HW237113   3.895   1.589   5.290 -1.1615 -0.0311  1.5172
 8493SOL     OW37114   2.817   0.270   3.267 -0.5718 -0.2269  0.6233
 8493SOL    HW137115   2.890   0.242   3.322  0.6467 -0.0384 -0.9137
 8493SOL    HW237116   2.788   0.193   3.219 -0.1885 -0.2847  0.4849
 8494SOL     OW37117   4.337   3.551   2.901  0.2188  0.5858 -0.2412
 8494SOL    HW137118   4.325   3.585   2.989 -0.5113  1.9066 -0.8526
 8494SOL    HW237119   4.311   3.631   2.855 -1.1081  0.4985  0.3758
 8495SOL     OW37120   2.489   0.140   5.292 -0.0533 -0.4419  0.5648
 8495SOL    HW137121   2.559   0.190   5.249  0.1412 -0.2875  1.0614
 8495SOL    HW237122   2.538   0.097   5.362  0.4717  1.1368  1.1658
 8496SOL     OW37123   3.972   2.079  10.245 -0.0010  0.1546  0.3635
 8496SOL    HW137124   3.985   2.049  10.155  1.2832 -1.4727  1.0996
 8496SOL    HW237125   4.029   2.016  10.289  1.4793  1.2013 -0.0845
 8497SOL     OW37126   4.332   0.003   6.826  0.5788 -0.2523  0.1279
 8497SOL    HW137127   4.251   4.692   6.852  0.3343 -1.3903 -2.5292
 8497SOL    HW237128   4.298   0.042   6.745 -0.5020  1.3434  1.3421
 8498SOL     OW37129   3.669   0.075   2.148 -0.8367  0.4868  1.1680
 8498SOL    HW137130   3.694   4.719   2.165  0.0882  0.8161  1.5266
 8498SOL    HW237131   3.741   0.117   2.196  1.1052 -0.9035 -0.5441
 8499SOL     OW37132   3.353   1.337   3.071  0.2460  0.5179  0.1688
 8499SOL    HW137133   3.355   1.241   3.069 -1.0150  0.5102 -1.2235
 8499SOL    HW237134   3.432   1.350   3.124  0.8899  0.3701 -0.7664
 8500SOL     OW37135   4.664   1.195   1.695  0.0261  0.4211  1.3071
 8500SOL    HW137136   0.018   1.169   1.669 -1.4470 -1.6108 -1.7897
 8500SOL    HW237137   4.656   1.143   1.774 -0.2127 -1.3985  0.0854
 8501SOL     OW37138   1.825   3.124  14.266 -0.3604  0.3598 -0.1889
 8501SOL    HW137139   1.874   3.046  14.293  2.3261  1.8710 -0.7053
 8501SOL    HW237140   1.893   3.191  14.262 -1.4402  1.6920  3.6207
 8502SOL     OW37141   1.174   1.199   2.846  0.4152 -0.4458  0.4531
 8502SOL    HW137142   1.261   1.208   2.808  0.2178 -0.3673  0.0225
 8502SOL    HW237143   1.193   1.251   2.924  1.1818 -1.6528  1.0587
 8503SOL     OW37144   3.536   4.463   8.053 -0.3453  0.1426 -0.2459
 8503SOL    HW137145   3.557   4.370   8.060  3.0075  0.8183 -1.2579
 8503SOL    HW237146   3.493   4.460   7.967  1.0483  1.8816 -1.0044
 8504SOL     OW37147   2.400   3.510   3.701 -0.3134 -0.2185 -0.8106
 8504SOL    HW137148   2.474   3.465   3.660  0.5672  0.7570 -0.2850
 8504SOL    HW237149   2.383   3.587   3.648 -1.4761  0.5612  0.6928
 8505SOL     OW37150   3.914   2.681   6.133  0.5497  0.4911  0.6115
 8505SOL    HW137151   3.950   2.743   6.070  1.2826 -0.6535 -0.0947
 8505SOL    HW237152   3.979   2.677   6.202  0.7739 -1.7764  0.2641
 8506SOL     OW37153   4.378   1.857   4.393 -0.0720 -0.1377  0.5074
 8506SOL    HW137154   4.460   1.855   4.344 -1.2172 -1.1599 -1.3838
 8506SOL    HW237155   4.354   1.764   4.398  0.6224 -0.3034  0.7464
 8507SOL     OW37156   4.030   2.222   2.190 -0.2476 -0.2611  0.6917
 8507SOL    HW137157   4.083   2.169   2.249  0.3460 -4.0171 -3.2574
 8507SOL    HW237158   4.061   2.194   2.104  1.1570 -1.2853  1.5246
 8508SOL     OW37159   1.687   1.533   2.034 -0.6296  0.5918  0.3475
 8508SOL    HW137160   1.596   1.531   2.066 -0.3606  0.7606  1.1152
 8508SOL    HW237161   1.677   1.474   1.959  0.7937 -1.0038  1.4244
 8509SOL     OW37162   1.045   4.121   6.986 -0.3095  0.3015  0.1764
 8509SOL    HW137163   1.134   4.157   6.985 -0.0867 -0.2479  0.1841
 8509SOL    HW237164   1.010   4.168   7.062 -0.6205  1.5643 -0.7480
 8510SOL     OW37165   0.277   2.646   5.973  0.1900 -0.1412 -0.1255
 8510SOL    HW137166   0.209   2.701   5.936 -0.4460 -0.0812  1.1371
 8510SOL    HW237167   0.352   2.696   5.941  0.6283 -1.3853 -1.0463
 8511SOL     OW37168   1.886   2.692   0.387 -0.4690 -0.3097 -0.1741
 8511SOL    HW137169   1.944   2.681   0.463 -1.9780 -0.2608  0.9823
 8511SOL    HW237170   1.955   2.719   0.326 -1.5378  0.9187 -0.8296
 8512SOL     OW37171   4.647   3.673   8.743  0.0844  0.7317  0.1855
 8512SOL    HW137172   4.566   3.624   8.727 -0.1828  0.5066  2.1478
 8512SOL    HW237173   4.669   3.634   8.828  0.1532 -1.1112 -0.6744
 8513SOL     OW37174   4.204   1.642   8.804 -0.1760 -0.1511  0.3072
 8513SOL    HW137175   4.114   1.676   8.809  0.1280  0.6397  0.4853
 8513SOL    HW237176   4.190   1.563   8.753 -0.2865 -0.6397  1.1000
 8514SOL     OW37177   1.674   0.639   6.130  0.4083 -0.2000  0.4772
 8514SOL    HW137178   1.747   0.621   6.070  0.3061  0.3004  0.1991
 8514SOL    HW237179   1.686   0.583   6.206 -0.7525 -1.9541 -0.6142
 8515SOL     OW37180   1.784   3.159  11.076  0.3899 -0.3464  0.3918
 8515SOL    HW137181   1.841   3.218  11.125  0.8727  1.0733 -1.9190
 8515SOL    HW237182   1.738   3.113  11.147 -1.5892 -1.2283 -1.4667
 8516SOL     OW37183   4.715   1.227   6.640 -0.2028 -0.4141  0.3331
 8516SOL    HW137184   4.686   1.219   6.549  0.9215 -2.3713  0.1615
 8516SOL    HW237185   0.075   1.240   6.634 -0.3651  0.1442 -0.9703
 8517SOL     OW37186   4.713   3.995   3.083  0.3036 -0.2247  0.0587
 8517SOL    HW137187   0.045   3.929   3.105  1.6136  0.9397 -0.4357
 8517SOL    HW237188   4.665   3.986   3.166 -0.3206 -1.7915 -0.4636
 8518SOL     OW37189   0.344   1.423   3.184  0.3604  0.0680  0.6801
 8518SOL    HW137190   0.288   1.481   3.133 -0.2631 -1.2243 -0.1032
 8518SOL    HW237191   0.424   1.418   3.133  1.2502  2.7866  1.7933
 8519SOL     OW37192   0.580   3.417   6.016  0.2559 -0.0237 -0.2880
 8519SOL    HW137193   0.598   3.478   6.088 -1.9556 -1.2599  1.2740
 8519SOL    HW237194   0.562   3.477   5.943 -4.5638  0.3654  1.2770
 8520SOL     OW37195   0.595   1.611   2.902 -0.6033  0.2318  0.0657
 8520SOL    HW137196   0.655   1.658   2.960 -1.3716  1.7646 -0.3581
 8520SOL    HW237197   0.557   1.552   2.967  2.5211 -1.9604 -0.1126
 8521SOL     OW37198   2.358   4.468   6.645 -0.0182  0.0453  0.5465
 8521SOL    HW137199   2.303   4.468   6.723 -1.8899  0.0485 -0.7856
 8521SOL    HW237200   2.443   4.442   6.681 -0.2370 -0.9427  0.3357
 8522SOL     OW37201   0.281   0.613  12.388  0.1496 -0.2582  0.1747
 8522SOL    HW137202   0.245   0.701  12.378 -0.5421 -0.3293  2.0877
 8522SOL    HW237203   0.342   0.608  12.314  1.1931  0.4778  0.9943
 8523SOL     OW37204   0.290   4.055   2.336 -0.4748  0.3923  0.4748
 8523SOL    HW137205   0.328   4.043   2.249  1.4159  1.2372  1.1761
 8523SOL    HW237206   0.351   4.124   2.365 -0.3411  0.9087 -1.0324
 8524SOL     OW37207   1.843   0.484   8.223  0.0192 -0.0346  0.1481
 8524SOL    HW137208   1.842   0.412   8.161  0.0948  1.3808 -1.4909
 8524SOL    HW237209   1.934   0.480   8.254  0.6967  0.8607 -1.7424
 8525SOL     OW37210   4.190   1.361   7.790 -0.1521  0.3316 -0.3957
 8525SOL    HW137211   4.168   1.319   7.707  1.2349 -0.6826 -0.2513
 8525SOL    HW237212   4.139   1.314   7.856 -0.9533  0.8260 -0.6588
 8526SOL     OW37213   4.232   3.735  14.823 -0.7486  0.2051 -0.1336
 8526SOL    HW137214   4.248   3.689  14.906  0.5916  2.9413  1.1268
 8526SOL    HW237215   4.320   3.714  14.791 -0.0400  2.1137  0.5122
 8527SOL     OW37216   0.316   3.141  10.661 -0.3534  0.0419  0.2721
 8527SOL    HW137217   0.351   3.229  10.647  1.1051 -1.0589 -3.0041
 8527SOL    HW237218   0.276   3.131  10.574 -0.1133 -1.2669  0.3132
 8528SOL     OW37219   0.590   2.085  16.293  0.4473 -0.5881  0.1736
 8528SOL    HW137220   0.665   2.095  16.235 -0.3107 -1.1382 -0.8905
 8528SOL    HW237221   0.594   1.999  16.333  1.5735 -0.0919  1.1332
 8529SOL     OW37222   1.953   2.627   3.603 -0.2567  0.0801  0.0735
 8529SOL    HW137223   1.866   2.642   3.639  0.4188  1.5131  1.1439
 8529SOL    HW237224   1.939   2.541   3.564  1.6070  0.6588 -1.8988
 8530SOL     OW37225   2.576   1.229  16.578 -0.3434  0.5444 -0.6465
 8530SOL    HW137226   2.622   1.150  16.605 -1.6777 -0.5542 -1.6251
 8530SOL    HW237227   2.646   1.294  16.587 -1.6557  1.7109  1.1001
 8531SOL     OW37228   0.442   4.714  14.247 -0.0079  0.0827  0.2282
 8531SOL    HW137229   0.417   4.622  14.237  2.1015 -0.5915  1.3510
 8531SOL    HW237230   0.403   4.726  14.333  2.9940  2.9902  1.1964
 8532SOL     OW37231   2.764   3.537   9.918  0.0176 -0.0470 -0.4015
 8532SOL    HW137232   2.713   3.459   9.941 -0.6316 -0.5786 -3.7088
 8532SOL    HW237233   2.827   3.501   9.855  0.5685  0.9277 -0.4045
 8533SOL     OW37234   2.807   4.576   3.372 -0.0222 -0.1243 -0.0393
 8533SOL    HW137235   2.820   4.517   3.298 -0.2148 -0.1010 -0.0899
 8533SOL    HW237236   2.893   4.579   3.414 -0.3199  0.7603  0.5019
 8534SOL     OW37237   0.702   1.886   8.360  0.4154 -0.3385  0.0631
 8534SOL    HW137238   0.791   1.920   8.373  0.8413 -0.7682 -1.8186
 8534SOL    HW237239   0.672   1.949   8.294 -1.0599  1.4736  2.4634
 8535SOL     OW37240   1.279   1.523  12.626 -0.6054 -0.0353 -0.6771
 8535SOL    HW137241   1.303   1.480  12.708  0.4778 -1.0527 -1.5276
 8535SOL    HW237242   1.361   1.527  12.577  1.3283 -1.0654  2.4489
 8536SOL     OW37243   1.000   3.774   9.753 -0.7190 -0.2310 -0.5475
 8536SOL    HW137244   0.953   3.833   9.812  2.0271  1.5943 -0.2261
 8536SOL    HW237245   1.067   3.836   9.724  0.9670 -1.8090 -0.0195
 8537SOL     OW37246   4.527   1.204   4.880  0.2919 -0.2935  0.0268
 8537SOL    HW137247   4.526   1.276   4.942 -0.0355 -0.8731  0.6934
 8537SOL    HW237248   4.591   1.143   4.917 -1.1381 -2.9325 -1.8000
 8538SOL     OW37249   0.313   4.180  14.761 -0.7422 -0.1053  0.0331
 8538SOL    HW137250   0.241   4.152  14.705 -1.3274  1.9312 -0.2358
 8538SOL    HW237251   0.284   4.258  14.809  3.7027  0.9368  1.0622
 8539SOL     OW37252   2.792   0.469   9.593 -0.2617  0.4824 -0.0175
 8539SOL    HW137253   2.730   0.525   9.639 -0.0898  0.0243  0.7691
 8539SOL    HW237254   2.873   0.519   9.597 -0.4541  0.7853  0.0814
 8540SOL     OW37255   4.120   2.617   3.656  0.4558 -0.0499 -0.3012
 8540SOL    HW137256   4.153   2.663   3.733  0.7391 -3.0681  1.3878
 8540SOL    HW237257   4.054   2.567   3.704  1.7952 -1.2259  0.3137
 8541SOL     OW37258   2.114   2.811   4.661  0.0761  0.0028 -0.5389
 8541SOL    HW137259   2.157   2.745   4.608  0.5401 -1.0670  1.1463
 8541SOL    HW237260   2.035   2.838   4.613  0.9499  2.8696 -0.3858
 8542SOL     OW37261   3.486   2.960   3.753 -0.2382 -0.1658 -0.2519
 8542SOL    HW137262   3.462   2.982   3.843 -2.6786 -0.6576 -0.7853
 8542SOL    HW237263   3.444   3.035   3.711 -1.6021 -0.6040  0.3119
 8543SOL     OW37264   1.090   0.135   1.319 -0.0392  0.7047  0.3919
 8543SOL    HW137265   1.174   0.123   1.273 -0.4177  1.5496 -0.5475
 8543SOL    HW237266   1.073   0.043   1.337  2.9853  0.4015  1.7797
 8544SOL     OW37267   2.845   4.593   1.325 -0.0870 -0.0048 -0.8355
 8544SOL    HW137268   2.765   4.611   1.374  0.6623  2.6574 -0.5806
 8544SOL    HW237269   2.894   4.673   1.340  1.6291 -1.5029  1.5564
 8545SOL     OW37270   0.520   1.510  14.975  0.1132 -0.0682  0.1668
 8545SOL    HW137271   0.521   1.414  14.979 -2.0614 -0.0949  0.0813
 8545SOL    HW237272   0.511   1.514  14.879  0.6469 -0.4093  0.0992
 8546SOL     OW37273   4.328   3.289   9.230 -0.2440 -0.3870 -0.6843
 8546SOL    HW137274   4.387   3.302   9.304 -0.8637  0.8155 -0.3966
 8546SOL    HW237275   4.261   3.234   9.270 -0.7624  1.1786  0.6360
 8547SOL     OW37276   2.016   4.514   1.887 -0.3487  0.5338 -0.0931
 8547SOL    HW137277   2.038   4.568   1.811 -2.4220 -0.0534 -1.0987
 8547SOL    HW237278   1.985   4.585   1.944 -0.9116  1.7075 -1.8273
 8548SOL     OW37279   0.851   0.950   8.016  0.6689  0.6160  0.4081
 8548SOL    HW137280   0.872   1.041   7.997 -1.2458  1.2960  1.5986
 8548SOL    HW237281   0.759   0.955   8.041  0.5613  2.1100 -0.3058
 8549SOL     OW37282   4.722   3.946   9.945  0.0395 -0.8459  0.0448
 8549SOL    HW137283   4.637   3.917   9.911 -0.3866 -0.0374  0.4150
 8549SOL    HW237284   4.716   4.040   9.927  1.9045 -0.3776  1.9289
 8550SOL     OW37285   0.167   2.645   3.195 -0.3490 -0.8298  0.0101
 8550SOL    HW137286   0.147   2.606   3.280  1.4247  2.1924  1.8260
 8550SOL    HW237287   0.261   2.660   3.201 -0.4307  0.2121 -1.3036
 8551SOL     OW37288   2.886   0.762   5.927 -0.0732 -0.0468  0.0547
 8551SOL    HW137289   2.833   0.694   5.885  0.4985  0.2523 -1.1598
 8551SOL    HW237290   2.968   0.737   5.885  0.9276  0.0452  1.9552
 8552SOL     OW37291   0.293   0.613   0.801  0.4772 -0.7867 -0.0248
 8552SOL    HW137292   0.255   0.537   0.757  0.8807 -0.1358 -1.5198
 8552SOL    HW237293   0.210   0.656   0.820 -0.6303 -2.4216 -1.0686
 8553SOL     OW37294   1.979   0.536   4.194  0.2386 -0.5874  0.1831
 8553SOL    HW137295   1.903   0.591   4.176  1.8170  2.1960  1.9940
 8553SOL    HW237296   2.034   0.568   4.122  0.5365 -1.3399  0.0755
 8554SOL     OW37297   4.253   2.857  17.591  0.1675 -0.0059  0.2437
 8554SOL    HW137298   4.265   2.950  17.608  0.4239 -0.1609  0.8929
 8554SOL    HW237299   4.174   2.864  17.537 -0.8891  1.0082  1.9334
 8555SOL     OW37300   1.567   4.530   8.064 -0.2263  0.0078  0.0536
 8555SOL    HW137301   1.549   4.497   8.152 -0.0317  0.7645  0.3846
 8555SOL    HW237302   1.553   4.448   8.017 -0.0564  1.0713 -1.8194
 8556SOL     OW37303   4.196   4.146   5.788 -0.5468 -0.1119  0.1869
 8556SOL    HW137304   4.257   4.075   5.766  0.1374 -0.5297  3.4138
 8556SOL    HW237305   4.243   4.195   5.856  0.0742  0.2883 -0.5305
 8557SOL     OW37306   2.595   2.938   4.288 -0.5947 -0.3449  0.0334
 8557SOL    HW137307   2.520   2.889   4.320 -0.3477  1.7335  3.8009
 8557SOL    HW237308   2.597   3.011   4.350  3.0132 -1.9323  1.7991
 8558SOL     OW37309   2.192   0.918   5.582  0.1010 -0.2579  0.4078
 8558SOL    HW137310   2.147   0.923   5.667  2.5943  0.1445  1.7186
 8558SOL    HW237311   2.263   0.981   5.592  0.4756 -0.5800 -0.2054
 8559SOL     OW37312   1.353   3.213   8.035  0.4032 -0.3782 -0.0919
 8559SOL    HW137313   1.402   3.252   8.108 -1.0267  2.0586 -0.4421
 8559SOL    HW237314   1.267   3.244   8.065  0.0946 -1.9418  0.6386
 8560SOL     OW37315   1.921   3.955   4.927 -0.1390 -0.2500 -0.2517
 8560SOL    HW137316   2.016   3.966   4.927 -0.3750  1.7989 -0.5380
 8560SOL    HW237317   1.898   4.047   4.940 -1.0621 -0.2262 -1.9973
 8561SOL     OW37318   1.662   1.323   8.048  0.2629 -0.2751 -0.0932
 8561SOL    HW137319   1.641   1.229   8.052  2.2523 -0.7014  0.9662
 8561SOL    HW237320   1.601   1.345   8.118  1.3409  1.2067  0.3733
 8562SOL     OW37321   3.468   2.243  15.830  0.1425 -0.4832 -0.3498
 8562SOL    HW137322   3.376   2.267  15.846  0.2129  0.7873 -1.9081
 8562SOL    HW237323   3.503   2.329  15.810  0.9407 -0.8754 -0.6030
 8563SOL     OW37324   4.307   0.298   3.132 -0.1284  0.3057  0.2180
 8563SOL    HW137325   4.348   0.333   3.211 -0.6991 -1.6698  1.3633
 8563SOL    HW237326   4.273   0.214   3.160 -1.1012  0.1415 -1.4421
 8564SOL     OW37327   1.462   0.057   3.591  0.2425 -0.3898 -0.3930
 8564SOL    HW137328   1.471   0.003   3.512 -2.1081 -0.2600 -0.7365
 8564SOL    HW237329   1.550   0.093   3.605 -0.0167  0.8815 -2.0308
 8565SOL     OW37330   4.498   3.182   1.142  0.5459 -0.1874  0.1631
 8565SOL    HW137331   4.593   3.194   1.133  0.4386 -1.4604 -2.3814
 8565SOL    HW237332   4.471   3.205   1.053  2.6206  1.8284  0.0366
 8566SOL     OW37333   3.345   3.637  16.358  0.1697 -0.2848 -0.0035
 8566SOL    HW137334   3.367   3.730  16.362  0.4072 -0.3434  0.0479
 8566SOL    HW237335   3.433   3.600  16.367  0.7015  1.0177  0.1598
 8567SOL     OW37336   4.587   2.358   5.513 -0.0708  0.2571  0.0949
 8567SOL    HW137337   4.652   2.290   5.492 -1.7213 -1.4016  0.3448
 8567SOL    HW237338   4.516   2.340   5.452  0.8950 -0.6552 -0.7651
 8568SOL     OW37339   2.638   4.009   7.261 -0.0188  0.2820  0.1104
 8568SOL    HW137340   2.601   4.003   7.350  0.7644 -0.4915  0.3756
 8568SOL    HW237341   2.632   3.915   7.242 -2.2595  0.9479 -2.5228
 8569SOL     OW37342   2.044   2.481  16.290 -0.5137 -0.0801  0.0484
 8569SOL    HW137343   2.065   2.556  16.346 -0.5315 -0.3141  0.3689
 8569SOL    HW237344   1.971   2.436  16.332 -1.3210  1.1133 -0.0787
 8570SOL     OW37345   0.151   3.142  15.963 -0.1250 -0.0115  0.3418
 8570SOL    HW137346   0.202   3.090  15.900 -2.2888  0.7499 -2.0645
 8570SOL    HW237347   0.102   3.070  16.003  1.2960 -1.5896 -0.7896
 8571SOL     OW37348   0.018   0.551   8.508 -0.0819 -0.4767  0.5732
 8571SOL    HW137349   4.709   0.473   8.473 -0.1108 -1.4330  2.7530
 8571SOL    HW237350   0.108   0.522   8.494 -0.3239  0.4346 -2.8919
 8572SOL     OW37351   3.331   3.840  10.710  0.0381 -0.0083 -0.4646
 8572SOL    HW137352   3.399   3.907  10.718 -1.6952  1.3800  2.6046
 8572SOL    HW237353   3.341   3.814  10.802  0.3205 -3.1244 -1.3746
 8573SOL     OW37354   2.353   4.597   4.799 -0.2628 -0.1152 -0.0549
 8573SOL    HW137355   2.308   4.676   4.770 -0.8975 -0.9351 -1.3337
 8573SOL    HW237356   2.347   4.613   4.893  1.1285  0.6038 -0.0816
 8574SOL     OW37357   3.636   1.686   2.999 -0.1595  0.5318  0.4700
 8574SOL    HW137358   3.726   1.704   3.027  0.1529  0.1065 -0.2645
 8574SOL    HW237359   3.595   1.668   3.084  1.1638 -0.7683  0.8281
 8575SOL     OW37360   4.489   0.932   9.076 -0.5650 -0.0058 -0.6982
 8575SOL    HW137361   4.421   0.864   9.073  0.8307 -1.3921 -1.0121
 8575SOL    HW237362   4.535   0.912   9.157  0.8424  0.3251 -1.4122
 8576SOL     OW37363   4.265   2.372   6.986 -0.4861  0.0006  0.1135
 8576SOL    HW137364   4.258   2.315   7.063  1.9939  0.9872  1.0659
 8576SOL    HW237365   4.267   2.461   7.020  3.1994  0.2356 -0.6476
 8577SOL     OW37366   3.577   4.622   5.186  0.1378  0.8800  0.3367
 8577SOL    HW137367   3.614   4.670   5.112  0.8662 -0.6834 -0.3050
 8577SOL    HW237368   3.659   4.613   5.235 -0.8112 -1.5206  1.4793
 8578SOL     OW37369   0.773   0.871  16.780 -0.2712 -0.0337 -0.1186
 8578SOL    HW137370   0.708   0.840  16.717 -1.0746  1.3075  0.0458
 8578SOL    HW237371   0.822   0.926  16.720  1.7575 -2.8107 -1.0278
 8579SOL     OW37372   1.598   2.637   5.923 -0.1999 -0.2640 -0.4141
 8579SOL    HW137373   1.565   2.550   5.903 -1.1141  0.2093 -0.9735
 8579SOL    HW237374   1.517   2.689   5.926  0.7539  1.1182  1.4240
 8580SOL     OW37375   1.532   4.253   3.200 -0.0531 -0.2383 -0.0731
 8580SOL    HW137376   1.588   4.207   3.263 -0.8167 -0.1186  0.6942
 8580SOL    HW237377   1.568   4.233   3.114  0.2638 -3.7902  0.8913
 8581SOL     OW37378   2.563   3.139   4.475  0.3974  0.2802  0.5213
 8581SOL    HW137379   2.475   3.173   4.493  0.8404  0.9823  1.3482
 8581SOL    HW237380   2.620   3.215   4.464  1.8138 -1.0140 -1.0380
 8582SOL     OW37381   0.639   4.102   2.221  0.2060  0.0575 -0.4941
 8582SOL    HW137382   0.619   4.119   2.313  2.1123 -0.1914 -0.0407
 8582SOL    HW237383   0.641   4.007   2.210 -1.9987 -0.4150  2.9960
 8583SOL     OW37384   2.024   2.546   2.725  0.0364 -0.2954 -0.4509
 8583SOL    HW137385   1.999   2.558   2.633  0.4546 -1.1311 -0.6824
 8583SOL    HW237386   2.120   2.534   2.725 -0.1175 -1.6388 -1.7112
 8584SOL     OW37387   2.589   1.661   5.712 -0.1531  1.0416 -0.0695
 8584SOL    HW137388   2.563   1.752   5.729  0.5584  0.9407  1.5195
 8584SOL    HW237389   2.607   1.648   5.619 -1.4230 -2.2764  0.1543
 8585SOL     OW37390   0.144   0.471   7.972 -0.1719 -0.0382 -0.3571
 8585SOL    HW137391   0.150   0.485   8.066 -3.1949  0.0917 -0.1763
 8585SOL    HW237392   0.235   0.457   7.947 -0.0117 -1.0137  0.7661
 8586SOL     OW37393   4.262   4.029   6.943 -0.0501  0.1455  0.1375
 8586SOL    HW137394   4.256   4.095   6.874  0.0499 -0.3649 -0.3543
 8586SOL    HW237395   4.248   4.090   7.016 -0.8541  2.3018 -1.8404
 8587SOL     OW37396   0.805   0.725   6.791  0.6553  0.2868  0.5469
 8587SOL    HW137397   0.852   0.745   6.710  0.4015 -0.4744  0.2104
 8587SOL    HW237398   0.749   0.801   6.811 -2.0671 -1.2707 -1.1110
 8588SOL     OW37399   2.967   2.654  11.453  0.8991  0.2098  0.2058
 8588SOL    HW137400   3.062   2.663  11.460  1.1199 -2.8661  1.1693
 8588SOL    HW237401   2.948   2.745  11.477 -1.2601  0.0939 -1.0329
 8589SOL     OW37402   3.636   1.836   6.039 -0.0271 -0.0003  0.3257
 8589SOL    HW137403   3.663   1.912   5.989 -1.2352  0.4548  0.3776
 8589SOL    HW237404   3.541   1.844   6.036  0.0288 -0.0102 -1.4255
 8590SOL     OW37405   1.210   1.829  10.304 -0.0764  0.4170  0.3572
 8590SOL    HW137406   1.247   1.902  10.254  0.6282  0.7682  1.3783
 8590SOL    HW237407   1.118   1.857  10.304  0.4157  2.0519 -0.6359
 8591SOL     OW37408   1.261   2.072   2.016  0.1547  0.6856 -0.0780
 8591SOL    HW137409   1.208   2.007   2.062  0.2486  0.3109 -0.4984
 8591SOL    HW237410   1.347   2.030   2.023 -1.1714 -1.7176  1.6826
 8592SOL     OW37411   2.838   0.363  13.891 -0.2376  0.2670  0.2963
 8592SOL    HW137412   2.773   0.411  13.840 -1.3713  0.1804  1.6753
 8592SOL    HW237413   2.883   0.313  13.823 -1.8269  1.5311 -1.6734
 8593SOL     OW37414   1.752   0.076   0.970 -0.6504 -0.2549 -0.2686
 8593SOL    HW137415   1.835   0.112   0.937 -1.2876 -0.7710 -2.4440
 8593SOL    HW237416   1.763   4.716   0.956 -1.3072 -0.1106 -1.7955
 8594SOL     OW37417   1.515   2.036   6.266 -0.1869 -0.2870  0.1471
 8594SOL    HW137418   1.485   2.127   6.273  6.0616  1.8230 -1.0443
 8594SOL    HW237419   1.535   2.019   6.358  1.0215  2.4340  0.3652
 8595SOL     OW37420   0.322   2.396   9.353 -0.6772  0.0476 -0.0314
 8595SOL    HW137421   0.319   2.319   9.409 -0.0727  0.7051  0.9156
 8595SOL    HW237422   0.308   2.354   9.268 -1.5858 -1.4940  0.8889
 8596SOL     OW37423   1.916   1.589   5.948  0.5313  0.2071 -0.5629
 8596SOL    HW137424   1.947   1.673   5.913 -0.2539 -0.8141 -3.7091
 8596SOL    HW237425   1.995   1.535   5.952  1.3508  1.5031  0.6541
 8597SOL     OW37426   0.658   0.499   8.419 -0.2429 -0.5377 -0.5953
 8597SOL    HW137427   0.705   0.453   8.349  1.1941  2.6953 -1.7528
 8597SOL    HW237428   0.729   0.558   8.447  0.3952 -2.2922  1.4828
 8598SOL     OW37429   0.173   2.526   6.901 -0.4388 -0.3506  0.5683
 8598SOL    HW137430   0.245   2.588   6.890  1.0210 -2.1767 -0.3243
 8598SOL    HW237431   0.106   2.575   6.855  1.6791  1.1669 -0.9053
 8599SOL     OW37432   1.577   2.254   4.499 -0.1507 -0.0424 -0.4599
 8599SOL    HW137433   1.497   2.276   4.546 -0.7651 -1.0424 -1.0443
 8599SOL    HW237434   1.557   2.284   4.411  1.2391 -1.0954 -1.1300
 8600SOL     OW37435   2.355   0.425   8.742  0.1680  0.5127  0.3249
 8600SOL    HW137436   2.363   0.498   8.805 -0.3491  1.7114 -1.0031
 8600SOL    HW237437   2.437   0.381   8.763 -2.1208 -2.7454  2.3596
 8601SOL     OW37438   0.287   3.553   2.444 -0.8796  0.0432 -0.1124
 8601SOL    HW137439   0.263   3.643   2.469  0.9716  0.7222 -0.8036
 8601SOL    HW237440   0.196   3.524   2.439 -0.7736 -0.3443  0.1903
 8602SOL     OW37441   0.812   4.281   4.820 -0.2584 -0.4696 -0.1633
 8602SOL    HW137442   0.797   4.273   4.726 -1.5191  1.4112 -0.1286
 8602SOL    HW237443   0.907   4.272   4.822 -0.3113 -0.5922  1.3210
 8603SOL     OW37444   2.370   4.417   2.604  0.1879 -0.4638 -0.1812
 8603SOL    HW137445   2.332   4.488   2.656  2.2357  1.2713 -1.0326
 8603SOL    HW237446   2.418   4.374   2.674  0.2614 -2.0988 -1.2470
 8604SOL     OW37447   2.120   4.450   6.793 -0.0907 -0.3155  0.2796
 8604SOL    HW137448   2.036   4.457   6.839  0.0430  2.1193  0.1536
 8604SOL    HW237449   2.096   4.476   6.704 -0.8435 -0.9486  0.2952
 8605SOL     OW37450   0.976   4.548   4.306 -0.0800  0.4076 -0.8024
 8605SOL    HW137451   0.969   4.543   4.211  0.3889 -1.2724 -0.7582
 8605SOL    HW237452   1.067   4.519   4.308  0.8954  3.5982  1.1831
 8606SOL     OW37453   2.875   3.883   0.887 -0.1853 -0.8071  0.1333
 8606SOL    HW137454   2.851   3.794   0.909  0.2320 -0.0495  3.7094
 8606SOL    HW237455   2.804   3.915   0.831  0.0412 -1.6653 -0.6450
 8607SOL     OW37456   1.329   0.654  11.922  0.0319  0.0820 -0.3328
 8607SOL    HW137457   1.240   0.625  11.904  0.5403 -0.7667 -1.4212
 8607SOL    HW237458   1.325   0.661  12.018  2.0834 -0.9107 -0.1524
 8608SOL     OW37459   0.310   0.758  16.704 -0.0059  0.1146  0.3377
 8608SOL    HW137460   0.312   0.691  16.772  0.6027  0.5894  0.7913
 8608SOL    HW237461   0.216   0.760  16.687  0.1079  2.9470  0.1024
 8609SOL     OW37462   4.660   3.014   3.969  0.1622  0.0348  0.0196
 8609SOL    HW137463   4.693   2.950   4.032 -0.4503 -0.0638  0.2384
 8609SOL    HW237464   4.681   2.965   3.889 -0.0676  2.1270 -1.3271
 8610SOL     OW37465   0.226   4.206  16.612 -0.3268 -0.5249  0.1168
 8610SOL    HW137466   0.320   4.197  16.629 -0.2796 -1.3181 -0.5254
 8610SOL    HW237467   0.222   4.249  16.527  1.0429 -0.4837  0.0777
 8611SOL     OW37468   3.117   1.635   5.973 -0.5364  0.1893 -0.0777
 8611SOL    HW137469   3.053   1.671   5.912  0.5024  2.5908  0.2402
 8611SOL    HW237470   3.100   1.541   5.968  0.0935  0.1445 -1.3404
 8612SOL     OW37471   2.056   0.127  15.095 -0.5669  0.4252 -0.6618
 8612SOL    HW137472   2.125   0.157  15.036  2.0316  0.6627  2.4830
 8612SOL    HW237473   2.035   0.208  15.141 -0.0860  0.2788 -0.1830
 8613SOL     OW37474   0.536   2.727   2.660 -0.0251  0.6646  0.3715
 8613SOL    HW137475   0.609   2.786   2.681  0.7106  0.4726 -1.6884
 8613SOL    HW237476   0.508   2.771   2.580 -0.3729 -2.6727 -1.3010
 8614SOL     OW37477   0.506   0.749  17.507 -0.3108  0.2104  0.3850
 8614SOL    HW137478   0.421   0.792  17.506 -0.9769 -1.1241 -1.0621
 8614SOL    HW237479   0.557   0.830  17.510  0.4243 -0.3158  2.3789
 8615SOL     OW37480   3.537   2.238   9.355 -1.2656  0.7341  0.2678
 8615SOL    HW137481   3.563   2.251   9.447  0.0347 -1.2873  0.1964
 8615SOL    HW237482   3.539   2.142   9.353  0.3416  0.7878 -0.2774
 8616SOL     OW37483   0.433   1.644   8.708  0.8817 -0.2740 -0.0374
 8616SOL    HW137484   0.446   1.553   8.682 -0.1568 -0.9147  1.6717
 8616SOL    HW237485   0.357   1.672   8.657  0.4014  1.2348  1.5118
 8617SOL     OW37486   1.967   1.938  12.043  0.7710  0.2283 -0.1443
 8617SOL    HW137487   2.014   2.021  12.036 -3.0400  2.2859 -1.1972
 8617SOL    HW237488   1.887   1.971  12.085 -0.2916 -1.8321 -0.5688
 8618SOL     OW37489   3.341   3.688  14.576 -0.0912  0.6201 -0.4555
 8618SOL    HW137490   3.367   3.714  14.665  0.5160 -0.1180 -0.4185
 8618SOL    HW237491   3.300   3.772  14.557 -0.1759  0.7548  0.2999
 8619SOL     OW37492   1.904   3.259   4.384 -0.1381  0.0258  1.1097
 8619SOL    HW137493   1.973   3.230   4.444 -0.7369  0.4985  2.0198
 8619SOL    HW237494   1.832   3.226   4.436 -0.2475 -0.0924  0.8846
 8620SOL     OW37495   0.410   0.709   4.792  0.4794 -0.2361  0.2552
 8620SOL    HW137496   0.491   0.689   4.839  0.1851 -2.2298 -0.0771
 8620SOL    HW237497   0.408   0.804   4.779 -0.0550 -0.3106 -0.2046
 8621SOL     OW37498   1.864   0.152   4.104  0.5316  0.1535 -0.0417
 8621SOL    HW137499   1.838   0.064   4.132  2.8845 -0.5639 -0.1179
 8621SOL    HW237500   1.945   0.135   4.057  0.0799  1.1313 -1.1717
 8622SOL     OW37501   0.986   4.161  13.224  0.0725  0.9147 -0.0187
 8622SOL    HW137502   1.028   4.076  13.242 -1.5650  0.0428 -0.2795
 8622SOL    HW237503   1.059   4.220  13.239  0.4007  0.2512  1.0201
 8623SOL     OW37504   3.726   2.411   5.433  0.2005 -0.3198 -0.2216
 8623SOL    HW137505   3.770   2.496   5.436 -1.5690  0.5730  0.3903
 8623SOL    HW237506   3.743   2.398   5.339  1.4711 -0.2443  0.0073
 8624SOL     OW37507   3.363   0.019   7.963 -0.5491 -0.1606  0.2367
 8624SOL    HW137508   3.369   4.688   8.033 -1.0792 -0.9584 -0.4738
 8624SOL    HW237509   3.331   0.094   8.014 -0.7417  1.5838 -2.4676
 8625SOL     OW37510   4.373   1.374   8.441 -0.2122 -0.9717  0.1369
 8625SOL    HW137511   4.366   1.333   8.355 -0.7154 -0.2346 -0.1750
 8625SOL    HW237512   4.399   1.306   8.504  1.7326 -1.3449 -1.0630
 8626SOL     OW37513   0.251   4.414   2.228 -0.1682  0.1310  1.0869
 8626SOL    HW137514   0.337   4.443   2.198 -0.7187  1.0399  0.4056
 8626SOL    HW237515   0.197   4.492   2.219 -0.8717 -0.6917 -1.7718
 8627SOL     OW37516   2.443   0.529   0.052  0.3520 -0.0702 -0.7530
 8627SOL    HW137517   2.386   0.593   0.095 -1.4255 -0.8427 -1.9527
 8627SOL    HW237518   2.479   0.594  17.727  2.1538  1.6331  2.1471
 8628SOL     OW37519   1.441   3.869  12.202 -0.9816  0.4804  0.5027
 8628SOL    HW137520   1.463   3.960  12.181  0.9624  0.4078  2.1601
 8628SOL    HW237521   1.356   3.868  12.157 -0.4833 -1.5496 -0.3937
 8629SOL     OW37522   4.723   2.684   7.129  0.2490  0.3733 -0.2056
 8629SOL    HW137523   4.705   2.622   7.058 -0.3729 -1.1298  1.2513
 8629SOL    HW237524   4.656   2.653   7.190 -0.0768 -0.1729 -0.8419
 8630SOL     OW37525   2.838   0.033   5.530  0.6163  0.2302 -0.4837
 8630SOL    HW137526   2.887   4.715   5.594 -0.5868  0.7105  0.8435
 8630SOL    HW237527   2.762   4.710   5.521 -0.1483  0.7753  2.3880
 8631SOL     OW37528   3.582   1.423  13.102  0.5440 -0.2349  0.3016
 8631SOL    HW137529   3.608   1.493  13.043  0.7492  0.8763  1.7253
 8631SOL    HW237530   3.507   1.462  13.147  0.8994  0.6125  0.1593
 8632SOL     OW37531   2.701   0.781   1.692  0.4596 -0.1332 -0.4960
 8632SOL    HW137532   2.605   0.790   1.698  0.5454 -1.3418  2.5981
 8632SOL    HW237533   2.715   0.713   1.758  1.4514  0.1293 -0.4441
 8633SOL     OW37534   2.932   3.083  16.381  0.9962 -0.0597 -0.8118
 8633SOL    HW137535   2.944   2.997  16.340  0.5667 -1.0086  1.0171
 8633SOL    HW237536   2.841   3.103  16.357  0.8315  1.3577  0.9751
 8634SOL     OW37537   3.332   0.530   2.490 -0.3742 -0.0340  0.2565
 8634SOL    HW137538   3.287   0.464   2.542  1.3288 -0.3705  1.2897
 8634SOL    HW237539   3.421   0.530   2.525 -0.2459 -1.7625 -0.0699
 8635SOL     OW37540   1.102   4.263   4.445  0.5617  0.4849 -0.4918
 8635SOL    HW137541   1.061   4.194   4.497 -0.1640 -0.4857 -2.3697
 8635SOL    HW237542   1.028   4.320   4.425 -0.3114 -0.8584 -1.1047
 8636SOL     OW37543   1.008   2.993   2.878  0.1416  0.3018  0.0755
 8636SOL    HW137544   0.941   2.942   2.833 -0.9813  1.1270  0.8200
 8636SOL    HW237545   1.023   2.927   2.946 -1.2148 -0.0144  0.0631
 8637SOL     OW37546   1.462   2.015  10.574 -0.6853  0.1085 -0.4278
 8637SOL    HW137547   1.551   2.041  10.554  0.8123 -3.4584  1.5182
 8637SOL    HW237548   1.418   2.041  10.494 -0.9516 -0.6922 -0.5403
 8638SOL     OW37549   2.673   1.291   5.201  0.5477  0.3388 -0.1673
 8638SOL    HW137550   2.706   1.275   5.112 -0.2833  0.6894 -0.5399
 8638SOL    HW237551   2.760   1.292   5.242  0.9632  0.7731 -1.0456
 8639SOL     OW37552   1.310   2.222   7.331 -0.6113 -0.2582 -0.0075
 8639SOL    HW137553   1.367   2.152   7.363  0.7922  0.2757 -1.3366
 8639SOL    HW237554   1.297   2.269   7.413 -1.8416 -2.3720  1.0346
 8640SOL     OW37555   1.535   3.450   8.984 -0.7263  0.1347 -0.4437
 8640SOL    HW137556   1.480   3.376   9.010 -1.6433  1.1227  0.4801
 8640SOL    HW237557   1.488   3.531   9.005 -2.0964 -0.8817  0.3825
 8641SOL     OW37558   1.754   2.524  17.198  0.1185 -0.8041 -0.6157
 8641SOL    HW137559   1.750   2.559  17.287 -1.3650  0.5992 -1.2402
 8641SOL    HW237560   1.750   2.430  17.217  0.7589 -1.2091 -2.4938
 8642SOL     OW37561   4.664   0.170  13.476 -0.5024  1.0875 -0.5908
 8642SOL    HW137562   4.629   0.145  13.390  0.3278 -2.0243 -0.0057
 8642SOL    HW237563   4.675   0.264  13.461 -0.6801  1.5593  2.3136
 8643SOL     OW37564   3.244   0.125  11.555  0.1276 -0.5343 -0.3978
 8643SOL    HW137565   3.217   0.217  11.561 -0.7047 -0.8256  0.2968
 8643SOL    HW237566   3.190   0.096  11.482  0.1292 -0.8013 -0.2935
 8644SOL     OW37567   3.643   3.988  17.430 -0.1967  0.4214  0.1943
 8644SOL    HW137568   3.557   4.010  17.466 -1.0102 -0.0831 -1.4639
 8644SOL    HW237569   3.684   4.074  17.430  0.3834  0.1500  1.6139
 8645SOL     OW37570   3.368   1.775   8.101 -0.4943 -0.5168 -0.1643
 8645SOL    HW137571   3.405   1.688   8.116 -2.3998 -1.2201  0.6197
 8645SOL    HW237572   3.439   1.836   8.118  0.1011 -1.1245 -0.5146
 8646SOL     OW37573   4.491   4.692   0.844  0.0143  0.1143  0.2806
 8646SOL    HW137574   4.435   0.019   0.797 -0.2569 -1.3915 -1.3817
 8646SOL    HW237575   4.424   4.667   0.907  1.7992 -1.5581  1.5048
 8647SOL     OW37576   2.513   3.392   6.118  0.3017  0.1088  0.6834
 8647SOL    HW137577   2.603   3.389   6.087 -0.0716 -0.9091 -0.2806
 8647SOL    HW237578   2.483   3.308   6.084 -0.6199  0.9682 -0.6128
 8648SOL     OW37579   2.896   3.534   3.906 -0.0159  0.7925 -0.2983
 8648SOL    HW137580   2.838   3.591   3.856 -0.1289 -1.1413 -2.3511
 8648SOL    HW237581   2.905   3.594   3.980 -1.6661  1.1613 -0.4123
 8649SOL     OW37582   0.476   3.507   8.188 -0.4232 -0.0968 -0.0040
 8649SOL    HW137583   0.414   3.570   8.150 -2.5101 -2.3471 -0.3114
 8649SOL    HW237584   0.432   3.475   8.267  1.5280 -0.1493  1.0547
 8650SOL     OW37585   4.041   3.342   4.274  0.4755 -0.0718 -0.6092
 8650SOL    HW137586   4.088   3.318   4.354 -0.2102  0.3691 -0.0729
 8650SOL    HW237587   4.106   3.351   4.205  1.2834  1.0393  0.2977
 8651SOL     OW37588   0.619   4.649  13.742 -0.5642  0.3728  0.0738
 8651SOL    HW137589   0.688   4.603  13.694 -1.1669  0.6688 -1.0668
 8651SOL    HW237590   0.546   4.642  13.681 -0.5361  2.4997 -0.2222
 8652SOL     OW37591   3.688   1.958   2.224  0.0836 -0.1000  0.4844
 8652SOL    HW137592   3.757   1.924   2.166 -1.3087  0.7876 -1.6871
 8652SOL    HW237593   3.617   1.897   2.203  0.2472  0.1219 -0.7021
 8653SOL     OW37594   0.956   3.203   4.668  0.0938 -0.2139  0.3195
 8653SOL    HW137595   1.042   3.164   4.658  0.3266  0.6308 -1.0105
 8653SOL    HW237596   0.918   3.167   4.588  1.5190  0.2007 -0.5414
 8654SOL     OW37597   2.801   4.674   0.956  0.4273  0.8091 -0.3349
 8654SOL    HW137598   2.827   4.623   1.032  0.0045  0.8114 -0.1865
 8654SOL    HW237599   2.777   0.022   0.999 -1.4140  0.3709 -0.5026
 8655SOL     OW37600   1.304   1.553   5.395  0.3737  0.3821  0.0827
 8655SOL    HW137601   1.335   1.472   5.435 -0.4326  0.0240 -0.0160
 8655SOL    HW237602   1.385   1.593   5.363 -0.1126 -0.1766 -1.8781
 8656SOL     OW37603   3.296   2.013   5.373  0.1470 -0.2404  0.5145
 8656SOL    HW137604   3.248   1.962   5.307  1.1934  0.4385 -0.7514
 8656SOL    HW237605   3.379   1.970   5.356  0.2383 -0.2581  0.9996
 8657SOL     OW37606   4.060   3.431   5.212 -0.4313  0.2277 -0.4319
 8657SOL    HW137607   3.994   3.467   5.271 -1.9482 -1.5616 -1.0371
 8657SOL    HW237608   4.010   3.401   5.136 -1.6429 -0.6053  0.6892
 8658SOL     OW37609   3.233   1.753   7.447 -0.4393 -0.7825  0.2416
 8658SOL    HW137610   3.241   1.717   7.359 -0.1736  0.0572 -0.0747
 8658SOL    HW237611   3.321   1.759   7.486  0.1147 -2.0082 -0.8120
 8659SOL     OW37612   4.027   4.383   1.474  0.2757  0.4183 -0.1643
 8659SOL    HW137613   4.057   4.401   1.385  1.1199 -0.6627 -0.0977
 8659SOL    HW237614   4.061   4.294   1.487 -1.0129 -0.2969 -1.7245
 8660SOL     OW37615   0.942   2.732   9.823 -0.0163  0.6679 -0.5189
 8660SOL    HW137616   0.971   2.782   9.899  2.2668 -0.0951 -0.8752
 8660SOL    HW237617   0.849   2.745   9.837  0.4204  0.5192  2.4405
 8661SOL     OW37618   4.023   4.379   4.159  0.1808  0.1920 -0.0472
 8661SOL    HW137619   4.026   4.425   4.243 -0.5336  0.3395 -0.1030
 8661SOL    HW237620   4.087   4.426   4.106  1.0820 -0.7598  0.2030
 8662SOL     OW37621   3.303   1.428   8.412 -0.0908  0.3872 -0.6585
 8662SOL    HW137622   3.209   1.415   8.405 -0.2806  0.7589  1.1452
 8662SOL    HW237623   3.336   1.347   8.450 -0.8983  0.7501  0.8263
 8663SOL     OW37624   0.557   1.628   9.776 -0.3076  0.4476  0.2609
 8663SOL    HW137625   0.489   1.601   9.837  1.1224 -0.4507  1.4602
 8663SOL    HW237626   0.629   1.576   9.812  0.0180  1.8362  1.6266
 8664SOL     OW37627   3.684   3.924  16.275  0.1032  0.4246  0.5659
 8664SOL    HW137628   3.695   4.017  16.254 -1.1114  0.0585 -1.7637
 8664SOL    HW237629   3.590   3.909  16.266  0.4598 -2.3757  1.5124
 8665SOL     OW37630   3.859   2.784   6.441 -0.0999  0.2665 -0.5468
 8665SOL    HW137631   3.847   2.689   6.430  0.0564  0.1397  0.4111
 8665SOL    HW237632   3.927   2.788   6.507  0.5553 -0.5328 -1.1692
 8666SOL     OW37633   3.872   1.096   6.331  0.0065  0.3777  0.0958
 8666SOL    HW137634   3.778   1.110   6.338  0.1345  1.9068 -1.2607
 8666SOL    HW237635   3.888   1.018   6.385 -1.7091  0.5109  0.7944
 8667SOL     OW37636   3.871   4.336   2.755 -0.6873 -0.0174 -0.2712
 8667SOL    HW137637   3.931   4.387   2.700 -1.1048  0.2176 -0.5130
 8667SOL    HW237638   3.932   4.304   2.821 -0.2636 -1.7840 -1.5150
 8668SOL     OW37639   1.274   4.506   4.308  0.3309  0.2483  0.2505
 8668SOL    HW137640   1.317   4.588   4.283  2.1414 -1.0362 -0.8427
 8668SOL    HW237641   1.307   4.440   4.247 -0.5691 -0.3195  0.3840
 8669SOL     OW37642   4.306   3.128   7.913  0.0683 -0.5145  0.0111
 8669SOL    HW137643   4.273   3.182   7.841  0.3875  1.6551  1.4845
 8669SOL    HW237644   4.393   3.167   7.903 -0.3206  0.4611  0.4671
 8670SOL     OW37645   2.027   2.414   0.580  0.3142 -0.4009 -0.2677
 8670SOL    HW137646   2.000   2.382   0.666  1.3596 -0.0623  0.1750
 8670SOL    HW237647   1.998   2.337   0.530 -1.9473 -1.3625  2.5001
 8671SOL     OW37648   0.505   2.117   2.221 -0.1297 -0.5388  0.2336
 8671SOL    HW137649   0.582   2.139   2.273 -0.4992  2.0028 -0.2889
 8671SOL    HW237650   0.472   2.060   2.290  2.2002 -1.3234  0.7046
 8672SOL     OW37651   3.024   3.724   4.316  0.4684  0.3168  0.5944
 8672SOL    HW137652   3.055   3.776   4.390 -0.1473 -1.6147  2.2287
 8672SOL    HW237653   2.974   3.654   4.357 -2.1951  0.7984 -1.8281
 8673SOL     OW37654   4.553   0.601   7.352  0.5280 -0.1886  0.0392
 8673SOL    HW137655   4.577   0.664   7.420  0.1142  1.7377 -1.6099
 8673SOL    HW237656   4.466   0.638   7.340  0.8995  1.0123  1.0600
 8674SOL     OW37657   1.747   0.535  16.229  0.0921 -0.8400  0.4273
 8674SOL    HW137658   1.756   0.491  16.145  0.7138  1.5683 -0.7660
 8674SOL    HW237659   1.836   0.518  16.260  0.2048 -2.9919 -1.1152
 8675SOL     OW37660   4.334   3.861  15.765 -0.5489  0.2713  0.0336
 8675SOL    HW137661   4.353   3.909  15.845 -0.4427 -0.3127  0.3546
 8675SOL    HW237662   4.414   3.814  15.740  0.5796  3.7461 -2.9126
 8676SOL     OW37663   2.568   3.859   2.917  0.3581  0.2189 -0.6216
 8676SOL    HW137664   2.486   3.838   2.873  0.3442 -0.7216 -0.1220
 8676SOL    HW237665   2.525   3.924   2.972  0.9016 -0.7570  0.9428
 8677SOL     OW37666   0.692   1.325  14.394 -0.3992  0.5503 -0.1265
 8677SOL    HW137667   0.607   1.307  14.436  0.9815 -0.5140  2.2286
 8677SOL    HW237668   0.698   1.419  14.377 -0.1527  0.8102  1.3705
 8678SOL     OW37669   2.296   0.645   0.868  0.3647 -0.3474  1.0803
 8678SOL    HW137670   2.261   0.608   0.949  0.7143  1.6821  2.1679
 8678SOL    HW237671   2.377   0.692   0.891 -0.1068 -0.3063  2.6411
 8679SOL     OW37672   2.938   3.477   5.025  0.1954 -0.2252  0.2300
 8679SOL    HW137673   2.850   3.444   5.045  0.7088 -2.5155 -1.4009
 8679SOL    HW237674   2.946   3.552   5.084 -0.3784  1.5116 -1.9000
 8680SOL     OW37675   0.806   1.916   7.225  0.1878 -0.8811  0.1997
 8680SOL    HW137676   0.716   1.901   7.253  0.1597  0.6539  0.9088
 8680SOL    HW237677   0.843   1.953   7.305  0.5398  0.3122 -0.5169
 8681SOL     OW37678   0.966   0.956  15.737 -0.0965 -0.0097 -0.0370
 8681SOL    HW137679   0.897   0.992  15.681 -0.6967 -0.7865  0.2057
 8681SOL    HW237680   0.921   0.896  15.796  1.0478 -1.8967 -1.0779
 8682SOL     OW37681   0.309   2.907   1.299 -0.1635  0.6872  0.0639
 8682SOL    HW137682   0.277   2.960   1.372  0.4356  1.1011  0.0324
 8682SOL    HW237683   0.359   2.845   1.353  0.9971  1.1326 -0.4866
 8683SOL     OW37684   4.071   4.590   2.242  0.0762  0.0252  0.4144
 8683SOL    HW137685   4.021   4.668   2.216 -2.9842 -0.5713  4.3294
 8683SOL    HW237686   4.155   4.628   2.269  0.6644 -0.6456 -0.4937
 8684SOL     OW37687   2.380   3.119   7.598 -0.1579  0.6061 -0.1064
 8684SOL    HW137688   2.445   3.123   7.668  0.0393 -0.6398 -0.2120
 8684SOL    HW237689   2.389   3.027   7.572  0.5997  0.1483  1.8034
 8685SOL     OW37690   0.889   4.512   0.767  0.9098 -0.1265 -0.4359
 8685SOL    HW137691   0.870   4.595   0.723  0.8569  1.0009  1.7127
 8685SOL    HW237692   0.873   4.536   0.858 -1.0916 -0.8779 -0.5752
 8686SOL     OW37693   3.014   2.997  10.658  0.3924 -0.3469  0.5769
 8686SOL    HW137694   3.048   2.909  10.674  0.5538 -0.8863 -2.7981
 8686SOL    HW237695   2.972   2.984  10.573 -0.4974 -1.0799  1.1382
 8687SOL     OW37696   1.458   1.991  14.808  0.3014  1.0395  0.6658
 8687SOL    HW137697   1.425   1.973  14.720  0.2871 -1.1224  1.1279
 8687SOL    HW237698   1.374   1.988  14.852 -1.0253 -2.8225 -2.1661
 8688SOL     OW37699   3.425   1.287   4.021  0.4924  0.0351 -0.5032
 8688SOL    HW137700   3.360   1.230   4.062  1.9495 -1.4463 -0.2399
 8688SOL    HW237701   3.371   1.365   4.019 -4.5307 -3.4830 -2.0071
 8689SOL     OW37702   2.902   3.933   1.242  0.0884 -0.4933 -0.2527
 8689SOL    HW137703   2.936   3.847   1.219  1.0815 -0.1815  0.0144
 8689SOL    HW237704   2.865   3.922   1.329 -1.5102 -0.1336 -0.8778
 8690SOL     OW37705   0.225   2.281   7.017 -0.2373  0.3052  0.3148
 8690SOL    HW137706   0.148   2.262   7.072 -0.3153  0.8679  0.4031
 8690SOL    HW237707   0.197   2.364   6.977  1.3146 -0.3700 -2.1864
 8691SOL     OW37708   2.959   0.039  17.194 -0.6259  0.6242  0.0169
 8691SOL    HW137709   2.916   0.123  17.180  2.5136  1.9738 -1.5187
 8691SOL    HW237710   2.990   0.059  17.283  0.8452  3.6056 -1.1904
 8692SOL     OW37711   1.828   2.098   3.539  0.3518 -0.1163  0.0047
 8692SOL    HW137712   1.795   2.086   3.628  0.1893  1.3716  0.1433
 8692SOL    HW237713   1.813   2.192   3.530 -0.8247 -0.0255  3.0642
 8693SOL     OW37714   0.712   0.571   1.803 -0.0622 -0.4416  0.0677
 8693SOL    HW137715   0.689   0.504   1.739 -0.2392 -0.0471 -0.2800
 8693SOL    HW237716   0.628   0.615   1.789  0.5577  0.9585  0.8160
 8694SOL     OW37717   3.663   0.653   7.594  0.0169 -0.0221 -0.2378
 8694SOL    HW137718   3.653   0.563   7.623  1.4969  0.3899  1.5369
 8694SOL    HW237719   3.649   0.702   7.675  0.8466 -1.1428  0.5863
 8695SOL     OW37720   2.091   0.979   7.203  0.0457 -0.1380  0.3732
 8695SOL    HW137721   2.183   1.002   7.193 -0.0836 -0.9782 -2.9090
 8695SOL    HW237722   2.098   0.939   7.289  0.8871  1.7739  1.1914
 8696SOL     OW37723   2.773   2.281   1.119  0.2383 -0.0567  0.9043
 8696SOL    HW137724   2.816   2.331   1.050 -0.9245  1.9550  1.6413
 8696SOL    HW237725   2.685   2.273   1.081  0.4331 -0.6880  0.5976
 8697SOL     OW37726   4.044   3.771   7.514 -0.2165  0.4205  0.2004
 8697SOL    HW137727   4.082   3.710   7.451  1.8995  0.5206  1.3401
 8697SOL    HW237728   3.970   3.720   7.548 -1.7048  2.5833  0.1605
 8698SOL     OW37729   0.475   3.262   1.911  0.2518 -0.0431  0.0163
 8698SOL    HW137730   0.480   3.333   1.975  0.4658  0.2918 -0.3719
 8698SOL    HW237731   0.392   3.219   1.933  0.8462 -1.7616 -1.1227
 8699SOL     OW37732   4.415   2.618  12.158  0.2217  0.2488  0.3302
 8699SOL    HW137733   4.499   2.603  12.113  0.2190  0.4778  0.2532
 8699SOL    HW237734   4.374   2.692  12.114 -1.6889 -1.5342 -0.8992
 8700SOL     OW37735   0.135   3.262   8.983  0.2783  0.4592  0.6613
 8700SOL    HW137736   0.143   3.303   9.069  2.3295  1.6491 -0.0965
 8700SOL    HW237737   0.061   3.201   8.986  1.0735 -0.3532  3.2951
 8701SOL     OW37738   2.475   3.447   2.728 -0.2653  0.0036  0.5645
 8701SOL    HW137739   2.435   3.374   2.776 -0.0365 -0.5600 -0.0867
 8701SOL    HW237740   2.401   3.483   2.679 -0.8207 -1.1430  0.5374
 8702SOL     OW37741   1.017   2.215   5.563  0.0218  0.0190  0.2547
 8702SOL    HW137742   1.023   2.308   5.587 -0.0562 -0.2172  1.2066
 8702SOL    HW237743   0.976   2.211   5.477  0.8942 -0.8116 -0.1122
 8703SOL     OW37744   2.196   3.931   1.829 -0.8076  0.8631  0.6898
 8703SOL    HW137745   2.251   3.966   1.759 -2.4972  2.2903  0.0686
 8703SOL    HW237746   2.220   3.972   1.912  3.9717  2.9525 -1.7529
 8704SOL     OW37747   2.585   3.541   3.932 -0.4349  0.5227  0.4667
 8704SOL    HW137748   2.504   3.496   3.907  0.0898 -1.2392  1.9460
 8704SOL    HW237749   2.583   3.619   3.876 -1.4388  1.1440  1.3583
 8705SOL     OW37750   1.054   2.383   8.050  0.0525 -0.5168  0.2641
 8705SOL    HW137751   1.047   2.456   8.111 -1.0902  1.0020 -1.6976
 8705SOL    HW237752   0.961   2.373   8.028  0.4470 -2.1956 -0.6476
 8706SOL     OW37753   0.982   3.802   5.193  0.2768 -0.0936  0.0995
 8706SOL    HW137754   1.055   3.820   5.133 -0.7003  1.8115 -0.5260
 8706SOL    HW237755   1.031   3.780   5.272 -0.7054  1.4453  1.1641
 8707SOL     OW37756   2.309   2.103   6.485  0.0316 -0.1421  0.2808
 8707SOL    HW137757   2.315   2.047   6.562  0.1813 -0.5535 -0.0278
 8707SOL    HW237758   2.307   2.186   6.532  1.3430  0.1600 -0.1977
 8708SOL     OW37759   4.316   4.707   7.528 -0.2514 -0.9821 -0.2319
 8708SOL    HW137760   4.244   4.731   7.470 -0.6820  0.5129  0.9336
 8708SOL    HW237761   4.281   4.632   7.575 -0.0899 -0.2639  1.0228
 8709SOL     OW37762   4.364   1.282   8.190  0.5061 -0.3275  0.1446
 8709SOL    HW137763   4.395   1.203   8.146  1.6187 -0.3793  1.0462
 8709SOL    HW237764   4.417   1.347   8.145  0.9844  0.4637  1.8604
 8710SOL     OW37765   4.052   0.727   4.702  0.6727  0.1342 -0.3931
 8710SOL    HW137766   3.982   0.751   4.642 -0.5569  2.8130  2.1178
 8710SOL    HW237767   4.075   0.639   4.671 -0.1403 -1.1904  2.7086
 8711SOL     OW37768   1.156   2.021   0.910 -0.5445 -0.6021  0.3136
 8711SOL    HW137769   1.228   1.966   0.881  1.0291  0.0127  3.0611
 8711SOL    HW237770   1.144   2.082   0.836 -0.3221  1.1215  1.6994
 8712SOL     OW37771   2.644   1.310   3.182 -0.3905  0.2425 -0.9125
 8712SOL    HW137772   2.704   1.380   3.208 -1.2294  0.1198  1.3651
 8712SOL    HW237773   2.658   1.314   3.088 -5.5149  1.1542 -1.6593
 8713SOL     OW37774   4.088   2.250   6.396  0.1219 -0.2778  0.4146
 8713SOL    HW137775   4.104   2.156   6.388 -1.4816 -0.3342 -2.0402
 8713SOL    HW237776   3.993   2.250   6.381  0.3057 -2.3821 -0.7470
 8714SOL     OW37777   3.480   3.245   2.618 -0.2978  0.0222  0.5406
 8714SOL    HW137778   3.384   3.251   2.615 -0.2694  0.9991  1.6017
 8714SOL    HW237779   3.509   3.186   2.687 -0.4674 -0.2526  0.3797
 8715SOL     OW37780   2.166   4.076  12.432  0.4977 -0.0549 -0.6406
 8715SOL    HW137781   2.214   4.078  12.514 -0.4513 -2.9622 -0.0407
 8715SOL    HW237782   2.236   4.099  12.371  1.0002  0.7941  0.2437
 8716SOL     OW37783   1.077   2.787   5.550 -0.1486  0.2268  0.5995
 8716SOL    HW137784   0.998   2.738   5.526  1.7833 -1.0887 -3.0023
 8716SOL    HW237785   1.143   2.720   5.531 -0.3902 -0.6643  2.9549
 8717SOL     OW37786   0.860   3.061   3.426 -0.4421 -0.2276  0.4505
 8717SOL    HW137787   0.913   2.987   3.457 -1.1516 -1.0426 -0.2740
 8717SOL    HW237788   0.853   3.046   3.332 -1.6460  1.8903  0.2130
 8718SOL     OW37789   0.135   3.865  14.685  0.3603  0.4398 -0.8494
 8718SOL    HW137790   0.090   3.949  14.697  0.3245  0.3325 -0.2436
 8718SOL    HW237791   0.224   3.895  14.664  0.5281  0.1851 -0.4952
 8719SOL     OW37792   3.289   1.897   3.867 -0.3034 -0.6975  0.6293
 8719SOL    HW137793   3.291   1.811   3.825 -3.3106 -1.0323  1.1494
 8719SOL    HW237794   3.288   1.956   3.792 -0.8116 -1.4133  0.0727
 8720SOL     OW37795   2.511   0.575   7.479  0.1766 -0.1103 -0.2192
 8720SOL    HW137796   2.470   0.661   7.484 -1.5002 -0.7666 -2.9677
 8720SOL    HW237797   2.523   0.560   7.385 -1.9396  2.0343 -0.8209
 8721SOL     OW37798   3.155   3.209   7.393  0.1509  0.3816 -0.6572
 8721SOL    HW137799   3.248   3.192   7.377  1.2299  2.6097  3.1619
 8721SOL    HW237800   3.118   3.227   7.307 -1.4133  0.6343  0.0710
 8722SOL     OW37801   3.758   0.333   2.908  0.3111  0.2824  0.0926
 8722SOL    HW137802   3.805   0.344   2.825  2.0278  4.1745  1.5762
 8722SOL    HW237803   3.685   0.277   2.881 -1.5486  2.4433  0.5979
 8723SOL     OW37804   3.802   0.563   3.817  0.2169 -0.1247  0.0300
 8723SOL    HW137805   3.830   0.543   3.906 -3.6388  0.0126  1.2816
 8723SOL    HW237806   3.880   0.597   3.773  0.9063  0.6318  1.8550
 8724SOL     OW37807   3.846   2.512   3.937  0.1249 -0.5694  0.1392
 8724SOL    HW137808   3.898   2.512   4.017 -1.5394 -0.4076  1.2330
 8724SOL    HW237809   3.759   2.485   3.968  0.1815 -1.1345 -0.2196
 8725SOL     OW37810   4.145   3.779  15.578  0.0578 -0.5207 -0.5100
 8725SOL    HW137811   4.123   3.867  15.546  1.1559  0.1247  0.4820
 8725SOL    HW237812   4.209   3.794  15.648 -0.4731  0.4217 -0.2251
 8726SOL     OW37813   1.555   4.711   6.077 -0.3933 -0.0338  0.0740
 8726SOL    HW137814   1.522   0.049   6.023  0.9442 -0.1892 -0.9631
 8726SOL    HW237815   1.562   4.639   6.014 -1.7489  0.4800 -0.6790
 8727SOL     OW37816   2.303   2.780  14.449  0.8606  0.4389  0.1880
 8727SOL    HW137817   2.250   2.704  14.426  0.9537  0.8889 -1.4970
 8727SOL    HW237818   2.379   2.761  14.393 -0.7287 -3.6149 -0.5717
 8728SOL     OW37819   0.802   2.669   4.676  0.4974  0.5426 -0.3274
 8728SOL    HW137820   0.858   2.610   4.726 -1.3471  0.0344  1.1411
 8728SOL    HW237821   0.841   2.753   4.700 -1.7782  0.9296  2.0782
 8729SOL     OW37822   1.001   3.324   1.657 -0.4500  0.0815 -0.1253
 8729SOL    HW137823   0.933   3.260   1.634 -1.7240  1.5640 -0.4275
 8729SOL    HW237824   0.947   3.398   1.682  1.2859  1.4380 -0.4273
 8730SOL     OW37825   1.347   2.430   9.560 -0.3343 -0.0247 -0.6613
 8730SOL    HW137826   1.353   2.468   9.647  1.3399 -0.3613 -0.6286
 8730SOL    HW237827   1.300   2.347   9.567 -0.4079  0.0984  0.2462
 8731SOL     OW37828   4.205   0.182  10.052  0.4290  0.1461 -0.4740
 8731SOL    HW137829   4.263   0.253  10.024  0.1107  0.3939 -0.5091
 8731SOL    HW237830   4.133   0.232  10.090  1.0457  1.2120 -0.6873
 8732SOL     OW37831   4.154   1.410   8.592 -0.2765  0.8343  0.7964
 8732SOL    HW137832   4.226   1.419   8.531  0.4358 -2.6034  1.1195
 8732SOL    HW237833   4.160   1.316   8.612 -0.5247  0.5627 -0.3879
 8733SOL     OW37834   0.110   2.229   2.251  0.3896  0.6135 -0.3177
 8733SOL    HW137835   0.179   2.174   2.214 -0.1722 -0.9270  0.9245
 8733SOL    HW237836   0.075   2.247   2.164  1.7770  1.3019 -0.7445
 8734SOL     OW37837   2.713   4.528   6.923 -0.0531 -0.2117  0.2257
 8734SOL    HW137838   2.759   4.576   6.854  0.2528 -1.9419 -0.7946
 8734SOL    HW237839   2.730   4.577   7.003  1.1949  1.1715 -0.8793
 8735SOL     OW37840   2.486   1.121   4.798  0.0449  0.1708  0.7135
 8735SOL    HW137841   2.568   1.085   4.763 -0.6883 -1.6042  0.8542
 8735SOL    HW237842   2.429   1.046   4.786 -0.8737  0.9277  0.3739
 8736SOL     OW37843   1.821   1.052   2.140  0.2679  0.0276 -0.3806
 8736SOL    HW137844   1.857   1.133   2.103 -0.7085 -0.2115 -1.8434
 8736SOL    HW237845   1.799   1.012   2.056 -0.5290 -2.0367  0.8298
 8737SOL     OW37846   1.382   1.361   7.810  0.3841 -0.1177 -0.1382
 8737SOL    HW137847   1.342   1.298   7.869 -0.1453  0.9497  0.6534
 8737SOL    HW237848   1.359   1.446   7.849 -0.9114 -1.0674  1.1823
 8738SOL     OW37849   0.919   0.087   4.376  0.2094  0.2781 -0.2473
 8738SOL    HW137850   0.890   0.120   4.291 -2.2962 -0.9816  0.1178
 8738SOL    HW237851   0.943   4.732   4.347  0.1896  0.0593  0.4120
 8739SOL     OW37852   3.289   4.650   7.296  0.5432  0.4797  0.1930
 8739SOL    HW137853   3.327   4.610   7.374 -1.0162 -0.5253  0.4420
 8739SOL    HW237854   3.229   4.715   7.332  1.5275  1.2665  0.4325
 8740SOL     OW37855   1.651   2.679   8.417 -0.2720  0.3861 -0.6861
 8740SOL    HW137856   1.689   2.746   8.473 -1.2004 -0.4789  1.0048
 8740SOL    HW237857   1.599   2.630   8.482  1.1021 -0.8505 -0.5056
 8741SOL     OW37858   4.045   2.347   5.095 -0.1428 -0.1209  0.2021
 8741SOL    HW137859   3.965   2.344   5.147  1.3403 -1.4055  2.4162
 8741SOL    HW237860   4.081   2.434   5.115  0.2992  0.3182 -2.5492
 8742SOL     OW37861   0.737   4.158   6.136  0.2836  0.0073  0.3634
 8742SOL    HW137862   0.648   4.179   6.161  0.4495  0.1838  0.8096
 8742SOL    HW237863   0.733   4.096   6.063  2.0894 -4.0671  3.7034
 8743SOL     OW37864   1.261   2.926   6.413  0.1315  0.0378  0.0660
 8743SOL    HW137865   1.351   2.901   6.432  0.2567  1.2722  1.0186
 8743SOL    HW237866   1.235   2.961   6.498  1.2843 -0.8230  0.7673
 8744SOL     OW37867   2.708   1.123   2.728 -0.3158  0.2649  0.4550
 8744SOL    HW137868   2.738   1.037   2.758  0.4965  0.1058 -0.7915
 8744SOL    HW237869   2.722   1.110   2.634 -1.2900  1.9747  0.0809
 8745SOL     OW37870   4.519   3.010   5.764  0.4823 -0.0144 -0.1528
 8745SOL    HW137871   4.534   3.099   5.732 -1.6887 -0.0156 -1.1641
 8745SOL    HW237872   4.602   2.967   5.742  0.2588 -1.2812  1.4310
 8746SOL     OW37873   1.976   2.072  13.186  0.1415  0.1341  0.7861
 8746SOL    HW137874   1.995   2.154  13.232  2.1452  0.4025 -0.4933
 8746SOL    HW237875   1.889   2.061  13.224 -0.7740 -0.8091 -1.5659
 8747SOL     OW37876   0.043   0.373  17.173  0.1150  0.5121 -0.0593
 8747SOL    HW137877   0.101   0.448  17.189  1.7448 -0.9473  0.8924
 8747SOL    HW237878   0.025   0.345  17.263  0.0399 -0.7021 -0.4490
 8748SOL     OW37879   4.422   2.936   2.313  0.0170  0.1034  0.0613
 8748SOL    HW137880   4.461   2.853   2.339 -0.2034 -0.9402 -2.9293
 8748SOL    HW237881   4.385   2.957   2.399  0.7450 -0.6125  0.5438
 8749SOL     OW37882   2.240   3.689   8.557 -0.1958  0.3737  0.2863
 8749SOL    HW137883   2.269   3.693   8.466  0.5323  0.8979  0.5370
 8749SOL    HW237884   2.157   3.644   8.544 -1.0052  1.2684  2.4154
 8750SOL     OW37885   1.008   0.181   4.906  0.3400 -0.3568 -0.4324
 8750SOL    HW137886   1.043   0.265   4.935  1.5317 -0.5290 -1.3962
 8750SOL    HW237887   0.937   0.168   4.969  1.0199 -1.4360  0.0972
 8751SOL     OW37888   0.641   3.497  13.375 -0.6615  0.1634 -0.4139
 8751SOL    HW137889   0.732   3.520  13.393 -1.0663  3.3349 -2.3402
 8751SOL    HW237890   0.617   3.439  13.448  0.4340  1.4738  0.9666
 8752SOL     OW37891   2.193   0.371   7.075 -0.0989  0.4752 -0.5302
 8752SOL    HW137892   2.282   0.355   7.107  0.6658  6.9498  0.6278
 8752SOL    HW237893   2.148   0.331   7.149 -1.0945  2.9856  0.2231
 8753SOL     OW37894   3.710   1.406   2.616 -0.5429 -0.0818  0.1618
 8753SOL    HW137895   3.709   1.405   2.711  1.8080 -0.4837  0.1895
 8753SOL    HW237896   3.797   1.376   2.590 -2.1748 -1.8028 -3.4565
 8754SOL     OW37897   4.701   2.563   9.269 -0.7923  0.3556 -0.2555
 8754SOL    HW137898   0.041   2.553   9.329 -0.3859 -2.2448 -1.1732
 8754SOL    HW237899   4.664   2.475   9.277 -1.0488  0.5840  1.0764
 8755SOL     OW37900   2.703   3.399   9.265 -0.2135 -0.0355 -0.3081
 8755SOL    HW137901   2.691   3.413   9.359  0.8352 -0.9051 -0.0452
 8755SOL    HW237902   2.652   3.318   9.260 -0.5374  0.0994  0.9329
 8756SOL     OW37903   0.394   0.540  12.767 -0.4827 -0.5919  0.5543
 8756SOL    HW137904   0.453   0.614  12.781 -1.7142  0.6910 -1.2354
 8756SOL    HW237905   0.445   0.461  12.786 -0.9835 -1.1505 -0.4570
 8757SOL     OW37906   3.788   2.017   4.841  0.0060 -0.2294 -0.6688
 8757SOL    HW137907   3.760   1.935   4.799  1.7117 -2.6247  2.8848
 8757SOL    HW237908   3.763   1.997   4.931 -0.8503  0.6851 -0.7048
 8758SOL     OW37909   1.310   1.787   6.952 -0.3705 -0.2064  0.5709
 8758SOL    HW137910   1.261   1.789   7.034  1.3941  0.0077  1.6192
 8758SOL    HW237911   1.256   1.838   6.892 -0.3700 -1.2502 -0.3154
 8759SOL     OW37912   2.989   0.650   9.483  0.5391  0.2165 -0.4800
 8759SOL    HW137913   2.982   0.700   9.402  3.3927 -0.8594 -1.3857
 8759SOL    HW237914   3.082   0.660   9.502  0.3729  1.1160 -0.1472
 8760SOL     OW37915   2.452   1.872   3.530  0.7680 -0.1196 -0.0851
 8760SOL    HW137916   2.519   1.922   3.482  0.1319  0.3602 -0.4654
 8760SOL    HW237917   2.427   1.814   3.457  0.4581 -1.6935  1.2759
 8761SOL     OW37918   1.416   3.178   5.880  0.5648  0.2129 -0.3470
 8761SOL    HW137919   1.493   3.131   5.911  0.2695  1.4275  2.1848
 8761SOL    HW237920   1.445   3.262   5.844  2.7259 -1.2814 -2.1562
 8762SOL     OW37921   0.397   1.800   5.597 -0.0870  0.2658 -0.1502
 8762SOL    HW137922   0.443   1.821   5.515 -0.6931 -1.6489 -0.9959
 8762SOL    HW237923   0.306   1.776   5.578  0.0559  0.4279 -1.0683
 8763SOL     OW37924   4.112   1.928   4.518  0.3441  0.8398  0.2612
 8763SOL    HW137925   4.032   1.887   4.484 -0.4873  1.3433  1.6282
 8763SOL    HW237926   4.141   1.982   4.445  1.5312 -0.6454 -0.3778
 8764SOL     OW37927   0.628   2.341   5.638  0.0997  0.0448 -0.2408
 8764SOL    HW137928   0.705   2.397   5.643 -1.2748  1.9381 -0.5004
 8764SOL    HW237929   0.607   2.320   5.729  1.3363  1.0955  0.2807
 8765SOL     OW37930   4.223   3.494  11.437 -0.1298  0.2119  0.4150
 8765SOL    HW137931   4.288   3.553  11.476 -1.5605  1.3030  1.1253
 8765SOL    HW237932   4.162   3.486  11.510 -1.1602  0.8514 -0.3884
 8766SOL     OW37933   2.785   2.710   7.593  0.5149  0.1991 -0.6280
 8766SOL    HW137934   2.761   2.635   7.646 -0.2289  0.4023 -0.6789
 8766SOL    HW237935   2.880   2.710   7.585  0.5083  1.1830 -0.6917
 8767SOL     OW37936   3.062   4.623  16.187  1.2079  0.0608  0.2361
 8767SOL    HW137937   3.123   4.567  16.140  1.0356 -0.5430  0.7306
 8767SOL    HW237938   3.107   4.707  16.171 -1.9425  1.7163  0.0790
 8768SOL     OW37939   1.176   2.066   0.474 -0.4541 -0.0251  0.3346
 8768SOL    HW137940   1.178   1.973   0.452 -0.5204 -0.1898  1.0536
 8768SOL    HW237941   1.268   2.089   0.461 -0.4803 -0.2028 -0.1751
 8769SOL     OW37942   3.588   2.825  15.510  0.1220  0.6206 -0.2406
 8769SOL    HW137943   3.582   2.904  15.456 -0.3501 -0.3764 -1.6442
 8769SOL    HW237944   3.503   2.785  15.493 -0.2874  0.8085  1.3339
 8770SOL     OW37945   2.659   4.729   9.929  0.2079 -0.3720  0.2471
 8770SOL    HW137946   2.726   0.040   9.980 -1.6005  1.0333  1.3700
 8770SOL    HW237947   2.581   0.016   9.980 -0.1951  0.0098 -0.5199
 8771SOL     OW37948   2.921   3.482  10.153  0.0987  0.0992 -0.3378
 8771SOL    HW137949   2.991   3.517  10.098  0.4772  2.6955  1.7766
 8771SOL    HW237950   2.845   3.473  10.097 -0.0173  1.6977 -0.4478
 8772SOL     OW37951   3.584   4.670   8.750  0.4453 -0.1888 -0.0199
 8772SOL    HW137952   3.633   0.005   8.707 -1.9882  1.2885 -0.4395
 8772SOL    HW237953   3.595   4.596   8.690  0.3048 -0.2963  0.0848
 8773SOL     OW37954   4.394   0.600  13.329  0.4119  0.0206 -0.4148
 8773SOL    HW137955   4.480   0.563  13.308  0.5434 -1.1464  2.2698
 8773SOL    HW237956   4.402   0.684  13.284  0.9397  1.8996  3.1753
 8774SOL     OW37957   1.080   1.114  13.021  0.1318  0.0491 -0.1312
 8774SOL    HW137958   1.121   1.145  13.102  1.2964  1.5704 -1.3109
 8774SOL    HW237959   1.129   1.035  12.996  0.4083 -0.0319  0.6776
 8775SOL     OW37960   1.366   1.399  12.855  0.2268  0.2234  0.1528
 8775SOL    HW137961   1.433   1.340  12.819 -0.3804  0.7458 -1.8499
 8775SOL    HW237962   1.393   1.427  12.943 -2.8314 -1.6302  1.6580
 8776SOL     OW37963   4.453   0.216   7.647 -0.0599 -0.2341 -0.5612
 8776SOL    HW137964   4.414   0.174   7.723 -1.5569  0.0610 -1.1797
 8776SOL    HW237965   4.386   0.194   7.583 -0.7497  1.4906 -0.4322
 8777SOL     OW37966   4.112   4.221  17.452 -0.1771 -0.5427 -0.0670
 8777SOL    HW137967   4.100   4.314  17.473  1.2093 -0.5234  0.6560
 8777SOL    HW237968   4.080   4.220  17.362 -1.2520  0.0442  0.3043
 8778SOL     OW37969   0.856   2.622   2.305  0.1914  0.3110 -0.2722
 8778SOL    HW137970   0.816   2.692   2.252 -0.6771  1.0431  1.3564
 8778SOL    HW237971   0.795   2.627   2.379 -0.8093 -0.3508 -1.0497
 8779SOL     OW37972   4.368   0.797   2.631  0.1106  0.3700 -0.3157
 8779SOL    HW137973   4.414   0.740   2.568 -2.5409 -1.4571 -0.6301
 8779SOL    HW237974   4.358   0.877   2.580  0.0322  0.4867 -0.1126
 8780SOL     OW37975   3.286   1.170  16.851  0.1603 -0.1062  0.0785
 8780SOL    HW137976   3.347   1.244  16.841  1.8311 -1.4003  0.6530
 8780SOL    HW237977   3.336   1.097  16.888  1.5393  0.3927 -0.7970
 8781SOL     OW37978   2.023   0.927   0.965 -0.1577  0.7445 -1.2261
 8781SOL    HW137979   1.999   0.849   1.015  0.2391  0.8937 -0.7928
 8781SOL    HW237980   2.004   0.904   0.875 -0.2462  1.5027 -1.3986
 8782SOL     OW37981   3.638   3.183   5.759  0.0235  0.3390 -0.2297
 8782SOL    HW137982   3.577   3.170   5.831  1.4484  0.4088  1.0102
 8782SOL    HW237983   3.592   3.141   5.687 -0.4885 -2.0397  1.4710
 8783SOL     OW37984   0.380   3.949   2.905 -0.2628  0.0757 -0.1737
 8783SOL    HW137985   0.297   3.916   2.872  0.2401 -1.5591  0.1805
 8783SOL    HW237986   0.401   3.881   2.970  0.4687  0.6469  0.1813
 8784SOL     OW37987   1.349   1.527  10.768  0.4315 -0.2143 -0.6652
 8784SOL    HW137988   1.344   1.590  10.840  0.8108 -0.2285 -0.6255
 8784SOL    HW237989   1.437   1.546  10.734  0.4971  1.2873  0.3123
 8785SOL     OW37990   4.664   2.197   7.512  0.0512  0.0336  0.3004
 8785SOL    HW137991   4.581   2.162   7.543 -0.3510 -0.2121 -1.0681
 8785SOL    HW237992   4.629   2.270   7.460 -0.7544 -0.1899  0.5231
 8786SOL     OW37993   0.237   2.088  14.128 -0.3559 -0.0109  0.2544
 8786SOL    HW137994   0.170   2.078  14.061 -0.0642 -2.2481  0.3086
 8786SOL    HW237995   0.231   2.183  14.141 -0.5154  0.3358 -2.3921
 8787SOL     OW37996   3.432   0.021   4.758  0.0535 -0.1865 -0.1593
 8787SOL    HW137997   3.502   4.723   4.815  1.4906  0.2141 -1.6742
 8787SOL    HW237998   3.392   4.673   4.732  2.3925 -0.7980 -1.8481
 8788SOL     OW37999   0.552   3.126  11.573  0.0589  0.1309 -0.1516
 8788SOL    HW138000   0.643   3.113  11.602 -0.4916 -0.9317  1.1191
 8788SOL    HW238001   0.520   3.171  11.651 -0.5642  1.2855 -1.0804
 8789SOL     OW38002   2.352   3.734   3.122 -0.7825 -0.2387  0.3282
 8789SOL    HW138003   2.418   3.802   3.104 -1.6150 -0.0381 -1.9615
 8789SOL    HW238004   2.339   3.688   3.039  1.5311  0.3722 -0.3940
 8790SOL     OW38005   0.949   0.797   7.497  0.6374  0.1813  0.1336
 8790SOL    HW138006   0.914   0.828   7.581 -0.3838  2.6882 -1.1945
 8790SOL    HW238007   1.036   0.834   7.489  1.6337 -2.0731  0.6538
 8791SOL     OW38008   3.059   2.472   1.069  0.1522  0.4007  0.5165
 8791SOL    HW138009   3.113   2.396   1.049 -1.1698 -0.1359 -1.0712
 8791SOL    HW238010   2.997   2.468   0.996  0.6965  4.9201 -0.1864
 8792SOL     OW38011   0.482   4.203  16.748 -0.2035  0.2276 -0.0145
 8792SOL    HW138012   0.505   4.205  16.841 -2.4504 -1.9517  0.5886
 8792SOL    HW238013   0.531   4.279  16.718 -0.3370 -1.0270 -3.4153
 8793SOL     OW38014   2.098   4.382   3.648  0.1213 -0.1320 -0.1022
 8793SOL    HW138015   2.081   4.314   3.712  0.1031 -1.3321 -1.3724
 8793SOL    HW238016   2.068   4.348   3.563  2.0587  0.6337 -1.1012
 8794SOL     OW38017   3.671   2.609   8.605  0.2108  0.0676  0.1307
 8794SOL    HW138018   3.582   2.641   8.616  0.1107  0.3069 -1.4119
 8794SOL    HW238019   3.722   2.686   8.630 -0.0424  0.6738 -1.2341
 8795SOL     OW38020   1.026   1.588   9.606  0.6626 -0.5825 -0.2659
 8795SOL    HW138021   1.069   1.587   9.521 -0.9959 -1.6651 -1.0776
 8795SOL    HW238022   1.053   1.672   9.644 -0.4766 -0.1177 -0.4816
 8796SOL     OW38023   1.772   2.343   7.038  0.3221 -0.2984  0.3926
 8796SOL    HW138024   1.739   2.421   7.081 -1.3023 -0.2797 -0.8343
 8796SOL    HW238025   1.692   2.289   7.036 -0.5603  1.0376 -0.7609
 8797SOL     OW38026   2.353   3.701   6.491  0.3704  0.0848  0.4287
 8797SOL    HW138027   2.281   3.644   6.516  0.8565 -0.3664  0.7832
 8797SOL    HW238028   2.312   3.785   6.468  2.4170  0.6728 -1.1807
 8798SOL     OW38029   1.470   0.440   3.948 -0.1095  0.1566  0.3272
 8798SOL    HW138030   1.378   0.468   3.953  0.3055  1.7424 -0.9451
 8798SOL    HW238031   1.510   0.516   3.990 -0.3933 -0.1951  1.2374
 8799SOL     OW38032   2.669   4.546   2.428  0.0477  0.2268 -0.1085
 8799SOL    HW138033   2.644   4.637   2.413  1.1090  0.5152 -0.1466
 8799SOL    HW238034   2.586   4.505   2.402  0.9407 -1.5165 -0.2664
 8800SOL     OW38035   1.972   0.356   2.018  0.2471 -0.3908 -0.0790
 8800SOL    HW138036   1.931   0.397   1.941  0.4741 -3.9835 -2.1538
 8800SOL    HW238037   1.904   0.385   2.079  0.0496  2.8536 -1.8332
 8801SOL     OW38038   2.969   3.080   9.331  0.4969 -0.0755  0.1380
 8801SOL    HW138039   2.916   3.077   9.251 -0.5043  2.4306  0.7003
 8801SOL    HW238040   2.998   3.171   9.326  1.3710 -0.4647 -1.7203
 8802SOL     OW38041   1.148   1.004   2.298 -0.2233  0.0530 -0.1351
 8802SOL    HW138042   1.115   1.082   2.343  0.3437  0.1385  0.1288
 8802SOL    HW238043   1.122   0.944   2.368 -1.2171 -0.1551 -0.6883
 8803SOL     OW38044   3.049   1.628  12.338  0.1328  0.0229  0.2128
 8803SOL    HW138045   2.984   1.595  12.400  0.9060 -0.5562  0.7028
 8803SOL    HW238046   3.103   1.676  12.401  0.3487  1.0191 -0.7137
 8804SOL     OW38047   0.318   1.833   6.052 -0.5726  0.1153 -0.0795
 8804SOL    HW138048   0.379   1.875   5.990 -1.5580 -2.6806 -2.9179
 8804SOL    HW238049   0.240   1.879   6.021  0.1759  0.2175 -1.8341
 8805SOL     OW38050   0.037   3.952  16.097  0.1310  0.4865 -0.1453
 8805SOL    HW138051   4.726   4.030  16.127 -0.2107 -0.0316  0.6929
 8805SOL    HW238052   0.060   3.909  16.179 -0.2637 -0.2226 -0.4078
 8806SOL     OW38053   2.812   1.238   6.125 -0.1927  0.4315  0.3414
 8806SOL    HW138054   2.896   1.194   6.108  0.7103  1.6359  1.6974
 8806SOL    HW238055   2.795   1.269   6.036  0.1748  0.7747  0.3874
 8807SOL     OW38056   3.724   0.615   9.409  0.0583 -0.2853  0.0722
 8807SOL    HW138057   3.751   0.523   9.418  1.5119  0.1190 -0.1406
 8807SOL    HW238058   3.754   0.623   9.318 -3.8286  2.4091 -0.9598
 8808SOL     OW38059   0.398   0.766   8.121 -0.4496 -0.3043 -0.3320
 8808SOL    HW138060   0.307   0.787   8.097 -0.8358  1.0079  2.3407
 8808SOL    HW238061   0.382   0.692   8.179  0.1746 -1.4702 -1.6491
 8809SOL     OW38062   4.167   1.807   7.577 -0.6097  0.3717  0.9046
 8809SOL    HW138063   4.199   1.896   7.563 -1.8169  0.3924 -1.7378
 8809SOL    HW238064   4.173   1.773   7.488 -0.6286 -0.0089  1.0492
 8810SOL     OW38065   3.129   0.728   5.049  0.0765 -0.2458 -0.0487
 8810SOL    HW138066   3.086   0.690   5.126  1.0330 -2.0515 -0.4045
 8810SOL    HW238067   3.050   0.739   4.996 -0.0671 -1.6198 -0.1136
 8811SOL     OW38068   4.219   2.596  17.522 -0.1150  0.1650  0.0289
 8811SOL    HW138069   4.197   2.679  17.565  2.6801  1.4982 -1.0495
 8811SOL    HW238070   4.140   2.553  17.555 -1.0293  1.5178 -0.3884
 8812SOL     OW38071   4.668   3.671  14.615 -0.3664 -0.3550  0.3035
 8812SOL    HW138072   4.709   3.613  14.551  2.7749  1.5728  0.6005
 8812SOL    HW238073   0.008   3.732  14.618 -1.3073  0.7842  0.3733
 8813SOL     OW38074   3.558   1.102   7.805 -0.2671  0.0288  0.8531
 8813SOL    HW138075   3.527   1.019   7.770 -2.7005  0.2098  2.5997
 8813SOL    HW238076   3.494   1.119   7.874  1.6859  2.8948  1.9475
 8814SOL     OW38077   3.194   0.301   7.516  0.2564  0.0102 -0.0664
 8814SOL    HW138078   3.240   0.303   7.432  1.3960  2.6315  0.6039
 8814SOL    HW238079   3.272   0.306   7.572 -0.1642 -1.7819  0.6695
 8815SOL     OW38080   4.166   3.032  11.958 -0.2391  0.5139  0.1403
 8815SOL    HW138081   4.126   2.953  11.995 -1.4581  1.3387  0.6028
 8815SOL    HW238082   4.124   3.097  12.014 -0.2105  0.0546  0.6997
 8816SOL     OW38083   4.017   0.887   8.649  0.6038 -0.3303 -0.5506
 8816SOL    HW138084   4.095   0.832   8.640  1.0212  0.5836 -2.5491
 8816SOL    HW238085   4.046   0.972   8.616 -2.4552  1.4391  1.3859
 8817SOL     OW38086   2.800   4.225   9.992 -0.1807 -0.5775 -0.1245
 8817SOL    HW138087   2.850   4.273  10.058 -1.6060  2.7040 -1.4298
 8817SOL    HW238088   2.787   4.143  10.038 -0.0571 -0.5627 -0.0629
 8818SOL     OW38089   0.618   3.562   2.997  0.4080  0.4309 -0.0681
 8818SOL    HW138090   0.668   3.624   2.945  1.9415 -1.7767 -1.2247
 8818SOL    HW238091   0.655   3.571   3.085  1.8400  4.0100 -1.0077
 8819SOL     OW38092   4.225   3.610   8.722  0.4356 -0.4890  0.5689
 8819SOL    HW138093   4.278   3.594   8.644  1.8932 -1.4309  1.7626
 8819SOL    HW238094   4.206   3.522   8.754 -2.0873 -1.0797 -2.5517
 8820SOL     OW38095   2.481   0.133   0.581  0.2738 -0.4185  0.0920
 8820SOL    HW138096   2.484   0.059   0.642 -0.0683  0.2600  0.9246
 8820SOL    HW238097   2.516   0.100   0.498  1.8527 -1.5620  1.2182
 8821SOL     OW38098   4.716   0.871   7.151  0.2900  0.1661 -0.2001
 8821SOL    HW138099   4.723   0.791   7.098  0.0680  0.8572 -1.2681
 8821SOL    HW238100   4.627   0.896   7.129  0.0727 -0.8813 -0.5347
 8822SOL     OW38101   1.451   2.556   7.437 -0.2883  0.7617  0.0604
 8822SOL    HW138102   1.444   2.616   7.512 -1.1088 -0.8358  1.2555
 8822SOL    HW238103   1.361   2.555   7.403  0.6124 -1.1421 -2.2601
 8823SOL     OW38104   2.357   1.966   6.728  0.2620 -0.2095 -0.3221
 8823SOL    HW138105   2.422   2.028   6.763 -1.5137  0.9679  0.9035
 8823SOL    HW238106   2.285   1.971   6.791 -0.0222  2.6608 -0.8392
 8824SOL     OW38107   2.600   4.355   9.599 -0.1551 -0.0845 -0.1836
 8824SOL    HW138108   2.548   4.391   9.672 -1.9471 -1.5055 -0.7823
 8824SOL    HW238109   2.623   4.267   9.629  0.0390  0.2998  0.8148
 8825SOL     OW38110   4.140   1.110   3.903  0.2693 -0.5028 -0.7783
 8825SOL    HW138111   4.136   1.151   3.817  1.2145  0.1116 -0.5292
 8825SOL    HW238112   4.080   1.156   3.962 -0.6032 -0.9917 -1.2779
 8826SOL     OW38113   3.436   2.358   5.409  0.4547  0.2243  0.1043
 8826SOL    HW138114   3.490   2.336   5.485 -2.3360 -0.0960  2.0263
 8826SOL    HW238115   3.466   2.440   5.370  1.7209  0.8126  2.3396
 8827SOL     OW38116   1.335   3.183  16.089  0.1564 -0.6132 -0.1573
 8827SOL    HW138117   1.289   3.110  16.047 -1.1103 -0.3392  0.7421
 8827SOL    HW238118   1.426   3.156  16.086 -0.1414 -1.5613 -0.7445
 8828SOL     OW38119   1.598   1.139   0.525 -0.0732 -0.2991  0.7241
 8828SOL    HW138120   1.575   1.079   0.596 -1.3690 -2.6411 -1.7096
 8828SOL    HW238121   1.544   1.214   0.547  2.9694  1.6768  1.4468
 8829SOL     OW38122   4.193   2.089   8.755  0.1152  0.3195 -0.0583
 8829SOL    HW138123   4.140   2.015   8.784  0.7638  0.4377  1.4547
 8829SOL    HW238124   4.159   2.098   8.666 -0.8112  0.4983  0.3190
 8830SOL     OW38125   4.628   0.332   5.330  0.3446 -0.2522  0.1782
 8830SOL    HW138126   4.631   0.391   5.254  0.0117 -0.6428 -0.1405
 8830SOL    HW238127   4.538   0.348   5.358  0.9293 -1.0545  2.4898
 8831SOL     OW38128   2.420   0.971   2.947  0.2500  0.2590  0.2263
 8831SOL    HW138129   2.381   0.884   2.939 -0.6792  0.8444 -1.6671
 8831SOL    HW238130   2.435   1.000   2.857 -0.3487  1.8415  0.6387
 8832SOL     OW38131   3.443   1.950   3.144  0.4595  0.7346 -0.2172
 8832SOL    HW138132   3.448   1.957   3.239  3.1660 -0.6964 -0.2605
 8832SOL    HW238133   3.514   1.890   3.120 -1.9684 -0.8912 -3.3363
 8833SOL     OW38134   1.299   4.279   7.019 -0.4671 -0.0140  0.3223
 8833SOL    HW138135   1.239   4.338   7.063 -3.0782 -1.1402 -1.6996
 8833SOL    HW238136   1.383   4.320   7.042  0.2855 -1.1609 -0.3340
 8834SOL     OW38137   3.919   2.641   7.262  0.6699  0.3089 -0.4699
 8834SOL    HW138138   3.921   2.640   7.167 -1.0844  1.2127 -0.5094
 8834SOL    HW238139   3.850   2.579   7.285 -0.2901  1.3593 -0.5044
 8835SOL     OW38140   3.547   3.084   6.407  0.3958 -0.0823 -0.3787
 8835SOL    HW138141   3.584   3.124   6.485 -0.6939  0.5766 -0.1979
 8835SOL    HW238142   3.565   3.147   6.337 -1.0397  1.3202  0.5099
 8836SOL     OW38143   0.705   1.615  12.986  0.0463 -0.3966  0.7006
 8836SOL    HW138144   0.732   1.694  12.940  2.5018 -1.0533  0.9653
 8836SOL    HW238145   0.618   1.634  13.019  0.2826 -0.5541  1.4157
 8837SOL     OW38146   1.616   0.029  12.293 -0.1041 -0.3152 -0.1634
 8837SOL    HW138147   1.710   0.009  12.292  0.0440  0.4408 -0.8026
 8837SOL    HW238148   1.578   4.675  12.290  2.0126 -1.0928 -3.4295
 8838SOL     OW38149   1.299   0.988   1.923  0.1947  0.3951 -0.5142
 8838SOL    HW138150   1.313   1.062   1.982 -2.8743  0.7962 -0.2438
 8838SOL    HW238151   1.227   1.015   1.865  0.7696  0.9006 -0.9876
 8839SOL     OW38152   1.580   2.592   8.659  0.2520 -0.3415 -0.3394
 8839SOL    HW138153   1.548   2.583   8.748  0.7989 -1.0554 -0.2194
 8839SOL    HW238154   1.605   2.685   8.657 -2.9660  0.5182  0.1001
 8840SOL     OW38155   3.996   2.607  16.359 -0.1273 -0.8775 -0.2780
 8840SOL    HW138156   4.020   2.683  16.306  1.0313  0.3864  2.0461
 8840SOL    HW238157   4.078   2.558  16.349 -0.2593 -0.9516 -0.9796
 8841SOL     OW38158   2.322   0.323   2.752  0.5893 -0.6007 -0.0683
 8841SOL    HW138159   2.379   0.397   2.730  1.1307 -1.2610 -0.8989
 8841SOL    HW238160   2.371   0.245   2.724  1.9449  0.2944 -0.1598
 8842SOL     OW38161   1.536   1.718   0.888 -0.2554 -0.4419  0.0397
 8842SOL    HW138162   1.589   1.794   0.910 -0.8805  0.4315 -1.4782
 8842SOL    HW238163   1.458   1.733   0.942 -0.5596 -1.5060 -0.1004
 8843SOL     OW38164   0.970   3.226   7.817 -0.0512 -0.7856  0.3236
 8843SOL    HW138165   0.933   3.273   7.892 -1.8605 -0.6958 -0.6314
 8843SOL    HW238166   1.012   3.299   7.771 -0.7451 -1.4892 -1.4174
 8844SOL     OW38167   3.699   4.242   9.807  0.4963 -0.0612 -0.4484
 8844SOL    HW138168   3.613   4.265   9.841 -0.5941 -2.9591 -1.2550
 8844SOL    HW238169   3.697   4.295   9.727  1.4468 -1.5831 -1.4736
 8845SOL     OW38170   0.631   4.081   4.912 -0.6440  0.2099  0.3802
 8845SOL    HW138171   0.681   4.059   4.990  0.1459 -3.2089 -1.1245
 8845SOL    HW238172   0.691   4.148   4.879  0.3852 -0.1611  1.5332
 8846SOL     OW38173   1.414   2.677   4.111 -0.3617  0.9157  0.0920
 8846SOL    HW138174   1.351   2.607   4.096 -0.3221  1.3787 -2.2089
 8846SOL    HW238175   1.483   2.660   4.048 -0.6040  1.8526 -0.4327
 8847SOL     OW38176   0.475   2.732   1.413  0.4478  0.6236  0.1241
 8847SOL    HW138177   0.553   2.753   1.464  0.9373 -2.0458  0.4865
 8847SOL    HW238178   0.483   2.637   1.404  1.0177  0.9995 -3.2483
 8848SOL     OW38179   3.561   4.127  11.990  0.0733  0.6910 -0.8354
 8848SOL    HW138180   3.556   4.207  11.937 -1.9297 -0.3252 -2.1613
 8848SOL    HW238181   3.547   4.053  11.932  0.2977 -0.6928  0.8655
 8849SOL     OW38182   3.617   3.461   1.182  0.3702  0.2012  0.2292
 8849SOL    HW138183   3.617   3.426   1.093 -1.2623 -1.1621  0.7737
 8849SOL    HW238184   3.583   3.550   1.175 -1.9792 -0.9568 -2.7960
 8850SOL     OW38185   1.920   1.150   7.051 -0.1531 -0.2591  0.0908
 8850SOL    HW138186   1.985   1.139   6.981 -1.0792 -0.0309 -0.7964
 8850SOL    HW238187   1.973   1.114   7.123 -2.1075  1.3490  2.3386
 8851SOL     OW38188   4.027   1.963   8.294  0.0697 -0.1998 -0.0497
 8851SOL    HW138189   3.988   1.937   8.210 -1.0701 -0.1937  0.4779
 8851SOL    HW238190   4.047   1.881   8.338 -0.1968  0.1622  0.7408
 8852SOL     OW38191   3.529   0.609   5.589 -0.4379  0.2548 -0.2504
 8852SOL    HW138192   3.559   0.572   5.673 -0.7722 -0.1825 -0.3202
 8852SOL    HW238193   3.608   0.658   5.568 -1.1725  1.1970 -0.7816
 8853SOL     OW38194   0.013   0.295   7.601  0.8718 -0.3518  0.4273
 8853SOL    HW138195   4.660   0.303   7.641  1.0044 -1.1463  0.8599
 8853SOL    HW238196   4.726   0.215   7.554  0.8034 -0.0845  0.0013
 8854SOL     OW38197   0.511   3.984   4.668  0.5303  0.0113  0.1205
 8854SOL    HW138198   0.572   4.029   4.727  1.5417  0.3923 -1.2180
 8854SOL    HW238199   0.503   3.904   4.720 -1.4671 -0.1497 -0.4261
 8855SOL     OW38200   1.547   1.198   3.466 -0.1210  0.0081 -0.0842
 8855SOL    HW138201   1.567   1.246   3.386  1.5211  0.3414  0.5298
 8855SOL    HW238202   1.467   1.151   3.443  1.9391 -1.8970 -3.3708
 8856SOL     OW38203   2.035   2.219  16.018  0.1299  0.3664  0.7069
 8856SOL    HW138204   2.085   2.295  16.049  1.7417 -1.7604  3.3502
 8856SOL    HW238205   2.004   2.169  16.093  1.1377  1.9865  2.2197
 8857SOL     OW38206   0.846   1.226   8.979 -0.4148  0.0481 -0.5761
 8857SOL    HW138207   0.897   1.168   8.923  2.5248  0.6653  1.4657
 8857SOL    HW238208   0.794   1.165   9.032 -3.0482  2.2415 -0.6384
 8858SOL     OW38209   0.044   3.750   5.910 -0.3877  0.2197  0.1168
 8858SOL    HW138210   4.692   3.708   5.903 -0.3167  0.1694 -0.4528
 8858SOL    HW238211   0.055   3.774   5.818 -1.7337 -1.2879 -0.4344
 8859SOL     OW38212   2.365   2.793   9.222 -0.3031  0.6048  0.1800
 8859SOL    HW138213   2.326   2.718   9.178  0.4161 -0.5509  1.5241
 8859SOL    HW238214   2.456   2.765   9.231 -0.1116  0.8953 -0.8668
 8860SOL     OW38215   2.776   3.901   9.034 -0.3913  0.2480 -0.4489
 8860SOL    HW138216   2.751   3.993   9.041  0.5870  0.3921  1.2727
 8860SOL    HW238217   2.822   3.896   9.118 -1.6528  0.4102  0.2550
 8861SOL     OW38218   4.585   0.192   3.739  0.0375  0.2677 -0.5051
 8861SOL    HW138219   4.658   0.168   3.797  0.4053  1.1268 -0.6133
 8861SOL    HW238220   4.598   0.287   3.730  1.1641 -0.0622 -2.5773
 8862SOL     OW38221   3.634   1.099   7.487  0.4473 -0.7421  0.3581
 8862SOL    HW138222   3.579   1.167   7.447 -1.2642 -0.9638  2.3224
 8862SOL    HW238223   3.628   1.120   7.581  2.2786  0.3048  0.2541
 8863SOL     OW38224   1.821   0.334   7.220 -0.3812 -0.1539 -0.7212
 8863SOL    HW138225   1.744   0.294   7.179 -0.6944 -0.1488 -0.1335
 8863SOL    HW238226   1.807   0.325   7.314 -1.4961  2.8337 -0.6093
 8864SOL     OW38227   4.207   4.317   4.859 -0.0767  0.0711 -0.0987
 8864SOL    HW138228   4.139   4.314   4.927  1.1667 -0.8506  1.1109
 8864SOL    HW238229   4.283   4.359   4.899 -0.8260  0.5200  0.8424
 8865SOL     OW38230   0.632   4.654  13.320 -0.1574 -0.4998  0.1502
 8865SOL    HW138231   0.595   4.578  13.365 -0.8206 -1.2622 -1.6654
 8865SOL    HW238232   0.641   4.618  13.231 -1.5534 -1.3448  0.3569
 8866SOL     OW38233   2.866   4.171  13.637 -0.5105 -0.8744  0.3117
 8866SOL    HW138234   2.802   4.213  13.579  2.0845 -0.3692 -2.1586
 8866SOL    HW238235   2.897   4.245  13.688  1.8887 -0.1012 -2.2658
 8867SOL     OW38236   1.872   2.814   6.147 -0.1808  0.0016 -0.3663
 8867SOL    HW138237   1.926   2.761   6.088  1.0394  0.2097  0.5893
 8867SOL    HW238238   1.913   2.815   6.233 -2.2982  1.1701  0.6194
 8868SOL     OW38239   3.726   3.594  17.374  0.1788  0.3174  0.2544
 8868SOL    HW138240   3.791   3.530  17.401 -0.0626 -0.3582 -0.7702
 8868SOL    HW238241   3.766   3.673  17.411  0.1796  0.0845  0.7509
 8869SOL     OW38242   2.118   0.700  14.833 -0.1100 -0.3601 -0.1928
 8869SOL    HW138243   2.130   0.628  14.772 -0.9850 -0.5598 -0.1286
 8869SOL    HW238244   2.057   0.752  14.781  1.6238  2.3077  0.4564
 8870SOL     OW38245   3.282   1.478   3.613 -0.4363  0.2993  0.6510
 8870SOL    HW138246   3.346   1.506   3.679 -0.4816 -1.4070  1.4215
 8870SOL    HW238247   3.204   1.518   3.653 -0.9608 -0.6647  0.6130
 8871SOL     OW38248   1.907   0.356   6.188  0.2328 -0.5118 -0.6727
 8871SOL    HW138249   1.835   0.400   6.232 -0.7784  2.7574 -5.6339
 8871SOL    HW238250   1.976   0.416   6.215 -0.3598 -0.0650 -0.1685
 8872SOL     OW38251   1.036   1.215   8.360 -0.0492  0.4319  0.0215
 8872SOL    HW138252   1.107   1.152   8.352  0.3707  0.8706  0.2607
 8872SOL    HW238253   1.038   1.275   8.285 -1.0560  1.4776  0.8290
 8873SOL     OW38254   0.181   4.694   6.761 -0.2733  0.6311 -0.1572
 8873SOL    HW138255   0.118   0.021   6.801  0.4854  0.7969  0.7965
 8873SOL    HW238256   0.117   4.628   6.735  0.0404 -0.3828  1.6144
 8874SOL     OW38257   0.049   1.636  12.474 -0.4471  0.4241 -0.0994
 8874SOL    HW138258   0.043   1.724  12.436  3.5783  0.3767 -0.8981
 8874SOL    HW238259   4.707   1.641  12.531 -0.7507  0.1875 -0.4906
 8875SOL     OW38260   2.908   2.731   9.658 -0.1560  0.0605  0.1239
 8875SOL    HW138261   2.950   2.801   9.609  0.2663  1.0153  1.8696
 8875SOL    HW238262   2.979   2.715   9.719  1.4890  2.9019 -1.0374
 8876SOL     OW38263   4.466   2.568   2.702  0.6557 -0.1780 -0.1141
 8876SOL    HW138264   4.406   2.517   2.757  0.1776  0.4303 -0.0671
 8876SOL    HW238265   4.523   2.613   2.764  2.1951 -1.9094 -0.2973
 8877SOL     OW38266   0.118   3.424   5.224 -0.3798  0.1604 -0.5558
 8877SOL    HW138267   0.184   3.475   5.271  2.9943 -3.1198 -1.7271
 8877SOL    HW238268   0.100   3.469   5.141  0.1161  0.2480 -0.6151
 8878SOL     OW38269   3.657   3.773  12.914 -0.7288 -0.5463 -0.0963
 8878SOL    HW138270   3.707   3.697  12.944  1.3395  0.2613 -1.4819
 8878SOL    HW238271   3.612   3.732  12.840 -0.0887 -0.0096 -0.7925
 8879SOL     OW38272   0.347   3.602   2.188 -0.0902  0.2289 -0.4521
 8879SOL    HW138273   0.261   3.601   2.148 -0.3775 -0.3514  0.1828
 8879SOL    HW238274   0.332   3.586   2.281  0.6224 -0.8200 -0.5240
 8880SOL     OW38275   2.482   2.945   5.772 -0.4155 -0.1195  0.0304
 8880SOL    HW138276   2.479   2.909   5.684 -2.4523 -1.1479  0.5127
 8880SOL    HW238277   2.519   2.871   5.821 -1.3816 -1.9857 -2.0230
 8881SOL     OW38278   2.566   3.868  13.820  0.1516  0.3072  0.3753
 8881SOL    HW138279   2.600   3.932  13.757  0.3251  0.6566  0.8290
 8881SOL    HW238280   2.473   3.854  13.804  0.5198 -2.3848  0.5827
 8882SOL     OW38281   1.751   1.529   0.771 -0.3644  0.2318 -0.5378
 8882SOL    HW138282   1.660   1.540   0.745 -0.7607 -2.9475 -0.5014
 8882SOL    HW238283   1.796   1.602   0.728 -1.2602  0.9411 -0.2576
 8883SOL     OW38284   1.036   1.242  11.276 -0.1146 -0.3431 -0.2393
 8883SOL    HW138285   1.122   1.239  11.235 -0.8750 -1.3112 -1.7737
 8883SOL    HW238286   1.059   1.177  11.343  1.2588  0.6979  0.2993
 8884SOL     OW38287   0.796   0.078   0.671 -0.9587 -0.7365  0.3163
 8884SOL    HW138288   0.878   0.127   0.667 -0.8876 -0.8848 -0.0492
 8884SOL    HW238289   0.777   0.091   0.764  0.7372 -0.4853  0.6156
 8885SOL     OW38290   0.623   1.773   4.612  0.0278  0.1751  0.0871
 8885SOL    HW138291   0.637   1.728   4.529 -1.3564 -0.7700  0.3564
 8885SOL    HW238292   0.646   1.861   4.582 -1.2116  0.1972 -0.7945
 8886SOL     OW38293   1.591   3.169   4.785 -0.1283  0.4178 -0.2256
 8886SOL    HW138294   1.613   3.228   4.858 -0.5162  0.4674 -0.1441
 8886SOL    HW238295   1.610   3.083   4.820 -1.2722 -0.1738 -1.0587
 8887SOL     OW38296   0.736   1.909   6.871  0.1595  0.0689  0.0321
 8887SOL    HW138297   0.781   1.954   6.800  1.9328 -0.3146  0.8949
 8887SOL    HW238298   0.801   1.840   6.884 -2.0904 -2.0477  0.0116
 8888SOL     OW38299   1.384   4.648   7.837  0.4710 -0.2593  0.1384
 8888SOL    HW138300   1.309   4.707   7.832  0.2701 -0.5402 -0.1043
 8888SOL    HW238301   1.411   4.664   7.928  0.5455 -0.3226  0.1269
 8889SOL     OW38302   3.741   2.445   4.548 -0.1154 -0.5586  0.5075
 8889SOL    HW138303   3.758   2.505   4.621  0.5127  0.1722 -0.2402
 8889SOL    HW238304   3.653   2.478   4.530  0.7893  0.9400 -1.1016
 8890SOL     OW38305   3.695   4.175  14.372  0.9633 -0.0590  0.4918
 8890SOL    HW138306   3.651   4.111  14.428 -1.7945  1.1306 -0.3143
 8890SOL    HW238307   3.784   4.139  14.374  0.7594 -0.6386 -0.6947
 8891SOL     OW38308   4.138   2.591   5.142 -1.2318  0.5243  0.5590
 8891SOL    HW138309   4.205   2.581   5.210 -2.0524  0.1788  1.3220
 8891SOL    HW238310   4.152   2.676   5.100  0.5807  0.0691  0.2344
 8892SOL     OW38311   2.828   2.175   9.442  0.3443  0.1527  0.2579
 8892SOL    HW138312   2.784   2.174   9.357  1.8455 -3.2019 -0.4935
 8892SOL    HW238313   2.809   2.088   9.479 -1.7906  2.3465  4.3309
 8893SOL     OW38314   3.212   2.264   1.014  0.4438  0.3885  0.7348
 8893SOL    HW138315   3.297   2.230   0.987 -1.3166 -2.0510 -1.6517
 8893SOL    HW238316   3.161   2.183   1.017  2.2515 -0.7428  0.7386
 8894SOL     OW38317   1.151   2.020  14.530 -0.0265 -0.3270 -0.3829
 8894SOL    HW138318   1.154   2.116  14.533 -1.0876 -0.2702 -1.2867
 8894SOL    HW238319   1.130   2.004  14.622 -0.3327 -2.9598 -0.9064
 8895SOL     OW38320   3.255   3.295  12.061 -0.5491 -0.1522 -0.1649
 8895SOL    HW138321   3.280   3.259  11.976  0.1104 -0.5387  0.1895
 8895SOL    HW238322   3.178   3.241  12.074 -1.4455  0.7194 -1.9449
 8896SOL     OW38323   2.143   0.257  14.737 -0.0528  0.4168  0.1105
 8896SOL    HW138324   2.048   0.268  14.731  0.0811  0.5803 -1.7363
 8896SOL    HW238325   2.158   0.183  14.678 -1.5836 -0.2337  0.5397
 8897SOL     OW38326   1.305   0.695   2.498  0.6843  0.4534 -0.3751
 8897SOL    HW138327   1.334   0.655   2.415  2.3706  0.6012  0.1334
 8897SOL    HW238328   1.393   0.717   2.529  0.7755  0.4751 -0.6487
 8898SOL     OW38329   3.358   2.244   3.869 -0.1316 -0.2483 -0.0576
 8898SOL    HW138330   3.300   2.318   3.852  0.1057  0.0448  0.3927
 8898SOL    HW238331   3.324   2.186   3.801  0.2147  0.6147 -0.9711
 8899SOL     OW38332   3.015   2.278   4.614  0.2304  0.7704  0.1808
 8899SOL    HW138333   3.025   2.182   4.617 -1.2125  0.5469 -2.1284
 8899SOL    HW238334   3.013   2.302   4.521 -0.4445  0.3820  0.0954
 8900SOL     OW38335   2.401   2.701  17.581  0.1620 -0.0985 -0.0454
 8900SOL    HW138336   2.419   2.788  17.547 -0.6194  0.3538  0.7062
 8900SOL    HW238337   2.484   2.655  17.566  0.2556  0.2580 -0.6132
 8901SOL     OW38338   3.882   2.931   5.732 -0.2970  0.1054  0.1570
 8901SOL    HW138339   3.887   2.968   5.644 -0.4751 -0.5053 -0.1093
 8901SOL    HW238340   3.964   2.964   5.770  1.0114 -3.0599  0.1136
 8902SOL     OW38341   0.241   0.491   3.170 -0.3530 -0.0693  0.2072
 8902SOL    HW138342   0.167   0.551   3.161 -0.5143 -0.6489 -2.2481
 8902SOL    HW238343   0.272   0.533   3.250 -1.1646  0.9860 -0.0249
 8903SOL     OW38344   0.722   1.190   6.786 -0.0485  0.4264  0.1241
 8903SOL    HW138345   0.647   1.183   6.844  1.3814  0.0256  1.9382
 8903SOL    HW238346   0.777   1.116   6.812  0.2102 -0.4262 -2.7697
 8904SOL     OW38347   3.879   2.010  14.671 -0.3507 -0.3842 -0.1929
 8904SOL    HW138348   3.872   1.958  14.751  0.4692 -2.2614 -1.3376
 8904SOL    HW238349   3.973   1.992  14.667 -0.0113  1.4393 -0.5136
 8905SOL     OW38350   1.059   0.958  16.133  0.3643  0.8784 -0.1413
 8905SOL    HW138351   0.987   0.976  16.072  0.0151 -0.7070 -0.1896
 8905SOL    HW238352   1.028   0.886  16.188  3.5973  0.8459  1.6129
 8906SOL     OW38353   0.413   2.368  15.009 -0.4014 -0.3824 -0.0230
 8906SOL    HW138354   0.444   2.362  14.918 -1.6576  5.0785 -0.8467
 8906SOL    HW238355   0.454   2.294  15.053  0.8458  0.1184 -0.3062
 8907SOL     OW38356   1.485   4.517  12.348 -0.5607  0.2417  0.2432
 8907SOL    HW138357   1.552   4.505  12.416  0.0077  0.3098 -0.3004
 8907SOL    HW238358   1.414   4.497  12.408 -0.6804 -2.2958 -0.7557
 8908SOL     OW38359   1.661   2.975   9.825 -0.0611  0.4279  0.3848
 8908SOL    HW138360   1.640   2.899   9.771 -2.7141  1.5004 -0.1340
 8908SOL    HW238361   1.622   2.949   9.909  0.3214 -0.9993  0.1124
 8909SOL     OW38362   3.174   2.735   3.063 -0.1670 -0.6691  0.1340
 8909SOL    HW138363   3.177   2.684   3.144 -0.8160  0.2936  0.7689
 8909SOL    HW238364   3.257   2.720   3.017 -0.0840  1.5641 -0.4662
 8910SOL     OW38365   0.652   2.799   1.610 -0.4842 -0.1186  0.0699
 8910SOL    HW138366   0.671   2.750   1.689  0.8231 -0.2112 -0.3067
 8910SOL    HW238367   0.737   2.841   1.592 -0.2919 -0.4333  0.2575
 8911SOL     OW38368   2.551   2.358   8.090 -0.1209  0.0865 -0.6333
 8911SOL    HW138369   2.610   2.346   8.165 -0.0452  1.6867 -0.4238
 8911SOL    HW238370   2.492   2.284   8.095 -0.7201  0.5322 -1.0658
 8912SOL     OW38371   0.297   3.004   0.836  0.1207 -0.1908  0.2583
 8912SOL    HW138372   0.373   3.056   0.862  0.2494 -0.2223 -0.0617
 8912SOL    HW238373   0.256   3.070   0.781  0.4087  1.1733  1.6668
 8913SOL     OW38374   4.631   3.342   8.103  0.2186 -0.0527  0.1176
 8913SOL    HW138375   4.713   3.344   8.054 -0.0007  2.8244 -0.1425
 8913SOL    HW238376   4.658   3.343   8.195  1.5251  0.3169 -0.2780
 8914SOL     OW38377   1.960   0.714   0.045  0.2923  0.5289  0.4492
 8914SOL    HW138378   1.923   0.798   0.015 -1.5767 -0.8917 -1.2096
 8914SOL    HW238379   1.880   0.661   0.050 -0.0074  0.8664 -0.7839
 8915SOL     OW38380   4.388   1.973   4.651  0.1670  0.2153 -0.2505
 8915SOL    HW138381   4.469   2.021   4.633  0.6326 -0.4835  0.0060
 8915SOL    HW238382   4.362   1.932   4.569  0.3444 -0.7364  0.1739
 8916SOL     OW38383   0.407   2.018   3.803  0.0067  0.0231 -0.0197
 8916SOL    HW138384   0.383   1.994   3.892 -2.3754 -0.6611 -0.8488
 8916SOL    HW238385   0.321   2.032   3.763  0.5078  1.6521 -0.5314
 8917SOL     OW38386   4.458   2.884   2.959 -0.1598  0.5691 -0.5560
 8917SOL    HW138387   4.417   2.841   3.034 -1.0961 -1.0898 -2.0063
 8917SOL    HW238388   4.392   2.944   2.922  0.9278  1.7235 -0.6075
 8918SOL     OW38389   2.138   2.894   1.540  0.3083 -0.0684 -0.6222
 8918SOL    HW138390   2.202   2.962   1.517  1.1512 -1.1479 -1.4633
 8918SOL    HW238391   2.060   2.929   1.497  1.2831  1.8046 -0.8561
 8919SOL     OW38392   2.588   3.453   7.906  0.4910  0.1179  1.3752
 8919SOL    HW138393   2.673   3.498   7.906  0.5289  0.0458  0.0295
 8919SOL    HW238394   2.524   3.518   7.879 -0.4959  0.0869  3.6168
 8920SOL     OW38395   1.224   2.472   3.810  0.4183  0.4219 -0.8367
 8920SOL    HW138396   1.217   2.377   3.825 -1.5971  0.6007 -0.7489
 8920SOL    HW238397   1.153   2.501   3.867 -0.6684  0.1505 -2.0615
 8921SOL     OW38398   1.751   0.858   3.404 -0.0214 -0.7691  0.0456
 8921SOL    HW138399   1.704   0.902   3.333  0.6304  2.0796  1.3809
 8921SOL    HW238400   1.811   0.800   3.358  1.2320  2.0237 -1.7881
 8922SOL     OW38401   4.401   4.396   3.692 -0.1813  0.0103  0.1026
 8922SOL    HW138402   4.410   4.451   3.615  2.0872 -0.8101 -0.2138
 8922SOL    HW238403   4.492   4.376   3.711 -0.1469 -0.6981 -0.7848
 8923SOL     OW38404   4.523   2.875   7.067 -0.1871  0.1222 -0.0221
 8923SOL    HW138405   4.522   2.882   6.971 -0.7091 -2.8221 -0.2058
 8923SOL    HW238406   4.601   2.821   7.079 -0.5488 -0.4313 -0.1563
 8924SOL     OW38407   1.214   2.052  12.062  0.2117  0.1116  0.0344
 8924SOL    HW138408   1.274   2.087  12.128  1.3213 -0.5427 -0.6309
 8924SOL    HW238409   1.234   1.959  12.070 -0.3066  0.0607  0.7481
 8925SOL     OW38410   2.951   1.707  11.889  0.3899 -0.0623  0.2629
 8925SOL    HW138411   2.970   1.636  11.827 -2.8355 -0.3262 -0.4252
 8925SOL    HW238412   2.942   1.773  11.821  0.7923 -0.5497 -0.2660
 8926SOL     OW38413   2.435   1.496  15.192 -0.3028 -0.2021 -0.3397
 8926SOL    HW138414   2.343   1.498  15.216  0.5579 -0.1413  2.9040
 8926SOL    HW238415   2.472   1.565  15.246 -0.6824 -0.1652 -0.1352
 8927SOL     OW38416   3.998   2.667   1.012 -0.0541  0.5957  0.2719
 8927SOL    HW138417   4.059   2.611   1.060 -2.1051 -1.5987  0.3160
 8927SOL    HW238418   3.919   2.614   1.005 -1.0127  1.8680  1.4839
 8928SOL     OW38419   4.105   2.297  15.502  0.0353 -0.4009  0.2037
 8928SOL    HW138420   4.135   2.336  15.584  4.2290 -0.2137 -1.4088
 8928SOL    HW238421   4.084   2.376  15.452  1.8564  1.5234  2.4726
 8929SOL     OW38422   3.975   1.231  11.878  0.2595 -0.0358 -0.2029
 8929SOL    HW138423   4.046   1.261  11.822 -0.4118 -1.5767 -1.8648
 8929SOL    HW238424   3.992   1.260  11.968 -1.2689  1.6647 -0.4557
 8930SOL     OW38425   3.535   3.280  15.607  0.0251  0.1441 -0.0865
 8930SOL    HW138426   3.471   3.237  15.664 -0.4422 -2.2530 -2.4402
 8930SOL    HW238427   3.584   3.328  15.674 -1.1846  0.7262  0.3901
 8931SOL     OW38428   1.587   2.215  12.389  0.0615  0.5372  0.3726
 8931SOL    HW138429   1.589   2.286  12.454  1.1303 -1.6406  2.7047
 8931SOL    HW238430   1.679   2.191  12.397 -0.2279 -0.2959  1.2939
 8932SOL     OW38431   1.852   1.906   7.869  0.0448 -0.2116 -0.0572
 8932SOL    HW138432   1.877   1.894   7.777 -0.8550 -2.1028 -0.0406
 8932SOL    HW238433   1.918   1.971   7.893 -0.8814  0.6168  0.2319
 8933SOL     OW38434   1.659   0.630   2.912  0.2997 -0.0061 -0.1875
 8933SOL    HW138435   1.636   0.600   3.000 -0.3575 -0.3184 -0.4656
 8933SOL    HW238436   1.686   0.549   2.869  0.5116  0.9450 -1.8641
 8934SOL     OW38437   1.999   0.699   9.147  0.8994 -0.6008 -0.1551
 8934SOL    HW138438   2.074   0.725   9.199  0.4298  1.1796 -0.3929
 8934SOL    HW238439   1.982   0.782   9.104  2.3343  0.9977  2.3843
 8935SOL     OW38440   1.696   0.354   6.737 -0.5208  0.6175  0.1116
 8935SOL    HW138441   1.645   0.435   6.728 -1.6405 -0.1607 -0.6364
 8935SOL    HW238442   1.626   0.288   6.737  1.7495 -1.7745  0.2400
 8936SOL     OW38443   4.579   2.806  11.939 -1.0975 -0.1932  1.0618
 8936SOL    HW138444   4.662   2.807  11.985  0.4747 -0.8687 -1.7797
 8936SOL    HW238445   4.582   2.884  11.884  0.3947 -1.2523 -0.3772
 8937SOL     OW38446   4.398   4.140  15.038 -0.3357 -0.1483  0.1619
 8937SOL    HW138447   4.395   4.055  15.083 -0.0037  1.5926  3.4764
 8937SOL    HW238448   4.400   4.198  15.114  1.7702 -1.2987  0.9909
 8938SOL     OW38449   3.615   4.512   1.905  0.2460 -0.4387  0.1099
 8938SOL    HW138450   3.554   4.445   1.877  0.2593 -0.9757  1.3601
 8938SOL    HW238451   3.674   4.458   1.958  0.0720 -0.7804 -0.0463
 8939SOL     OW38452   2.882   4.141   3.379 -0.6538 -0.6408  0.3817
 8939SOL    HW138453   2.868   4.055   3.418 -1.3411 -1.0074 -0.6811
 8939SOL    HW238454   2.963   4.175   3.417 -1.1931  1.5286 -0.3623
 8940SOL     OW38455   2.373   4.112   1.337  0.4976  0.2777 -0.3270
 8940SOL    HW138456   2.384   4.060   1.258 -2.1197  0.3373 -0.7153
 8940SOL    HW238457   2.289   4.155   1.325 -0.4141 -0.7834  2.0774
 8941SOL     OW38458   0.828   3.272  16.318  0.2085 -0.3292 -0.4926
 8941SOL    HW138459   0.761   3.312  16.262 -1.3433 -0.9951  0.9015
 8941SOL    HW238460   0.900   3.334  16.302  0.5305 -0.3727  0.8038
 8942SOL     OW38461   3.989   3.702   5.534 -0.1554  0.4256  0.2326
 8942SOL    HW138462   3.955   3.787   5.561 -2.4976 -0.5410  0.3801
 8942SOL    HW238463   3.931   3.685   5.460  0.6426  0.1116 -0.3190
 8943SOL     OW38464   1.856   4.548   7.689 -0.0522 -0.6516 -0.3008
 8943SOL    HW138465   1.761   4.541   7.688 -0.1424  0.4744  0.4992
 8943SOL    HW238466   1.877   4.641   7.698 -0.4519 -0.2260 -3.9630
 8944SOL     OW38467   0.820   3.049   6.455  0.1488 -0.7792  0.4175
 8944SOL    HW138468   0.801   3.069   6.546  1.8727 -0.1688  0.6529
 8944SOL    HW238469   0.895   3.107   6.441 -0.4482 -0.1658 -0.1968
 8945SOL     OW38470   2.307   0.212  11.171 -0.2482 -0.4421  0.4074
 8945SOL    HW138471   2.283   0.278  11.236  0.0680  0.9338 -0.8806
 8945SOL    HW238472   2.236   0.208  11.107 -1.4022  0.4454  1.6065
 8946SOL     OW38473   3.578   1.918   7.424 -0.8494 -0.7475  0.1210
 8946SOL    HW138474   3.631   1.875   7.490 -0.3277 -2.6595 -1.5452
 8946SOL    HW238475   3.524   1.977   7.477  0.9396  0.0005  1.1004
 8947SOL     OW38476   2.760   4.329   1.316  0.0944  0.0420  0.5598
 8947SOL    HW138477   2.785   4.417   1.343  2.7890 -0.8974  1.0941
 8947SOL    HW238478   2.851   4.301   1.308  0.5431  1.7480 -0.3037
 8948SOL     OW38479   1.146   0.346  17.212  0.5632  0.7431  0.2242
 8948SOL    HW138480   1.137   0.400  17.133  1.5107 -0.9941 -1.0628
 8948SOL    HW238481   1.065   0.365  17.258 -0.1176 -0.2894 -0.5562
 8949SOL     OW38482   2.565   4.389   7.298  0.1034 -0.8140 -0.4192
 8949SOL    HW138483   2.561   4.479   7.329  0.3287 -0.1676 -2.2314
 8949SOL    HW238484   2.655   4.390   7.265 -0.2365  2.0263 -1.2921
 8950SOL     OW38485   3.218   0.998   6.650 -0.2070 -0.2288 -0.1923
 8950SOL    HW138486   3.271   0.956   6.582  1.0132 -1.4959  1.5382
 8950SOL    HW238487   3.170   1.062   6.597  0.4036  1.8105  1.6865
 8951SOL     OW38488   0.156   2.231   1.966  0.0950 -0.1937  0.6145
 8951SOL    HW138489   0.178   2.324   1.966  3.2954 -0.9473  3.5814
 8951SOL    HW238490   0.155   2.229   1.870  0.0847  1.1065  0.5968
 8952SOL     OW38491   0.863   4.688  16.344 -0.0019  0.0308  0.2955
 8952SOL    HW138492   0.955   4.699  16.367 -0.0187 -3.1716  1.8101
 8952SOL    HW238493   0.862   4.626  16.271 -0.1036 -2.4056  2.3565
 8953SOL     OW38494   0.540   2.391  12.723 -0.0191  0.7218 -0.3154
 8953SOL    HW138495   0.560   2.317  12.665  0.5537  0.4070  0.2739
 8953SOL    HW238496   0.449   2.415  12.705 -0.4167  0.9262  1.9325
 8954SOL     OW38497   0.860   3.098   7.562 -0.1758 -0.3727 -0.8419
 8954SOL    HW138498   0.920   3.118   7.633 -1.5632 -1.0184  0.5270
 8954SOL    HW238499   0.838   3.188   7.539 -0.1996 -0.2420 -0.3173
 8955SOL     OW38500   2.994   3.755   6.248  0.0449 -0.0058 -0.3492
 8955SOL    HW138501   2.926   3.767   6.182  0.1785  1.2025 -0.2669
 8955SOL    HW238502   2.965   3.827   6.305  1.3572  0.3652 -0.1449
 8956SOL     OW38503   2.303   3.773   9.035  0.3738 -0.0898  0.1332
 8956SOL    HW138504   2.396   3.796   9.045  0.5346 -1.0782  0.9210
 8956SOL    HW238505   2.265   3.803   9.117  4.7437  3.3638  0.9193
 8957SOL     OW38506   0.131   2.889   0.059  0.3991  0.1573  0.2923
 8957SOL    HW138507   0.134   2.964   0.119 -1.2806 -0.5930  1.3206
 8957SOL    HW238508   0.042   2.890   0.024  0.0370  2.1108  1.3039
 8958SOL     OW38509   1.017   2.308  13.608 -0.1673  0.0856  0.6053
 8958SOL    HW138510   1.010   2.350  13.522  0.7681 -2.6483 -0.7780
 8958SOL    HW238511   0.960   2.233  13.592  0.2320  0.3796 -2.1087
 8959SOL     OW38512   1.556   0.309   8.636  0.0324  0.4613  0.0941
 8959SOL    HW138513   1.469   0.273   8.622  0.9953 -1.6683 -0.3800
 8959SOL    HW238514   1.554   0.393   8.588 -2.1204  0.1973 -0.2577
 8960SOL     OW38515   4.073   2.023   4.773 -0.0305  0.0360  0.7249
 8960SOL    HW138516   4.093   2.003   4.681 -2.4831  1.9208 -0.2049
 8960SOL    HW238517   3.977   2.026   4.774 -0.1405 -1.4004 -2.4818
 8961SOL     OW38518   4.495   4.468   8.073  0.0889  0.8558 -0.2874
 8961SOL    HW138519   4.411   4.434   8.042 -0.0278  2.6527 -1.9342
 8961SOL    HW238520   4.561   4.410   8.035 -0.7025  0.4749 -1.0812
 8962SOL     OW38521   4.471   3.543  17.627 -0.1382 -0.0562  0.1377
 8962SOL    HW138522   4.517   3.586  17.699  2.3117  0.3334 -1.6168
 8962SOL    HW238523   4.500   3.605  17.560  1.2582 -0.0899  0.6974
 8963SOL     OW38524   4.427   1.481  16.036  0.0019  0.6854  0.0243
 8963SOL    HW138525   4.412   1.563  15.988 -0.3472 -0.8209 -2.3880
 8963SOL    HW238526   4.376   1.417  15.987 -0.6779 -1.3466  3.3682
 8964SOL     OW38527   2.111   0.533   2.798 -0.3783 -0.3442  0.7592
 8964SOL    HW138528   2.154   0.561   2.717 -0.1516 -0.1037  0.9609
 8964SOL    HW238529   2.147   0.445   2.787  1.2831  0.4273 -0.0276
 8965SOL     OW38530   3.075   4.571  11.603 -0.0301  0.7204 -0.7925
 8965SOL    HW138531   3.162   4.594  11.636  0.0435  0.0023 -0.4723
 8965SOL    HW238532   3.091   4.558  11.509  0.6313  3.0753 -0.9872
 8966SOL     OW38533   1.104   2.623  12.282  0.5806  0.5054  0.1463
 8966SOL    HW138534   1.141   2.694  12.229 -0.0191  0.0621 -0.8848
 8966SOL    HW238535   1.014   2.655  12.268  0.5361  0.2025 -0.2644
 8967SOL     OW38536   1.436   3.978   4.324  0.2235  0.0720  0.2771
 8967SOL    HW138537   1.365   3.914   4.327 -0.7534  1.2027  0.9431
 8967SOL    HW238538   1.451   3.989   4.419  1.1837  3.2382 -0.2237
 8968SOL     OW38539   4.299   3.589  16.367 -0.4586 -0.5255  0.1113
 8968SOL    HW138540   4.364   3.530  16.405  1.6093  0.4706 -1.8898
 8968SOL    HW238541   4.363   3.650  16.330  1.0095 -3.3988 -2.1089
 8969SOL     OW38542   4.211   3.716  13.575  0.6194  0.5756 -0.3596
 8969SOL    HW138543   4.273   3.661  13.623  0.3546 -0.0151 -0.7018
 8969SOL    HW238544   4.220   3.802  13.617  1.7164  0.8264 -1.0923
 8970SOL     OW38545   1.799   0.101  11.321  0.0350  0.0208 -0.3561
 8970SOL    HW138546   1.868   0.159  11.288  0.3816  0.1252  0.5229
 8970SOL    HW238547   1.752   0.164  11.376 -0.6460  1.1573 -2.2417
 8971SOL     OW38548   2.686   1.807   4.370  0.4118 -0.3328 -0.8016
 8971SOL    HW138549   2.682   1.838   4.461  1.4170  1.6988 -1.4411
 8971SOL    HW238550   2.703   1.713   4.371  0.3744 -0.3053  1.6565
 8972SOL     OW38551   0.114   1.259   7.698 -0.5460  0.0713  0.2813
 8972SOL    HW138552   0.130   1.167   7.722  1.3057  0.8450  1.9273
 8972SOL    HW238553   0.137   1.299   7.781 -0.5769  0.6869 -0.0080
 8973SOL     OW38554   2.710   1.646   6.339  0.4921  0.3290 -0.8974
 8973SOL    HW138555   2.728   1.719   6.399  2.1183 -1.3410  0.6271
 8973SOL    HW238556   2.771   1.682   6.275  0.8627  0.6822 -0.3444
 8974SOL     OW38557   4.260   4.280   6.028 -0.7180 -0.5907  0.3735
 8974SOL    HW138558   4.266   4.369   5.993  1.2709 -1.2610 -0.9628
 8974SOL    HW238559   4.342   4.267   6.075 -1.0545 -0.4526  1.0053
 8975SOL     OW38560   0.036   2.701   9.957  0.3634  0.0829 -0.7803
 8975SOL    HW138561   0.087   2.699   9.876 -0.4959  2.0392 -1.3716
 8975SOL    HW238562   0.042   2.609   9.983 -2.6615 -0.4039 -1.7942
 8976SOL     OW38563   1.944   4.526   4.408  0.2101 -0.1970 -0.1053
 8976SOL    HW138564   1.998   4.454   4.441 -0.3644 -0.0908  1.0505
 8976SOL    HW238565   2.003   4.601   4.402 -2.3070  1.7293 -0.9630
 8977SOL     OW38566   2.654   2.227   8.570  0.2287  0.0980 -0.2210
 8977SOL    HW138567   2.613   2.158   8.622  2.0473  1.3243  2.7874
 8977SOL    HW238568   2.735   2.243   8.618  0.1781 -2.1548  0.6050
 8978SOL     OW38569   3.550   1.235   2.449 -0.0170  0.1804  0.0912
 8978SOL    HW138570   3.617   1.235   2.381  1.8863 -1.2486  1.9629
 8978SOL    HW238571   3.588   1.286   2.521  3.3960 -0.1404 -1.4919
 8979SOL     OW38572   2.660   2.448   7.659  0.0005 -0.0192 -0.0099
 8979SOL    HW138573   2.703   2.367   7.633 -2.0528 -0.6917 -1.3190
 8979SOL    HW238574   2.593   2.408   7.715 -0.3126  0.1624 -0.2601
 8980SOL     OW38575   1.240   2.524   4.948  0.0217  0.1899  0.3052
 8980SOL    HW138576   1.332   2.517   4.972 -0.1364  1.9142  1.4674
 8980SOL    HW238577   1.217   2.608   4.988 -1.3036  0.5396 -1.1637
 8981SOL     OW38578   0.185   3.707   6.925 -0.1364  0.2838 -0.0796
 8981SOL    HW138579   0.250   3.707   6.855 -0.4812 -1.9101 -0.3933
 8981SOL    HW238580   0.195   3.621   6.965  2.1069  1.1211  1.1791
 8982SOL     OW38581   2.072   0.439  16.573  0.2093 -0.6417 -0.1959
 8982SOL    HW138582   2.059   0.530  16.599  0.1500 -0.9244  0.7647
 8982SOL    HW238583   2.091   0.402  16.660 -1.7472 -1.9318 -0.3062
 8983SOL     OW38584   4.206   1.015  14.195 -0.2529  0.0348 -0.1270
 8983SOL    HW138585   4.172   0.930  14.167  0.9937 -1.0212  1.5852
 8983SOL    HW238586   4.298   1.001  14.218 -0.1901 -1.3216 -1.2000
 8984SOL     OW38587   2.170   2.796   2.519  0.3681 -0.0159  0.6681
 8984SOL    HW138588   2.116   2.740   2.464 -1.2415  1.5240  0.6838
 8984SOL    HW238589   2.108   2.815   2.590  2.8076  1.5619  2.3896
 8985SOL     OW38590   0.575   0.890   6.778  0.5385 -0.2739  0.1572
 8985SOL    HW138591   0.525   0.954   6.728  3.7515  2.5723  0.6418
 8985SOL    HW238592   0.510   0.883   6.848  2.1344 -1.4501  1.5414
 8986SOL     OW38593   2.446   1.692   8.531 -0.5501 -0.1779  0.1150
 8986SOL    HW138594   2.516   1.635   8.563  0.5090  1.8408  1.4141
 8986SOL    HW238595   2.391   1.629   8.486 -0.9601  1.8731 -2.2598
 8987SOL     OW38596   4.516   4.235   6.134  0.3247  0.0865 -0.2749
 8987SOL    HW138597   4.574   4.270   6.201  1.2758  0.9452 -1.5616
 8987SOL    HW238598   4.566   4.159   6.103  1.1509  0.1832  0.8344
 8988SOL     OW38599   1.806   0.897   6.008  0.4398  0.3262  0.3463
 8988SOL    HW138600   1.753   0.835   5.958  0.9974  1.3361 -1.4562
 8988SOL    HW238601   1.875   0.836   6.037 -0.7039 -1.0297  0.2249
 8989SOL     OW38602   4.066   4.190   7.613 -0.3317  0.1996  0.5154
 8989SOL    HW138603   4.110   4.107   7.602 -1.3723  0.0942 -2.7444
 8989SOL    HW238604   4.082   4.201   7.707 -1.1737 -0.3986  0.7270
 8990SOL     OW38605   4.028   4.647   7.731  0.2186  0.1161  0.2709
 8990SOL    HW138606   4.084   4.724   7.737 -0.4412  0.5429  0.8516
 8990SOL    HW238607   3.942   4.687   7.717  0.3813  0.4320  0.1773
 8991SOL     OW38608   3.915   0.853   4.927 -0.0020  0.1357 -0.2387
 8991SOL    HW138609   3.898   0.909   4.851 -1.4487 -1.8512 -1.3843
 8991SOL    HW238610   3.963   0.782   4.886 -2.2511 -1.2106 -0.5579
 8992SOL     OW38611   4.185   1.145   8.684  0.0047  0.0020  0.0818
 8992SOL    HW138612   4.247   1.120   8.753  1.3013 -0.2543 -1.1867
 8992SOL    HW238613   4.246   1.112   8.619 -1.7149  0.5756 -1.7961
 8993SOL     OW38614   4.141   1.961   5.038 -0.1755 -0.2819 -0.2825
 8993SOL    HW138615   4.127   1.992   4.948 -2.8354  1.0657  0.6232
 8993SOL    HW238616   4.233   1.974   5.061 -0.1692  0.0743 -0.5116
 8994SOL     OW38617   3.557   3.688   4.610  0.2007 -0.6611 -0.9438
 8994SOL    HW138618   3.486   3.631   4.581 -0.3672 -0.6014  0.2924
 8994SOL    HW238619   3.537   3.702   4.703 -0.7517  2.1715 -1.5526
 8995SOL     OW38620   2.768   1.304   5.856  0.2704 -0.2270  0.0044
 8995SOL    HW138621   2.680   1.326   5.826 -0.7675 -2.1620  1.6582
 8995SOL    HW238622   2.802   1.255   5.781 -0.1908  0.4651 -0.6572
 8996SOL     OW38623   1.464   0.335   2.491 -0.1437 -0.3009  0.4075
 8996SOL    HW138624   1.434   0.387   2.417  0.7199  0.6212  0.7117
 8996SOL    HW238625   1.409   0.372   2.560  1.0039 -1.5777  2.0110
 8997SOL     OW38626   3.385   0.792   5.068  0.2231 -0.4572 -0.3380
 8997SOL    HW138627   3.293   0.777   5.050  0.0021  1.0280 -0.4772
 8997SOL    HW238628   3.399   0.771   5.161  0.5939  2.9720  0.3889
 8998SOL     OW38629   4.704   1.226   3.173  0.0348 -0.2709 -0.4186
 8998SOL    HW138630   4.671   1.315   3.182  0.9807 -0.1223  1.5825
 8998SOL    HW238631   4.655   1.177   3.238 -0.2770  0.6292  0.0245
 8999SOL     OW38632   1.549   4.396   7.052  0.3768 -0.2397  0.2831
 8999SOL    HW138633   1.592   4.323   7.095  0.4880 -1.0796 -1.2766
 8999SOL    HW238634   1.606   4.470   7.074  2.3544 -1.6495 -0.1129
 9000SOL     OW38635   4.427   2.717   9.730 -0.2009  0.4351 -0.1172
 9000SOL    HW138636   4.515   2.727   9.694  0.8452  1.3221  2.7101
 9000SOL    HW238637   4.388   2.798   9.697 -1.6753 -0.2196  0.0190
 9001SOL     OW38638   2.217   1.538   7.545 -0.1368 -0.5737 -0.8885
 9001SOL    HW138639   2.247   1.600   7.478 -1.7756  1.4766  0.2891
 9001SOL    HW238640   2.144   1.495   7.499  1.8537 -2.3145 -2.4387
 9002SOL     OW38641   1.493   0.988   8.277  0.1124 -0.0501 -0.3432
 9002SOL    HW138642   1.576   1.032   8.296 -0.5433  1.2088 -0.4038
 9002SOL    HW238643   1.512   0.955   8.189 -1.4990 -1.2600 -0.2433
 9003SOL     OW38644   0.792   3.408   2.670 -0.3071 -0.4356 -0.6243
 9003SOL    HW138645   0.790   3.315   2.692 -3.2630 -0.2811 -0.2254
 9003SOL    HW238646   0.697   3.420   2.680 -0.1848 -0.7220  0.9728
 9004SOL     OW38647   1.246   3.431   4.625 -0.0443 -0.2657  0.5807
 9004SOL    HW138648   1.300   3.368   4.673  2.6426  0.9111 -0.9031
 9004SOL    HW238649   1.222   3.387   4.543 -0.1093 -3.4289  2.2873
 9005SOL     OW38650   1.978   1.048   5.265 -0.4194 -0.1591  0.1337
 9005SOL    HW138651   2.009   1.103   5.193 -0.6145  0.0457  0.2065
 9005SOL    HW238652   2.009   1.099   5.340 -1.8969  1.8731 -0.6432
 9006SOL     OW38653   3.595   1.620   8.381  0.2198 -0.2755  0.1330
 9006SOL    HW138654   3.606   1.570   8.462 -1.3621 -1.4836 -0.4022
 9006SOL    HW238655   3.687   1.644   8.372  0.1421  0.1146  0.3527
 9007SOL     OW38656   4.665   4.148   1.940  0.3628  0.5673  0.2155
 9007SOL    HW138657   4.657   4.237   1.907  0.6434  0.9765  1.2274
 9007SOL    HW238658   0.009   4.152   1.996  0.0341 -0.9330  0.8005
 9008SOL     OW38659   3.062   3.493   8.559  0.3397  0.3535  0.7833
 9008SOL    HW138660   3.076   3.587   8.570  1.9709  0.3522 -1.2764
 9008SOL    HW238661   3.015   3.465   8.637 -1.8348 -1.3833 -1.1313
 9009SOL     OW38662   4.694   3.688  12.616  0.2939 -0.1319 -0.0517
 9009SOL    HW138663   4.621   3.734  12.656 -0.5004 -0.5333 -1.0362
 9009SOL    HW238664   4.731   3.649  12.696 -0.9586 -3.7745 -1.2185
 9010SOL     OW38665   0.617   3.297   8.027 -0.9163 -0.2344  0.8227
 9010SOL    HW138666   0.626   3.242   8.104 -1.4732 -1.1176  0.2565
 9010SOL    HW238667   0.547   3.356   8.056 -1.6474 -1.3744  1.3614
 9011SOL     OW38668   0.934   3.119   1.949  0.8180  0.3844 -0.1665
 9011SOL    HW138669   0.856   3.092   1.900  0.3272  0.5846  0.5133
 9011SOL    HW238670   0.999   3.129   1.879  0.1036  2.3911 -0.5353
 9012SOL     OW38671   4.688   4.476   7.252 -0.1182  0.1053 -0.2314
 9012SOL    HW138672   4.707   4.515   7.167  0.0065  2.6820  0.9853
 9012SOL    HW238673   4.621   4.540   7.277 -0.0756 -0.3652  1.1081
 9013SOL     OW38674   2.130   3.146  17.336 -0.0360 -0.5665 -0.5707
 9013SOL    HW138675   2.165   3.231  17.362  0.7266 -1.3376  0.8998
 9013SOL    HW238676   2.086   3.121  17.417  1.3533  0.5610  0.5426
 9014SOL     OW38677   0.303   0.363   2.495 -0.3929 -0.1075 -0.4553
 9014SOL    HW138678   0.305   0.436   2.434  1.4252 -0.9406 -1.3795
 9014SOL    HW238679   0.320   0.405   2.579 -3.8235 -1.8909  1.1655
 9015SOL     OW38680   2.618   0.606   2.072 -0.1305 -0.4139 -0.4805
 9015SOL    HW138681   2.710   0.621   2.098 -0.7549 -0.3006  1.6636
 9015SOL    HW238682   2.593   0.579   2.161 -0.3449  1.5596  0.0737
 9016SOL     OW38683   1.597   3.228   7.043 -0.3388  0.4403 -0.4219
 9016SOL    HW138684   1.682   3.268   7.062 -1.0223  1.9893 -0.6468
 9016SOL    HW238685   1.565   3.200   7.129 -1.3094  1.4837 -0.4436
 9017SOL     OW38686   1.558   3.879  14.010  0.6613  0.2283  0.3555
 9017SOL    HW138687   1.529   3.788  14.010 -1.7495  0.9832  1.1932
 9017SOL    HW238688   1.528   3.915  13.926  0.3810 -0.7706  0.0202
 9018SOL     OW38689   4.589   1.997   0.209 -0.4377 -0.3106  0.2531
 9018SOL    HW138690   4.529   2.051   0.157  1.1621 -1.4200 -2.6845
 9018SOL    HW238691   4.601   2.048   0.289  1.9707  2.3995 -1.8329
 9019SOL     OW38692   1.560   3.655   9.491  0.0638  0.4208 -0.2264
 9019SOL    HW138693   1.551   3.742   9.454  1.5956  1.3757  1.6271
 9019SOL    HW238694   1.649   3.635   9.460  0.4472 -0.4615  1.4021
 9020SOL     OW38695   3.820   1.169   7.749  0.0333 -0.0253 -0.1804
 9020SOL    HW138696   3.808   1.259   7.717  1.4699  0.5301  0.8215
 9020SOL    HW238697   3.735   1.153   7.790 -0.7813  1.9562 -1.0518
 9021SOL     OW38698   3.439   4.517   9.175 -0.4736 -0.4098 -0.6248
 9021SOL    HW138699   3.368   4.546   9.118 -0.4116 -0.0521 -0.5184
 9021SOL    HW238700   3.437   4.426   9.146  0.2350  0.0938 -2.2590
 9022SOL     OW38701   4.115   0.974   3.537 -0.1634  0.0759 -0.1952
 9022SOL    HW138702   4.203   0.946   3.515  0.0555  0.1069  0.6357
 9022SOL    HW238703   4.125   1.068   3.552  0.7079  0.3145 -2.3196
 9023SOL     OW38704   3.060   1.728   1.011  0.0720  0.2033  0.5858
 9023SOL    HW138705   3.093   1.775   1.088 -1.1491  1.7783  0.1342
 9023SOL    HW238706   2.967   1.745   1.023 -0.0352  0.4287 -0.6682
 9024SOL     OW38707   3.333   0.952   5.439  0.1618 -0.0761  0.0279
 9024SOL    HW138708   3.381   0.996   5.509  0.0879 -1.1029  0.7159
 9024SOL    HW238709   3.407   0.897   5.413  0.5031  2.0632 -3.5781
 9025SOL     OW38710   3.648   1.117   2.837 -0.5251  0.7224  0.1881
 9025SOL    HW138711   3.644   1.200   2.885  0.2303 -0.4976  2.3213
 9025SOL    HW238712   3.562   1.080   2.858  0.9001 -1.6931  1.6366
 9026SOL     OW38713   1.339   2.721   1.936 -0.3916 -0.5340 -0.0082
 9026SOL    HW138714   1.294   2.784   1.879 -1.0714  0.8964  2.0880
 9026SOL    HW238715   1.350   2.774   2.015 -0.2094 -0.2645 -0.2139
 9027SOL     OW38716   2.817   0.751   5.357  0.2485 -0.1880 -0.2810
 9027SOL    HW138717   2.860   0.809   5.420 -2.3385  2.9148 -1.4001
 9027SOL    HW238718   2.723   0.760   5.373 -0.0454 -0.3832 -1.8378
 9028SOL     OW38719   3.482   2.111   6.174  0.2046  0.6928 -0.3641
 9028SOL    HW138720   3.542   2.086   6.103  0.4250  0.0069  0.0598
 9028SOL    HW238721   3.535   2.182   6.210 -0.2119  0.8684 -0.1049
 9029SOL     OW38722   2.645   4.560   0.466  0.3597  0.2450 -0.1443
 9029SOL    HW138723   2.718   4.594   0.518 -0.6140 -0.4278  1.6860
 9029SOL    HW238724   2.633   4.642   0.418 -0.3973  0.3991  0.2934
 9030SOL     OW38725   1.275   1.098   1.624  0.2027  0.0653  0.1941
 9030SOL    HW138726   1.220   1.028   1.589 -1.6528  0.8977  1.4294
 9030SOL    HW238727   1.313   1.124   1.540 -2.2264 -2.5286 -1.7520
 9031SOL     OW38728   1.045   2.674   3.977 -0.7312 -0.2116 -0.7328
 9031SOL    HW138729   1.020   2.586   4.005  0.7914 -0.1665  0.8174
 9031SOL    HW238730   1.065   2.707   4.065  0.9784 -1.2152 -0.7298
 9032SOL     OW38731   2.316   0.610  12.373  0.3439  0.4722 -0.0555
 9032SOL    HW138732   2.313   0.566  12.458 -0.1650  0.0201 -0.3108
 9032SOL    HW238733   2.226   0.597  12.345  0.4697  0.2043 -0.3378
 9033SOL     OW38734   2.548   2.156   7.500 -0.1286  0.0288  0.1605
 9033SOL    HW138735   2.554   2.187   7.410 -0.8844  2.1198  0.8204
 9033SOL    HW238736   2.633   2.185   7.534 -0.2467  1.1776 -0.5185
 9034SOL     OW38737   2.850   1.597   1.513 -0.0107 -0.5385  0.6604
 9034SOL    HW138738   2.788   1.668   1.503 -0.6457 -0.9085  1.9479
 9034SOL    HW238739   2.920   1.637   1.461 -1.4827 -0.7460 -1.4969
 9035SOL     OW38740   0.223   0.635   5.679 -0.3483  0.6724 -0.4685
 9035SOL    HW138741   0.174   0.581   5.617  1.1035 -2.1919  0.8404
 9035SOL    HW238742   0.309   0.636   5.638  0.6750 -0.4682  1.6109
 9036SOL     OW38743   1.145   4.316  16.800 -0.5714  0.4297 -0.4712
 9036SOL    HW138744   1.053   4.332  16.823 -0.3219 -1.2238  1.6522
 9036SOL    HW238745   1.167   4.233  16.842  2.0407  0.6781 -1.3497
 9037SOL     OW38746   1.142   4.168   8.558  0.0241 -0.1878 -0.0417
 9037SOL    HW138747   1.187   4.130   8.634 -1.2341  0.3405  0.9801
 9037SOL    HW238748   1.085   4.231   8.602 -0.5871 -0.7936  0.0350
 9038SOL     OW38749   3.443   3.197   0.308  0.2875  0.1274  0.1870
 9038SOL    HW138750   3.492   3.128   0.264 -1.3564 -0.9914  0.1074
 9038SOL    HW238751   3.463   3.174   0.398 -2.4818 -1.0443  0.5126
 9039SOL     OW38752   1.308   1.806  10.702 -0.2627  0.0432  0.1423
 9039SOL    HW138753   1.396   1.795  10.665  0.4286  2.0851  1.1957
 9039SOL    HW238754   1.314   1.749  10.779  1.7363 -0.1569 -0.1680
 9040SOL     OW38755   1.439   1.825   2.017 -0.0619  0.5538 -0.1357
 9040SOL    HW138756   1.477   1.761   1.957  0.7402  1.3597 -0.4857
 9040SOL    HW238757   1.406   1.777   2.093 -0.3546 -1.0681 -1.2863
 9041SOL     OW38758   0.334   3.506   7.074  0.3553 -0.2095  0.4566
 9041SOL    HW138759   0.408   3.566   7.068  0.3347 -0.0270  2.1261
 9041SOL    HW238760   0.311   3.520   7.166  0.8394  0.1651  0.5178
 9042SOL     OW38761   3.763   3.378   4.058  0.6068  0.2937 -0.5679
 9042SOL    HW138762   3.848   3.389   4.100 -0.5036  2.2356  1.2211
 9042SOL    HW238763   3.755   3.284   4.048 -0.6087  0.3596 -0.2933
 9043SOL     OW38764   0.523   1.410  15.290  0.3917  0.5093 -0.6913
 9043SOL    HW138765   0.456   1.389  15.355  0.5576 -0.0509 -0.7044
 9043SOL    HW238766   0.529   1.325  15.246 -0.9286  0.7794 -1.3968
 9044SOL     OW38767   3.948   2.256   8.248  0.2527  0.4251  0.6787
 9044SOL    HW138768   3.981   2.167   8.261 -0.0072  0.4070  1.2026
 9044SOL    HW238769   3.914   2.254   8.158 -0.3461 -1.2377  0.9532
 9045SOL     OW38770   0.649   1.444   8.957 -0.0720  0.0533  0.3876
 9045SOL    HW138771   0.690   1.357   8.958 -0.2437 -0.0368 -0.0436
 9045SOL    HW238772   0.702   1.492   9.021 -0.7155 -1.7553  2.2792
 9046SOL     OW38773   2.601   3.424   3.047 -0.1584  0.5458  0.5062
 9046SOL    HW138774   2.640   3.345   3.009 -2.0926 -0.5031  0.6754
 9046SOL    HW238775   2.511   3.402   3.070 -0.3885  0.6585 -0.2727
 9047SOL     OW38776   1.494   1.529  11.230  0.6954 -0.1941  0.6864
 9047SOL    HW138777   1.470   1.448  11.275  0.7623 -0.9936 -0.7023
 9047SOL    HW238778   1.583   1.554  11.256  1.7360 -2.3154 -0.8686
 9048SOL     OW38779   3.236   2.783   8.138 -0.6418  0.0772 -0.2402
 9048SOL    HW138780   3.217   2.866   8.094 -1.6283  0.5870  1.1578
 9048SOL    HW238781   3.176   2.776   8.212  0.6626 -0.1675  0.8033
 9049SOL     OW38782   4.157   3.103   8.708  0.1418  0.1360 -0.1434
 9049SOL    HW138783   4.143   3.013   8.735  3.3598 -0.3781 -0.1668
 9049SOL    HW238784   4.071   3.128   8.673  0.3778  0.7288 -0.3140
 9050SOL     OW38785   2.455   0.062   9.699  0.0759  0.0927  0.0165
 9050SOL    HW138786   2.528   0.000   9.703  0.5891  0.8109  1.8106
 9050SOL    HW238787   2.421   0.067   9.788  0.8234  1.0956  0.2495
 9051SOL     OW38788   2.231   2.834   6.485  0.1790 -0.0159 -0.3190
 9051SOL    HW138789   2.282   2.909   6.515  2.9460 -1.8898 -0.3644
 9051SOL    HW238790   2.298   2.767   6.495 -0.1588 -0.1274  1.2133
 9052SOL     OW38791   1.258   1.872   1.684  0.4673  0.0266 -0.0142
 9052SOL    HW138792   1.174   1.916   1.667  1.8453  3.1547  1.2812
 9052SOL    HW238793   1.240   1.805   1.750  1.5696  2.0476  2.3182
 9053SOL     OW38794   2.307   0.505   1.510  0.2434 -0.1449 -0.3449
 9053SOL    HW138795   2.233   0.484   1.453  0.6645  0.4643 -1.0970
 9053SOL    HW238796   2.377   0.534   1.452  1.2057  0.0912  0.9286
 9054SOL     OW38797   3.044   2.005   8.137 -0.6930 -0.0951  0.0971
 9054SOL    HW138798   3.113   2.022   8.200 -0.7707  0.6200 -0.0099
 9054SOL    HW238799   2.976   2.043   8.193  0.3854  0.4428  1.0405
 9055SOL     OW38800   3.032   2.297   2.719  0.5575 -0.3622  0.3974
 9055SOL    HW138801   2.983   2.226   2.678 -0.9453 -0.1909  1.8930
 9055SOL    HW238802   3.014   2.287   2.812 -1.6052 -0.9660 -0.0920
 9056SOL     OW38803   0.283   2.335   3.463  0.2204 -0.6440  0.0327
 9056SOL    HW138804   0.297   2.283   3.542 -1.0646 -0.5734  0.3179
 9056SOL    HW238805   0.326   2.290   3.390  0.1328 -2.8145  1.3360
 9057SOL     OW38806   4.426   2.842   8.767 -0.3099 -0.3037  0.1619
 9057SOL    HW138807   4.398   2.754   8.739 -1.1374 -0.2534  0.8350
 9057SOL    HW238808   4.413   2.831   8.861 -0.1223 -0.2858  0.1891
 9058SOL     OW38809   0.509   0.194  16.885 -0.0526 -0.6254  0.1187
 9058SOL    HW138810   0.524   0.287  16.869 -0.4227 -0.4025  1.0774
 9058SOL    HW238811   0.567   0.156  16.819  0.7589  0.6676  0.0966
 9059SOL     OW38812   3.691   2.365   1.728  1.1174  0.2544  0.4575
 9059SOL    HW138813   3.743   2.376   1.807 -0.1029 -0.0028  1.2955
 9059SOL    HW238814   3.728   2.436   1.675 -2.1800  2.0464  0.5906
 9060SOL     OW38815   0.400   2.803   8.424 -0.0717 -0.0791 -0.2338
 9060SOL    HW138816   0.463   2.830   8.357  0.2321  0.4608  0.2726
 9060SOL    HW238817   0.324   2.860   8.412  0.1825  0.0621 -1.1571
 9061SOL     OW38818   1.243   2.668   9.696 -0.0458  0.9692  0.4381
 9061SOL    HW138819   1.260   2.762   9.684 -1.3224  1.3687  1.8199
 9061SOL    HW238820   1.248   2.653   9.790 -3.9768  1.4208  0.7130
 9062SOL     OW38821   1.451   1.346   0.570 -0.0629 -0.2560 -0.1702
 9062SOL    HW138822   1.372   1.320   0.523 -1.1749  0.4582  1.2958
 9062SOL    HW238823   1.408   1.365   0.653  1.4357  2.6877 -0.0715
 9063SOL     OW38824   1.533   4.693   3.885  0.6745  0.0220 -0.2521
 9063SOL    HW138825   1.585   4.688   3.804  2.9947  1.8876  1.1487
 9063SOL    HW238826   1.490   0.043   3.871 -0.5555 -0.7964 -1.5385
 9064SOL     OW38827   0.356   0.977   2.620  0.0948  0.1170  0.0619
 9064SOL    HW138828   0.266   1.009   2.619  0.4995  1.2737  1.3624
 9064SOL    HW238829   0.397   1.045   2.673 -0.8207 -1.3525  2.6200
 9065SOL     OW38830   0.052   0.576   2.504 -0.2645  0.0327 -0.1245
 9065SOL    HW138831   0.071   0.621   2.587 -0.8781 -0.0227  0.0442
 9065SOL    HW238832   0.139   0.588   2.467  2.0087 -2.3571  4.3332
 9066SOL     OW38833   3.634   3.114   7.758 -0.2658 -0.2414 -0.1395
 9066SOL    HW138834   3.624   3.103   7.852  0.1345  2.8177  0.2343
 9066SOL    HW238835   3.681   3.032   7.744  3.5677  2.1926 -1.5275
 9067SOL     OW38836   0.211   2.897   7.188  0.6263 -0.3722 -0.3626
 9067SOL    HW138837   0.276   2.883   7.119  0.0199 -1.6800 -0.6711
 9067SOL    HW238838   0.138   2.852   7.147  1.5090 -0.1336 -2.1859
 9068SOL     OW38839   0.101   2.338   9.645 -0.1874 -0.2637  0.6271
 9068SOL    HW138840   0.005   2.338   9.651 -0.1853 -1.9258  0.8747
 9068SOL    HW238841   0.130   2.246   9.646  0.2094 -0.1188  1.5440
 9069SOL     OW38842   4.216   2.211   3.536 -0.0637 -0.2538 -0.0922
 9069SOL    HW138843   4.181   2.155   3.605  1.4373 -1.4090 -0.2766
 9069SOL    HW238844   4.300   2.171   3.516 -0.7893 -0.8787 -1.8793
 9070SOL     OW38845   4.430   2.635   4.913 -0.0919  0.3339 -0.3499
 9070SOL    HW138846   4.357   2.688   4.946 -0.2696  0.4792 -0.9783
 9070SOL    HW238847   4.401   2.597   4.830 -0.9980 -0.3773  0.2862
 9071SOL     OW38848   1.775   3.468   0.571 -0.2818 -0.1468 -0.7303
 9071SOL    HW138849   1.685   3.483   0.599  0.0573  0.8132 -0.1549
 9071SOL    HW238850   1.830   3.463   0.650  1.7682 -2.1670 -2.2871
 9072SOL     OW38851   1.380   1.739   7.281  0.3585  0.2508  0.1261
 9072SOL    HW138852   1.293   1.777   7.268  0.3713 -0.0446 -0.8594
 9072SOL    HW238853   1.378   1.709   7.372  0.6832 -3.3364 -1.0674
 9073SOL     OW38854   0.055   3.638  17.574  0.2041 -0.2610  0.3923
 9073SOL    HW138855   4.724   3.648  17.505  1.1292 -0.6663 -0.5423
 9073SOL    HW238856   0.035   3.722  17.614 -0.0173 -0.1080 -0.0460
 9074SOL     OW38857   3.872   0.212  13.382  0.3637  0.2687 -0.1318
 9074SOL    HW138858   3.872   0.130  13.333 -0.9801 -0.5492  1.2441
 9074SOL    HW238859   3.939   0.196  13.448 -0.0187  0.2121  0.2456
 9075SOL     OW38860   2.745   2.035   1.245  0.1228  0.4029  0.5195
 9075SOL    HW138861   2.716   2.093   1.315 -0.7544  1.4283 -0.6989
 9075SOL    HW238862   2.759   2.096   1.173  0.0279 -2.5070 -1.9790
 9076SOL     OW38863   3.014   2.476   1.494  0.3331  0.5422 -0.5632
 9076SOL    HW138864   3.070   2.413   1.447  0.1812 -0.0674  0.0622
 9076SOL    HW238865   2.941   2.486   1.433  0.0599 -0.6131 -0.4380
 9077SOL     OW38866   4.073   0.600   6.499  0.1442  0.2122 -0.5025
 9077SOL    HW138867   3.991   0.552   6.492 -0.5968  1.4408 -0.1039
 9077SOL    HW238868   4.125   0.520   6.489  0.5562  0.2767  1.0665
 9078SOL     OW38869   1.527   3.548   8.395  0.3842 -0.2757  0.1575
 9078SOL    HW138870   1.491   3.555   8.483 -1.0408  0.4047 -0.4819
 9078SOL    HW238871   1.558   3.639   8.391 -2.6974  0.7393 -0.0840
 9079SOL     OW38872   0.860   1.186   3.391  0.4471  0.0529  0.8811
 9079SOL    HW138873   0.826   1.112   3.441 -2.2008 -0.0334 -1.0519
 9079SOL    HW238874   0.782   1.241   3.393 -0.0497 -0.5449 -1.7350
 9080SOL     OW38875   1.530   4.621   8.904  0.4219 -0.4901 -0.1075
 9080SOL    HW138876   1.483   4.683   8.850  1.5812  0.8196  0.3903
 9080SOL    HW238877   1.588   4.669   8.963  1.3014 -0.8373 -0.6708
 9081SOL     OW38878   0.344   0.878   2.338  0.1677 -1.0508 -0.4436
 9081SOL    HW138879   0.426   0.927   2.342  1.0826 -2.8092  2.2504
 9081SOL    HW238880   0.271   0.941   2.338  3.0628  2.3369  4.0542
 9082SOL     OW38881   4.425   2.105  14.388  0.2652 -0.0961 -0.0771
 9082SOL    HW138882   4.390   2.178  14.439  0.1325  1.1243 -1.9299
 9082SOL    HW238883   4.340   2.077  14.354  0.7477 -1.1798 -0.4230
 9083SOL     OW38884   1.574   4.383   2.658  0.1478  0.0135  0.0606
 9083SOL    HW138885   1.636   4.454   2.676  1.1979 -2.1855  4.9728
 9083SOL    HW238886   1.567   4.399   2.564  2.1467 -2.0754 -0.4596
 9084SOL     OW38887   1.192   1.483   0.136  0.0840 -0.2826 -0.5754
 9084SOL    HW138888   1.286   1.461   0.141  0.4282  1.0499 -1.2304
 9084SOL    HW238889   1.183   1.459   0.043  0.9910 -0.5317 -0.6030
 9085SOL     OW38890   3.981   0.846   3.744 -0.7245  0.2994  0.7224
 9085SOL    HW138891   4.003   0.753   3.740 -1.7483  0.1053 -0.4631
 9085SOL    HW238892   4.030   0.874   3.667  0.4333  2.4436  2.2494
 9086SOL     OW38893   2.782   2.338   3.652  0.3585 -0.5001 -0.2052
 9086SOL    HW138894   2.815   2.336   3.742 -1.0667  0.0415  0.3234
 9086SOL    HW238895   2.853   2.283   3.619 -0.4473 -1.7910  0.2087
 9087SOL     OW38896   1.005   3.892  12.146 -0.7804  0.2622 -0.5616
 9087SOL    HW138897   1.023   3.980  12.177 -0.7444 -1.1067  3.2580
 9087SOL    HW238898   0.923   3.868  12.190 -1.9459  0.9402 -2.3295
 9088SOL     OW38899   1.055   1.120   3.582  0.1014 -0.2236 -0.0663
 9088SOL    HW138900   1.019   1.141   3.668  0.6026 -3.2742  0.9051
 9088SOL    HW238901   0.999   1.153   3.511 -1.3615 -0.7791  0.8307
 9089SOL     OW38902   3.067   2.781   2.281  0.1038 -0.1369 -0.2986
 9089SOL    HW138903   3.147   2.747   2.322 -0.1717  0.8305  1.0512
 9089SOL    HW238904   3.078   2.736   2.197  2.0133  1.2647 -0.7895
 9090SOL     OW38905   3.068   2.861   5.597  0.0046  0.6666  0.5302
 9090SOL    HW138906   3.065   2.930   5.664  1.1168  3.0102 -1.8798
 9090SOL    HW238907   3.026   2.906   5.524  1.8584 -2.2397 -2.2667
 9091SOL     OW38908   1.555   3.491   0.698  0.4219  0.6318 -0.0920
 9091SOL    HW138909   1.482   3.506   0.638  0.6094 -0.5213 -0.6138
 9091SOL    HW238910   1.512   3.546   0.764  0.5762  1.4692 -0.6892
 9092SOL     OW38911   2.894   4.156   7.446 -0.2494 -0.1066 -0.4534
 9092SOL    HW138912   2.917   4.211   7.520 -0.7981 -2.2865  1.3467
 9092SOL    HW238913   2.897   4.071   7.490 -0.4551  1.5183  2.6602
 9093SOL     OW38914   0.444   1.039   9.538 -0.0100  0.1613  0.7378
 9093SOL    HW138915   0.503   1.101   9.497 -0.3924  0.7238  1.0449
 9093SOL    HW238916   0.489   1.019   9.620  0.9521 -0.0987  0.1541
 9094SOL     OW38917   3.526   4.364   9.611 -0.3414  0.1210  0.2764
 9094SOL    HW138918   3.481   4.406   9.684 -0.7734 -0.4746  0.3535
 9094SOL    HW238919   3.592   4.431   9.588  0.5805 -0.1891  2.0332
 9095SOL     OW38920   4.092   3.846   8.722  0.3299 -0.2955 -0.3334
 9095SOL    HW138921   4.130   3.887   8.644  0.8999 -1.1123 -0.4810
 9095SOL    HW238922   4.129   3.758   8.710  0.5549 -0.4883  1.8865
 9096SOL     OW38923   1.364   2.185   6.722 -0.0323 -0.6264  0.6826
 9096SOL    HW138924   1.348   2.275   6.751 -0.6364  0.0426 -1.6724
 9096SOL    HW238925   1.443   2.187   6.668 -0.1556 -0.4273  0.5072
 9097SOL     OW38926   0.418   0.631   8.371  0.6928 -0.2549  0.3906
 9097SOL    HW138927   0.386   0.617   8.460 -0.3229  0.3638  0.1287
 9097SOL    HW238928   0.498   0.580   8.375  0.3389 -0.8420  0.0537
 9098SOL     OW38929   3.250   3.090   4.991 -0.2620 -0.0550  0.0504
 9098SOL    HW138930   3.296   3.006   5.002 -0.4026 -0.1805 -0.3181
 9098SOL    HW238931   3.195   3.061   4.918 -1.1857 -0.9747  1.1179
 9099SOL     OW38932   2.363   1.270   1.793  0.3142 -1.1963  0.3720
 9099SOL    HW138933   2.414   1.303   1.867 -0.3946 -0.6190  0.6078
 9099SOL    HW238934   2.284   1.322   1.808  0.4352 -0.8770 -0.0855
 9100SOL     OW38935   3.525   1.354  15.920  0.3545 -0.2178 -0.2171
 9100SOL    HW138936   3.523   1.323  16.010  0.7520  0.5020  0.0388
 9100SOL    HW238937   3.433   1.343  15.898  0.2908  1.0353 -0.5719
 9101SOL     OW38938   4.590   4.041   5.036 -0.1797 -0.2564 -0.6509
 9101SOL    HW138939   4.664   3.981   5.047 -0.2403 -0.6946 -2.6900
 9101SOL    HW238940   4.639   4.123   5.031 -0.6888  0.1490  1.1771
 9102SOL     OW38941   2.887   2.033   5.706 -0.0211  0.0112  0.0184
 9102SOL    HW138942   2.907   2.126   5.695 -2.1830  0.3105 -1.4496
 9102SOL    HW238943   2.813   2.027   5.645 -1.1333 -1.7956  1.5745
 9103SOL     OW38944   1.064   0.471  15.596 -0.4847  0.6429 -0.1370
 9103SOL    HW138945   1.064   0.564  15.619 -0.3660  0.7264 -0.4721
 9103SOL    HW238946   1.014   0.443  15.673 -1.5731  1.7011 -0.4724
 9104SOL     OW38947   3.699   2.700   0.672  0.4109  0.4734 -0.1458
 9104SOL    HW138948   3.698   2.745   0.588  0.0694  0.1184 -0.3338
 9104SOL    HW238949   3.618   2.649   0.663 -0.1319  0.9639  1.8489
 9105SOL     OW38950   0.255   3.447   8.477  0.3975  0.1446  0.1825
 9105SOL    HW138951   0.304   3.529   8.485  1.0223 -0.2571  0.4750
 9105SOL    HW238952   0.304   3.384   8.529  1.2773  1.5979  1.1443
 9106SOL     OW38953   4.108   4.334   4.583  0.2041 -0.2818  0.4483
 9106SOL    HW138954   4.164   4.274   4.533  1.1832  2.9568 -2.3402
 9106SOL    HW238955   4.116   4.301   4.672 -1.0855 -1.4478  0.1340
 9107SOL     OW38956   0.662   1.816   5.122 -0.2294  0.4480  0.3158
 9107SOL    HW138957   0.694   1.765   5.047 -0.9054 -2.1001  1.7699
 9107SOL    HW238958   0.659   1.743   5.184  1.9448  0.5304  0.5091
 9108SOL     OW38959   4.137   2.769   3.874  0.1851  0.2546  0.3764
 9108SOL    HW138960   4.079   2.783   3.949  0.0389  1.1591  0.1028
 9108SOL    HW238961   4.131   2.859   3.841  1.0259  0.6013  1.1951
 9109SOL     OW38962   1.552   2.822   7.210 -0.4696 -0.4428  0.4299
 9109SOL    HW138963   1.603   2.823   7.291  1.9651  2.0152 -1.1221
 9109SOL    HW238964   1.524   2.913   7.207  1.2068  0.0611 -0.2419
 9110SOL     OW38965   0.229   3.211   4.909  0.0186 -0.6627 -0.3064
 9110SOL    HW138966   0.176   3.212   4.990  1.4882  0.7564  0.6345
 9110SOL    HW238967   0.170   3.264   4.855 -1.9633  0.3234  2.8252
 9111SOL     OW38968   1.688   2.629   7.060 -0.2845  0.1054 -0.1006
 9111SOL    HW138969   1.605   2.641   7.015 -0.5418 -1.3672 -0.0173
 9111SOL    HW238970   1.681   2.707   7.114 -0.7954  1.7364 -2.5353
 9112SOL     OW38971   0.209   2.201   2.509 -0.0085 -0.2484  0.0322
 9112SOL    HW138972   0.128   2.235   2.549 -1.3227  0.8975 -3.6158
 9112SOL    HW238973   0.191   2.225   2.418 -0.4500  1.4605  0.5729
 9113SOL     OW38974   3.887   2.872   1.175  0.1226 -0.2548 -0.1373
 9113SOL    HW138975   3.918   2.788   1.142 -1.6076 -0.6856 -0.6485
 9113SOL    HW238976   3.833   2.842   1.248 -0.0919  1.3609  0.3628
 9114SOL     OW38977   1.436   1.313   2.786  0.7401  0.7931  0.1165
 9114SOL    HW138978   1.506   1.369   2.751 -1.0849  1.8065 -1.8986
 9114SOL    HW238979   1.464   1.284   2.873 -0.6471 -0.0898  0.2664
 9115SOL     OW38980   3.759   3.977  17.023 -0.5703  0.1931  0.2616
 9115SOL    HW138981   3.852   3.989  17.041 -0.5861 -0.5564  0.8651
 9115SOL    HW238982   3.712   4.041  17.077  0.6744  1.5788 -0.2843
 9116SOL     OW38983   3.841   3.375   1.329  0.3466  0.4728 -0.6594
 9116SOL    HW138984   3.769   3.398   1.270 -2.2276 -2.9224  1.0891
 9116SOL    HW238985   3.860   3.285   1.301 -0.0250  0.4331 -0.7853
 9117SOL     OW38986   4.732   1.107   3.671  0.0879  0.2327 -0.3607
 9117SOL    HW138987   0.091   1.097   3.692  0.6261  0.5858 -2.5538
 9117SOL    HW238988   4.696   1.152   3.747  0.4913 -1.9086  1.1082
 9118SOL     OW38989   4.541   4.105   0.679  0.2304 -0.4183  0.8082
 9118SOL    HW138990   4.474   4.090   0.746 -0.0132  1.8730  1.0674
 9118SOL    HW238991   4.613   4.078   0.737 -1.3671 -3.1071  1.5323
 9119SOL     OW38992   3.738   2.195   9.655 -0.1253  0.5057  0.2427
 9119SOL    HW138993   3.799   2.121   9.658 -0.4073  0.2890  0.6107
 9119SOL    HW238994   3.656   2.146   9.655  1.3845 -1.9967 -0.5119
 9120SOL     OW38995   2.450   2.590  13.712 -0.3617  0.2936 -0.0430
 9120SOL    HW138996   2.442   2.682  13.738 -0.1410  0.6785 -1.3142
 9120SOL    HW238997   2.357   2.566  13.707 -0.2108 -0.3017  0.0354
 9121SOL     OW38998   2.223   2.446   3.290  0.0854 -0.5079 -0.1781
 9121SOL    HW138999   2.187   2.502   3.221  0.4218 -1.9356 -1.5125
 9121SOL    HW239000   2.207   2.356   3.261  1.8119 -1.2063  0.9963
 9122SOL     OW39001   0.153   2.663  11.540 -0.5219  0.1159 -0.1531
 9122SOL    HW139002   0.168   2.757  11.529  0.2092 -0.2143 -2.0610
 9122SOL    HW239003   0.201   2.643  11.621 -1.4903 -0.2937  0.3189
 9123SOL     OW39004   2.424   2.489  14.740  0.1688  0.3523 -0.3617
 9123SOL    HW139005   2.515   2.497  14.713 -0.1804 -0.6125 -1.8474
 9123SOL    HW239006   2.428   2.505  14.834  1.1937  2.5869 -0.7890
 9124SOL     OW39007   1.656   3.343   5.014  0.0766 -0.1071  0.4065
 9124SOL    HW139008   1.634   3.427   4.972 -0.8698  0.1136  1.3236
 9124SOL    HW239009   1.742   3.363   5.051  0.5599 -0.7401 -0.3678
 9125SOL     OW39010   4.205   4.074   2.339  0.1824 -0.2420  0.2024
 9125SOL    HW139011   4.225   4.168   2.333 -2.5000  0.2616 -1.0802
 9125SOL    HW239012   4.172   4.061   2.428 -0.2159 -2.3858 -0.2729
 9126SOL     OW39013   4.374   0.378   5.421 -0.0640 -0.2672 -0.2274
 9126SOL    HW139014   4.300   0.320   5.402  0.2719 -0.4520 -0.9614
 9126SOL    HW239015   4.373   0.380   5.517 -0.2178  1.7048 -0.2794
 9127SOL     OW39016   3.404   0.891   4.518 -0.2878  0.3552  0.2389
 9127SOL    HW139017   3.464   0.952   4.560 -0.3237  0.5773 -0.0272
 9127SOL    HW239018   3.376   0.852   4.601  0.0473 -0.0050  0.1814
 9128SOL     OW39019   2.535   4.239   7.576  0.3831 -0.0862  0.0032
 9128SOL    HW139020   2.555   4.241   7.482  1.7111  1.2364  0.3288
 9128SOL    HW239021   2.620   4.255   7.617  0.5478 -0.3085 -0.2508
 9129SOL     OW39022   4.086   1.070   4.204  0.1112 -0.2047 -0.1735
 9129SOL    HW139023   4.064   0.985   4.168 -1.4106  1.2924 -2.7214
 9129SOL    HW239024   4.180   1.052   4.214  0.5962  1.3090 -1.8791
 9130SOL     OW39025   4.662   2.730   5.449 -0.0859 -0.0074 -0.0618
 9130SOL    HW139026   4.611   2.811   5.435 -2.0014 -1.8632 -3.8959
 9130SOL    HW239027   0.018   2.763   5.449 -0.4504  1.0135 -0.9119
 9131SOL     OW39028   1.706   3.567   5.575 -0.2001  0.5253  0.4436
 9131SOL    HW139029   1.649   3.645   5.571 -1.6029 -0.4785  0.8049
 9131SOL    HW239030   1.781   3.613   5.538  1.0980  0.4029  2.8915
 9132SOL     OW39031   2.993   0.407   3.565 -0.1859  0.2700 -0.5577
 9132SOL    HW139032   2.980   0.395   3.659 -0.8910 -1.5641 -0.8811
 9132SOL    HW239033   3.027   0.496   3.559 -1.1398  0.7969  2.1090
 9133SOL     OW39034   0.248   4.203   3.813  0.1426  0.6428  0.2004
 9133SOL    HW139035   0.284   4.175   3.729 -2.2556  2.3319 -1.3914
 9133SOL    HW239036   0.314   4.166   3.872 -0.6451  0.5262  1.0063
 9134SOL     OW39037   2.136   4.566   5.934 -0.0145  0.3684 -0.6586
 9134SOL    HW139038   2.097   4.646   5.899 -1.2136  0.4466  0.8277
 9134SOL    HW239039   2.096   4.569   6.021  2.4388 -1.4951  0.5338
 9135SOL     OW39040   1.400   3.641   7.079  0.0734 -0.3827  0.5692
 9135SOL    HW139041   1.353   3.705   7.134 -2.9101 -1.1481 -1.1031
 9135SOL    HW239042   1.336   3.590   7.030 -2.0245  3.1242 -0.3637
 9136SOL     OW39043   3.088   3.071   0.470 -0.0911 -0.3417  0.3510
 9136SOL    HW139044   3.111   2.984   0.503 -1.8708 -1.6031 -1.7624
 9136SOL    HW239045   3.010   3.092   0.522 -0.8615 -1.0326 -0.5046
 9137SOL     OW39046   1.778   0.460  15.976 -0.4470 -0.0093 -0.1927
 9137SOL    HW139047   1.752   0.518  15.904 -0.4827 -3.0888 -2.6537
 9137SOL    HW239048   1.761   0.376  15.933 -0.0084  0.4263 -1.2388
 9138SOL     OW39049   0.734   3.615  10.276  0.1836 -0.4698  0.4506
 9138SOL    HW139050   0.674   3.541  10.267  0.0839 -0.3385  0.0142
 9138SOL    HW239051   0.812   3.567  10.305  0.6715  0.1787  0.2000
 9139SOL     OW39052   2.412   2.980  16.271 -0.4277  0.2126 -0.3861
 9139SOL    HW139053   2.330   2.934  16.253 -0.8972  0.5200  0.9552
 9139SOL    HW239054   2.376   3.060  16.233  0.8771  0.0596 -1.9300
 9140SOL     OW39055   0.502   1.410   4.375  0.0086 -0.8086 -0.3537
 9140SOL    HW139056   0.477   1.430   4.285 -0.3799 -0.1079 -0.0944
 9140SOL    HW239057   0.415   1.395   4.412 -1.2492  1.6558 -2.3125
 9141SOL     OW39058   4.306   2.677  16.102  0.1270  0.4412  0.0391
 9141SOL    HW139059   4.228   2.725  16.129  0.2401  0.8855 -0.4022
 9141SOL    HW239060   4.332   2.625  16.177 -1.6866 -0.6898 -0.1290
 9142SOL     OW39061   0.467   4.544   2.038  0.1317  0.4682  0.2297
 9142SOL    HW139062   0.474   4.485   1.963  0.1997 -0.5205  1.0155
 9142SOL    HW239063   0.550   4.511   2.071 -1.9233 -2.5233  2.3908
 9143SOL     OW39064   1.409   3.999   9.063 -0.8245  0.4976  0.5553
 9143SOL    HW139065   1.436   3.907   9.066 -0.0312  0.6490 -1.3474
 9143SOL    HW239066   1.492   4.044   9.043  0.1749 -1.4406  0.3357
 9144SOL     OW39067   3.692   3.908   2.843  0.0874 -0.0349 -0.5671
 9144SOL    HW139068   3.657   3.979   2.790 -0.2820  0.1209 -0.1062
 9144SOL    HW239069   3.638   3.907   2.922 -0.1795  0.6948 -0.7501
 9145SOL     OW39070   0.324   3.471   3.291 -0.4144  0.2997  0.3802
 9145SOL    HW139071   0.401   3.419   3.271 -1.2051 -0.5664 -0.3942
 9145SOL    HW239072   0.357   3.522   3.365  0.0720 -0.1072  0.4383
 9146SOL     OW39073   2.696   4.651  17.455  0.1361  0.0360  0.0582
 9146SOL    HW139074   2.778   4.612  17.485  0.9373  1.5859 -0.1106
 9146SOL    HW239075   2.696   4.600  17.374 -0.5581 -2.0847  1.3912
 9147SOL     OW39076   3.575   0.371  15.766  0.5486  0.0590 -0.0351
 9147SOL    HW139077   3.508   0.431  15.731  0.1932  0.1011  0.7301
 9147SOL    HW239078   3.641   0.363  15.697 -1.1550  0.5948 -1.7685
 9148SOL     OW39079   0.104   1.307  10.340  0.5837 -0.4160 -0.5427
 9148SOL    HW139080   0.075   1.259  10.417  1.8971  0.0970  0.2791
 9148SOL    HW239081   0.119   1.395  10.376 -1.6364 -0.4208  0.3759
 9149SOL     OW39082   4.006   2.062   7.712 -0.2905 -0.5551  0.3909
 9149SOL    HW139083   4.029   2.104   7.629 -3.5956  1.6470  0.5983
 9149SOL    HW239084   3.927   2.012   7.692  0.1478 -0.6384 -1.1272
 9150SOL     OW39085   2.288   1.852   3.761  0.1026 -0.5369  0.0461
 9150SOL    HW139086   2.339   1.866   3.681  0.6618  0.5884  0.5934
 9150SOL    HW239087   2.300   1.936   3.806  1.1934 -0.3909 -0.5097
 9151SOL     OW39088   0.966   0.651   1.909  0.1110 -0.1887  0.3375
 9151SOL    HW139089   0.958   0.668   1.815  0.8334  1.3211  0.5640
 9151SOL    HW239090   0.914   0.570   1.918  0.0877 -0.2783 -0.6038
 9152SOL     OW39091   1.454   1.524   1.804  0.4388  0.6411  0.0170
 9152SOL    HW139092   1.370   1.566   1.824 -0.3483 -0.8285 -0.2474
 9152SOL    HW239093   1.430   1.431   1.801 -0.2055  0.8859 -2.6948
 9153SOL     OW39094   2.995   3.205   4.503 -0.2451  0.3430  0.2855
 9153SOL    HW139095   2.966   3.116   4.523 -2.0374  0.7348 -0.5300
 9153SOL    HW239096   3.075   3.212   4.555  0.2892 -1.1330 -0.3468
 9154SOL     OW39097   4.691   4.275  15.046 -0.7553 -0.4352  0.4965
 9154SOL    HW139098   4.701   4.343  15.113  0.4472  0.3144 -0.4501
 9154SOL    HW239099   4.691   4.198  15.103 -0.8112  0.4764  1.7402
 9155SOL     OW39100   1.660   2.310   2.849  0.1185  0.5377  0.1579
 9155SOL    HW139101   1.735   2.252   2.836  0.0228  0.9026 -1.9609
 9155SOL    HW239102   1.696   2.389   2.807  0.6550  0.6279  0.7780
 9156SOL     OW39103   0.178   0.458   1.873 -0.2779  0.1311  0.0881
 9156SOL    HW139104   0.269   0.439   1.892 -0.5467 -0.8142  0.4278
 9156SOL    HW239105   0.164   0.385   1.812 -1.2170 -0.9216  1.5529
 9157SOL     OW39106   0.691   2.580  12.809  1.2046  0.0231  0.3809
 9157SOL    HW139107   0.620   2.524  12.779  0.4315  0.0465  2.1863
 9157SOL    HW239108   0.755   2.557  12.743  1.0459 -0.5504  0.4243
 9158SOL     OW39109   4.522   2.909   9.079  0.3956 -0.5012 -0.0186
 9158SOL    HW139110   4.433   2.934   9.102  0.3776 -1.5654  1.0880
 9158SOL    HW239111   4.507   2.814   9.077 -0.5347 -0.3423 -0.3025
 9159SOL     OW39112   2.092   0.079   1.439  0.1588 -0.1990 -0.0595
 9159SOL    HW139113   2.121   0.055   1.350 -0.4114 -0.3893 -0.1949
 9159SOL    HW239114   1.997   0.070   1.427 -0.1504 -0.2299  2.5869
 9160SOL     OW39115   2.716   1.649  12.247  0.1927  0.0931 -0.1783
 9160SOL    HW139116   2.756   1.710  12.185  0.8027  0.2038  0.3198
 9160SOL    HW239117   2.781   1.656  12.317  0.4021 -2.0717 -0.1514
 9161SOL     OW39118   1.011   2.881   6.689 -0.2221 -0.0440  0.2177
 9161SOL    HW139119   0.963   2.812   6.643  0.0509  0.2000 -0.4348
 9161SOL    HW239120   0.953   2.949   6.722  1.9878  1.1363  1.6412
 9162SOL     OW39121   2.744   1.327   4.927 -0.3800 -0.7211  0.1506
 9162SOL    HW139122   2.744   1.326   4.831  1.8227  1.5182  0.1135
 9162SOL    HW239123   2.838   1.313   4.943 -0.0558 -0.4277 -1.4595
 9163SOL     OW39124   2.943   1.697   4.543 -0.5519 -0.3060  0.2887
 9163SOL    HW139125   2.928   1.732   4.631  3.8353 -0.6454  1.1767
 9163SOL    HW239126   3.013   1.755   4.512 -0.6689 -0.8196 -0.9484
 9164SOL     OW39127   1.532   0.607   1.410  0.2217 -0.1630 -0.2189
 9164SOL    HW139128   1.494   0.664   1.477  0.9327 -2.5832  2.2818
 9164SOL    HW239129   1.503   0.657   1.334 -0.0350  0.7484  0.4851
 9165SOL     OW39130   1.077   0.204   8.414  0.0756  0.4347 -0.0622
 9165SOL    HW139131   1.067   0.122   8.366  0.9410  0.8308 -0.9105
 9165SOL    HW239132   1.172   0.212   8.414  0.0410  0.8418 -2.0465
 9166SOL     OW39133   3.461   2.700   7.391  0.1655  0.1198 -0.1010
 9166SOL    HW139134   3.400   2.634   7.426  0.5325 -1.0774 -1.6974
 9166SOL    HW239135   3.476   2.760   7.464  1.9512  0.9780 -1.1935
 9167SOL     OW39136   0.742   3.191   5.553 -0.2726 -0.0332 -0.4755
 9167SOL    HW139137   0.729   3.103   5.588 -0.4614 -0.1450 -0.8300
 9167SOL    HW239138   0.784   3.219   5.635  0.3370  1.1933 -1.1986
 9168SOL     OW39139   2.305   4.159   6.578  0.2914  0.4226  0.0687
 9168SOL    HW139140   2.292   4.254   6.575  1.8701  0.6417 -0.1700
 9168SOL    HW239141   2.350   4.153   6.662  0.8704 -0.7540 -0.3260
 9169SOL     OW39142   2.353   3.758  17.077 -0.0972  0.1697 -0.7350
 9169SOL    HW139143   2.299   3.817  17.130 -1.7512 -2.1272  0.1476
 9169SOL    HW239144   2.319   3.789  16.993  0.4675 -0.6117 -1.2607
 9170SOL     OW39145   4.483   1.097  12.348 -0.6069  0.4645  0.0069
 9170SOL    HW139146   4.575   1.082  12.369 -0.0642 -0.1201 -2.8173
 9170SOL    HW239147   4.456   1.014  12.311  0.5318  0.7179 -1.3854
 9171SOL     OW39148   1.907   2.718   2.219  0.5610  0.5790  0.7233
 9171SOL    HW139149   1.945   2.804   2.197  4.7454 -1.6990 -1.0148
 9171SOL    HW239150   1.815   2.740   2.226  0.6332  0.2393  2.6708
 9172SOL     OW39151   2.379   3.478   1.093  0.2096 -0.4313 -0.3537
 9172SOL    HW139152   2.405   3.477   1.185 -1.4274  2.0907  0.1374
 9172SOL    HW239153   2.361   3.385   1.084 -1.4802 -0.2434  1.3361
 9173SOL     OW39154   1.743   3.776   9.840 -0.1108 -0.2405  0.5966
 9173SOL    HW139155   1.807   3.762   9.771 -1.1140 -0.3653 -0.3196
 9173SOL    HW239156   1.729   3.871   9.839 -1.4359 -0.4268  2.3282
 9174SOL     OW39157   0.970   1.928   5.496  0.5715 -0.1851 -0.2172
 9174SOL    HW139158   0.924   2.007   5.523  0.5495  0.1737 -1.3048
 9174SOL    HW239159   0.990   1.951   5.405 -0.7623 -0.9210 -0.6979
 9175SOL     OW39160   0.373   1.799   9.636 -0.3534 -0.6193  0.2056
 9175SOL    HW139161   0.375   1.720   9.582 -0.3212 -0.3776 -0.1478
 9175SOL    HW239162   0.450   1.770   9.685 -1.3798 -1.9218  1.0354
 9176SOL     OW39163   2.441   0.947   8.889  0.0923 -0.0853 -0.0707
 9176SOL    HW139164   2.415   0.855   8.891 -0.8051  0.1444 -1.1395
 9176SOL    HW239165   2.475   0.964   8.977  0.3525 -1.6172  0.1238
 9177SOL     OW39166   1.615   2.727   3.291  0.0863  0.2431 -0.5525
 9177SOL    HW139167   1.624   2.776   3.209  1.2802 -1.1547 -1.2451
 9177SOL    HW239168   1.542   2.671   3.264 -1.0096  0.5254  1.8319
 9178SOL     OW39169   4.538   0.099   1.693 -0.3629 -0.6241 -0.0020
 9178SOL    HW139170   4.501   0.013   1.670 -2.6421  0.4310 -0.3004
 9178SOL    HW239171   4.457   0.143   1.718 -1.0706 -0.3044 -2.7904
 9179SOL     OW39172   3.349   0.924   8.074  0.2123 -0.1901  0.0923
 9179SOL    HW139173   3.352   0.931   7.979  0.9872 -1.3262  0.0307
 9179SOL    HW239174   3.344   0.829   8.086 -0.4276 -0.3919 -1.8384
 9180SOL     OW39175   4.257   0.106   2.273 -0.8497 -0.3679 -0.2048
 9180SOL    HW139176   4.185   0.167   2.255  0.5921  1.8479  1.4561
 9180SOL    HW239177   4.321   0.175   2.292  1.9424 -2.8455 -0.7222
 9181SOL     OW39178   2.672   2.786   1.810  0.2347 -1.0385  0.3029
 9181SOL    HW139179   2.587   2.745   1.799 -1.7718  2.7252  1.9585
 9181SOL    HW239180   2.685   2.781   1.905 -2.1553  3.5523  0.8653
 9182SOL     OW39181   3.636   1.716   6.879 -0.2245 -0.1092  0.3833
 9182SOL    HW139182   3.707   1.740   6.938 -0.8687  3.2818 -0.1992
 9182SOL    HW239183   3.600   1.802   6.859  1.1134  0.5266  0.7043
 9183SOL     OW39184   0.867   3.013   5.218 -0.4317 -0.4946 -0.2142
 9183SOL    HW139185   0.797   3.078   5.205 -1.1980 -0.7522  2.6363
 9183SOL    HW239186   0.909   3.050   5.296 -1.9035  0.4692  0.1389
 9184SOL     OW39187   0.827   2.202   6.058 -0.0521  0.9217 -0.0255
 9184SOL    HW139188   0.897   2.143   6.086 -2.3984 -0.9594  1.8720
 9184SOL    HW239189   0.820   2.187   5.963  1.5157  0.6563 -0.1023
 9185SOL     OW39190   1.593   0.771   3.789  0.5601  0.2077  0.2008
 9185SOL    HW139191   1.619   0.706   3.723 -0.6951  1.0918 -1.1568
 9185SOL    HW239192   1.636   0.846   3.747  0.3060 -0.0079 -0.4492
 9186SOL     OW39193   0.362   3.454   6.250  0.3243  0.0790  0.8088
 9186SOL    HW139194   0.374   3.537   6.204 -3.7511  0.1429 -0.1663
 9186SOL    HW239195   0.357   3.387   6.182  1.5141  1.7873 -0.9422
 9187SOL     OW39196   1.536   4.036   5.033 -0.4964 -0.0337 -0.7052
 9187SOL    HW139197   1.507   4.125   5.056  0.5372 -0.4693  2.2192
 9187SOL    HW239198   1.556   4.054   4.941  0.3541 -1.0125 -0.7133
 9188SOL     OW39199   4.056   2.945  10.683 -0.3260  0.2137 -0.4299
 9188SOL    HW139200   4.130   2.932  10.624  1.0511 -2.1086  1.8304
 9188SOL    HW239201   4.059   2.857  10.721 -1.5100 -0.2616 -1.4331
 9189SOL     OW39202   0.230   2.166   4.819  0.1325  0.7148 -0.3449
 9189SOL    HW139203   0.323   2.188   4.807  0.1653  1.3346  1.0775
 9189SOL    HW239204   0.202   2.225   4.888  0.7343 -1.3146  1.6353
 9190SOL     OW39205   3.194   3.288   5.692  0.8028  0.1290 -0.5309
 9190SOL    HW139206   3.156   3.320   5.610  2.0648  1.9995 -0.3675
 9190SOL    HW239207   3.276   3.256   5.655  2.5586  2.5921  1.3157
 9191SOL     OW39208   0.244   3.909  17.686 -0.0870  0.1498 -0.4618
 9191SOL    HW139209   0.189   3.909  17.608 -0.6605 -1.1444 -0.0665
 9191SOL    HW239210   0.223   4.000  17.707 -3.1014 -0.1431 -2.2087
 9192SOL     OW39211   0.803   2.465   9.596 -0.2175 -0.5067 -0.5523
 9192SOL    HW139212   0.793   2.375   9.563 -0.1386  0.1603 -2.3555
 9192SOL    HW239213   0.710   2.486   9.603 -0.5859 -2.5586  1.1091
 9193SOL     OW39214   1.593   3.069   3.281  0.1578  0.5220  0.3106
 9193SOL    HW139215   1.528   3.120   3.330 -2.4073 -1.1692 -1.3680
 9193SOL    HW239216   1.637   3.022   3.351  0.5951  2.5480  1.3952
 9194SOL     OW39217   2.176   4.205   4.116 -0.7923  0.4949  0.3595
 9194SOL    HW139218   2.190   4.300   4.112  2.7269 -0.0707 -0.8573
 9194SOL    HW239219   2.269   4.185   4.127 -1.5797 -3.5293 -0.4921
 9195SOL     OW39220   3.162   3.403   3.851  0.1349 -0.4790 -0.7982
 9195SOL    HW139221   3.074   3.440   3.860 -0.0489 -0.8765 -0.9528
 9195SOL    HW239222   3.193   3.413   3.941  0.1758  0.1005 -0.8799
 9196SOL     OW39223   4.684   1.016   4.359  0.1939 -0.0210 -0.3813
 9196SOL    HW139224   0.017   0.950   4.342 -0.0936  0.2072 -2.5003
 9196SOL    HW239225   4.620   0.976   4.417  1.7677 -3.3385 -0.9326
 9197SOL     OW39226   0.548   1.082  17.449 -1.0591 -0.4254  0.0051
 9197SOL    HW139227   0.545   1.139  17.373 -2.5713 -1.7943 -0.9576
 9197SOL    HW239228   0.569   1.153  17.509  0.3522  1.2291 -2.4431
 9198SOL     OW39229   0.803   1.016   0.801 -0.1073 -0.1146 -0.1762
 9198SOL    HW139230   0.731   0.993   0.858 -0.3373  0.8482 -0.0834
 9198SOL    HW239231   0.790   0.951   0.731  2.3542  0.0017 -0.7421
 9199SOL     OW39232   0.335   0.437   6.759  0.1171 -0.7935  0.0508
 9199SOL    HW139233   0.276   0.408   6.689  0.5762 -1.2223 -0.1623
 9199SOL    HW239234   0.406   0.474   6.707  0.2151  1.3554  1.6998
 9200SOL     OW39235   3.091   2.049   2.441  0.4448  0.2148 -0.1718
 9200SOL    HW139236   3.139   2.128   2.465  2.1370 -1.2338  1.2488
 9200SOL    HW239237   3.031   2.039   2.516  0.3623  0.1346 -0.2490
 9201SOL     OW39238   1.243   3.001   6.687  0.5313  0.2874  0.2247
 9201SOL    HW139239   1.149   2.981   6.681  0.8060 -0.4204 -1.7937
 9201SOL    HW239240   1.239   3.074   6.749  2.8398  0.0815  0.6140
 9202SOL     OW39241   1.178   4.033  17.104  0.0939  0.4510  0.4417
 9202SOL    HW139242   1.089   4.029  17.069  0.4005 -1.6170 -0.1211
 9202SOL    HW239243   1.192   4.127  17.093 -2.0653  0.6776 -0.3743
 9203SOL     OW39244   0.091   4.526   8.541  0.1692 -0.1704 -0.7636
 9203SOL    HW139245   0.059   4.580   8.469 -2.0573  2.5866  2.2559
 9203SOL    HW239246   0.180   4.556   8.560 -0.1984 -0.1933  1.0664
 9204SOL     OW39247   2.321   2.425   7.012 -0.4945 -0.6518 -0.0641
 9204SOL    HW139248   2.288   2.343   6.975 -1.0364 -0.2553 -0.4493
 9204SOL    HW239249   2.314   2.402   7.105 -1.4972 -1.6853 -0.3915
 9205SOL     OW39250   2.605   4.562  11.767 -0.8323  0.4792 -0.2022
 9205SOL    HW139251   2.525   4.528  11.726  0.2389 -0.5635 -1.4513
 9205SOL    HW239252   2.561   4.603  11.841  1.1550  1.3631  0.4720
 9206SOL     OW39253   3.735   3.385   7.016  0.2672 -0.0496  0.3805
 9206SOL    HW139254   3.817   3.341   6.994 -0.1422  0.2127 -1.6332
 9206SOL    HW239255   3.689   3.301   7.009 -1.9376  1.1631  0.3575
 9207SOL     OW39256   4.115   2.779   6.569 -0.1883  0.3342 -0.4441
 9207SOL    HW139257   4.200   2.818   6.587  0.2920 -0.5137 -0.8865
 9207SOL    HW239258   4.125   2.698   6.619 -0.1118  1.3327  1.1877
 9208SOL     OW39259   2.599   2.764   7.873  0.6141 -0.9039 -0.0141
 9208SOL    HW139260   2.667   2.811   7.824  0.2892  2.5642  2.8091
 9208SOL    HW239261   2.643   2.694   7.921 -0.3249 -0.7451  1.0893
 9209SOL     OW39262   2.264   2.848   6.852  0.1633 -0.0433  0.2696
 9209SOL    HW139263   2.219   2.764   6.844 -2.7915  1.3340  1.9991
 9209SOL    HW239264   2.190   2.901   6.821  0.5888  0.2312 -0.2812
 9210SOL     OW39265   1.972   4.725   5.810 -0.0083 -0.0841 -0.5310
 9210SOL    HW139266   2.001   0.075   5.774  0.8623  0.5552  1.6599
 9210SOL    HW239267   1.899   0.015   5.867  0.7987 -1.6279  1.1330
 9211SOL     OW39268   3.055   3.849   2.807 -0.5552 -0.8059 -0.1871
 9211SOL    HW139269   3.040   3.856   2.902 -0.5820  1.5672 -0.3558
 9211SOL    HW239270   2.972   3.873   2.768 -1.0139 -0.4787  0.9810
 9212SOL     OW39271   4.139   2.629   7.472  0.1983 -0.1471 -0.3755
 9212SOL    HW139272   4.124   2.635   7.566  2.2638 -1.4428  0.0332
 9212SOL    HW239273   4.085   2.556   7.442 -1.3025  0.6756  0.3749
 9213SOL     OW39274   1.625   4.233  10.946 -0.0083  0.7789  0.0787
 9213SOL    HW139275   1.635   4.251  11.039  2.8222 -0.1465 -0.0463
 9213SOL    HW239276   1.537   4.196  10.944  0.1000  0.5459 -0.5054
 9214SOL     OW39277   2.296   3.507   7.752  0.3093 -0.1539  0.8237
 9214SOL    HW139278   2.209   3.485   7.785 -0.5400 -0.4843 -1.7000
 9214SOL    HW239279   2.331   3.548   7.831  1.2528 -2.4794  1.6215
 9215SOL     OW39280   2.252   0.862   6.502  0.0868  0.8523 -0.1860
 9215SOL    HW139281   2.299   0.797   6.555  0.5712  2.3604  1.2407
 9215SOL    HW239282   2.259   0.835   6.411  1.6246 -1.4198  0.6103
 9216SOL     OW39283   0.404   4.324   9.579 -0.4093 -0.3336 -0.3293
 9216SOL    HW139284   0.406   4.416   9.604  0.2198 -0.4587  0.0933
 9216SOL    HW239285   0.466   4.323   9.506  2.5852 -2.1130  2.2129
 9217SOL     OW39286   1.918   1.172  12.110 -0.3350 -0.0916  0.2898
 9217SOL    HW139287   1.975   1.237  12.152  1.1106 -0.6701 -0.7924
 9217SOL    HW239288   1.975   1.095  12.105  0.1719  0.1650  1.8428
 9218SOL     OW39289   1.977   2.994   1.796  0.0199  0.2575 -0.4362
 9218SOL    HW139290   2.029   3.059   1.747  2.2517 -1.2389 -0.0508
 9218SOL    HW239291   2.004   2.911   1.756 -1.3790  0.3788 -1.6164
 9219SOL     OW39292   2.581   4.061   3.297 -0.1123  0.2533 -0.2318
 9219SOL    HW139293   2.503   4.062   3.241 -0.4808  0.0504  0.2789
 9219SOL    HW239294   2.649   4.085   3.233 -1.4585 -0.5065 -1.9602
 9220SOL     OW39295   0.168   3.250   4.366 -0.2970 -0.5123  0.1523
 9220SOL    HW139296   0.226   3.175   4.381  1.7078  0.5470 -2.3371
 9220SOL    HW239297   0.109   3.224   4.295 -1.6824  2.0778  0.3651
 9221SOL     OW39298   0.633   0.165   5.240 -0.9049  0.1510 -0.3491
 9221SOL    HW139299   0.571   0.093   5.252  0.0957 -0.2699  2.3888
 9221SOL    HW239300   0.664   0.175   5.331  0.0244  1.4278 -0.8041
 9222SOL     OW39301   2.734   0.631  14.321 -0.4051 -0.0037 -0.0947
 9222SOL    HW139302   2.679   0.632  14.399  1.3476 -0.7427  1.1606
 9222SOL    HW239303   2.799   0.695  14.352 -1.2648  0.5341  0.5760
 9223SOL     OW39304   4.591   1.240   3.425 -0.2060 -0.1541  0.3837
 9223SOL    HW139305   4.614   1.238   3.518  2.7757  1.6549 -0.3251
 9223SOL    HW239306   4.497   1.261   3.423 -0.9164 -3.3517  0.2812
 9224SOL     OW39307   1.645   3.396   2.651 -0.2604 -0.3956 -0.6242
 9224SOL    HW139308   1.551   3.390   2.632 -0.2684 -1.1485 -0.3559
 9224SOL    HW239309   1.673   3.459   2.585 -0.1004  0.3043  0.1246
 9225SOL     OW39310   3.350   4.295  12.217 -0.4048 -0.6426  0.0264
 9225SOL    HW139311   3.309   4.312  12.132 -1.0250 -0.2612  0.4028
 9225SOL    HW239312   3.287   4.318  12.285  3.6675  1.5713  3.0578
 9226SOL     OW39313   1.753   3.058   5.466  0.1143 -0.1916  0.1495
 9226SOL    HW139314   1.688   3.012   5.413  2.1038 -2.4501 -0.3546
 9226SOL    HW239315   1.719   3.146   5.452  1.4441 -0.3342 -3.8998
 9227SOL     OW39316   3.549   2.755  17.002  0.1342 -0.2496  0.2063
 9227SOL    HW139317   3.599   2.830  16.969  0.7487  0.2300  2.2462
 9227SOL    HW239318   3.553   2.697  16.925 -1.9638  1.7162 -1.3728
 9228SOL     OW39319   2.402   4.556  16.711 -0.4084  0.0612  0.1451
 9228SOL    HW139320   2.485   4.526  16.750 -0.1912  0.9055  0.3395
 9228SOL    HW239321   2.412   4.647  16.681  0.7653  0.2792  1.1656
 9229SOL     OW39322   2.217   0.525   6.194 -0.1373  0.5860  0.3709
 9229SOL    HW139323   2.287   0.573   6.238  0.2480  0.8025 -0.4760
 9229SOL    HW239324   2.248   0.434   6.194  2.2293  1.4217  0.0029
 9230SOL     OW39325   0.018   3.323   8.358 -0.3521 -0.4820 -0.0972
 9230SOL    HW139326   0.090   3.333   8.420 -0.4413  1.1085 -0.2620
 9230SOL    HW239327   4.727   3.235   8.386 -0.2385 -0.4024  0.2509
 9231SOL     OW39328   2.063   0.832   4.916 -0.3100 -0.1465 -0.0866
 9231SOL    HW139329   2.108   0.800   4.837  0.0952 -0.5134  0.2958
 9231SOL    HW239330   2.133   0.879   4.960  0.4050 -2.5678  1.3207
 9232SOL     OW39331   2.620   2.272   2.037  0.0517  0.3339  0.1044
 9232SOL    HW139332   2.549   2.300   2.096  1.1376 -0.9400  2.0106
 9232SOL    HW239333   2.586   2.284   1.948  0.4176 -1.6803 -0.3135
 9233SOL     OW39334   1.605   3.868  11.750  0.1380  0.3846 -0.2293
 9233SOL    HW139335   1.601   3.832  11.839  0.1430  0.5701 -0.1534
 9233SOL    HW239336   1.631   3.957  11.775 -0.2478  0.4773 -0.1501
 9234SOL     OW39337   4.657   4.168   0.244  0.0221 -0.5311  0.4654
 9234SOL    HW139338   4.580   4.219   0.218  0.0532 -0.6764  0.0950
 9234SOL    HW239339   4.655   4.177   0.339 -2.1490 -1.4797  0.5154
 9235SOL     OW39340   4.504   1.403   7.404 -1.2174 -0.3925 -0.7868
 9235SOL    HW139341   4.410   1.397   7.392 -1.3054  0.0051 -0.3030
 9235SOL    HW239342   4.518   1.473   7.340 -0.4706 -1.6227 -1.9775
 9236SOL     OW39343   2.805   2.005  15.055 -0.3975 -0.5800  0.1567
 9236SOL    HW139344   2.783   2.072  14.990  1.8711  0.9883  0.9611
 9236SOL    HW239345   2.872   2.061  15.096 -0.5150 -0.7371  0.5642
 9237SOL     OW39346   1.839   3.582   4.370  0.5169  0.4801 -0.0332
 9237SOL    HW139347   1.749   3.585   4.338  0.6868 -2.2747 -0.7265
 9237SOL    HW239348   1.874   3.650   4.312 -1.1113  2.2717  1.0959
 9238SOL     OW39349   4.713   1.914  14.696  0.0861 -0.4413  0.0272
 9238SOL    HW139350   0.008   1.932  14.606  1.4390 -0.5965  0.4352
 9238SOL    HW239351   4.621   1.939  14.692  0.6764  2.0809  1.9305
 9239SOL     OW39352   4.617   2.670  14.830  0.4737 -0.0060  0.2233
 9239SOL    HW139353   4.616   2.632  14.742 -0.7514 -0.4271  0.4154
 9239SOL    HW239354   4.556   2.743  14.829  0.6743  0.1084 -2.3726
 9240SOL     OW39355   1.424   3.591   8.120  0.0714  0.0188  0.1010
 9240SOL    HW139356   1.450   3.604   8.211 -0.7174  1.2118  0.1535
 9240SOL    HW239357   1.445   3.680   8.093 -2.7005  0.6029 -0.1763
 9241SOL     OW39358   1.228   3.644   5.117 -0.2444 -0.3784  0.3000
 9241SOL    HW139359   1.318   3.666   5.141 -0.0102 -0.4993 -0.4519
 9241SOL    HW239360   1.235   3.580   5.046  0.2722 -1.2548  1.1430
 9242SOL     OW39361   4.555   1.817  14.223  0.0149  0.6493 -0.2308
 9242SOL    HW139362   4.478   1.806  14.279  0.6526 -2.3650  0.0914
 9242SOL    HW239363   4.580   1.909  14.229  0.4595  0.5857 -1.1057
 9243SOL     OW39364   2.882   3.540   4.445 -0.3904  0.1494  0.0761
 9243SOL    HW139365   2.819   3.602   4.481 -1.3913  0.2296 -1.8317
 9243SOL    HW239366   2.851   3.457   4.482 -1.4356  0.8105  0.6749
 9244SOL     OW39367   0.484   0.736   2.610  0.5927  0.7602  0.0548
 9244SOL    HW139368   0.437   0.818   2.600  2.1617  1.6360 -0.1099
 9244SOL    HW239369   0.575   0.765   2.620  1.0267 -1.4236  2.3474
 9245SOL     OW39370   2.456   0.701  17.580 -0.0061 -0.1719  0.2424
 9245SOL    HW139371   2.399   0.778  17.577 -0.7835 -0.8328 -1.5470
 9245SOL    HW239372   2.520   0.724  17.513 -1.1155 -0.5707 -0.9462
 9246SOL     OW39373   1.643   0.327  10.935  1.0498 -0.5329 -0.1704
 9246SOL    HW139374   1.587   0.327  11.012  1.2776  1.4344  0.0053
 9246SOL    HW239375   1.707   0.269  10.976 -0.0712  1.2279  4.0204
 9247SOL     OW39376   1.908   3.497  11.690 -0.0760 -0.3378  0.1113
 9247SOL    HW139377   1.938   3.504  11.599 -0.3087  0.2190  0.0790
 9247SOL    HW239378   1.832   3.555  11.685 -1.0478 -1.5815  0.3129
 9248SOL     OW39379   0.004   0.129   6.875 -0.2724 -0.0437 -0.3916
 9248SOL    HW139380   4.710   0.184   6.948  0.3224 -1.5449  0.9711
 9248SOL    HW239381   4.709   0.187   6.805 -1.7542  2.1374  2.0062
 9249SOL     OW39382   4.176   2.430   1.523  0.3499 -0.2920 -0.0126
 9249SOL    HW139383   4.136   2.516   1.534 -1.9371 -1.4840  0.8650
 9249SOL    HW239384   4.119   2.397   1.454 -1.6472 -0.4731  1.7305
 9250SOL     OW39385   2.591   3.736   3.419  0.2141  0.0794  0.6435
 9250SOL    HW139386   2.610   3.792   3.344 -2.3900 -1.1607 -0.9279
 9250SOL    HW239387   2.618   3.655   3.376 -0.0520  0.5196 -0.3538
 9251SOL     OW39388   2.243   4.476   2.085 -0.0661 -0.3106  0.8241
 9251SOL    HW139389   2.288   4.394   2.068 -1.0739 -0.4170 -1.4622
 9251SOL    HW239390   2.173   4.455   2.023  1.1700 -1.8419 -0.0551
 9252SOL     OW39391   4.555   0.960   2.949 -0.2421 -0.0869  0.3382
 9252SOL    HW139392   4.648   0.945   2.968  0.6031  1.8231 -2.3447
 9252SOL    HW239393   4.552   1.019   2.874  1.3933 -0.4894 -0.0424
 9253SOL     OW39394   2.337   1.460   1.205  0.1380  0.0214 -1.0541
 9253SOL    HW139395   2.257   1.499   1.239  0.1144 -1.2705  0.3770
 9253SOL    HW239396   2.295   1.414   1.132 -0.2321  0.6406 -1.2329
 9254SOL     OW39397   1.508   3.406   9.895  0.3276 -0.0745  0.2852
 9254SOL    HW139398   1.512   3.487   9.843 -1.8211 -0.2000 -0.0711
 9254SOL    HW239399   1.414   3.392   9.886 -0.0257  2.0927  0.6063
 9255SOL     OW39400   1.265   2.077  17.006  0.2062  0.0722 -0.3553
 9255SOL    HW139401   1.213   2.157  17.009 -0.3798 -0.3200 -0.0477
 9255SOL    HW239402   1.356   2.100  17.023  0.1984  0.3592 -0.7100
 9256SOL     OW39403   3.452   0.569   1.982  0.6776  0.1764 -0.1667
 9256SOL    HW139404   3.439   0.544   1.891 -0.8854 -1.2078  0.4245
 9256SOL    HW239405   3.527   0.516   2.012  0.0583 -0.9768 -0.6571
 9257SOL     OW39406   1.931   0.975   4.277 -0.4139  0.0285  0.3375
 9257SOL    HW139407   1.918   1.031   4.201 -1.4452 -0.0019  0.4902
 9257SOL    HW239408   1.868   0.906   4.254  2.5169 -1.5963 -2.6435
 9258SOL     OW39409   2.457   3.842   1.917  0.6017 -0.2654  0.5733
 9258SOL    HW139410   2.396   3.796   1.975  0.7631 -0.8567  0.2712
 9258SOL    HW239411   2.495   3.900   1.983  1.1182  0.5886 -0.4687
 9259SOL     OW39412   0.808   2.130   3.144 -0.6714  0.4936 -0.2622
 9259SOL    HW139413   0.809   2.053   3.201  1.4823 -1.1655 -2.5461
 9259SOL    HW239414   0.901   2.136   3.120 -0.9289  0.3216 -1.2713
 9260SOL     OW39415   2.096   4.153   1.331  0.2528  0.6961 -0.4243
 9260SOL    HW139416   2.056   4.106   1.404 -2.6304 -0.9447 -3.0615
 9260SOL    HW239417   2.076   4.245   1.349 -1.3499  0.4860 -1.1340
 9261SOL     OW39418   4.318   4.666   2.503 -0.2791  0.4166 -0.3792
 9261SOL    HW139419   4.329   0.005   2.442  2.1089  2.0887  2.0720
 9261SOL    HW239420   4.341   4.592   2.446  1.5211  1.8777 -1.5283
 9262SOL     OW39421   0.285   4.607   4.546 -0.5140  0.4232 -0.2333
 9262SOL    HW139422   0.276   4.542   4.615 -1.3646  0.8786  0.0745
 9262SOL    HW239423   0.192   4.623   4.530 -1.0070 -2.5697 -0.3918
 9263SOL     OW39424   1.820   4.254   8.312  0.4059 -0.2317 -0.0175
 9263SOL    HW139425   1.855   4.342   8.295 -1.9582  0.4490 -1.3572
 9263SOL    HW239426   1.889   4.194   8.284  0.0741 -0.4938 -0.2701
 9264SOL     OW39427   1.877   1.467   4.896  0.1505  0.3446  0.2197
 9264SOL    HW139428   1.862   1.406   4.824 -0.3972  0.7289  0.0146
 9264SOL    HW239429   1.903   1.543   4.844  0.5563  0.3874  0.4817
 9265SOL     OW39430   2.760   0.711  13.656  0.0709  0.2578 -0.3739
 9265SOL    HW139431   2.715   0.638  13.699  1.9611  1.0603  2.9958
 9265SOL    HW239432   2.729   0.686  13.569  0.6726  0.1363 -0.5595
 9266SOL     OW39433   1.607   3.951  11.483  0.0729 -0.2870 -0.4143
 9266SOL    HW139434   1.535   4.013  11.489  0.1847 -0.0480 -1.5289
 9266SOL    HW239435   1.615   3.909  11.568 -0.3916  0.4502 -0.0043
 9267SOL     OW39436   2.118   3.173   1.676  0.0376 -0.3577 -0.2227
 9267SOL    HW139437   2.192   3.181   1.736  1.6434 -0.0162 -2.2332
 9267SOL    HW239438   2.162   3.154   1.593 -0.2716 -1.0776 -0.2200
 9268SOL     OW39439   2.860   2.885   7.951 -0.0470 -0.1228  0.0798
 9268SOL    HW139440   2.835   2.950   8.016 -0.9530 -1.4197  1.0249
 9268SOL    HW239441   2.940   2.928   7.922 -1.3144  2.2320  0.0779
 9269SOL     OW39442   2.932   2.424   6.932  0.0781 -0.4164 -0.5045
 9269SOL    HW139443   2.956   2.494   6.871 -1.8359 -0.6322 -1.5163
 9269SOL    HW239444   2.899   2.353   6.877  0.5264 -2.2037  1.5823
 9270SOL     OW39445   3.357   1.552   4.613 -0.5564  0.1171 -0.2251
 9270SOL    HW139446   3.325   1.486   4.551  0.4827 -1.6125  1.0889
 9270SOL    HW239447   3.274   1.567   4.659  0.3318  1.8937  0.7544
 9271SOL     OW39448   0.425   0.518   9.964 -0.3869 -0.1696 -0.3753
 9271SOL    HW139449   0.520   0.505   9.970 -0.4740 -0.3777  0.6668
 9271SOL    HW239450   0.392   0.430   9.985  1.1400 -0.8161 -0.6634
 9272SOL     OW39451   1.967   0.007  10.746  0.4965  0.6667 -0.0194
 9272SOL    HW139452   1.956   4.667  10.685 -0.2192  1.0255 -0.3347
 9272SOL    HW239453   1.904   4.719  10.815  0.9094  0.6578  0.3494
 9273SOL     OW39454   0.685   0.884   2.760  0.2073  0.4136 -0.4421
 9273SOL    HW139455   0.714   0.822   2.827  0.6800  0.5391 -0.5346
 9273SOL    HW239456   0.619   0.923   2.817 -0.5776  1.1713 -1.8643
 9274SOL     OW39457   0.831   2.129  13.468  1.1341 -0.3407 -0.4471
 9274SOL    HW139458   0.757   2.180  13.434 -0.7846 -2.8246  0.1074
 9274SOL    HW239459   0.792   2.101  13.550  0.9334  0.6078 -0.2167
 9275SOL     OW39460   2.566   2.118   6.838  0.0902  0.6721 -0.3436
 9275SOL    HW139461   2.636   2.059   6.866  0.5439  1.2106 -0.3390
 9275SOL    HW239462   2.605   2.205   6.828  1.5418  0.0934  0.3323
 9276SOL     OW39463   1.696   3.256   7.466  0.2146 -0.2458 -0.1910
 9276SOL    HW139464   1.679   3.295   7.552 -0.4945 -1.1882  0.0928
 9276SOL    HW239465   1.784   3.287   7.443  1.6772 -3.8241  0.5023
 9277SOL     OW39466   3.773   1.435   4.224 -0.4299 -0.0952 -0.3549
 9277SOL    HW139467   3.795   1.342   4.225  0.1195  0.0449  0.6072
 9277SOL    HW239468   3.840   1.476   4.279  1.7483  0.0106 -3.1145
 9278SOL     OW39469   1.846   2.870   2.545  0.0799  0.2317 -0.0200
 9278SOL    HW139470   1.769   2.928   2.549  0.6850  1.0692 -0.5146
 9278SOL    HW239471   1.806   2.793   2.506 -0.4670  0.2303  0.5344
 9279SOL     OW39472   0.267   2.748   8.024 -0.1015  0.7828  0.0877
 9279SOL    HW139473   0.195   2.750   7.961 -0.3939 -1.7450  0.3631
 9279SOL    HW239474   0.221   2.739   8.108  0.8704 -1.1441  0.4069
 9280SOL     OW39475   2.785   1.205   3.595  0.1590 -0.3613 -0.7582
 9280SOL    HW139476   2.748   1.277   3.645  1.5480 -0.3857  0.2945
 9280SOL    HW239477   2.808   1.254   3.516  0.9042 -0.0722 -0.3616
 9281SOL     OW39478   0.531   0.907   7.869  0.7561 -0.2927 -0.0767
 9281SOL    HW139479   0.441   0.876   7.857  0.5922  0.5110 -0.9174
 9281SOL    HW239480   0.516   0.997   7.899 -0.7503 -0.8201  0.8032
 9282SOL     OW39481   3.665   3.014  10.755 -0.5263  0.0653 -0.1624
 9282SOL    HW139482   3.724   3.086  10.778 -0.6334  0.5436 -1.3959
 9282SOL    HW239483   3.577   3.043  10.779 -0.1146  0.8799  0.3530
 9283SOL     OW39484   2.079   4.275   6.356 -0.2713  0.5746  0.2538
 9283SOL    HW139485   2.005   4.235   6.401  0.5021 -0.8016  0.2772
 9283SOL    HW239486   2.093   4.354   6.409 -0.4116  0.4060  0.5412
 9284SOL     OW39487   1.593   0.785   4.976 -0.0865  0.9286  0.0538
 9284SOL    HW139488   1.687   0.793   4.995 -0.2317 -1.4516  1.6965
 9284SOL    HW239489   1.569   0.714   5.035  1.3463  1.7577  1.6615
 9285SOL     OW39490   3.533   3.124  17.235 -0.1845 -0.8105 -0.0722
 9285SOL    HW139491   3.533   3.179  17.314 -1.8035 -0.2881 -0.4387
 9285SOL    HW239492   3.481   3.175  17.173  0.9783 -2.9361 -2.7855
 9286SOL     OW39493   4.604   1.795   8.137 -0.0873 -0.2610 -0.0923
 9286SOL    HW139494   4.600   1.890   8.125  1.5188 -0.1666  0.1130
 9286SOL    HW239495   4.598   1.770   8.045  0.6044  1.2743 -0.5508
 9287SOL     OW39496   2.569   1.899   9.272 -0.1481  0.0267  0.0839
 9287SOL    HW139497   2.485   1.904   9.317 -0.3190  1.8719 -0.4430
 9287SOL    HW239498   2.626   1.872   9.343  0.3171  1.4540  0.2441
 9288SOL     OW39499   2.492   2.929   6.355 -0.0293  0.4330  0.3257
 9288SOL    HW139500   2.482   2.964   6.443 -1.9799  0.7833 -0.0161
 9288SOL    HW239501   2.477   2.838   6.377  0.6730  0.0192 -0.9091
 9289SOL     OW39502   2.162   0.859   2.014  0.3710  0.2874  0.0726
 9289SOL    HW139503   2.169   0.889   1.923 -0.9116 -2.6014 -0.9785
 9289SOL    HW239504   2.094   0.792   2.011 -0.9260  1.5355  2.5207
 9290SOL     OW39505   3.013   0.586   4.681 -0.1317 -0.0764 -0.0811
 9290SOL    HW139506   3.063   0.504   4.672  1.7204  1.1058 -0.5130
 9290SOL    HW239507   3.083   0.649   4.697  0.6489 -0.6982 -0.9799
 9291SOL     OW39508   2.905   0.513  10.019  0.5116  0.1456 -0.0058
 9291SOL    HW139509   2.937   0.588   9.969  0.9790 -0.4319 -0.5648
 9291SOL    HW239510   2.888   0.545  10.108 -0.1606  0.0866 -0.1119
 9292SOL     OW39511   2.123   2.172   4.944  0.1135  0.2370  0.2997
 9292SOL    HW139512   2.031   2.153   4.964  0.7144 -2.7353  0.3575
 9292SOL    HW239513   2.142   2.088   4.902 -1.9383 -0.4372  0.6943
 9293SOL     OW39514   2.189   4.730  16.849 -0.6278 -0.3872  0.1669
 9293SOL    HW139515   2.207   4.638  16.867  0.0748 -0.0451  1.2354
 9293SOL    HW239516   2.249   0.013  16.777  1.2312 -0.8605  1.6062
 9294SOL     OW39517   2.482   3.345   8.698 -0.0617  0.1323 -0.5889
 9294SOL    HW139518   2.447   3.379   8.780 -0.2146  0.3811 -0.7597
 9294SOL    HW239519   2.399   3.309   8.664 -0.5772  2.3056 -1.6594
 9295SOL     OW39520   0.994   4.339  15.616 -0.2616 -0.3002  0.3354
 9295SOL    HW139521   1.082   4.376  15.615  0.0963 -1.1906 -1.4701
 9295SOL    HW239522   0.984   4.319  15.523  0.7727 -1.1512  0.4094
 9296SOL     OW39523   3.829   3.335  12.460 -0.2055 -0.0790  0.0717
 9296SOL    HW139524   3.766   3.352  12.391 -1.9600 -1.0519  1.4320
 9296SOL    HW239525   3.885   3.413  12.457  0.0044 -0.2001  0.7785
 9297SOL     OW39526   4.278   2.656   8.917 -0.1984  0.2013 -0.4600
 9297SOL    HW139527   4.301   2.596   8.987  3.3330  0.8404 -1.0477
 9297SOL    HW239528   4.250   2.598   8.846 -0.6367 -1.2376  0.9031
 9298SOL     OW39529   2.921   1.319   3.038 -0.0063 -0.5137  0.3193
 9298SOL    HW139530   3.003   1.363   3.058  0.7386 -3.0592  2.7946
 9298SOL    HW239531   2.902   1.303   3.130  0.9503 -0.9668  0.4394
 9299SOL     OW39532   4.130   3.297  15.374  0.3680 -0.2176  0.5975
 9299SOL    HW139533   4.141   3.365  15.440  2.2573 -1.2514  1.3562
 9299SOL    HW239534   4.045   3.328  15.344  0.2485  0.0035  1.1765
 9300SOL     OW39535   1.728   0.338   2.846  0.3297 -0.1937 -0.1764
 9300SOL    HW139536   1.780   0.347   2.925 -0.3593 -1.3279  0.3957
 9300SOL    HW239537   1.692   0.250   2.853  2.7219 -1.2018 -0.6287
 9301SOL     OW39538   2.306   0.904  14.908  0.5250  0.5911 -0.3276
 9301SOL    HW139539   2.258   0.822  14.894  1.0040  0.3759 -0.7136
 9301SOL    HW239540   2.318   0.937  14.820 -1.9446  1.0582 -0.4919
 9302SOL     OW39541   0.680   3.134   4.131 -0.2679  0.1652  0.2030
 9302SOL    HW139542   0.742   3.150   4.060 -0.7494  0.2073 -0.2070
 9302SOL    HW239543   0.633   3.217   4.135 -0.0199  0.1668  3.2546
 9303SOL     OW39544   0.102   2.884   9.622  0.3602 -0.6582  0.0440
 9303SOL    HW139545   0.040   2.826   9.578  0.9276 -1.3971  0.2275
 9303SOL    HW239546   0.089   2.972   9.586  1.8221 -0.9654 -1.2420
 9304SOL     OW39547   1.841   4.590  16.002  0.3317 -0.0825 -0.4952
 9304SOL    HW139548   1.747   4.606  16.012  0.8447  0.5843  3.2231
 9304SOL    HW239549   1.869   4.681  15.992 -1.7020  0.4533 -1.2503
 9305SOL     OW39550   0.167   2.121   3.754 -0.5554 -0.1833  0.2018
 9305SOL    HW139551   0.151   2.214   3.738 -1.1834 -0.4795 -0.8621
 9305SOL    HW239552   0.086   2.086   3.791 -0.8963 -0.9509 -1.2960
 9306SOL     OW39553   3.297   2.306   4.657  0.6893  0.1970 -0.2294
 9306SOL    HW139554   3.229   2.290   4.592 -0.6734  2.3814  0.6709
 9306SOL    HW239555   3.366   2.239   4.651 -0.7178 -1.4991  2.5878
 9307SOL     OW39556   3.662   2.180   3.665  0.5816 -0.4570 -0.7629
 9307SOL    HW139557   3.613   2.262   3.671  2.6283  0.7647 -0.7348
 9307SOL    HW239558   3.661   2.169   3.570 -0.7007 -0.0412 -0.7949
 9308SOL     OW39559   2.106   4.036  14.619 -0.3117  0.2760 -0.1570
 9308SOL    HW139560   2.143   3.948  14.606  0.6987  0.6391  0.2785
 9308SOL    HW239561   2.012   4.018  14.619 -0.1979 -0.3186 -0.5934
 9309SOL     OW39562   1.577   1.101   5.204 -0.1991 -0.5990 -0.3053
 9309SOL    HW139563   1.661   1.135   5.233 -0.4346 -2.1566  2.2185
 9309SOL    HW239564   1.591   1.097   5.109 -0.8157 -1.0317 -0.3841
 9310SOL     OW39565   0.228   2.250  10.037 -0.3668  0.1568 -0.1165
 9310SOL    HW139566   0.314   2.284  10.013 -1.0279  0.5588 -1.9077
 9310SOL    HW239567   0.248   2.192  10.111 -1.4304 -1.2450 -0.9186
 9311SOL     OW39568   4.488   0.271   6.403 -0.2958  0.1968  0.1729
 9311SOL    HW139569   4.427   0.198   6.418 -0.3177 -0.3026 -2.3966
 9311SOL    HW239570   4.575   0.233   6.402 -1.3983 -2.4040  1.4904
 9312SOL     OW39571   0.038   0.044   4.299 -0.2723 -0.1662  0.2193
 9312SOL    HW139572   4.710   0.073   4.366  0.1839 -0.4500  0.7684
 9312SOL    HW239573   0.019   4.684   4.307 -0.4409 -0.1997 -0.6319
 9313SOL     OW39574   2.391   2.666   2.474 -0.1368  0.0344 -0.4933
 9313SOL    HW139575   2.323   2.733   2.477  0.4324  0.5314  1.9780
 9313SOL    HW239576   2.434   2.679   2.559 -0.4439 -1.1180 -0.1588
 9314SOL     OW39577   2.236   0.482   6.520 -0.4794 -0.1990  0.6544
 9314SOL    HW139578   2.275   0.539   6.585 -1.5890  0.9941  0.2810
 9314SOL    HW239579   2.161   0.533   6.489 -1.8162 -1.8461  1.1620
 9315SOL     OW39580   4.693   3.955  17.636  0.1664  0.4215  0.0866
 9315SOL    HW139581   4.714   3.943  17.729  1.7382  0.9609 -0.2081
 9315SOL    HW239582   4.652   4.042  17.633 -0.9436 -0.1346 -1.0609
 9316SOL     OW39583   1.009   0.901   5.111 -0.2636 -0.0600  0.0831
 9316SOL    HW139584   1.082   0.915   5.050 -0.9767 -0.4163 -0.8479
 9316SOL    HW239585   1.051   0.929   5.192  1.0829 -0.3764 -0.5015
 9317SOL     OW39586   2.886   1.711   4.805 -0.2828 -0.1015  0.2534
 9317SOL    HW139587   2.806   1.660   4.809 -0.0480 -0.5682 -1.2644
 9317SOL    HW239588   2.880   1.759   4.888 -4.2250  0.1168 -0.1763
 9318SOL     OW39589   0.003   0.552   4.157 -0.0685 -0.3348 -0.2108
 9318SOL    HW139590   0.056   0.494   4.102  1.9145 -0.2571  1.6312
 9318SOL    HW239591   4.678   0.495   4.208  0.6857 -1.3282 -0.4429
 9319SOL     OW39592   2.391   0.118   2.160  0.1842 -0.1200 -0.2427
 9319SOL    HW139593   2.321   0.131   2.096  1.5587 -0.8519 -1.8636
 9319SOL    HW239594   2.467   0.158   2.119 -0.0821 -0.0391 -0.6531
 9320SOL     OW39595   3.629   1.849  10.079 -0.0816 -0.1633  0.0949
 9320SOL    HW139596   3.608   1.913  10.011 -2.0259 -0.7569  0.1442
 9320SOL    HW239597   3.725   1.849  10.078 -0.0814  1.7032 -0.4390
 9321SOL     OW39598   0.993   2.419   7.747  0.1795 -0.1102  0.1733
 9321SOL    HW139599   0.994   2.424   7.651  0.5304 -0.3685  0.1613
 9321SOL    HW239600   0.917   2.466   7.781  0.5164 -0.2453  1.1049
 9322SOL     OW39601   0.597   1.885   2.058  0.2432  0.0625 -0.7626
 9322SOL    HW139602   0.518   1.853   2.015 -1.3163  1.3269  1.1109
 9322SOL    HW239603   0.576   1.962   2.112 -1.0547 -1.1309  0.4176
 9323SOL     OW39604   0.467   4.121   3.978 -0.2149  0.0195 -0.0932
 9323SOL    HW139605   0.545   4.157   3.936  0.2318  0.2891  0.9679
 9323SOL    HW239606   0.471   4.162   4.065  2.1623 -0.9499  0.2710
 9324SOL     OW39607   2.496   3.146   5.293 -0.6848  0.1865  0.1359
 9324SOL    HW139608   2.511   3.062   5.250  1.8642  0.9906 -0.5697
 9324SOL    HW239609   2.556   3.126   5.365  0.3558 -0.0662 -0.8001
 9325SOL     OW39610   4.184   0.925   7.886 -0.3202  0.4127  0.3588
 9325SOL    HW139611   4.095   0.908   7.856  0.1177  0.8990 -1.1757
 9325SOL    HW239612   4.213   0.993   7.825 -2.3695  1.4119  0.5309
 9326SOL     OW39613   3.233   1.780   3.092  0.1718 -0.1470  0.7129
 9326SOL    HW139614   3.183   1.839   3.036  2.8085  3.5858  2.3545
 9326SOL    HW239615   3.310   1.831   3.116  1.2273 -0.8175 -1.2938
 9327SOL     OW39616   1.450   0.124   8.142  0.0846  0.1683 -0.5847
 9327SOL    HW139617   1.508   0.106   8.068  0.0590 -1.2214 -0.2641
 9327SOL    HW239618   1.521   0.123   8.207 -1.0449  3.1257  0.7134
 9328SOL     OW39619   3.348   3.597   4.474  0.2093  0.7133  0.5076
 9328SOL    HW139620   3.269   3.560   4.514 -0.2032 -0.4336 -1.3371
 9328SOL    HW239621   3.308   3.678   4.443  0.8514  0.3239 -1.3476
 9329SOL     OW39622   4.381   3.644  12.928  0.6911  0.3147 -0.0935
 9329SOL    HW139623   4.436   3.607  12.998 -1.1990 -1.0783  0.6477
 9329SOL    HW239624   4.301   3.630  12.979  0.5934 -0.5562 -0.4966
 9330SOL     OW39625   2.620   0.426   5.407  0.3789  0.4112  0.1988
 9330SOL    HW139626   2.657   0.427   5.319  0.7246  3.1540  0.3694
 9330SOL    HW239627   2.688   0.385   5.461  1.8052  2.1276 -0.2925
 9331SOL     OW39628   3.185   4.600  16.560 -0.2142  0.1146 -0.1270
 9331SOL    HW139629   3.184   4.513  16.520  0.7539  0.3092 -0.5611
 9331SOL    HW239630   3.276   4.624  16.541 -0.4534  0.3255 -0.9731
 9332SOL     OW39631   4.223   2.207  11.507 -0.3567 -0.5204  0.3730
 9332SOL    HW139632   4.268   2.291  11.512  1.7445 -1.6322 -0.1818
 9332SOL    HW239633   4.168   2.217  11.429  2.1763  0.4187 -1.2908
 9333SOL     OW39634   3.127   0.110  11.320 -0.0797  0.3285  0.0120
 9333SOL    HW139635   3.065   0.163  11.270 -0.9914 -1.0236 -0.2962
 9333SOL    HW239636   3.158   0.058  11.245 -0.8380 -0.0422 -0.0437
 9334SOL     OW39637   2.832   1.095   3.244 -0.1049 -0.0680 -0.0854
 9334SOL    HW139638   2.838   1.046   3.326  1.6264  1.8582  0.9391
 9334SOL    HW239639   2.879   1.176   3.266 -0.3970 -0.1694  0.9189
 9335SOL     OW39640   1.581   1.946   6.558  0.2498  0.4758 -0.0245
 9335SOL    HW139641   1.650   1.897   6.513 -0.6851 -0.3250 -0.5718
 9335SOL    HW239642   1.616   2.035   6.566  1.8136  0.0289 -1.8647
 9336SOL     OW39643   3.242   0.026   7.034 -0.1541 -0.1044 -0.2823
 9336SOL    HW139644   3.311   0.020   6.968  1.2044  0.3574  1.0659
 9336SOL    HW239645   3.242   4.680   7.086 -1.2530  1.9493  2.8777
 9337SOL     OW39646   2.432   1.175   7.023 -0.3300 -0.4524  0.8205
 9337SOL    HW139647   2.515   1.175   6.975  1.1301 -0.7879  3.3436
 9337SOL    HW239648   2.392   1.252   6.983  2.8759 -0.1240 -1.7675
 9338SOL     OW39649   4.721   2.443  11.792 -0.1413 -0.0833 -0.2205
 9338SOL    HW139650   4.702   2.367  11.846  0.3882 -0.1870 -0.1785
 9338SOL    HW239651   4.649   2.502  11.814 -0.4483 -1.1869  1.6940
 9339SOL     OW39652   3.178   3.325   1.760 -0.6578  0.5387 -0.3040
 9339SOL    HW139653   3.238   3.253   1.779 -1.3647 -0.5791 -2.2965
 9339SOL    HW239654   3.207   3.399   1.814  3.2344 -1.3539  0.1343
 9340SOL     OW39655   1.241   2.194   8.047  0.1165  0.3006 -0.1320
 9340SOL    HW139656   1.173   2.256   8.070  1.3929  1.2121  1.1302
 9340SOL    HW239657   1.304   2.249   8.001  0.8269 -2.2667 -2.2907
 9341SOL     OW39658   2.180   3.603   5.575 -0.2153  0.3934 -0.0815
 9341SOL    HW139659   2.226   3.535   5.527 -1.5266  0.3896 -1.3383
 9341SOL    HW239660   2.086   3.589   5.559  0.4280 -4.7292  0.5988
 9342SOL     OW39661   0.139   2.523   5.558  0.0612 -0.2316  0.0170
 9342SOL    HW139662   0.136   2.618   5.563  0.5546 -0.1611 -1.0988
 9342SOL    HW239663   0.212   2.501   5.616  0.5019  0.4785 -0.2686
 9343SOL     OW39664   2.814   3.707  17.679 -1.0429  0.1089 -0.0368
 9343SOL    HW139665   2.811   3.803  17.682 -0.7868  0.0679  1.5651
 9343SOL    HW239666   2.904   3.682  17.700 -1.0224  0.2389  0.0319
 9344SOL     OW39667   0.505   4.209   6.634 -0.4526  0.0267  0.5067
 9344SOL    HW139668   0.564   4.263   6.582  0.5927  0.0379  1.6815
 9344SOL    HW239669   0.476   4.274   6.698  1.1482  1.4618 -0.1985
 9345SOL     OW39670   1.321   3.685   4.145  0.1052  0.6454  0.6230
 9345SOL    HW139671   1.225   3.686   4.152  0.1252  1.4433  0.8115
 9345SOL    HW239672   1.337   3.594   4.121  0.6858  1.4516 -2.0815
 9346SOL     OW39673   0.675   1.420   2.707  0.0482  0.3262  0.1961
 9346SOL    HW139674   0.664   1.503   2.752  1.5576 -0.1537  1.4638
 9346SOL    HW239675   0.737   1.373   2.763 -0.8605  1.7843  2.4280
 9347SOL     OW39676   1.839   2.233  11.298 -0.4173 -0.2904  0.1843
 9347SOL    HW139677   1.915   2.215  11.353  0.3846  0.8979 -0.5331
 9347SOL    HW239678   1.865   2.293  11.228  0.5643  2.4194  2.8944
 9348SOL     OW39679   2.117   4.526   0.519 -0.0500 -0.2541  0.0651
 9348SOL    HW139680   2.182   4.593   0.501 -0.8703  1.1144  2.2412
 9348SOL    HW239681   2.048   4.577   0.562  0.0547  0.3386 -0.4784
 9349SOL     OW39682   2.922   2.617   1.258  0.5478 -0.1478  0.2361
 9349SOL    HW139683   2.966   2.699   1.236  2.1518 -0.8049  1.0228
 9349SOL    HW239684   2.958   2.553   1.197  0.3564  0.0167 -0.0510
 9350SOL     OW39685   4.665   1.489   8.537  0.3784 -0.1975 -0.2340
 9350SOL    HW139686   4.646   1.473   8.629 -2.1599  0.6780 -0.6126
 9350SOL    HW239687   4.584   1.488   8.487  0.4850  0.3500 -0.4204
 9351SOL     OW39688   2.461   0.361   1.728 -0.2332  0.0847 -0.1092
 9351SOL    HW139689   2.456   0.410   1.646  1.3514  0.3730 -0.0422
 9351SOL    HW239690   2.434   0.430   1.787  0.0984 -0.1849  0.3626
 9352SOL     OW39691   0.389   1.839   4.042  0.2044 -0.0358 -0.1478
 9352SOL    HW139692   0.337   1.780   4.096  1.4804 -0.4619  0.6166
 9352SOL    HW239693   0.462   1.839   4.104 -1.0096  2.0454  1.2726
 9353SOL     OW39694   1.435   2.320   6.264 -0.4836  0.5346 -0.7213
 9353SOL    HW139695   1.498   2.388   6.242 -0.1612  0.9852  1.6360
 9353SOL    HW239696   1.370   2.364   6.317  1.3573  0.4145  1.6512
 9354SOL     OW39697   0.525   0.823  12.824 -0.6993 -0.0548  0.0716
 9354SOL    HW139698   0.462   0.890  12.849 -1.4715 -0.5521 -0.5444
 9354SOL    HW239699   0.543   0.789  12.911  1.7368  0.1011 -0.3632
 9355SOL     OW39700   3.926   0.566  11.107 -0.3769  0.1219  0.2636
 9355SOL    HW139701   3.915   0.497  11.172  0.4470 -0.0892  0.1781
 9355SOL    HW239702   3.909   0.514  11.028 -0.7455 -0.7859  0.9384
 9356SOL     OW39703   4.326   3.175   3.766  0.0794 -0.5376 -0.1081
 9356SOL    HW139704   4.283   3.261   3.769  2.8887  0.9083 -0.6215
 9356SOL    HW239705   4.260   3.110   3.789 -0.2426  0.1447  0.9192
 9357SOL     OW39706   2.344   2.665   2.121  0.2219  0.2358 -0.3322
 9357SOL    HW139707   2.260   2.647   2.079 -0.1520 -1.8102  1.2668
 9357SOL    HW239708   2.336   2.753   2.156  0.1868  0.1037 -0.0081
 9358SOL     OW39709   1.571   4.171  12.738  0.2939  0.4183  0.0194
 9358SOL    HW139710   1.615   4.253  12.715 -1.2298  1.0113 -0.7889
 9358SOL    HW239711   1.592   4.109  12.668  0.6863  0.9019 -0.2967
 9359SOL     OW39712   0.195   2.965   3.307 -0.6332 -0.4435  0.0162
 9359SOL    HW139713   0.112   2.940   3.268 -1.0894  0.6377  0.2919
 9359SOL    HW239714   0.199   3.061   3.310 -0.2713 -0.4771  0.8641
 9360SOL     OW39715   2.356   1.678   8.892  0.5354  0.0719 -0.3008
 9360SOL    HW139716   2.305   1.603   8.862  1.8758 -1.0232  0.1728
 9360SOL    HW239717   2.339   1.733   8.815  0.6172  0.2205 -0.2126
 9361SOL     OW39718   0.979   2.110   2.744  0.6555 -0.4168 -0.0875
 9361SOL    HW139719   1.039   2.137   2.675 -2.3462  1.3498 -1.9930
 9361SOL    HW239720   1.001   2.168   2.817 -0.9326 -0.3582  0.3462
 9362SOL     OW39721   3.330   0.563  10.506  0.7369  0.1181 -0.3622
 9362SOL    HW139722   3.404   0.510  10.533  0.8784  1.7763  2.5837
 9362SOL    HW239723   3.369   0.651  10.507  0.0234  0.4430 -0.6982
 9363SOL     OW39724   4.163   1.380   4.041 -0.2312 -0.2252  0.3508
 9363SOL    HW139725   4.148   1.427   4.124 -2.6743  0.5655 -0.5187
 9363SOL    HW239726   4.074   1.359   4.012  0.6781 -1.1357 -1.7604
 9364SOL     OW39727   2.335   2.019   4.165  0.1957 -0.0167 -0.1434
 9364SOL    HW139728   2.405   1.957   4.143  1.0607  0.8740  0.0633
 9364SOL    HW239729   2.367   2.063   4.244 -1.8564  0.5395  0.3595
 9365SOL     OW39730   2.131   4.498   5.260 -0.3269 -0.0280 -0.1043
 9365SOL    HW139731   2.172   4.582   5.281  0.3362 -0.5477  0.6937
 9365SOL    HW239732   2.041   4.524   5.282 -0.9103 -0.5791 -1.8503
 9366SOL     OW39733   3.860   0.007  13.197 -0.1079  0.5690  0.1506
 9366SOL    HW139734   3.799   0.045  13.133  0.6832 -0.4274 -1.2180
 9366SOL    HW239735   3.833   4.649  13.203  0.0816  0.4407 -0.9065
 9367SOL     OW39736   1.276   2.929   0.347  0.0051  0.5171  0.1709
 9367SOL    HW139737   1.346   2.909   0.410  1.4462 -0.1520 -1.6393
 9367SOL    HW239738   1.246   3.013   0.383 -3.4040  0.4974 -2.7266
 9368SOL     OW39739   4.723   3.986   8.379  0.1627 -0.4358  0.1005
 9368SOL    HW139740   0.047   4.053   8.414  0.5545 -0.8065  0.1557
 9368SOL    HW239741   4.693   3.948   8.461  2.8835  1.3515  1.9093
 9369SOL     OW39742   0.559   2.731  11.093 -0.4540  0.1939  0.0927
 9369SOL    HW139743   0.521   2.661  11.040  2.5051 -0.4681 -1.1691
 9369SOL    HW239744   0.487   2.794  11.099 -0.1056  0.4509  1.5204
 9370SOL     OW39745   0.449   2.580   6.933 -0.4785 -0.1550 -0.9007
 9370SOL    HW139746   0.495   2.524   6.871  2.4785  0.4925  0.7217
 9370SOL    HW239747   0.404   2.507   6.977  0.0047  0.3205  0.3750
 9371SOL     OW39748   1.919   1.724   0.667  0.1511 -0.2019 -0.2856
 9371SOL    HW139749   1.911   1.819   0.670  0.3929 -0.2023  0.4185
 9371SOL    HW239750   1.983   1.733   0.597 -0.4871 -2.3703 -1.1575
 9372SOL     OW39751   3.613   1.292   6.597 -0.5149 -0.1041  0.2736
 9372SOL    HW139752   3.518   1.296   6.583 -0.4262 -1.1269 -0.6834
 9372SOL    HW239753   3.622   1.382   6.625  0.7008  0.9936 -3.6011
 9373SOL     OW39754   4.114   1.539   2.040  0.3997  0.4354 -0.1233
 9373SOL    HW139755   4.176   1.599   1.999 -0.8015  2.4238  0.9510
 9373SOL    HW239756   4.140   1.537   2.132 -1.4198  1.1488  0.3982
 9374SOL     OW39757   4.606   1.394   5.076 -0.1587  0.6375  0.2821
 9374SOL    HW139758   4.554   1.368   5.151 -0.9381  1.9473  0.1985
 9374SOL    HW239759   4.556   1.473   5.057 -0.8256 -0.0768 -0.9455
 9375SOL     OW39760   3.354   4.613   8.181 -0.3398  0.6725  0.0185
 9375SOL    HW139761   3.414   4.540   8.168  1.1952  1.8930  0.1992
 9375SOL    HW239762   3.407   4.652   8.251 -0.1875 -1.6810  1.2075
 9376SOL     OW39763   0.650   0.070   1.633 -0.3863  0.6977 -0.5866
 9376SOL    HW139764   0.597   0.076   1.712  0.9087 -1.1308  0.4136
 9376SOL    HW239765   0.679   4.713   1.642  1.2900  1.2371 -0.6964
 9377SOL     OW39766   3.663   3.493   2.639 -0.2328  0.0376 -0.2202
 9377SOL    HW139767   3.724   3.423   2.617  1.4862  0.3779  3.3701
 9377SOL    HW239768   3.579   3.446   2.635  0.9702 -2.1804  0.7738
 9378SOL     OW39769   0.635   1.144  12.984 -0.1122  0.6638 -0.2207
 9378SOL    HW139770   0.692   1.222  12.989  3.1533 -1.7339 -0.0083
 9378SOL    HW239771   0.675   1.091  12.915  0.7779  1.0476 -0.0001
 9379SOL     OW39772   3.339   1.369   5.168  0.2779 -0.4159  0.1081
 9379SOL    HW139773   3.309   1.280   5.188  2.7586 -1.0451  1.0434
 9379SOL    HW239774   3.394   1.381   5.245 -2.2182 -1.2744  2.0185
 9380SOL     OW39775   3.029   3.179  14.186  0.3174 -0.0117 -0.8010
 9380SOL    HW139776   2.982   3.249  14.141 -1.6974 -1.1659 -0.4864
 9380SOL    HW239777   3.103   3.225  14.225 -0.4181  1.9300 -1.6741
 9381SOL     OW39778   4.190   3.264   6.156  0.5283 -0.0088 -0.0475
 9381SOL    HW139779   4.197   3.177   6.195  0.5462 -1.1580 -2.6341
 9381SOL    HW239780   4.267   3.269   6.100 -1.2846 -0.0615 -2.5030
 9382SOL     OW39781   0.804   4.555   0.036  0.3020  0.2931 -0.0445
 9382SOL    HW139782   0.826   4.468   0.070  2.2459  0.5564 -0.6092
 9382SOL    HW239783   0.863   4.570  17.697 -1.1449  1.4224 -0.9584
 9383SOL     OW39784   0.761   0.266   7.018  0.4556  0.3030  0.4652
 9383SOL    HW139785   0.737   0.271   6.926 -0.4934  1.7352  0.8011
 9383SOL    HW239786   0.769   0.359   7.037 -2.4590  0.5052  0.6287
 9384SOL     OW39787   2.697   4.034   0.728  0.4577  0.3947 -0.6618
 9384SOL    HW139788   2.621   4.071   0.683 -1.4568  0.2109  2.4281
 9384SOL    HW239789   2.764   4.094   0.695  0.8936 -0.6316 -1.6211
 9385SOL     OW39790   0.913   0.111  13.246  0.1135  0.0146 -0.1068
 9385SOL    HW139791   0.878   0.196  13.273  1.7852  0.5854  0.2691
 9385SOL    HW239792   0.894   0.055  13.321 -0.2690 -0.9602 -0.9324
 9386SOL     OW39793   2.625   0.346  16.476 -0.2361  0.6020  0.9490
 9386SOL    HW139794   2.556   0.281  16.490  1.4374 -1.5606 -0.9742
 9386SOL    HW239795   2.701   0.293  16.452 -1.5692 -0.6507 -0.4299
 9387SOL     OW39796   1.646   3.229   9.704 -0.0042 -0.2454  1.0802
 9387SOL    HW139797   1.677   3.149   9.745 -0.1709 -1.5441 -1.4005
 9387SOL    HW239798   1.610   3.279   9.778  0.7025  0.3740  1.0042
 9388SOL     OW39799   3.429   3.618   2.527 -0.0660  0.6435  0.0544
 9388SOL    HW139800   3.360   3.659   2.475  0.5353  1.6831  0.0738
 9388SOL    HW239801   3.410   3.650   2.615  1.6294  0.4772  0.4927
 9389SOL     OW39802   3.465   1.270   1.560  0.2215 -1.4615  0.2463
 9389SOL    HW139803   3.450   1.180   1.531  0.8198 -0.7846 -2.2047
 9389SOL    HW239804   3.521   1.261   1.637  1.5337 -1.8547 -0.7660
 9390SOL     OW39805   2.593   4.010   4.724 -0.4318 -0.1375  0.4646
 9390SOL    HW139806   2.685   3.993   4.704 -0.4343  1.0499 -0.5905
 9390SOL    HW239807   2.585   3.937   4.785  0.4329 -0.2664  0.4338
 9391SOL     OW39808   1.749   4.535   2.198 -0.0784 -0.2767  0.1368
 9391SOL    HW139809   1.745   4.506   2.107 -1.7835  0.8447 -0.1389
 9391SOL    HW239810   1.843   4.528   2.214  0.1695  0.2896 -1.1109
 9392SOL     OW39811   1.373   3.191   3.059  0.2386 -0.5272  0.2280
 9392SOL    HW139812   1.328   3.229   3.135 -0.9220 -1.6558  0.1144
 9392SOL    HW239813   1.458   3.165   3.094 -0.9354  0.0667  3.5403
 9393SOL     OW39814   0.938   2.404   2.523  0.8843 -0.0107  0.0815
 9393SOL    HW139815   0.845   2.415   2.543  1.7246  2.5691  2.6635
 9393SOL    HW239816   0.944   2.465   2.450  0.2778  0.1784  0.1877
 9394SOL     OW39817   2.973   3.345   5.265  0.1579  0.0837 -0.3106
 9394SOL    HW139818   2.952   3.363   5.173 -0.0107 -0.4620 -0.3792
 9394SOL    HW239819   3.055   3.297   5.261 -0.1978 -0.3403 -2.3771
 9395SOL     OW39820   2.847   3.680   7.151 -0.2437 -0.5928  0.0910
 9395SOL    HW139821   2.889   3.740   7.213 -0.1503 -0.2893 -0.2654
 9395SOL    HW239822   2.757   3.708   7.163 -0.4105 -0.6215 -1.1975
 9396SOL     OW39823   1.431   3.913   6.180  0.4798 -0.2183  0.1131
 9396SOL    HW139824   1.525   3.908   6.196  0.4364  0.5059  0.5648
 9396SOL    HW239825   1.402   3.835   6.228  0.7646  1.3684  2.8788
 9397SOL     OW39826   1.407   3.973  15.999 -0.2333  0.0699 -0.3620
 9397SOL    HW139827   1.361   3.889  16.008 -1.0888  0.5365 -0.4048
 9397SOL    HW239828   1.343   4.022  15.948  3.0959  1.3607 -3.2595
 9398SOL     OW39829   0.445   1.658  15.175  0.0849 -0.0850  0.2000
 9398SOL    HW139830   0.454   1.602  15.098 -2.0499 -0.2108  0.0531
 9398SOL    HW239831   0.483   1.601  15.242  0.5064  0.1992  0.2076
 9399SOL     OW39832   3.685   0.295   3.549 -0.0156  0.2199 -0.3001
 9399SOL    HW139833   3.609   0.331   3.503 -1.3136 -2.1726 -0.0173
 9399SOL    HW239834   3.750   0.365   3.537  1.6734 -1.2765  0.0324
 9400SOL     OW39835   3.986   0.803   5.700  0.1616  0.7291 -0.6570
 9400SOL    HW139836   4.041   0.740   5.654 -0.0320  0.0593  0.0301
 9400SOL    HW239837   4.001   0.776   5.790  3.9105  0.0650 -1.4905
 9401SOL     OW39838   0.393   3.073  12.389 -0.3338 -0.2846 -0.1686
 9401SOL    HW139839   0.460   3.073  12.457 -0.9434  1.1597  0.4264
 9401SOL    HW239840   0.412   2.985  12.357  0.7093 -0.6399  1.4151
 9402SOL     OW39841   4.190   2.005   6.300  0.3106 -0.6196  0.2436
 9402SOL    HW139842   4.278   2.011   6.338  0.2544  3.1575 -0.1835
 9402SOL    HW239843   4.203   2.028   6.208  0.0699 -1.3373  0.0323
 9403SOL     OW39844   0.335   1.237  13.375  0.4674 -0.3117 -0.2553
 9403SOL    HW139845   0.401   1.306  13.374  1.8093 -1.5870  0.1222
 9403SOL    HW239846   0.376   1.177  13.313  1.4498  0.2109 -0.1039
 9404SOL     OW39847   1.384   0.043   8.693  0.5884  0.4703  0.2978
 9404SOL    HW139848   1.288   0.045   8.700  0.3639  1.2255 -2.6938
 9404SOL    HW239849   1.386   4.710   8.624  2.6796 -0.7174  1.5355
 9405SOL     OW39850   0.124   3.136   2.671 -0.0296 -0.0119 -0.2254
 9405SOL    HW139851   0.101   3.206   2.610  0.6120  1.1070  0.7933
 9405SOL    HW239852   0.124   3.054   2.623 -1.0349  0.8968 -1.7691
 9406SOL     OW39853   4.089   0.917  13.391  0.0744  0.3374  0.3649
 9406SOL    HW139854   4.093   0.823  13.376  0.1297  0.4291 -0.1864
 9406SOL    HW239855   4.025   0.922  13.463  0.8734 -0.8685  1.1410
 9407SOL     OW39856   3.630   4.466   8.571 -0.0874  0.3948 -0.2440
 9407SOL    HW139857   3.705   4.411   8.591 -1.7681 -1.6952  0.2802
 9407SOL    HW239858   3.563   4.401   8.549 -0.0528  0.3015 -0.0659
 9408SOL     OW39859   0.140   2.312   6.625 -0.1028 -0.1145 -0.4897
 9408SOL    HW139860   0.046   2.304   6.608  0.0998 -3.1493 -0.3364
 9408SOL    HW239861   0.162   2.404   6.614  0.4799 -0.6577 -3.7168
 9409SOL     OW39862   1.331   1.149   3.819 -0.4896  0.1820 -0.0118
 9409SOL    HW139863   1.244   1.110   3.834 -0.5253 -0.7321 -2.6888
 9409SOL    HW239864   1.381   1.072   3.793 -1.1104  0.0717 -0.8729
 9410SOL     OW39865   0.602   3.881  14.509 -0.1241 -0.1872 -0.1592
 9410SOL    HW139866   0.696   3.865  14.519  0.1781  1.7545  0.2174
 9410SOL    HW239867   0.586   3.945  14.579 -1.0249  2.0212 -2.4055
 9411SOL     OW39868   4.422   4.621   1.596  0.7603  0.6400 -0.6004
 9411SOL    HW139869   4.417   4.528   1.620 -0.3981  1.0484  0.7255
 9411SOL    HW239870   4.441   4.613   1.502  1.3695  0.5045 -0.4675
 9412SOL     OW39871   3.784   4.345  11.858  0.2348 -0.0712  0.0163
 9412SOL    HW139872   3.849   4.275  11.861 -0.9311 -1.2046 -1.5590
 9412SOL    HW239873   3.787   4.374  11.950  1.9496  0.5119 -0.2391
 9413SOL     OW39874   2.082   2.370   6.535 -0.0896  0.0401  0.4047
 9413SOL    HW139875   2.010   2.327   6.582  0.0442  1.1140  1.5938
 9413SOL    HW239876   2.039   2.454   6.550 -0.4913  0.5177 -3.5047
 9414SOL     OW39877   4.681   4.445   8.264  0.4408 -0.7830 -0.1063
 9414SOL    HW139878   4.657   4.436   8.357 -0.0344  3.1714  0.1401
 9414SOL    HW239879   4.606   4.471   8.212 -0.0511 -1.1317  0.4289
 9415SOL     OW39880   2.793   3.825   3.207 -0.0239 -0.4467 -0.0827
 9415SOL    HW139881   2.869   3.797   3.258 -1.1285 -0.1457  1.7386
 9415SOL    HW239882   2.771   3.734   3.187  0.2569  0.0101 -2.4160
 9416SOL     OW39883   3.297   4.296   7.490  0.5107  0.4477 -0.0806
 9416SOL    HW139884   3.217   4.347   7.485 -0.4260 -1.1282 -1.0650
 9416SOL    HW239885   3.270   4.208   7.518 -2.2798  1.6037  0.8292
 9417SOL     OW39886   4.307   3.775   5.520  0.2534 -0.2400 -0.1179
 9417SOL    HW139887   4.297   3.756   5.427  1.3892  0.4677 -0.3947
 9417SOL    HW239888   4.222   3.754   5.558  0.5997  0.7757  1.2565
 9418SOL     OW39889   0.406   0.289   6.973  0.4571  0.5890  0.4473
 9418SOL    HW139890   0.402   0.315   6.881 -1.0307 -1.7007 -0.1290
 9418SOL    HW239891   0.315   0.309   6.993 -0.4074 -0.4797 -2.3427
 9419SOL     OW39892   0.897   3.555   4.510  0.1426  0.4786 -0.0764
 9419SOL    HW139893   0.864   3.488   4.450  0.3010  1.3635 -1.1605
 9419SOL    HW239894   0.930   3.508   4.587  2.3379 -0.6577 -1.7087
 9420SOL     OW39895   0.444   0.923  15.340 -0.3835  0.3477  0.0852
 9420SOL    HW139896   0.530   0.945  15.304 -0.0354 -2.2460 -0.6693
 9420SOL    HW239897   0.396   0.945  15.260 -0.4875 -0.6851 -0.1406
 9421SOL     OW39898   4.151   3.945   7.687  0.2047 -0.5528  0.0632
 9421SOL    HW139899   4.130   3.873   7.626  0.4778 -0.0078 -0.6693
 9421SOL    HW239900   4.193   3.895   7.757  0.4239 -1.2405 -0.5499
 9422SOL     OW39901   2.244   0.641   4.836 -0.1832  0.1640 -0.2259
 9422SOL    HW139902   2.177   0.572   4.832  0.8313 -0.9455  1.7314
 9422SOL    HW239903   2.290   0.638   4.752 -0.9381  0.7323 -0.6530
 9423SOL     OW39904   3.587   3.262   1.634  0.1082  0.9193 -0.6949
 9423SOL    HW139905   3.533   3.272   1.713  0.5141 -0.6696 -0.2212
 9423SOL    HW239906   3.658   3.206   1.664 -0.9111 -0.2403 -0.4085
 9424SOL     OW39907   0.206   3.138   1.959 -0.2468  0.5784 -0.3849
 9424SOL    HW139908   0.142   3.118   1.890  0.9301  3.2970 -2.2695
 9424SOL    HW239909   0.229   3.048   1.982  0.8339  0.8409 -0.4485
 9425SOL     OW39910   2.534   1.640   1.207  0.1265 -0.9539  0.8360
 9425SOL    HW139911   2.453   1.590   1.206  0.3940 -1.3782  0.1518
 9425SOL    HW239912   2.501   1.725   1.179 -0.3227 -1.0564  1.0530
 9426SOL     OW39913   1.366   0.052   6.282  0.5002 -0.2820  1.5974
 9426SOL    HW139914   1.435   0.015   6.227 -1.8280  1.4177 -2.4792
 9426SOL    HW239915   1.287   0.055   6.229  1.0050 -0.8355  0.8182
 9427SOL     OW39916   0.563   1.525   6.605 -0.5492  0.2601 -0.1402
 9427SOL    HW139917   0.541   1.612   6.639 -1.1810 -0.1288  0.4366
 9427SOL    HW239918   0.525   1.469   6.672 -1.3307 -0.5207 -1.2399
 9428SOL     OW39919   3.301   0.644   8.103  0.9756 -0.0610  0.1059
 9428SOL    HW139920   3.245   0.637   8.026  1.7394  1.4030 -0.5907
 9428SOL    HW239921   3.250   0.602   8.172 -1.4597 -0.3587 -1.8653
 9429SOL     OW39922   3.055   3.942   5.931 -0.3563  1.0688 -0.3260
 9429SOL    HW139923   3.134   3.981   5.968 -0.1905  1.5331 -1.1712
 9429SOL    HW239924   3.103   3.890   5.867  1.4517  3.0283 -0.5778
 9430SOL     OW39925   3.927   0.848   6.495 -0.6050  0.2416  0.2030
 9430SOL    HW139926   3.942   0.858   6.589  1.5517 -2.8933  0.2071
 9430SOL    HW239927   3.914   0.753   6.496 -2.1058  0.4458 -1.5216
 9431SOL     OW39928   4.695   1.693   5.301  0.4186  0.2019 -0.4216
 9431SOL    HW139929   0.025   1.640   5.254 -0.3561  1.4003 -2.8507
 9431SOL    HW239930   4.710   1.771   5.248  1.3471  0.0222 -0.4167
 9432SOL     OW39931   3.041   0.205   2.069 -0.2404 -0.6542  0.7543
 9432SOL    HW139932   2.996   0.184   1.988  0.3807  1.5720 -0.1658
 9432SOL    HW239933   3.131   0.215   2.037 -1.5399  1.0216 -2.3184
 9433SOL     OW39934   3.567   0.122  14.704  0.5980 -0.3848  0.3158
 9433SOL    HW139935   3.539   0.099  14.615  3.4855  1.4933 -1.0862
 9433SOL    HW239936   3.530   0.047  14.751  0.5021 -1.2301 -1.0945
 9434SOL     OW39937   0.217   0.549   7.616 -0.2700 -0.1184 -0.2338
 9434SOL    HW139938   0.146   0.485   7.607 -1.0760  0.7511  0.0420
 9434SOL    HW239939   0.291   0.489   7.630 -1.2179 -1.0682  0.7126
 9435SOL     OW39940   4.078   2.573   6.741  0.6768 -0.2001 -0.5608
 9435SOL    HW139941   4.097   2.604   6.829 -2.1766  0.2236 -0.0800
 9435SOL    HW239942   4.007   2.510   6.750 -0.4041  1.0539 -0.3122
 9436SOL     OW39943   2.133   1.498   6.331 -0.4118  0.1278  0.9479
 9436SOL    HW139944   2.210   1.554   6.343 -1.4744  1.4499  1.4592
 9436SOL    HW239945   2.076   1.559   6.285 -0.4020  1.1662  2.3261
 9437SOL     OW39946   4.247   0.404   5.943 -0.2882 -0.1850  0.4762
 9437SOL    HW139947   4.235   0.334   6.006 -0.8609 -0.6995 -0.1971
 9437SOL    HW239948   4.287   0.469   6.001 -3.3395  1.5411  0.6501
 9438SOL     OW39949   1.060   3.733   8.869 -0.3402 -0.0004 -0.3013
 9438SOL    HW139950   1.074   3.795   8.940  0.4046 -0.5883  0.0540
 9438SOL    HW239951   1.034   3.792   8.797 -0.9814  0.4093  0.2667
 9439SOL     OW39952   0.210   2.267   1.686 -0.1011 -0.1191  0.1282
 9439SOL    HW139953   0.197   2.351   1.643  1.3297 -0.0160 -0.1053
 9439SOL    HW239954   0.186   2.200   1.622 -1.0104  0.1482  0.1910
 9440SOL     OW39955   0.874   2.462   6.170  0.0670  0.1570  0.3548
 9440SOL    HW139956   0.810   2.397   6.144 -0.6530  0.7221  0.6977
 9440SOL    HW239957   0.894   2.497   6.083  0.0040  0.1745  0.3477
 9441SOL     OW39958   2.731   4.294  10.841 -0.2304 -0.5440 -0.1926
 9441SOL    HW139959   2.781   4.212  10.838 -0.7570 -0.9171  1.2018
 9441SOL    HW239960   2.663   4.271  10.904 -0.4575 -1.0325 -0.6156
 9442SOL     OW39961   2.108   3.183   7.509 -0.1121  0.1068  0.3427
 9442SOL    HW139962   2.202   3.195   7.520  0.0940 -1.6060  0.3163
 9442SOL    HW239963   2.104   3.117   7.441  0.8882  0.9963 -0.5836
 9443SOL     OW39964   0.578   0.267   4.243  0.0285  0.0854  0.8064
 9443SOL    HW139965   0.654   0.214   4.221 -0.1292  0.5060 -0.7657
 9443SOL    HW239966   0.615   0.303   4.323 -0.6127  0.0348  1.1213
 9444SOL     OW39967   2.905   4.609   0.592  0.0256 -0.1569  0.0619
 9444SOL    HW139968   2.901   4.703   0.611 -0.0228 -0.0720 -0.3735
 9444SOL    HW239969   2.997   4.597   0.612  0.2947 -1.1666 -1.8028
 9445SOL     OW39970   3.202   0.156   2.272 -0.4546 -0.6937 -0.1339
 9445SOL    HW139971   3.226   0.070   2.239 -0.6074 -0.6083 -0.4663
 9445SOL    HW239972   3.139   0.178   2.204  1.6429 -0.3261 -1.9417
 9446SOL     OW39973   2.035   3.345  14.497 -0.5983 -0.2999  0.4580
 9446SOL    HW139974   2.048   3.287  14.422  3.3187  1.0348  0.0754
 9446SOL    HW239975   1.969   3.301  14.550  0.1819 -1.2596  0.6367
 9447SOL     OW39976   2.354   2.500   8.261 -0.1176 -0.0634 -0.2469
 9447SOL    HW139977   2.431   2.459   8.221  0.6512  1.7389 -0.6351
 9447SOL    HW239978   2.362   2.584   8.216  1.0644 -0.0088  0.0559
 9448SOL     OW39979   2.958   4.032   3.853 -0.2214  0.0433  0.3422
 9448SOL    HW139980   2.894   4.102   3.843 -0.9012 -0.4193  1.3951
 9448SOL    HW239981   2.964   4.019   3.948  0.2651  0.3725  0.3575
 9449SOL     OW39982   0.428   3.950   9.219  0.2411 -0.8782  0.5751
 9449SOL    HW139983   0.336   3.959   9.243  0.0065  3.3504 -1.8428
 9449SOL    HW239984   0.429   3.985   9.130  1.4726 -1.2085  0.4597
 9450SOL     OW39985   0.145   2.011   3.230 -0.8468 -0.5238 -0.0271
 9450SOL    HW139986   0.167   1.954   3.304  1.9251 -0.1812 -0.6173
 9450SOL    HW239987   0.215   2.075   3.226 -1.4732  0.0624 -1.2529
 9451SOL     OW39988   0.762   1.302  13.433 -0.0910 -0.3711 -0.5759
 9451SOL    HW139989   0.846   1.346  13.445  0.3943 -0.8284 -2.2211
 9451SOL    HW239990   0.764   1.296  13.337  0.7030  1.0738 -0.6528
 9452SOL     OW39991   2.026   0.121   2.842 -0.8454  0.2398  0.3463
 9452SOL    HW139992   2.001   0.161   2.759 -2.9963 -1.4554  0.1690
 9452SOL    HW239993   2.122   0.129   2.840 -0.9388  1.3636  0.9770
 9453SOL     OW39994   0.511   2.632  11.540  0.4260 -0.4861 -0.5532
 9453SOL    HW139995   0.430   2.584  11.557  0.6167 -0.2184  1.1262
 9453SOL    HW239996   0.532   2.670  11.626  2.3152 -0.6161 -0.9671
 9454SOL     OW39997   2.521   3.057   6.974  0.6353  0.3946  0.0207
 9454SOL    HW139998   2.516   2.980   7.031  1.0819  1.8847  2.0697
 9454SOL    HW239999   2.426   3.073   6.974  0.4173 -0.8838  1.9798
 9455SOL     OW40000   1.628   4.485   1.962 -0.6782 -0.6574 -0.2161
 9455SOL    HW140001   1.573   4.432   1.905 -2.4553  1.0717 -0.1153
 9455SOL    HW240002   1.677   4.533   1.895  2.1171 -1.5267  1.2269
 9456SOL     OW40003   0.984   2.914   5.854  0.5262 -0.1412  0.0092
 9456SOL    HW140004   1.057   2.946   5.801  0.1373  0.3568 -0.2248
 9456SOL    HW240005   1.000   2.956   5.938 -0.1881 -0.1745  0.1629
 9457SOL     OW40006   4.180   3.891  17.225  0.5435 -0.0168  0.5789
 9457SOL    HW140007   4.216   3.850  17.303 -0.6867 -0.0288  1.1393
 9457SOL    HW240008   4.180   3.822  17.158  1.1979  0.7512 -0.1961
 9458SOL     OW40009   4.270   3.900  14.148 -0.2225 -0.2863 -0.2997
 9458SOL    HW140010   4.240   3.991  14.152  0.3219 -0.0982 -0.5694
 9458SOL    HW240011   4.310   3.903  14.061 -3.8316 -1.4330 -1.9914
 9459SOL     OW40012   3.360   4.258   1.358 -0.3627  0.0908 -0.9194
 9459SOL    HW140013   3.337   4.308   1.437  3.1234  0.7156 -0.3043
 9459SOL    HW240014   3.414   4.325   1.317 -0.0434  0.2125 -0.3063
 9460SOL     OW40015   1.835   2.890   8.883 -0.1783 -0.0205  0.1201
 9460SOL    HW140016   1.905   2.873   8.819  0.2294  1.8560  0.0684
 9460SOL    HW240017   1.798   2.967   8.839  0.9856 -0.2788 -1.3052
 9461SOL     OW40018   1.126   2.244   8.832  0.2366  0.4366  0.1480
 9461SOL    HW140019   1.126   2.304   8.906 -1.1169  1.0829 -0.3864
 9461SOL    HW240020   1.161   2.161   8.864  3.1150  1.3703 -0.5365
 9462SOL     OW40021   3.250   1.090   1.039  0.3791 -0.3590 -0.0539
 9462SOL    HW140022   3.190   1.135   1.098 -0.3579  0.4447 -1.4175
 9462SOL    HW240023   3.205   1.007   1.027 -2.5068  0.9203  1.9402
 9463SOL     OW40024   4.676   2.859   4.182 -0.2798  0.5631  0.2983
 9463SOL    HW140025   4.641   2.775   4.211  0.7990 -0.5471 -1.6237
 9463SOL    HW240026   4.658   2.916   4.257  0.7481 -0.1609  1.0953
 9464SOL     OW40027   1.425   1.384   5.154  0.1486  0.7136  0.0027
 9464SOL    HW140028   1.451   1.349   5.069 -0.0064 -1.7018  0.9697
 9464SOL    HW240029   1.370   1.309   5.177 -0.0844  1.5128  1.9955
 9465SOL     OW40030   2.470   4.008   4.430  0.0355  0.1787  0.4215
 9465SOL    HW140031   2.393   4.064   4.423 -0.2510 -0.3019 -0.2487
 9465SOL    HW240032   2.508   4.026   4.516  0.5757  0.8852  0.0336
 9466SOL     OW40033   1.257   4.604   6.812  0.4004  0.1915 -0.5414
 9466SOL    HW140034   1.208   4.640   6.885  0.7541  1.3928 -0.8933
 9466SOL    HW240035   1.227   4.662   6.741  2.1580  1.0974 -0.5363
 9467SOL     OW40036   4.085   0.303   3.606 -0.4104 -0.6090  0.1436
 9467SOL    HW140037   4.071   0.270   3.517 -1.9708  1.6785 -0.4601
 9467SOL    HW240038   4.069   0.224   3.659 -1.2219  0.9855  2.2963
 9468SOL     OW40039   1.989   1.751   8.080  0.2107  0.5327 -0.0860
 9468SOL    HW140040   2.025   1.682   8.023 -0.8849 -1.3373  1.5016
 9468SOL    HW240041   1.912   1.776   8.028  0.4679 -2.0910 -1.7427
 9469SOL     OW40042   0.490   3.349  11.725  0.1320  0.4062  0.2133
 9469SOL    HW140043   0.508   3.427  11.778  1.3928  0.8468 -0.8503
 9469SOL    HW240044   0.487   3.277  11.787 -1.0339 -0.8227 -1.3071
 9470SOL     OW40045   0.351   0.928   6.084 -0.0366  0.2109 -0.0230
 9470SOL    HW140046   0.390   0.887   6.161 -1.7177  2.1097  1.8716
 9470SOL    HW240047   0.280   0.871   6.055  1.2272 -0.4417 -1.8363
 9471SOL     OW40048   0.528   0.791   1.829 -0.6107  0.0233 -0.1209
 9471SOL    HW140049   0.544   0.820   1.739 -0.6314  0.0525 -0.1153
 9471SOL    HW240050   0.550   0.868   1.881 -1.3391  0.4071 -0.3792
 9472SOL     OW40051   4.484   3.531   5.600 -0.6188  0.1260 -0.6149
 9472SOL    HW140052   4.434   3.612   5.595  2.3532  1.8767 -2.4299
 9472SOL    HW240053   4.463   3.525   5.693 -0.2996 -2.2885 -0.6885
 9473SOL     OW40054   2.908   2.216   3.024  0.3993  0.0467  0.1707
 9473SOL    HW140055   2.882   2.224   3.116 -1.3086 -0.6770 -0.2572
 9473SOL    HW240056   2.850   2.156   2.977 -1.2742  1.0323  0.9817
 9474SOL     OW40057   3.194   1.119   5.280  0.1245  0.4991 -0.1411
 9474SOL    HW140058   3.182   1.178   5.355  0.4903 -0.8411  0.9854
 9474SOL    HW240059   3.229   1.046   5.331  1.3657  0.7023 -0.6856
 9475SOL     OW40060   3.757   3.709   6.317 -0.1970 -0.0892 -0.0310
 9475SOL    HW140061   3.837   3.754   6.291  0.0908  1.1359  3.0264
 9475SOL    HW240062   3.765   3.639   6.252 -0.2764 -1.1039  1.0680
 9476SOL     OW40063   3.121   3.933   0.741 -0.6261  0.5577  0.4149
 9476SOL    HW140064   3.104   4.017   0.698 -0.3796  0.6078  0.4147
 9476SOL    HW240065   3.040   3.932   0.791 -1.6215  2.1371 -1.1178
 9477SOL     OW40066   3.653   2.494   6.534  0.4170  0.4364 -0.1730
 9477SOL    HW140067   3.647   2.577   6.581 -0.4501  0.0722  0.3614
 9477SOL    HW240068   3.655   2.525   6.444  0.5988  0.5038 -0.1470
 9478SOL     OW40069   3.570   2.474   3.720  0.4524  0.2136  0.6829
 9478SOL    HW140070   3.575   2.484   3.625 -2.1866  0.5140  0.5699
 9478SOL    HW240071   3.493   2.527   3.742  1.1189  1.5138 -0.1356
 9479SOL     OW40072   2.373   2.949   3.731  0.1484  0.0696  0.3081
 9479SOL    HW140073   2.315   2.877   3.710 -0.5284  0.6183  0.3059
 9479SOL    HW240074   2.390   2.936   3.825 -2.1648  0.6146  0.7881
 9480SOL     OW40075   3.340   1.155   5.871 -0.5483  0.1189  0.4418
 9480SOL    HW140076   3.359   1.107   5.790  3.2132  1.2637  0.6475
 9480SOL    HW240077   3.329   1.082   5.933  0.0841 -0.5373 -0.2076
 9481SOL     OW40078   3.119   1.012   2.904 -0.4252  0.9409 -0.2938
 9481SOL    HW140079   3.082   1.086   2.856 -0.4114  0.8768 -0.4041
 9481SOL    HW240080   3.117   0.946   2.835  2.0420 -0.1358  0.6805
 9482SOL     OW40081   0.109   2.491   4.697  0.5583 -0.0525 -0.3647
 9482SOL    HW140082   0.199   2.511   4.670  0.7341  1.7533  1.5517
 9482SOL    HW240083   0.107   2.525   4.786  0.5504 -1.3399  0.1349
 9483SOL     OW40084   0.858   3.570   1.684  0.4742  0.0622  0.0995
 9483SOL    HW140085   0.890   3.641   1.740 -2.4051  1.4049  0.0594
 9483SOL    HW240086   0.770   3.600   1.659  1.0825 -0.3624 -2.6124
 9484SOL     OW40087   4.730   0.897  16.142  0.1957 -0.1886  0.0239
 9484SOL    HW140088   0.070   0.956  16.157 -1.1297  2.3740 -3.5464
 9484SOL    HW240089   4.720   0.893  16.047  0.0537 -1.1454  0.0753
 9485SOL     OW40090   3.085   0.194   9.663  0.5633 -0.4299  0.1629
 9485SOL    HW140091   3.105   0.235   9.747 -1.5845 -1.0847  0.9763
 9485SOL    HW240092   3.147   0.121   9.666  0.6706 -0.2459  1.9761
 9486SOL     OW40093   0.649   0.973   3.489  0.2393  0.7764  0.0616
 9486SOL    HW140094   0.690   0.895   3.526  0.0736  0.0893 -1.2061
 9486SOL    HW240095   0.601   1.012   3.562  2.7270 -1.0961  2.7094
 9487SOL     OW40096   2.165   2.608  13.789  0.3625  0.0020 -0.0660
 9487SOL    HW140097   2.166   2.513  13.792 -1.3721 -0.0563 -1.3917
 9487SOL    HW240098   2.103   2.626  13.718 -2.4418 -1.2427  2.0717
 9488SOL     OW40099   0.070   0.892   8.650 -0.0728 -0.3532  0.0156
 9488SOL    HW140100   4.714   0.898   8.684 -0.9680  0.4895 -2.5078
 9488SOL    HW240101   0.115   0.960   8.701 -0.0691  1.4239 -2.3814
 9489SOL     OW40102   0.214   3.328   4.044  0.3060  1.0758 -0.0632
 9489SOL    HW140103   0.195   3.405   4.098 -0.6455  1.1544 -0.5073
 9489SOL    HW240104   0.151   3.258   4.063  3.4821 -1.6249  0.4753
 9490SOL     OW40105   3.219   4.031   6.454 -0.1700  0.0695 -0.5653
 9490SOL    HW140106   3.124   4.025   6.450 -0.0657 -2.1780  0.4164
 9490SOL    HW240107   3.245   3.971   6.384  2.3626 -1.5208  1.7282
 9491SOL     OW40108   1.409   1.224  14.528  0.2978  0.2447  0.4647
 9491SOL    HW140109   1.325   1.258  14.496 -0.4790 -2.1603 -0.0615
 9491SOL    HW240110   1.376   1.155  14.586  0.6092  0.3703  0.7869
 9492SOL     OW40111   1.107   3.069   4.239 -0.2377 -0.2765  0.4404
 9492SOL    HW140112   1.014   3.082   4.257  0.7702  3.3822  3.0039
 9492SOL    HW240113   1.151   3.094   4.320 -0.7255 -0.2670  0.7011
 9493SOL     OW40114   4.247   1.271  14.647 -0.0622 -0.3771  0.2426
 9493SOL    HW140115   4.183   1.310  14.586 -0.7057 -1.5821  0.1566
 9493SOL    HW240116   4.306   1.217  14.594 -0.7955 -1.5203  0.5975
 9494SOL     OW40117   0.079   3.318  16.163 -0.5769 -0.0680 -0.0852
 9494SOL    HW140118   0.131   3.269  16.100 -0.0496  0.5289 -0.1195
 9494SOL    HW240119   4.722   3.300  16.139 -2.3896  1.2227  5.6866
 9495SOL     OW40120   3.489   2.075   9.635  0.3335 -0.6395  0.6223
 9495SOL    HW140121   3.407   2.108   9.599  1.1136 -0.0829 -0.6379
 9495SOL    HW240122   3.513   2.008   9.571  0.3058 -1.2925  1.2906
 9496SOL     OW40123   1.322   3.762   6.803  0.5336  0.1924  0.5110
 9496SOL    HW140124   1.365   3.844   6.778 -0.4125  0.7100  0.5919
 9496SOL    HW240125   1.372   3.721   6.874  0.3260  0.1268  0.6179
 9497SOL     OW40126   1.923   0.330   1.286  0.1482  0.0340  0.8253
 9497SOL    HW140127   1.864   0.349   1.213  0.0199  0.3241  1.0069
 9497SOL    HW240128   1.965   0.250   1.255  1.4998  0.8946  0.3967
 9498SOL     OW40129   3.578   1.633  14.071 -0.4730  0.2072  0.3396
 9498SOL    HW140130   3.588   1.590  13.987 -2.5948  0.3020  0.0561
 9498SOL    HW240131   3.552   1.724  14.058  4.1102  1.3600 -0.7205
 9499SOL     OW40132   0.854   0.653   9.068  0.5999 -0.0059 -0.7844
 9499SOL    HW140133   0.922   0.608   9.018  0.3584 -1.2893  0.0146
 9499SOL    HW240134   0.859   0.739   9.028  0.2480  0.2015 -0.3715
 9500SOL     OW40135   3.473   0.421   7.367  0.3344  0.3818  0.0153
 9500SOL    HW140136   3.496   0.340   7.413  3.3476  1.0389 -0.3435
 9500SOL    HW240137   3.534   0.491   7.391 -0.2739  1.2090 -0.8785
 9501SOL     OW40138   2.749   4.372   2.058  0.2222  0.0449  0.1167
 9501SOL    HW140139   2.765   4.368   1.964 -1.1603  1.3807 -0.1740
 9501SOL    HW240140   2.684   4.441   2.069  1.5054  1.2906 -0.0700
 9502SOL     OW40141   3.517   4.048   7.491  0.0907 -0.3855  0.1223
 9502SOL    HW140142   3.593   4.026   7.438 -1.0175 -1.0225 -1.2123
 9502SOL    HW240143   3.453   3.987   7.454 -0.8146  0.3168  0.5305
 9503SOL     OW40144   4.390   1.038   3.162  0.0290 -0.1192 -0.2080
 9503SOL    HW140145   4.377   0.986   3.241  0.6787 -0.3154 -0.2286
 9503SOL    HW240146   4.469   1.001   3.121 -0.3320  1.8928 -2.7170
 9504SOL     OW40147   4.365   4.454   5.623  0.0926 -0.0326  0.4581
 9504SOL    HW140148   4.430   4.509   5.666 -0.1209  0.7342 -0.2039
 9504SOL    HW240149   4.371   4.481   5.532 -0.8255 -1.5922 -0.0767
 9505SOL     OW40150   2.609   1.713   4.001 -0.2580 -0.1460  0.1718
 9505SOL    HW140151   2.669   1.642   4.024 -1.2234 -1.3463 -0.9683
 9505SOL    HW240152   2.532   1.664   3.972 -0.3898  0.1777 -0.0252
 9506SOL     OW40153   4.604   1.198   4.614  0.1872 -0.4029 -0.3338
 9506SOL    HW140154   4.662   1.122   4.615  2.9033  1.6376 -1.0768
 9506SOL    HW240155   4.578   1.201   4.706  1.7224  0.6192  0.0654
 9507SOL     OW40156   4.406   3.312   5.978  0.0877  0.4220 -0.4435
 9507SOL    HW140157   4.482   3.368   5.992 -0.2164  1.0520 -1.3571
 9507SOL    HW240158   4.450   3.231   6.003  1.3160  1.9722  2.5006
 9508SOL     OW40159   1.990   4.232   6.092  0.0597  0.1137 -0.0483
 9508SOL    HW140160   1.904   4.273   6.091  0.9367  1.9385 -0.9097
 9508SOL    HW240161   2.028   4.243   6.179 -1.5668  1.4750  0.4883
 9509SOL     OW40162   2.279   0.320   5.318  0.1012  0.0374 -0.3438
 9509SOL    HW140163   2.316   0.349   5.402  0.3961  0.6209 -0.6780
 9509SOL    HW240164   2.344   0.256   5.289 -1.3580 -0.3640 -2.7449
 9510SOL     OW40165   1.095   4.117   7.340 -0.2586 -0.1158  0.0141
 9510SOL    HW140166   1.010   4.140   7.304 -1.1253 -2.5308  0.5232
 9510SOL    HW240167   1.075   4.151   7.427 -2.5055  2.1256 -1.4111
 9511SOL     OW40168   3.268   3.853  13.521 -0.0135 -0.1652 -0.1120
 9511SOL    HW140169   3.279   3.762  13.493 -1.4421 -0.1245 -0.7595
 9511SOL    HW240170   3.359   3.878  13.540 -0.1178  1.9193 -2.3395
 9512SOL     OW40171   0.810   1.028   4.917 -0.4645  0.6377 -0.1946
 9512SOL    HW140172   0.833   1.016   5.009 -2.4968  0.8480  0.3230
 9512SOL    HW240173   0.716   1.024   4.931 -0.5414 -1.7591 -1.3191
 9513SOL     OW40174   3.025   2.599   1.755  0.0451  0.3432  0.0556
 9513SOL    HW140175   3.026   2.574   1.662  0.2625  2.0805 -0.4179
 9513SOL    HW240176   2.958   2.543   1.794 -0.1274 -0.2472 -1.0768
 9514SOL     OW40177   2.750   0.318   7.811  0.0420 -0.0248  0.2644
 9514SOL    HW140178   2.805   0.336   7.735  1.5355  1.3834  1.6794
 9514SOL    HW240179   2.692   0.390   7.786 -0.2994 -0.7192 -0.9812
 9515SOL     OW40180   2.669   2.303  15.379  0.3896  0.0086  0.2825
 9515SOL    HW140181   2.646   2.253  15.457  2.0910 -2.1292 -0.5629
 9515SOL    HW240182   2.745   2.353  15.409  1.5700 -0.2270 -2.2454
 9516SOL     OW40183   4.653   4.453   5.100 -0.3286 -0.3991  0.1060
 9516SOL    HW140184   0.006   4.447   5.058 -0.1341 -0.4506  0.5199
 9516SOL    HW240185   4.661   4.386   5.168 -0.0400  0.1574  0.6150
 9517SOL     OW40186   0.171   1.319   5.920  0.5127 -0.2650 -0.0949
 9517SOL    HW140187   0.247   1.266   5.946 -0.5924 -0.4284  2.8032
 9517SOL    HW240188   0.204   1.408   5.914 -2.5069  0.7703 -0.9622
 9518SOL     OW40189   2.620   0.915  12.927 -0.0194 -0.4473 -0.1600
 9518SOL    HW140190   2.652   0.877  13.009  1.6928  2.3048  0.4492
 9518SOL    HW240191   2.692   0.911  12.865 -0.5776  1.5797 -0.9313
 9519SOL     OW40192   3.200   0.757   0.659  0.2551 -0.4684  0.6072
 9519SOL    HW140193   3.247   0.689   0.611 -0.5262 -0.0788 -0.7004
 9519SOL    HW240194   3.146   0.776   0.583 -0.3290 -0.6187  0.9833
 9520SOL     OW40195   4.536   1.395  16.885 -0.5447  0.2617 -0.2847
 9520SOL    HW140196   4.622   1.411  16.846 -0.5884 -0.7331 -0.7844
 9520SOL    HW240197   4.479   1.411  16.809 -1.7703  2.6475  1.1544
 9521SOL     OW40198   3.156   4.384  16.366 -0.1295  0.1033 -0.5172
 9521SOL    HW140199   3.073   4.337  16.375 -0.3505  0.8106  1.1601
 9521SOL    HW240200   3.131   4.464  16.320  1.3442  1.7341  1.5430
 9522SOL     OW40201   3.849   2.901  10.504 -0.0117 -0.1405  0.1001
 9522SOL    HW140202   3.923   2.955  10.527  1.6265 -0.7048 -3.8111
 9522SOL    HW240203   3.859   2.839  10.576 -0.2575 -0.5645 -0.2239
 9523SOL     OW40204   0.208   2.863   2.635 -0.5429  0.1238  0.0718
 9523SOL    HW140205   0.129   2.829   2.593 -0.0196  1.1506 -1.7126
 9523SOL    HW240206   0.223   2.805   2.710 -1.0341 -1.8212 -1.3244
 9524SOL     OW40207   3.094   1.255   4.228 -0.0348  0.3755 -0.5239
 9524SOL    HW140208   3.030   1.200   4.273 -0.1589  0.3111 -0.7803
 9524SOL    HW240209   3.050   1.290   4.151 -3.3569  0.1836  1.3062
 9525SOL     OW40210   1.141   3.008   4.554 -0.4656 -0.5561  0.5272
 9525SOL    HW140211   1.096   2.932   4.516 -0.1086  0.9452 -2.8970
 9525SOL    HW240212   1.211   2.957   4.595  1.1777  0.5392 -0.9232
 9526SOL     OW40213   1.271   2.681   4.360  0.2469  0.1898 -0.6210
 9526SOL    HW140214   1.360   2.687   4.326  0.4209 -1.8737 -0.4970
 9526SOL    HW240215   1.273   2.639   4.446  0.5153 -2.9111 -2.1411
 9527SOL     OW40216   2.236   3.661   0.012 -0.3113  0.2680 -0.1390
 9527SOL    HW140217   2.197   3.662   0.099  0.2219 -0.0115  0.1063
 9527SOL    HW240218   2.315   3.711   0.032 -0.4592  1.1976 -1.8702
 9528SOL     OW40219   1.012   4.054   7.688  0.2599 -0.3267  0.4224
 9528SOL    HW140220   0.972   3.972   7.660  1.1246  0.0120 -1.7890
 9528SOL    HW240221   0.997   4.054   7.782 -1.3899  0.5399  0.1570
 9529SOL     OW40222   0.319   1.886   7.457 -0.7651 -0.8990  0.4745
 9529SOL    HW140223   0.275   1.801   7.461  1.8555 -2.2352  0.7709
 9529SOL    HW240224   0.259   1.933   7.515  0.1379 -0.8944  1.4216
 9530SOL     OW40225   3.140   2.354   4.092  0.4148  0.4320 -0.4521
 9530SOL    HW140226   3.117   2.414   4.021  1.9780 -0.2482 -1.5460
 9530SOL    HW240227   3.158   2.274   4.044 -0.6186  1.3888 -2.4216
 9531SOL     OW40228   4.656   4.604   2.003  0.2699 -0.0828 -0.2188
 9531SOL    HW140229   4.722   4.607   2.072 -1.2217  1.5246  1.1296
 9531SOL    HW240230   4.575   4.596   2.053 -0.5797  1.0098 -1.4248
 9532SOL     OW40231   1.725   4.678   6.791  0.4021  0.0356  0.4874
 9532SOL    HW140232   1.675   4.605   6.757  1.6303 -0.6404  0.1239
 9532SOL    HW240233   1.668   0.020   6.797 -0.3722 -0.2955 -2.6541
 9533SOL     OW40234   2.356   1.219   4.439  0.1819  0.1299  0.3029
 9533SOL    HW140235   2.279   1.266   4.409  1.9474  2.3739 -0.7371
 9533SOL    HW240236   2.372   1.178   4.354 -0.4219  2.7392 -1.0826
 9534SOL     OW40237   2.397   2.349   4.159  0.1706 -0.1340  0.2646
 9534SOL    HW140238   2.460   2.287   4.121  0.2391  0.9500 -1.3946
 9534SOL    HW240239   2.433   2.421   4.107  0.5760  1.7831  3.2306
 9535SOL     OW40240   1.727   4.656  14.674 -0.1432 -0.7027  0.2696
 9535SOL    HW140241   1.734   4.709  14.754  1.6770  2.7878 -2.2023
 9535SOL    HW240242   1.819   4.657  14.647 -1.0198  1.5898 -2.6056
 9536SOL     OW40243   4.537   2.884  11.097  0.8978  0.1575 -0.4408
 9536SOL    HW140244   4.508   2.835  11.174  2.5712 -0.6794 -0.3473
 9536SOL    HW240245   4.621   2.840  11.085  0.5776 -0.4328 -0.5314
 9537SOL     OW40246   1.845   3.226  17.713  1.1641 -0.6529  0.3860
 9537SOL    HW140247   1.869   3.315   0.002 -2.4362  0.6020 -0.7843
 9537SOL    HW240248   1.805   3.207   0.062  1.3585 -0.2838  0.5566
 9538SOL     OW40249   0.012   4.061  14.334  0.2305  0.6235  0.1903
 9538SOL    HW140250   4.673   4.096  14.283 -0.4538 -0.8181  0.1697
 9538SOL    HW240251   0.042   3.985  14.285 -1.1046  0.3913 -0.2622
 9539SOL     OW40252   2.829   0.026   3.651 -0.6263 -0.2014 -0.0193
 9539SOL    HW140253   2.849   0.024   3.558 -0.6912  2.3561 -0.0806
 9539SOL    HW240254   2.861   4.672   3.671  2.2459  0.9947  0.6281
 9540SOL     OW40255   0.290   0.399  12.546  0.0505  0.1535 -0.3774
 9540SOL    HW140256   0.308   0.439  12.631  2.0591 -1.7384  0.0690
 9540SOL    HW240257   0.283   0.475  12.488  0.2552  0.8096  0.4612
 9541SOL     OW40258   2.722   1.806   2.148  0.1474 -0.3043  0.0395
 9541SOL    HW140259   2.680   1.760   2.075  0.4356 -1.3248  0.5235
 9541SOL    HW240260   2.752   1.889   2.109 -1.1093  0.0687 -0.1483
 9542SOL     OW40261   1.104   2.690   0.526  0.2917 -0.1513 -0.6175
 9542SOL    HW140262   1.088   2.608   0.574 -1.7215  0.2442 -0.6191
 9542SOL    HW240263   1.200   2.687   0.531  0.3138  3.0153  0.7974
 9543SOL     OW40264   3.273   2.519   6.823  0.3680 -0.2187  0.4348
 9543SOL    HW140265   3.292   2.524   6.917  0.5425 -0.4406  0.4097
 9543SOL    HW240266   3.237   2.432   6.806  0.5486 -0.0690 -0.7303
 9544SOL     OW40267   3.336   1.825  16.516  0.2059  0.1003  0.1052
 9544SOL    HW140268   3.269   1.858  16.457 -0.6247 -0.1737  0.9038
 9544SOL    HW240269   3.386   1.761  16.464  2.7805  0.6075  1.9467
 9545SOL     OW40270   2.877   0.223   9.475 -0.5992  0.0389 -0.2810
 9545SOL    HW140271   2.953   0.195   9.525  0.1291  1.4055 -0.6232
 9545SOL    HW240272   2.839   0.297   9.522  3.2204  1.5020  0.5206
 9546SOL     OW40273   1.500   1.828   2.954  0.2677 -0.5066  0.0650
 9546SOL    HW140274   1.524   1.863   3.040  0.8128 -0.6961 -0.0122
 9546SOL    HW240275   1.427   1.770   2.974 -1.5861  2.0685  0.8448
 9547SOL     OW40276   3.402   2.507  16.033  0.0539 -0.6156  0.1896
 9547SOL    HW140277   3.485   2.555  16.040 -0.1758 -0.0618 -1.0112
 9547SOL    HW240278   3.418   2.419  16.068  1.8500  0.9760  3.3492
 9548SOL     OW40279   2.019   0.004   9.510  0.3821 -0.3303  0.2925
 9548SOL    HW140280   1.989   4.657   9.468 -0.3738 -0.2560  0.6967
 9548SOL    HW240281   2.113   4.722   9.518  0.7134  1.0822 -0.8206
 9549SOL     OW40282   4.674   3.221   4.153  0.1423 -0.4256 -0.4092
 9549SOL    HW140283   4.657   3.153   4.088 -0.4714 -1.3171  0.6946
 9549SOL    HW240284   4.625   3.182   4.226  1.2661  0.3638  0.7569
 9550SOL     OW40285   4.592   3.697   0.076  0.3892 -0.3241 -0.7438
 9550SOL    HW140286   4.633   3.774   0.115 -1.4433 -0.0285  0.5710
 9550SOL    HW240287   4.510   3.697   0.125  0.9574 -1.6154  0.2026
 9551SOL     OW40288   0.480   4.341   2.738 -0.0668  0.0926 -0.1398
 9551SOL    HW140289   0.467   4.302   2.824 -0.5220 -2.0674 -1.1825
 9551SOL    HW240290   0.574   4.332   2.724 -0.1994  1.9828 -2.4076
 9552SOL     OW40291   1.279   1.674   2.980 -0.2675 -0.5244  0.3894
 9552SOL    HW140292   1.200   1.713   3.019  0.2784  0.7165  0.2495
 9552SOL    HW240293   1.249   1.661   2.890  0.8573  1.7291 -0.3246
 9553SOL     OW40294   0.057   1.806  14.966 -0.1567  0.3665  0.1393
 9553SOL    HW140295   0.043   1.842  14.879  0.5614  0.7537  0.1802
 9553SOL    HW240296   0.126   1.867  14.994 -0.8802  0.3217  2.0406
 9554SOL     OW40297   1.394   3.292   8.674 -0.3987 -0.3994 -0.4497
 9554SOL    HW140298   1.479   3.259   8.645 -0.2783  1.6027 -2.3274
 9554SOL    HW240299   1.380   3.236   8.750  0.5812 -1.5134 -1.0935
 9555SOL     OW40300   3.026   1.731   6.555  0.0926  0.6354 -0.1117
 9555SOL    HW140301   3.081   1.807   6.574  0.0203  0.1163  2.2225
 9555SOL    HW240302   3.071   1.699   6.478 -2.6009 -0.3966 -1.2586
 9556SOL     OW40303   3.639   2.719   1.761 -0.3935 -0.7907  0.3180
 9556SOL    HW140304   3.651   2.703   1.667  0.9725 -1.6235  0.6173
 9556SOL    HW240305   3.729   2.745   1.783 -0.2224  0.8101 -2.2554
 9557SOL     OW40306   3.981   0.761   2.865  0.5899 -0.3743  0.2716
 9557SOL    HW140307   4.036   0.824   2.911 -2.1046  1.0008  1.6518
 9557SOL    HW240308   3.991   0.790   2.774 -2.1132 -2.5644 -0.7441
 9558SOL     OW40309   1.061   4.701   8.282 -0.3089  0.9072 -0.2530
 9558SOL    HW140310   0.996   4.695   8.212 -2.4457 -1.4790  1.9683
 9558SOL    HW240311   1.140   4.671   8.237  0.3244 -0.5227  1.8141
 9559SOL     OW40312   3.579   1.965  12.459 -0.1142 -0.1337 -0.4565
 9559SOL    HW140313   3.585   2.061  12.465 -0.2023 -0.1140 -0.6970
 9559SOL    HW240314   3.671   1.940  12.467 -0.3287 -0.2294  1.8333
 9560SOL     OW40315   3.264   2.117   1.687 -0.0574  0.1896 -0.3861
 9560SOL    HW140316   3.297   2.206   1.677 -0.8768  0.4545 -0.7694
 9560SOL    HW240317   3.290   2.102   1.778 -1.7339  1.1607  0.2558
 9561SOL     OW40318   0.165   0.890  10.361  0.1584 -0.2739  0.5281
 9561SOL    HW140319   0.208   0.922  10.282 -1.3460  1.3709  0.3668
 9561SOL    HW240320   0.180   0.965  10.418 -2.5625  1.4355 -1.0002
 9562SOL     OW40321   2.085   0.556   1.339 -0.3154  0.2111  0.0959
 9562SOL    HW140322   2.119   0.585   1.254 -1.6596 -2.6761 -1.4082
 9562SOL    HW240323   2.047   0.470   1.323  1.3295 -0.8747  1.9550
 9563SOL     OW40324   0.267   4.579  13.051  0.0049 -0.0742  0.4322
 9563SOL    HW140325   0.269   4.531  12.968  2.1719 -2.4913  1.8817
 9563SOL    HW240326   0.306   4.665  13.033  1.8826 -0.7499  1.3827
 9564SOL     OW40327   4.257   3.285   9.765 -0.7611 -0.1506  0.5589
 9564SOL    HW140328   4.331   3.232   9.792 -1.2341 -0.3290  1.5155
 9564SOL    HW240329   4.241   3.250   9.678  0.3433 -1.1095  0.7462
 9565SOL     OW40330   0.604   3.806   8.203  0.5266 -0.5586  0.5229
 9565SOL    HW140331   0.534   3.864   8.233  0.1972 -0.3666 -0.6341
 9565SOL    HW240332   0.571   3.721   8.232  0.8560 -1.1272 -0.7634
 9566SOL     OW40333   3.504   4.199   5.897  0.4201  0.3965 -0.2297
 9566SOL    HW140334   3.514   4.204   5.802  1.2736  0.8579 -0.1072
 9566SOL    HW240335   3.588   4.155   5.907 -0.0091 -0.3603  0.1317
 9567SOL     OW40336   0.696   3.692   6.077  0.3434  0.4697  0.1427
 9567SOL    HW140337   0.752   3.724   6.148  0.7942  1.6525 -0.7450
 9567SOL    HW240338   0.764   3.698   6.010  1.2833 -0.2633  1.0252
 9568SOL     OW40339   1.256   4.703   9.257 -0.0400 -0.0433  0.4957
 9568SOL    HW140340   1.339   0.016   9.250 -1.0418  1.3869 -1.7652
 9568SOL    HW240341   1.285   4.614   9.277  1.8369  0.6481  0.8069
 9569SOL     OW40342   0.684   1.011   8.442  0.1051  0.4991  0.1490
 9569SOL    HW140343   0.636   1.031   8.523  0.5909 -0.9880  0.7961
 9569SOL    HW240344   0.721   1.094   8.413  2.1683 -0.4855  0.0090
   4.73413   4.73413  17.73560
