Membrane in water
40344
    1TMC1    C1    1   1.718   0.483  11.152  0.1766 -0.0011  0.5097
    1TMC1    C2    2   1.683   0.415  11.035 -0.6994 -0.1482  0.4295
    1TMC1    C3    3   1.744   0.452  10.924 -0.0880 -0.0952 -0.1132
    1TMC1    C4    4   1.806   0.586  11.160 -0.2057  0.0389  0.2569
    1TMC1    C5    5   1.858   0.625  11.040  0.3613  0.1553  0.3146
    1TMC1    C6    6   1.834   0.557  10.924 -0.0715  0.4301  0.2813
    1TMC1     C    7   1.675   0.418  11.282 -0.1559 -0.2707 -0.2655
    1TMC1     O    8   1.668   0.504  11.368  0.6316  0.7609  0.7388
    1TMC1     H    9   1.600   0.347  11.022  0.1128 -1.5153  2.3164
    1TMC1    H1   10   1.830   0.633  11.254 -0.9002  1.8167 -0.4562
    1TMC1    H2   11   1.907   0.580  10.846 -0.6034  1.3996  0.0683
    1TMC1    C7   12   1.963   0.726  11.043  0.0807  0.4615  0.2985
    1TMC1    C8   13   1.741   0.351  10.817  0.4337 -0.3966 -0.3682
    1TMC1    O1   14   1.968   0.807  10.948 -0.6502  0.1699 -0.1569
    1TMC1    O2   15   1.693   0.240  10.822 -0.0082 -0.4678 -0.3530
    1TMC1    O3   16   2.013   0.741  11.165  0.5258  0.2066  0.0262
    1TMC1    H3   17   2.021   0.654  11.211  1.2602 -0.7780 -1.9748
    1TMC1    O5   18   1.753   0.425  10.704 -0.0107 -0.4437  0.4692
    1TMC1    H5   19   1.800   0.509  10.725 -1.1030  0.2501  0.1027
    2MPD2     C   20   1.617   0.055  11.641 -0.3941 -0.2231 -0.9207
    2MPD2    C1   21   1.596   0.194  11.649  0.4326 -0.0618 -0.2990
    2MPD2    C2   22   1.611   0.269  11.530  0.5213  0.2973  0.7017
    2MPD2    C3   23   1.646   0.209  11.407 -0.9216 -0.3668 -0.3755
    2MPD2    C4   24   1.673   0.073  11.409  0.4077 -0.1050  0.4460
    2MPD2    C5   25   1.654   4.736  11.517  0.6130 -0.7034 -0.7847
    2MPD2     H   26   1.597   0.375  11.546 -1.3194  0.5926 -2.7797
    2MPD2    H1   27   1.714   0.020  11.324 -2.1898  0.0286 -0.8639
    2MPD2    H2   28   1.605   4.719  11.720  1.8924 -3.2165 -3.3099
    2MPD2    H3   29   1.677   4.630  11.509 -0.6056 -1.1933  2.2346
    2MPD2     N   30   1.665   0.280  11.288 -0.6744  0.7737 -0.4780
    2MPD2    H5   31   1.680   0.219  11.209  1.1887 -0.2179  0.6474
    2MPD2    N1   32   1.558   0.254  11.768 -0.2586 -0.1950  0.1244
    2MPD2    H7   33   1.564   0.355  11.763  0.7723 -0.4176 -3.8024
    3TMC1    C1   34   1.737   1.720  10.510  0.1335  0.3229  0.4185
    3TMC1    C2   35   1.737   1.610  10.429 -0.9184  0.0488 -0.1481
    3TMC1    C3   36   1.789   1.625  10.303 -0.1568 -0.2474 -0.3759
    3TMC1    C4   37   1.795   1.836  10.474  0.6429  0.4774 -0.0063
    3TMC1    C5   38   1.851   1.849  10.351  0.3752 -0.4637  1.1314
    3TMC1    C6   39   1.850   1.736  10.265  0.4873 -0.1040  0.0437
    3TMC1     C   40   1.656   1.711  10.631  0.5671 -0.5085 -0.0395
    3TMC1     O   41   1.626   1.603  10.678 -0.0821  0.0474 -0.3380
    3TMC1     H   42   1.716   1.511  10.469 -1.2023 -0.1970 -0.9032
    3TMC1    H1   43   1.786   1.925  10.535 -0.7357  0.4051 -0.0973
    3TMC1    H2   44   1.887   1.746  10.163 -0.8331  2.1188 -0.2321
    3TMC1    C7   45   1.872   1.981  10.300  0.2911  0.3060  0.0166
    3TMC1    C8   46   1.825   1.503  10.237  0.2752  0.5057  0.8444
    3TMC1    O1   47   1.819   2.081  10.349 -0.5140  0.1380 -0.2893
    3TMC1    O2   48   1.913   1.501  10.154 -0.2039 -0.3401  0.5792
    3TMC1    O3   49   1.974   1.984  10.219  0.4883  0.3687  1.0973
    3TMC1    H3   50   2.035   1.908  10.222  1.8546  1.3334 -2.1903
    3TMC1    O5   51   1.705   1.444  10.214  0.0012 -0.6589 -0.3691
    3TMC1    H5   52   1.639   1.465  10.283 -0.5435  0.6736 -1.2958
    4MPD2     C   53   1.260   1.895  10.904  0.0842  0.1693 -0.5398
    4MPD2    C1   54   1.347   1.993  10.871 -0.6168 -0.3057  0.5390
    4MPD2    C2   55   1.460   1.968  10.795  0.1387 -0.1180 -0.7263
    4MPD2    C3   56   1.492   1.840  10.752  0.2604 -0.1059 -0.7048
    4MPD2    C4   57   1.396   1.746  10.779 -0.2374 -0.4465 -0.2478
    4MPD2    C5   58   1.290   1.768  10.865  1.2688  0.2773  0.8066
    4MPD2     H   59   1.529   2.049  10.778  0.8176 -0.8334 -1.4080
    4MPD2    H1   60   1.408   1.643  10.747  2.0220 -0.0476 -0.6435
    4MPD2    H2   61   1.173   1.908  10.967 -1.1729  1.4655 -2.5518
    4MPD2    H3   62   1.216   1.696  10.897  1.9893 -0.0670  1.6948
    4MPD2     N   63   1.607   1.833  10.668 -0.6213 -0.1944  0.4752
    4MPD2    H5   64   1.647   1.921  10.638 -0.8173  0.2928  1.6380
    4MPD2    N1   65   1.330   2.128  10.916 -0.1967 -0.0112 -0.2226
    4MPD2    H7   66   1.397   2.190  10.871  0.8688 -1.2197 -0.3065
    5TCq1    O1   67   2.413   3.560  11.500  0.3594 -0.1118 -0.0549
    5TCq1    C1   68   2.335   3.563  11.610 -0.1121  0.5734  0.0763
    5TCq1    O2   69   2.362   3.622  11.716  0.3523  0.5809 -0.7127
    5TCq1    C2   70   2.205   3.518  11.570  0.8634  0.1390 -0.2881
    5TCq1    C3   71   2.098   3.557  11.653  0.0474 -0.0540 -0.5127
    5TCq1    C4   72   1.971   3.532  11.614  0.4371  0.3444 -0.1300
    5TCq1    C5   73   1.949   3.462  11.499 -0.0625 -0.3510 -0.1265
    5TCq1    C6   74   2.052   3.422  11.422  0.1885 -0.4359  0.5957
    5TCq1    C7   75   2.186   3.445  11.459 -0.4265  0.0720 -0.1693
    5TCq1    C8   76   2.035   3.372  11.287 -0.4237 -0.4297  0.2037
    5TCq1    O4   77   2.139   3.364  11.220 -0.3699 -0.1453 -0.2698
    5TCq1    C9   78   1.863   3.574  11.700  0.4257 -0.4151 -0.5888
    5TCq1    O5   79   1.889   3.649  11.798  0.2268 -0.2658 -0.4980
    5TCq1    O6   80   1.750   3.549  11.659  0.2412  0.3469 -0.4221
    5TCq1    H1   81   2.375   3.540  11.412  0.5925 -2.6349  0.4389
    5TCq1    H2   82   2.116   3.617  11.742  0.2918  0.0631 -0.6399
    5TCq1    H3   83   1.844   3.445  11.481 -0.1872  1.4251 -1.1272
    5TCq1    H4   84   2.273   3.402  11.410 -0.1440  0.1472  0.2643
    6MPD2     C   85   1.730   3.382  11.102  1.0677  0.2786 -0.0920
    6MPD2    C1   86   1.855   3.339  11.118  0.0496 -0.6125 -1.3062
    6MPD2    C2   87   1.921   3.284  11.017  0.8110 -0.9573 -0.4565
    6MPD2    C3   88   1.869   3.275  10.888 -0.7934  0.6274 -0.1474
    6MPD2    C4   89   1.737   3.319  10.879  0.5718 -0.6711 -0.3667
    6MPD2    C5   90   1.669   3.371  10.985 -0.6432 -1.0014 -0.4281
    6MPD2     H   91   2.024   3.261  11.042  1.0636  0.9538  0.3247
    6MPD2    H1   92   1.684   3.305  10.785 -0.1202 -1.7408  0.1839
    6MPD2    H2   93   1.669   3.418  11.183  1.3599 -0.0095  0.2543
    6MPD2    H3   94   1.569   3.411  10.981 -0.5409 -0.7242 -0.2903
    6MPD2     N   95   1.945   3.215  10.784 -0.9064  0.5040 -0.4702
    6MPD2    H5   96   2.041   3.185  10.799 -0.8485  0.6645 -0.5232
    6MPD2    N1   97   1.905   3.376  11.244 -0.5388  0.1538 -0.6923
    6MPD2    H7   98   1.846   3.417  11.316 -0.1236 -2.3834  1.0929
    7TCq1    O1   99   4.165   2.139  12.433 -0.5117 -0.3330 -0.1952
    7TCq1    C1  100   4.192   2.261  12.397 -0.3111  1.0463  0.0569
    7TCq1    O2  101   4.305   2.300  12.364 -0.1506 -0.0063 -0.3425
    7TCq1    C2  102   4.099   2.339  12.476  0.4223  0.0023 -0.9143
    7TCq1    C3  103   3.965   2.300  12.461 -1.0073  0.6724  0.5253
    7TCq1    C4  104   3.880   2.364  12.549  0.3331  0.1663 -0.9740
    7TCq1    C5  105   3.920   2.469  12.632  0.1429 -0.8946 -0.5650
    7TCq1    C6  106   4.049   2.494  12.645 -0.1955 -0.1117 -0.8894
    7TCq1    C7  107   4.143   2.441  12.561 -0.8513 -0.0752 -0.2796
    7TCq1    C8  108   4.099   2.537  12.777 -0.1029 -0.3073  0.2909
    7TCq1    O4  109   4.221   2.541  12.785  0.1152 -0.4830 -0.2409
    7TCq1    C9  110   3.744   2.335  12.551 -0.4062  0.1980  0.2262
    7TCq1    O5  111   3.670   2.392  12.632  0.1280  0.4967  0.3722
    7TCq1    O6  112   3.708   2.259  12.460 -0.3700 -0.0027  0.5309
    7TCq1    H1  113   4.073   2.127  12.466 -0.0774 -1.9965  0.4242
    7TCq1    H2  114   3.934   2.222  12.393  0.2925  1.2756 -0.7643
    7TCq1    H3  115   3.845   2.528  12.683  1.0302  0.2920 -0.6360
    7TCq1    H4  116   4.247   2.463  12.580 -0.8373  0.0275 -0.4769
    8MPD2     C  117   4.081   2.553  13.299 -0.2783 -0.0393 -0.3464
    8MPD2    C1  118   4.183   2.525  13.212 -0.4992 -0.3880 -0.0680
    8MPD2    C2  119   4.151   2.537  13.074 -0.1902  0.2821  0.0006
    8MPD2    C3  120   4.029   2.567  13.028  0.0952  0.3399  0.0450
    8MPD2    C4  121   3.926   2.585  13.122 -1.1949 -0.7945 -0.1088
    8MPD2    C5  122   3.957   2.582  13.252 -0.1662 -0.2239 -0.0451
    8MPD2     H  123   4.228   2.526  12.997  0.1518  0.5900  0.3003
    8MPD2    H1  124   3.821   2.591  13.094 -0.9001  1.3634 -0.7568
    8MPD2    H2  125   4.098   2.533  13.405 -1.0097 -0.6267 -0.3411
    8MPD2    H3  126   3.881   2.606  13.326  0.7278  0.8601  0.5308
    8MPD2     N  127   4.002   2.559  12.885 -0.1500 -0.5466  0.0545
    8MPD2    H5  128   3.904   2.566  12.860 -0.1384  1.9369  0.6869
    8MPD2    N1  129   4.310   2.490  13.270 -0.3214  0.1052  0.4164
    8MPD2    H7  130   4.308   2.479  13.371 -2.3635  3.9676  0.8273
    9TMC1    C1  131   1.828   1.080  11.065  0.4414  0.0205  0.1557
    9TMC1    C2  132   1.894   1.076  10.946 -0.9127  0.5405 -0.2010
    9TMC1    C3  133   2.024   1.131  10.947  0.1723 -0.2993  0.3977
    9TMC1    C4  134   1.879   1.140  11.177 -0.4439 -0.0230 -0.0225
    9TMC1    C5  135   2.009   1.185  11.173  0.7390  0.0204 -0.2998
    9TMC1    C6  136   2.090   1.172  11.063 -0.2743  0.0250  0.0698
    9TMC1     C  137   1.690   1.026  11.067  0.0479  0.4310  0.1263
    9TMC1     O  138   1.671   0.943  10.978  0.1107 -0.1683  0.3921
    9TMC1     H  139   1.846   1.037  10.858  1.8101 -1.8053 -0.6467
    9TMC1    H1  140   1.831   1.140  11.274  1.5084  3.0764  0.9389
    9TMC1    H2  141   2.195   1.191  11.046 -0.5702  0.3595 -1.3929
    9TMC1    C7  142   2.078   1.194  11.301 -0.2190 -0.8761  0.4442
    9TMC1    C8  143   2.102   1.113  10.828 -0.2147  0.1090 -0.0192
    9TMC1    O1  144   2.037   1.151  11.405 -0.1911 -0.3395 -0.6306
    9TMC1    O2  145   2.192   1.186  10.802  0.6998 -0.2722  0.0059
    9TMC1    O3  146   2.187   1.272  11.280  0.0175 -0.4268 -0.6850
    9TMC1    H3  147   2.197   1.306  11.188 -1.7567  0.1410 -0.6646
    9TMC1    O5  148   2.070   0.995  10.765 -0.3626  0.4729 -0.0775
    9TMC1    H5  149   2.014   0.935  10.819  0.6504  0.9854  1.5617
   10MPD2     C  150   1.407   0.935  11.128 -0.6475 -0.1550 -0.1562
   10MPD2    C1  151   1.479   1.020  11.206 -0.1094 -0.6037  0.1207
   10MPD2    C2  152   1.420   1.069  11.324 -0.5242  0.1811 -0.1416
   10MPD2    C3  153   1.285   1.021  11.361 -0.8719 -0.0249  0.2056
   10MPD2    C4  154   1.222   0.929  11.276 -0.3039 -0.8853  0.3818
   10MPD2    C5  155   1.284   0.891  11.164  0.4046 -0.3147 -0.4108
   10MPD2     H  156   1.469   1.146  11.383 -2.0812  2.0782 -1.3125
   10MPD2    H1  157   1.126   0.886  11.302 -1.0339 -0.3442 -1.3946
   10MPD2    H2  158   1.452   0.888  11.041  1.2629  1.2442  0.0673
   10MPD2    H3  159   1.237   0.824  11.093 -0.4528 -0.0098 -0.1336
   10MPD2     N  160   1.210   1.072  11.473  0.7202  0.4494  0.2506
   10MPD2    H5  161   1.119   1.026  11.474 -0.1035  2.0810 -0.8257
   10MPD2    N1  162   1.612   1.069  11.174 -0.1656  0.1280 -0.1587
   10MPD2    H7  163   1.650   1.135  11.241 -0.0682 -1.0231  0.9178
   11TCq1    O1  164   1.941   1.434  14.298  0.5693  0.0614  0.0030
   11TCq1    C1  165   1.833   1.364  14.263 -0.5511 -0.2483  0.5223
   11TCq1    O2  166   1.776   1.278  14.332 -0.2727  0.1863 -0.6779
   11TCq1    C2  167   1.822   1.378  14.119 -0.8064 -0.4756 -0.1662
   11TCq1    C3  168   1.855   1.492  14.048  0.7567  0.2681  0.2714
   11TCq1    C4  169   1.831   1.487  13.914 -0.5524 -0.3873 -0.3184
   11TCq1    C5  170   1.764   1.378  13.859 -0.1733 -0.0702  0.0601
   11TCq1    C6  171   1.756   1.266  13.930  0.3028 -0.9660 -0.3761
   11TCq1    C7  172   1.775   1.258  14.063 -0.0853 -0.2711  0.3090
   11TCq1    C8  173   1.729   1.135  13.869  0.1400  0.2794  0.1572
   11TCq1    O4  174   1.788   1.043  13.918 -0.7714 -0.2459  0.2680
   11TCq1    C9  175   1.862   1.604  13.831  0.0581 -0.0349 -0.0995
   11TCq1    O5  176   1.907   1.709  13.881  0.0536 -0.3636  0.7226
   11TCq1    O6  177   1.843   1.588  13.705 -0.2492  0.1963 -0.6238
   11TCq1    H1  178   1.990   1.481  14.227 -1.2646  2.1208  0.0928
   11TCq1    H2  179   1.911   1.575  14.089  2.3310  0.0700 -1.4885
   11TCq1    H3  180   1.739   1.385  13.754 -0.1075 -0.1264  0.0404
   11TCq1    H4  181   1.766   1.166  14.120 -0.0550 -1.0453 -0.9208
   12MPD2     C  182   1.504   1.040  13.602 -0.2771  0.4360  0.6917
   12MPD2    C1  183   1.616   1.030  13.682  0.0817 -0.9280  0.5386
   12MPD2    C2  184   1.693   0.911  13.682 -0.3254  1.0919  0.0392
   12MPD2    C3  185   1.650   0.801  13.612  0.2764 -0.0702  0.4089
   12MPD2    C4  186   1.541   0.809  13.532 -0.2578  0.0877  0.0396
   12MPD2    C5  187   1.471   0.928  13.530  0.0721 -0.0692  0.2632
   12MPD2     H  188   1.784   0.909  13.741 -0.7736 -2.8041  0.5839
   12MPD2    H1  189   1.508   0.724  13.474  3.2684  0.8267 -3.0486
   12MPD2    H2  190   1.436   1.125  13.605 -0.8484 -0.0181  0.4126
   12MPD2    H3  191   1.384   0.937  13.466 -1.3210  0.0677  2.1774
   12MPD2     N  192   1.715   0.674  13.613 -0.3136 -0.0906  0.1182
   12MPD2    H5  193   1.681   0.597  13.556  1.2674  0.6074 -1.7994
   12MPD2    N1  194   1.643   1.142  13.764 -0.2081 -0.1911  0.0277
   12MPD2    H7  195   1.594   1.229  13.743  1.5917  0.6258 -0.7889
   13TCq1    O1  196   2.344   1.128  10.244  0.3291  0.1449 -0.1054
   13TCq1    C1  197   2.386   1.256  10.211  0.4676  0.0741  0.1699
   13TCq1    O2  198   2.469   1.280  10.123  0.2536  0.3061  0.0262
   13TCq1    C2  199   2.304   1.366  10.270  0.1253 -0.5125  1.3223
   13TCq1    C3  200   2.311   1.491  10.210 -0.3468  0.3158 -0.1641
   13TCq1    C4  201   2.227   1.595  10.249  0.6402  0.1307  0.3206
   13TCq1    C5  202   2.155   1.582  10.365 -0.4476 -0.0362 -0.2234
   13TCq1    C6  203   2.157   1.458  10.433  0.4507  0.3758 -0.0944
   13TCq1    C7  204   2.227   1.353  10.383 -0.3250  0.5581  0.3052
   13TCq1    C8  205   2.041   1.429  10.519  0.5583 -0.0315 -0.2506
   13TCq1    O4  206   1.982   1.519  10.575 -0.0002  0.2136 -0.6280
   13TCq1    C9  207   2.197   1.703  10.165 -0.3660 -0.6507  0.3710
   13TCq1    O5  208   2.233   1.694  10.045  0.0261  0.5150 -0.5919
   13TCq1    O6  209   2.135   1.800  10.219 -0.1100  0.1571 -0.5007
   13TCq1    H1  210   2.259   1.126  10.294 -1.4384 -0.6377 -3.0998
   13TCq1    H2  211   2.361   1.493  10.114 -0.8057  2.9893 -0.3620
   13TCq1    H3  212   2.081   1.655  10.395  0.4897  0.4993  0.7715
   13TCq1    H4  213   2.240   1.270  10.451 -2.3344  1.2168  1.4817
   14MPD2     C  214   1.813   1.134  10.498 -0.0611 -0.0092 -0.0496
   14MPD2    C1  215   1.866   1.246  10.552  0.2332  0.7014 -0.1762
   14MPD2    C2  216   1.804   1.303  10.660  0.4826  0.8321 -0.1889
   14MPD2    C3  217   1.692   1.252  10.718 -0.6240 -0.0870 -0.2777
   14MPD2    C4  218   1.641   1.136  10.660 -0.2052 -0.4700 -0.0075
   14MPD2    C5  219   1.703   1.074  10.557  0.2261 -0.0903 -0.9656
   14MPD2     H  220   1.861   1.382  10.706  0.0873  0.5659  0.7679
   14MPD2    H1  221   1.556   1.096  10.715 -0.6535  2.1180  1.2163
   14MPD2    H2  222   1.858   1.085  10.412  0.2683 -0.4328  0.3667
   14MPD2    H3  223   1.661   0.985  10.512  0.2543 -0.7229  0.2665
   14MPD2     N  224   1.649   1.316  10.833  0.1785  0.1525 -0.8436
   14MPD2    H5  225   1.699   1.401  10.857  0.8700 -0.0874 -1.4396
   14MPD2    N1  226   1.990   1.302  10.493  0.9648 -0.5786 -0.2054
   14MPD2    H7  227   2.034   1.248  10.420  1.7769  0.6186 -0.5948
   15TCq1    O1  228   3.097   1.345   1.508  0.4864  0.2194 -0.6189
   15TCq1    C1  229   3.184   1.442   1.513  0.2016  0.7217  0.4725
   15TCq1    O2  230   3.155   1.554   1.551  0.5502 -0.2225  0.2225
   15TCq1    C2  231   3.315   1.385   1.502  1.0320  0.0874  0.3159
   15TCq1    C3  232   3.391   1.412   1.607  0.2537  0.2187  0.3873
   15TCq1    C4  233   3.493   1.324   1.645 -0.0291  0.6136  0.5938
   15TCq1    C5  234   3.511   1.206   1.583  0.6568 -0.4023  0.1127
   15TCq1    C6  235   3.434   1.181   1.466  0.0849  0.0470 -0.0759
   15TCq1    C7  236   3.338   1.269   1.423 -0.2740  0.4914 -0.4658
   15TCq1    C8  237   3.487   1.076   1.381  0.2995  0.2148 -0.5331
   15TCq1    O4  238   3.574   1.001   1.430 -0.2588 -0.2519 -0.0830
   15TCq1    C9  239   3.572   1.360   1.759 -0.7264 -0.9056 -0.0917
   15TCq1    O5  240   3.631   1.261   1.811  0.1702  0.2558  0.2407
   15TCq1    O6  241   3.556   1.475   1.805 -0.4023  0.2882 -1.0944
   15TCq1    H1  242   3.135   1.259   1.479 -0.3377 -0.8345  1.3977
   15TCq1    H2  243   3.371   1.503   1.662  1.9777 -0.4963  2.1795
   15TCq1    H3  244   3.594   1.142   1.610  0.7059 -0.8624 -1.1572
   15TCq1    H4  245   3.279   1.250   1.334 -1.9896  0.9040  0.5927
   16MPD2     C  246   3.434   1.047   1.023  0.5254 -0.7351  0.1704
   16MPD2    C1  247   3.485   1.010   1.145 -0.6338  0.1861 -0.0148
   16MPD2    C2  248   3.574   0.902   1.141  0.2860  0.6241  0.1121
   16MPD2    C3  249   3.602   0.836   1.021 -0.1318 -0.4284 -0.4042
   16MPD2    C4  250   3.535   0.873   0.906  0.4108 -0.0519 -0.7082
   16MPD2    C5  251   3.454   0.982   0.907 -0.4205 -0.1719 -0.0973
   16MPD2     H  252   3.607   0.865   1.237 -1.5852 -0.3247  0.3881
   16MPD2    H1  253   3.554   0.826   0.810 -0.1602  0.6504 -1.1642
   16MPD2    H2  254   3.377   1.138   1.008  0.9581 -0.3124  1.1017
   16MPD2    H3  255   3.400   1.020   0.822 -0.1496 -0.0536 -0.2184
   16MPD2     N  256   3.692   0.724   1.022  0.1367  0.2022 -0.1621
   16MPD2    H5  257   3.757   0.714   1.100  1.6306 -0.1256 -1.4379
   16MPD2    N1  258   3.445   1.091   1.253  0.0078 -0.2087 -0.1926
   16MPD2    H7  259   3.398   1.178   1.229 -1.1668 -0.8451 -0.2028
   17TMC1    C1  260   1.023   0.400   9.752 -0.0353  0.2990 -0.0839
   17TMC1    C2  261   1.096   0.507   9.704  0.0251 -0.2434  0.4609
   17TMC1    C3  262   1.069   0.548   9.574 -0.5639 -0.4051  1.0517
   17TMC1    C4  263   0.916   0.352   9.685  0.3257  0.1665  0.4820
   17TMC1    C5  264   0.890   0.388   9.553 -0.4884  0.2338  1.1746
   17TMC1    C6  265   0.967   0.492   9.503 -0.0093 -0.0821 -0.0663
   17TMC1     C  266   1.055   0.329   9.880 -0.8236  0.3481  0.0142
   17TMC1     O  267   0.967   0.270   9.936  0.1750  0.3570 -0.0555
   17TMC1     H  268   1.165   0.568   9.761  0.1395  0.1590 -0.1066
   17TMC1    H1  269   0.855   0.269   9.720 -0.0647 -0.1013 -0.8206
   17TMC1    H2  270   0.942   0.526   9.403 -0.9199 -2.5767 -0.6992
   17TMC1    C7  271   0.753   0.394   9.515 -0.2202 -0.3372 -0.7170
   17TMC1    C8  272   1.128   0.668   9.527 -0.4055 -0.2386 -0.0994
   17TMC1    O1  273   0.698   0.504   9.524 -0.8810 -0.0147  0.4230
   17TMC1    O2  274   1.187   0.754   9.595 -0.1523  0.1328  0.5022
   17TMC1    O3  275   0.699   0.271   9.537 -0.2437  0.2919 -0.1209
   17TMC1    H3  276   0.767   0.202   9.519 -1.2391 -0.6922 -0.1456
   17TMC1    O5  277   1.158   0.647   9.400  0.1859  0.1934  0.6170
   17TMC1    H5  278   1.119   0.564   9.364  1.1458 -0.2787  0.6595
   18MPD2     C  279   1.187   0.186  10.101  0.0057 -0.6914  0.0760
   18MPD2    C1  280   1.236   0.302  10.042  0.1736  0.3256  0.0581
   18MPD2    C2  281   1.349   0.359  10.094  0.2425 -0.0644  0.6393
   18MPD2    C3  282   1.410   0.302  10.205  0.1223  0.0649  0.6342
   18MPD2    C4  283   1.364   0.192  10.263  0.0387  0.3700 -0.0332
   18MPD2    C5  284   1.248   0.136  10.212  0.8869 -0.7853  0.8583
   18MPD2     H  285   1.394   0.440  10.037 -1.2688 -1.4740 -2.5365
   18MPD2    H1  286   1.411   0.146  10.349  0.2244 -0.1944 -0.4334
   18MPD2    H2  287   1.099   0.135  10.064  0.2710  1.2357 -3.2594
   18MPD2    H3  288   1.208   0.051  10.266  2.1427 -2.3071 -0.6193
   18MPD2     N  289   1.538   0.351  10.249 -0.3617  0.0178 -0.3436
   18MPD2    H5  290   1.575   0.291  10.322  1.8806  1.4571 -0.2830
   18MPD2    N1  291   1.182   0.358   9.923  0.0366  0.4458 -0.8519
   18MPD2    H7  292   1.242   0.424   9.874 -1.3154  2.1541 -0.2044
   19TMC2    C1  293   3.136   1.554  13.976 -0.1194 -0.2460 -1.1176
   19TMC2    C2  294   3.062   1.664  13.991  0.9366 -0.1614 -0.4882
   19TMC2    C3  295   2.934   1.635  14.036 -0.5823  0.1112  0.7272
   19TMC2    C4  296   3.092   1.428  14.009  1.0235  0.1778 -0.5887
   19TMC2    C5  297   2.968   1.407  14.066  0.0340 -0.5504 -0.0845
   19TMC2    C6  298   2.895   1.517  14.091 -0.4505  0.9156  0.6800
   19TMC2     C  299   3.262   1.566  13.898  0.0337 -0.0071 -0.4247
   19TMC2     O  300   3.271   1.673  13.836  0.4001 -0.0483 -0.2791
   19TMC2     H  301   3.093   1.763  13.961  2.8812 -0.5825  0.1395
   19TMC2    H1  302   3.144   1.341  13.970  0.3381  0.0182 -1.1502
   19TMC2    H2  303   2.801   1.504  14.143 -1.9749 -1.7209 -2.7209
   19TMC2    C7  304   2.913   1.276  14.047 -0.6071  0.3509 -0.2729
   19TMC2    C8  305   2.874   1.742  14.103 -0.1356 -0.0419  0.1741
   19TMC2    O1  306   2.986   1.184  14.025  0.4250 -0.1772  0.2538
   19TMC2    O2  307   2.816   1.726  14.214 -0.3449  0.3375  0.1574
   19TMC2    O5  308   2.839   1.838  14.019 -0.4152 -0.3491  0.3049
   19TMC2    H5  309   2.900   1.845  13.943 -1.5557 -1.4372 -0.7084
   20MPD2     C  310   3.548   1.547  13.806  0.1431  0.2539  1.7544
   20MPD2    C1  311   3.493   1.471  13.905  0.5442 -0.7182 -1.3747
   20MPD2    C2  312   3.569   1.381  13.975 -0.2870 -0.0253 -0.6563
   20MPD2    C3  313   3.699   1.359  13.938 -0.5192  0.6432  0.0204
   20MPD2    C4  314   3.754   1.439  13.838  0.2303  0.1239  0.4481
   20MPD2    C5  315   3.675   1.525  13.766 -0.5285  0.0703 -0.4559
   20MPD2     H  316   3.529   1.315  14.052 -0.0616  2.1451  1.3458
   20MPD2    H1  317   3.856   1.423  13.807 -0.1950  0.0799 -0.9284
   20MPD2    H2  318   3.486   1.610  13.743 -1.5020 -3.1294 -0.0165
   20MPD2    H3  319   3.719   1.588  13.689 -0.7949  2.5870  1.4407
   20MPD2     N  320   3.789   1.276  14.012 -0.5101  0.5733  0.2648
   20MPD2    H5  321   3.886   1.307  14.013 -0.2033 -0.3121 -1.7027
   20MPD2    N1  322   3.359   1.474  13.942  0.4639  0.3390 -0.2327
   20MPD2    H7  323   3.334   1.418  14.023  1.5039  0.7600  0.3828
   21TMC2    C1  324   0.948   1.435  14.110 -0.3124 -0.2820 -0.0769
   21TMC2    C2  325   0.986   1.306  14.075  0.0716  0.2991 -0.1827
   21TMC2    C3  326   0.888   1.211  14.079 -0.0934 -0.2701 -0.2174
   21TMC2    C4  327   0.822   1.465  14.158 -0.0349 -0.3232 -1.2235
   21TMC2    C5  328   0.739   1.357  14.175 -0.0955 -0.2253 -0.0050
   21TMC2    C6  329   0.766   1.229  14.138  0.1483 -0.4552 -0.4774
   21TMC2     C  330   1.056   1.515  14.173  0.2372 -0.1384  0.2333
   21TMC2     O  331   1.157   1.458  14.208 -0.5439  0.0023 -0.3581
   21TMC2     H  332   1.084   1.288  14.034  0.7206  0.3203  1.3652
   21TMC2    H1  333   0.793   1.566  14.186  2.4698  0.1829 -0.4294
   21TMC2    H2  334   0.699   1.146  14.158 -0.8085  0.6212  0.8023
   21TMC2    C7  335   0.635   1.375  14.276  0.3761  0.3680 -0.1520
   21TMC2    C8  336   0.925   1.080  14.037 -0.0619  0.1411  0.0327
   21TMC2    O1  337   0.608   1.278  14.341 -0.0997 -0.2308 -0.5002
   21TMC2    O2  338   1.038   1.038  14.054  0.6889  0.0284  0.2196
   21TMC2    O5  339   0.812   1.019  13.993  0.1064 -0.2601  0.0670
   21TMC2    H5  340   0.741   1.083  13.972  0.4823  0.2235  0.2659
   22MPD2     C  341   1.138   1.853  14.523 -0.2379 -0.2808  0.1760
   22MPD2    C1  342   1.148   1.722  14.527  0.5233  0.3331  0.0760
   22MPD2    C2  343   1.106   1.655  14.423 -0.1294  0.6945 -0.4697
   22MPD2    C3  344   1.047   1.720  14.307 -0.0251  0.0872 -0.3344
   22MPD2    C4  345   1.027   1.855  14.315 -0.5214  0.3977 -0.2101
   22MPD2    C5  346   1.077   1.922  14.421  0.8425  0.8561 -0.0288
   22MPD2     H  347   1.132   1.550  14.408  1.4106  0.8004  1.4037
   22MPD2    H1  348   0.988   1.913  14.232 -2.4598 -1.1883 -0.3997
   22MPD2    H2  349   1.171   1.912  14.608 -0.0346 -0.3662  0.1570
   22MPD2    H3  350   1.076   2.030  14.415 -2.4389  0.7317 -1.2265
   22MPD2     N  351   1.010   1.643  14.196 -0.3890 -0.2756 -0.3974
   22MPD2    H5  352   0.941   1.683  14.134 -1.1315 -1.9406 -0.6373
   22MPD2    N1  353   1.205   1.645  14.631  0.0075 -0.4105 -0.3907
   22MPD2    H7  354   1.221   1.548  14.607 -1.7626 -0.5234 -1.0841
   23TMC2    C1  355   2.064   2.413  14.653 -0.0020  0.1003 -0.0141
   23TMC2    C2  356   2.069   2.329  14.544  0.2829  0.0155  0.7178
   23TMC2    C3  357   1.953   2.293  14.484 -0.3363 -0.5359  0.0313
   23TMC2    C4  358   1.942   2.442  14.707 -0.1040 -0.2182  0.5502
   23TMC2    C5  359   1.823   2.394  14.654 -0.2007 -0.5666 -0.5401
   23TMC2    C6  360   1.830   2.321  14.539 -0.1627 -0.0559 -0.8993
   23TMC2     C  361   2.183   2.462  14.714  0.1864 -0.3597  0.1435
   23TMC2     O  362   2.180   2.503  14.829 -0.4104  0.5766  0.4348
   23TMC2     H  363   2.159   2.291  14.496 -0.3444  1.1293 -1.3491
   23TMC2    H1  364   1.934   2.512  14.789  0.5167 -1.2090  1.4482
   23TMC2    H2  365   1.743   2.271  14.499 -1.4543  0.9308  0.7049
   23TMC2    C7  366   1.699   2.420  14.730 -0.5891  0.2226 -1.1155
   23TMC2    C8  367   1.956   2.166  14.407 -0.0723  0.8375 -0.2152
   23TMC2    O1  368   1.704   2.468  14.843 -0.1126 -0.2987 -0.1326
   23TMC2    O2  369   1.873   2.144  14.325 -0.0715  0.0798 -0.3056
   23TMC2    O5  370   2.022   2.067  14.466 -0.0502  0.2501  0.7410
   23TMC2    H5  371   2.062   2.099  14.549  1.3724  0.6806 -0.1024
   24MPD2     C  372   2.669   2.607  14.679 -0.5646 -0.6324 -0.1087
   24MPD2    C1  373   2.595   2.587  14.794  0.4532  0.0209  0.6094
   24MPD2    C2  374   2.459   2.549  14.771 -0.4899 -0.8610 -0.8185
   24MPD2    C3  375   2.405   2.532  14.642  0.3867 -0.4093  0.6682
   24MPD2    C4  376   2.493   2.538  14.538  0.4410 -0.6225 -0.0338
   24MPD2    C5  377   2.617   2.573  14.559  0.2286  0.9710  0.0113
   24MPD2     H  378   2.410   2.521  14.863  0.7695 -1.3608 -0.2912
   24MPD2    H1  379   2.470   2.508  14.437  2.2987 -0.8818 -0.3841
   24MPD2    H2  380   2.772   2.641  14.687 -1.0613  0.6165  1.1667
   24MPD2    H3  381   2.680   2.594  14.473  2.0671  1.8881  1.5643
   24MPD2     N  382   2.280   2.474  14.615  0.2034  1.0720 -0.3843
   24MPD2    H5  383   2.257   2.453  14.519  1.8033  2.5312 -1.0820
   24MPD2    N1  384   2.643   2.607  14.922  0.1607  0.4710  0.3731
   24MPD2    H7  385   2.576   2.598  14.998  0.5432  0.8085  0.7432
   25TMC2    C1  386   1.733   4.457  12.036 -0.0023 -0.4505 -0.5571
   25TMC2    C2  387   1.812   4.406  12.140 -0.2654  0.0445 -0.1237
   25TMC2    C3  388   1.796   4.458  12.264 -0.0416  0.1756 -0.3931
   25TMC2    C4  389   1.638   4.555  12.057  0.1319 -0.8079  0.2832
   25TMC2    C5  390   1.625   4.605  12.185 -0.4296 -0.4669 -0.3380
   25TMC2    C6  391   1.699   4.553  12.293  0.4797  0.4046 -0.0167
   25TMC2     C  392   1.741   4.389  11.906 -0.3211 -0.2998  0.7667
   25TMC2     O  393   1.829   4.315  11.878  0.2879 -0.1547  0.1755
   25TMC2     H  394   1.896   4.341  12.122 -0.7361 -0.0800 -1.9239
   25TMC2    H1  395   1.569   4.567  11.975  1.3717  1.5873 -0.4312
   25TMC2    H2  396   1.685   4.597  12.391 -1.4901 -2.5494  1.0340
   25TMC2    C7  397   1.481   4.631  12.222 -0.4846  0.2806  0.3357
   25TMC2    C8  398   1.887   4.422  12.363  0.2337 -0.4028  0.2433
   25TMC2    O1  399   1.444   4.593  12.331 -0.0996  0.6049  0.5422
   25TMC2    O2  400   2.004   4.392  12.346  0.6008  0.1093  0.4770
   25TMC2    O5  401   1.843   4.450  12.483  0.2734 -0.0835  0.1939
   25TMC2    H5  402   1.746   4.467  12.486 -0.3375 -3.4649 -1.1879
   26MPD2     C  403   1.645   4.322  11.419 -0.2483 -0.1817  0.6252
   26MPD2    C1  404   1.524   4.356  11.486 -0.0224 -0.0827  0.3378
   26MPD2    C2  405   1.525   4.385  11.616  0.4348 -0.1619  0.3014
   26MPD2    C3  406   1.647   4.392  11.678 -0.2070  0.0457 -0.0237
   26MPD2    C4  407   1.769   4.367  11.616 -0.3395  0.4204 -0.5695
   26MPD2    C5  408   1.768   4.326  11.483  0.0627  0.5571  0.3304
   26MPD2     H  409   1.438   4.408  11.677 -0.1754 -2.2504  0.2159
   26MPD2    H1  410   1.861   4.386  11.670 -0.7581 -1.3673  0.7847
   26MPD2    H2  411   1.644   4.279  11.320 -2.0874 -0.7582  0.9119
   26MPD2    H3  412   1.860   4.319  11.426  0.3993 -1.0630  1.0693
   26MPD2     N  413   1.643   4.423  11.819  0.2737 -0.1937 -0.0790
   26MPD2    H5  414   1.554   4.450  11.860 -0.9033 -2.1703 -1.3297
   26MPD2    N1  415   1.404   4.340  11.411 -0.5625  0.4048  0.0554
   26MPD2    H7  416   1.426   4.332  11.312 -0.0114  2.7046 -0.0028
   27TMC2    C1  417   4.621   2.734  11.949 -0.3053  0.0037 -0.2184
   27TMC2    C2  418   4.577   2.860  11.955 -0.0725  0.3822  0.2367
   27TMC2    C3  419   4.650   2.948  12.036  0.4871 -0.6512 -0.5785
   27TMC2    C4  420   0.003   2.688  11.996 -0.3415 -0.1787 -0.6491
   27TMC2    C5  421   0.078   2.777  12.065 -0.4307  0.2533  0.2139
   27TMC2    C6  422   0.028   2.906  12.098 -0.5293  0.6669 -0.0486
   27TMC2     C  423   4.536   2.618  11.931  0.1594 -0.1361  0.0790
   27TMC2     O  424   4.579   2.516  11.880 -0.8959  0.5995  0.0463
   27TMC2     H  425   4.480   2.883  11.914  0.1353  1.8679  0.5640
   27TMC2    H1  426   0.049   2.593  11.973 -0.4072 -0.1848 -0.7572
   27TMC2    H2  427   0.083   2.963  12.172  1.5694 -0.8956 -0.4110
   27TMC2    C7  428   0.177   2.721  12.153 -0.3597 -0.0914  0.1934
   27TMC2    C8  429   4.577   3.052  12.108 -0.0970 -0.0460  0.5414
   27TMC2    O1  430   0.174   2.599  12.162  0.5159  0.3109 -0.2902
   27TMC2    O2  431   4.560   3.044  12.229 -0.2778 -0.6605  0.0999
   27TMC2    O5  432   4.531   3.132  12.014  0.0954  0.4956 -0.2919
   27TMC2    H5  433   4.577   3.120  11.928 -0.3097 -3.3718  0.0116
   28MPD2     C  434   4.081   2.403  12.030  0.4453 -0.7146  1.0018
   28MPD2    C1  435   4.083   2.525  12.085  0.4685 -0.0516 -1.2124
   28MPD2    C2  436   4.197   2.599  12.063 -0.4646  1.1511  0.3132
   28MPD2    C3  437   4.306   2.549  11.996  0.3402 -0.6329 -0.2167
   28MPD2    C4  438   4.305   2.423  11.941  0.3712  1.1716  0.2715
   28MPD2    C5  439   4.185   2.355  11.956  0.0629  0.7525 -0.1936
   28MPD2     H  440   4.211   2.703  12.090  0.5996  0.7930  1.1260
   28MPD2    H1  441   4.389   2.378  11.889  0.3541  2.6360 -1.0446
   28MPD2    H2  442   3.988   2.346  12.028  2.1850 -3.3660 -2.9854
   28MPD2    H3  443   4.170   2.262  11.903 -0.0833  0.9474 -0.4939
   28MPD2     N  444   4.408   2.637  11.985 -0.1458  0.0996  0.3062
   28MPD2    H5  445   4.386   2.724  12.032  0.7569  1.0973 -1.1199
   28MPD2    N1  446   3.971   2.566  12.160  0.2504 -0.6352  0.4624
   28MPD2    H7  447   3.902   2.496  12.185 -0.2320  0.4488  2.1508
   29TMC2    C1  448   4.105   4.610  14.520  0.0165  0.1011  0.5048
   29TMC2    C2  449   4.123   4.624  14.658  1.0008 -0.0612 -0.2904
   29TMC2    C3  450   4.173   0.013  14.700  0.4279 -1.0195  0.1063
   29TMC2    C4  451   4.128   4.707  14.432 -0.2564  0.4470 -1.0939
   29TMC2    C5  452   4.191   0.086  14.479  0.6176 -0.3016  0.2027
   29TMC2    C6  453   4.216   0.102  14.612  0.0044 -0.2552 -0.7500
   29TMC2     C  454   4.074   4.480  14.479 -0.5044  0.3245  0.6029
   29TMC2     O  455   4.092   4.394  14.567 -0.1320 -0.1296  0.0034
   29TMC2     H  456   4.125   4.541  14.728 -0.9160  0.5396  0.4669
   29TMC2    H1  457   4.123   4.689  14.325  0.2517 -0.8845 -0.8949
   29TMC2    H2  458   4.232   0.200  14.655 -0.1042 -0.9248  0.8069
   29TMC2    C7  459   4.231   0.187  14.382  0.3173  0.6095  0.9023
   29TMC2    C8  460   4.185   0.052  14.838 -0.4255  0.0753  0.6183
   29TMC2    O1  461   4.178   0.175  14.270 -0.3490  0.1254  0.2082
   29TMC2    O2  462   4.255   0.142  14.881  0.0688 -0.2238  0.0936
   29TMC2    O5  463   4.083   4.733  14.905  0.0288  0.6095 -0.3378
   29TMC2    H5  464   4.033   4.661  14.862  1.9509  0.2988 -2.0486
   30MPD2     C  465   3.857   4.139  14.167 -0.2718 -0.0089 -0.4067
   30MPD2    C1  466   3.916   4.124  14.285  0.2460  0.0775 -0.4187
   30MPD2    C2  467   3.957   4.236  14.351 -0.1249  0.0958 -0.3104
   30MPD2    C3  468   3.964   4.361  14.292  0.4854 -0.0423  0.4119
   30MPD2    C4  469   3.928   4.376  14.160  0.2394 -0.1868  0.0323
   30MPD2    C5  470   3.860   4.264  14.109  0.0677 -0.4430  0.4571
   30MPD2     H  471   4.001   4.224  14.450  0.7020  2.8998 -0.3340
   30MPD2    H1  472   3.943   4.466  14.101  1.5986  0.8851  2.0157
   30MPD2    H2  473   3.832   4.054  14.105 -2.3507  0.6737 -0.5075
   30MPD2    H3  474   3.827   4.262  14.006 -0.5862 -0.5161  0.6664
   30MPD2     N  475   4.007   4.475  14.357  0.3464  0.1813  0.4483
   30MPD2    H5  476   3.969   4.562  14.321  0.7227 -0.6627 -1.9569
   30MPD2    N1  477   3.941   4.003  14.347  0.3011 -0.1651  0.4279
   30MPD2    H7  478   4.000   4.017  14.429  1.5344 -0.4187 -0.4080
   31TMC2    C1  479   2.051   3.403  15.691  0.5262  0.8100 -0.5932
   31TMC2    C2  480   1.953   3.491  15.731  0.8517 -0.0091  0.5746
   31TMC2    C3  481   1.949   3.525  15.864  0.5213 -0.6134 -0.5267
   31TMC2    C4  482   2.128   3.342  15.784  0.5436  0.4630 -0.2634
   31TMC2    C5  483   2.115   3.377  15.916  0.6635 -0.2419 -0.0576
   31TMC2    C6  484   2.030   3.476  15.959 -0.5054  0.3327  0.1741
   31TMC2     C  485   2.079   3.396  15.545 -0.5201 -0.1985  0.0530
   31TMC2     O  486   2.009   3.465  15.474 -1.0455 -0.2012 -0.9216
   31TMC2     H  487   1.876   3.525  15.663  0.5821  0.3588  1.0699
   31TMC2    H1  488   2.202   3.267  15.757 -0.6935  0.1922 -2.9236
   31TMC2    H2  489   2.030   3.510  16.062  1.1478 -0.9974  0.6215
   31TMC2    C7  490   2.223   3.340  16.003  0.0075 -0.0890  0.2056
   31TMC2    C8  491   1.856   3.630  15.907  0.6078 -0.1462  0.4217
   31TMC2    O1  492   2.294   3.249  15.964  0.7583  0.3314 -0.1486
   31TMC2    O2  493   1.860   3.673  16.023 -0.3007  0.4824  0.3457
   31TMC2    O5  494   1.753   3.642  15.821  0.4947  0.0276 -0.4886
   31TMC2    H5  495   1.781   3.643  15.727 -0.1994  1.0852 -0.6832
   32MPD2     C  496   2.371   3.231  15.174  0.6654  0.0102  0.1522
   32MPD2    C1  497   2.275   3.327  15.165  0.4738  0.0001  1.0880
   32MPD2    C2  498   2.211   3.351  15.284 -0.7213 -0.5742 -0.3388
   32MPD2    C3  499   2.244   3.287  15.401 -0.7639 -0.3195 -0.5386
   32MPD2    C4  500   2.341   3.192  15.403 -0.4876  0.1314  0.3105
   32MPD2    C5  501   2.410   3.164  15.290  0.0872 -0.0242 -0.3915
   32MPD2     H  502   2.144   3.436  15.294  0.6599  0.2241  1.9576
   32MPD2    H1  503   2.384   3.151  15.494  1.6221  2.1228  0.2292
   32MPD2    H2  504   2.425   3.216  15.081  0.6920  0.5476  0.0828
   32MPD2    H3  505   2.492   3.093  15.287 -1.2883 -1.7482  1.9814
   32MPD2     N  506   2.185   3.316  15.526  0.2203  0.0985 -0.3111
   32MPD2    H5  507   2.220   3.260  15.603 -1.5951  0.4552  0.7674
   32MPD2    N1  508   2.252   3.397  15.045  0.1987  0.1350 -0.0542
   32MPD2    H7  509   2.310   3.371  14.966  1.6114  0.3864  0.9169
   33TMC2    C1  510   2.201   1.261   9.861 -0.4006  0.6683  0.5482
   33TMC2    C2  511   2.086   1.345   9.854 -0.1680 -0.3947 -0.5150
   33TMC2    C3  512   2.101   1.483   9.844 -0.5341 -0.2985  0.0176
   33TMC2    C4  513   2.324   1.328   9.852 -0.2918  0.0476 -0.2495
   33TMC2    C5  514   2.322   1.458   9.819 -1.0006  0.0421  0.3866
   33TMC2    C6  515   2.216   1.542   9.809 -0.1376 -0.0609 -0.1352
   33TMC2     C  516   2.189   1.125   9.915  0.0497 -0.1862  0.4182
   33TMC2     O  517   2.079   1.078   9.927  0.4332 -0.3385  0.0343
   33TMC2     H  518   1.987   1.313   9.886 -0.8740  1.9817 -0.3653
   33TMC2    H1  519   2.420   1.279   9.861  0.3342  1.3490  0.1098
   33TMC2    H2  520   2.219   1.645   9.774  1.9641  0.1204  0.5587
   33TMC2    C7  521   2.450   1.532   9.812  0.4000  0.1921  0.7511
   33TMC2    C8  522   1.984   1.571   9.856  0.8600  0.0567 -0.9430
   33TMC2    O1  523   2.522   1.488   9.722  0.3014  0.5888 -0.3735
   33TMC2    O2  524   1.872   1.538   9.821  0.1235 -0.0237 -0.0193
   33TMC2    O5  525   2.020   1.694   9.899 -0.3030 -0.0620  0.4552
   33TMC2    H5  526   2.100   1.692   9.956 -0.4082 -1.4240  0.5634
   34MPD2     C  527   2.407   0.683  10.078  0.3197 -0.3282  0.1152
   34MPD2    C1  528   2.277   0.722  10.085 -0.0982  0.3886  0.3191
   34MPD2    C2  529   2.242   0.843  10.035  0.1357  0.1349 -0.2662
   34MPD2    C3  530   2.332   0.935   9.983 -0.2492  0.1416  0.6986
   34MPD2    C4  531   2.463   0.901   9.985  0.4991  0.7849 -0.1938
   34MPD2    C5  532   2.502   0.777  10.041 -0.2615  0.0300  0.4346
   34MPD2     H  533   2.137   0.869  10.032 -0.3807 -1.8174  0.6710
   34MPD2    H1  534   2.536   0.975   9.954  2.1502 -0.4626  0.6999
   34MPD2    H2  535   2.438   0.587  10.117  2.0648  1.3666  2.9654
   34MPD2    H3  536   2.606   0.747  10.035 -0.1866  0.1606  1.1106
   34MPD2     N  537   2.310   1.066   9.927  0.6421 -0.2599  0.1638
   34MPD2    H5  538   2.385   1.130   9.904  0.4481 -0.5458 -1.2379
   34MPD2    N1  539   2.180   0.626  10.133 -0.1829 -0.2097 -0.0869
   34MPD2    H7  540   2.221   0.546  10.179 -0.5255 -0.3382 -0.0051
   35TMC2    C1  541   3.325   2.616  11.948  0.1948 -0.2413 -0.4810
   35TMC2    C2  542   3.231   2.711  11.976 -0.1647 -0.5492 -0.0368
   35TMC2    C3  543   3.097   2.675  11.976 -0.2236 -0.6410 -0.0526
   35TMC2    C4  544   3.292   2.486  11.944  1.1444 -0.0480 -0.2972
   35TMC2    C5  545   3.161   2.451  11.962  0.8032 -0.0559 -0.2762
   35TMC2    C6  546   3.059   2.543  11.973 -0.1040  0.2868 -0.5647
   35TMC2     C  547   3.462   2.658  11.928  0.0601  0.2132  0.3883
   35TMC2     O  548   3.485   2.774  11.968  0.1018 -0.1379  0.0725
   35TMC2     H  549   3.258   2.812  12.004  2.1006 -0.7172 -1.6500
   35TMC2    H1  550   3.357   2.412  11.899  0.4790 -0.3109 -0.8263
   35TMC2    H2  551   2.955   2.516  11.983  0.1446 -0.3603  0.3019
   35TMC2    C7  552   3.118   2.311  11.955 -0.3897 -0.4377  0.5244
   35TMC2    C8  553   2.992   2.776  11.991 -0.7737 -0.4399  0.7684
   35TMC2    O1  554   3.000   2.290  11.917  0.2841 -0.7206 -0.1097
   35TMC2    O2  555   3.010   2.895  11.959  0.1839 -0.2634 -0.3993
   35TMC2    O5  556   2.950   2.736  12.114 -0.7709  0.0250  1.2386
   35TMC2    H5  557   2.935   2.642  12.136 -1.7992 -0.2800 -0.7204
   36MPD2     C  558   3.932   2.634  11.756 -0.1684 -0.4484  0.2219
   36MPD2    C1  559   3.879   2.509  11.753 -0.1559 -0.4046 -0.5384
   36MPD2    C2  560   3.756   2.485  11.814  0.2624  0.1603  0.1760
   36MPD2    C3  561   3.692   2.584  11.874  0.1010 -0.6231  0.1290
   36MPD2    C4  562   3.754   2.710  11.888  0.6655  0.1010 -0.2643
   36MPD2    C5  563   3.865   2.734  11.822  0.4632  0.5350  0.6420
   36MPD2     H  564   3.707   2.389  11.804  0.1981  0.1869  0.2357
   36MPD2    H1  565   3.705   2.791  11.942  3.0253  1.8082 -0.6813
   36MPD2    H2  566   4.026   2.656  11.706 -0.4310  0.4812  0.1304
   36MPD2    H3  567   3.898   2.837  11.821 -1.4871  1.1593  0.6462
   36MPD2     N  568   3.554   2.558  11.902 -0.3506 -0.1865  0.8499
   36MPD2    H5  569   3.516   2.465  11.884  0.6624 -0.2962 -0.7390
   36MPD2    N1  570   3.954   2.412  11.694 -0.3000  0.3611 -0.1156
   36MPD2    H7  571   4.043   2.444  11.656 -0.6074  0.3714 -0.8297
   37TMC2    C1  572   1.259   2.529  11.833  0.0181 -0.4291 -0.1852
   37TMC2    C2  573   1.137   2.540  11.894 -0.3166 -0.1704  0.3409
   37TMC2    C3  574   1.049   2.627  11.835  0.0249  0.1286 -0.1479
   37TMC2    C4  575   1.298   2.607  11.730  0.0997  0.0164 -0.3599
   37TMC2    C5  576   1.205   2.685  11.671  0.2276  0.1262 -0.1692
   37TMC2    C6  577   1.081   2.701  11.724 -0.7695 -0.1165  0.4838
   37TMC2     C  578   1.346   2.420  11.864  0.4382  1.2691  0.4655
   37TMC2     O  579   1.460   2.425  11.815  0.3611 -0.1232  0.1651
   37TMC2     H  580   1.113   2.496  11.990  1.0075  0.2010  0.8396
   37TMC2    H1  581   1.403   2.610  11.701  0.8037 -0.9638  2.0667
   37TMC2    H2  582   1.002   2.758  11.676  0.3078 -0.3902 -1.5752
   37TMC2    C7  583   1.228   2.721  11.536 -0.1690 -1.0368  0.9049
   37TMC2    C8  584   0.917   2.634  11.881  0.8296  0.7353 -0.6735
   37TMC2    O1  585   1.345   2.725  11.501  0.1048 -0.2743 -0.8453
   37TMC2    O2  586   0.852   2.731  11.847  0.0647 -0.4485  0.6420
   37TMC2    O5  587   0.876   2.512  11.927  0.0230 -0.2662  0.0371
   37TMC2    H5  588   0.938   2.439  11.906  0.1979 -0.6708  1.9164
   38MPD2     C  589   1.439   1.933  12.007 -0.4377  0.1954 -0.6009
   38MPD2    C1  590   1.312   1.964  12.042  0.6026 -0.6284  1.0516
   38MPD2    C2  591   1.265   2.095  12.021  0.5170 -0.3682 -0.0402
   38MPD2    C3  592   1.342   2.192  11.959 -0.1268  0.4000 -0.2850
   38MPD2    C4  593   1.469   2.158  11.925 -0.2425  1.2299  0.3464
   38MPD2    C5  594   1.520   2.033  11.952 -0.8243  0.4036 -0.3206
   38MPD2     H  595   1.163   2.119  12.049  1.0552  1.8593 -0.0131
   38MPD2    H1  596   1.537   2.227  11.875  1.8701 -0.5810  0.7163
   38MPD2    H2  597   1.484   1.838  12.035  0.1792  0.5434 -0.4034
   38MPD2    H3  598   1.622   2.010  11.924 -0.3359 -0.1094  1.8711
   38MPD2     N  599   1.282   2.319  11.923  0.4676  0.6334 -0.6368
   38MPD2    H5  600   1.184   2.331  11.947 -0.0243 -3.0861 -0.7807
   38MPD2    N1  601   1.226   1.880  12.113  0.0018 -0.0534 -0.4199
   38MPD2    H7  602   1.144   1.922  12.156 -0.9540  0.0584 -2.3239
   39TMC2    C1  603   4.225   4.290   1.401  0.2493  0.7602 -0.9133
   39TMC2    C2  604   4.174   4.209   1.502  0.4850  0.0978  0.3342
   39TMC2    C3  605   4.267   4.193   1.604 -0.0732  0.4823 -0.6497
   39TMC2    C4  606   4.348   4.353   1.400 -0.2632 -0.1445 -0.4844
   39TMC2    C5  607   4.429   4.323   1.510  0.2530 -0.9205 -0.6135
   39TMC2    C6  608   4.386   4.249   1.613  0.0772 -0.5085 -0.5004
   39TMC2     C  609   4.143   4.303   1.288  0.6273  0.6013  0.2969
   39TMC2     O  610   4.144   4.408   1.227  0.2719  0.3284  0.3026
   39TMC2     H  611   4.077   4.161   1.509  1.0010 -0.8735  0.7445
   39TMC2    H1  612   4.382   4.414   1.317 -2.1487  1.5703  0.0131
   39TMC2    H2  613   4.441   4.235   1.705  0.9059 -0.8112 -1.0333
   39TMC2    C7  614   4.573   4.330   1.503  0.5853 -0.2458 -0.1470
   39TMC2    C8  615   4.235   4.087   1.698  0.1896 -0.1061  0.1819
   39TMC2    O1  616   4.629   4.240   1.563 -0.0059  0.1830  0.0099
   39TMC2    O2  617   4.326   4.029   1.750  0.3635 -0.1048 -0.2832
   39TMC2    O5  618   4.114   4.118   1.749 -0.1332  0.0184  0.3258
   39TMC2    H5  619   4.094   4.208   1.715 -0.7868 -1.1474 -2.3920
   40MPD2     C  620   3.919   4.037   1.144  0.4928  0.5150 -0.0512
   40MPD2    C1  621   3.969   4.166   1.168 -1.0186 -0.0181  0.2411
   40MPD2    C2  622   3.923   4.269   1.086 -0.4039  0.3492 -0.5893
   40MPD2    C3  623   3.824   4.242   0.990  0.4723  0.3415  0.8428
   40MPD2    C4  624   3.779   4.117   0.977  0.0183  0.5312 -0.2013
   40MPD2    C5  625   3.832   4.014   1.048  0.1700  0.2561  0.8109
   40MPD2     H  626   3.949   4.373   1.102 -1.7210  1.1720 -4.0181
   40MPD2    H1  627   3.710   4.087   0.898  1.2551 -0.3993 -0.9292
   40MPD2    H2  628   3.960   3.952   1.196  2.7924  0.8724 -1.2978
   40MPD2    H3  629   3.803   3.911   1.027  2.0642  0.5309 -3.1327
   40MPD2     N  630   3.777   4.333   0.896  0.0671  0.6845  0.6711
   40MPD2    H5  631   3.709   4.296   0.831  0.2476 -0.6356  1.2357
   40MPD2    N1  632   4.064   4.192   1.266  0.2783 -0.1341  0.4799
   40MPD2    H7  633   4.084   4.116   1.331  0.9336 -0.9420 -0.6631
   41TMC2    C1  634   3.729   2.276  13.430  0.5993  0.0982  0.6981
   41TMC2    C2  635   3.782   2.234  13.315  0.1651 -0.5551 -1.0297
   41TMC2    C3  636   3.733   2.295  13.203  0.4024  0.0752  0.7221
   41TMC2    C4  637   3.628   2.364  13.432  0.1889  0.1149 -0.2997
   41TMC2    C5  638   3.579   2.422  13.320 -0.1646  0.8535 -0.1458
   41TMC2    C6  639   3.635   2.390  13.202  0.3513  0.4842  0.6656
   41TMC2     C  640   3.786   2.230  13.556 -0.1990 -0.0373 -0.2896
   41TMC2     O  641   3.903   2.192  13.554  0.3755 -0.3562  0.4511
   41TMC2     H  642   3.855   2.154  13.302  0.1333 -1.1389  2.2486
   41TMC2    H1  643   3.589   2.407  13.524  2.0438  1.4015 -0.0972
   41TMC2    H2  644   3.602   2.435  13.109 -0.5987 -2.8497 -0.5812
   41TMC2    C7  645   3.468   2.512  13.325 -0.4461 -0.8839 -0.0460
   41TMC2    C8  646   3.774   2.233  13.077 -0.1629  0.4387 -0.8229
   41TMC2    O1  647   3.442   2.574  13.426 -0.7119  0.4407  0.6820
   41TMC2    O2  648   3.882   2.178  13.072  0.5865  0.3394 -0.5290
   41TMC2    O5  649   3.665   2.174  13.021 -0.3770 -0.2560  0.4039
   41TMC2    H5  650   3.576   2.200  13.054 -0.6426  0.5168 -0.9329
   42MPD2     C  651   3.850   2.176  13.853  0.1595 -0.1948  0.0699
   42MPD2    C1  652   3.731   2.216  13.794 -0.2044 -1.0492 -0.3170
   42MPD2    C2  653   3.625   2.234  13.880  0.0924 -0.1765 -0.4986
   42MPD2    C3  654   3.632   2.212  14.016  0.0797 -0.0263 -0.1165
   42MPD2    C4  655   3.743   2.164  14.067  0.0632  0.7899  0.5365
   42MPD2    C5  656   3.856   2.151  13.989  0.2433  0.2903  0.5564
   42MPD2     H  657   3.537   2.277  13.834 -0.1956  0.3080  0.4935
   42MPD2    H1  658   3.755   2.144  14.173 -1.2981 -0.8834  0.3654
   42MPD2    H2  659   3.932   2.152  13.787  1.0811 -0.4403  1.3064
   42MPD2    H3  660   3.946   2.106  14.029 -0.7506 -3.4340 -1.3604
   42MPD2     N  661   3.517   2.214  14.101  0.0884 -0.0279  0.3297
   42MPD2    H5  662   3.533   2.173  14.193 -1.2309 -0.5307  0.3229
   42MPD2    N1  663   3.704   2.242  13.662 -0.3176  0.6575 -0.3186
   42MPD2    H7  664   3.617   2.295  13.657 -0.8998 -0.1392  1.2826
   43TMC2    C1  665   4.479   1.248   0.669  0.1947  0.6595  0.6959
   43TMC2    C2  666   4.344   1.273   0.704 -0.3682 -0.1141  0.2448
   43TMC2    C3  667   4.322   1.299   0.834 -0.4776  0.0211  0.1086
   43TMC2    C4  668   4.585   1.275   0.753 -0.5354  0.2831  0.0724
   43TMC2    C5  669   4.556   1.308   0.881  0.5752 -0.3172 -0.1644
   43TMC2    C6  670   4.422   1.318   0.927 -0.1992  0.4893  0.3531
   43TMC2     C  671   4.511   1.179   0.543 -0.0623 -0.1935 -0.6360
   43TMC2     O  672   4.619   1.122   0.529  0.2106 -0.2425  0.0852
   43TMC2     H  673   4.256   1.250   0.645 -1.4441  2.4786  0.8224
   43TMC2    H1  674   4.688   1.269   0.722 -0.7251 -1.6471 -0.2061
   43TMC2    H2  675   4.399   1.325   1.033  0.5471 -0.0066  0.5487
   43TMC2    C7  676   4.671   1.334   0.977  0.6199 -0.1010  0.3998
   43TMC2    C8  677   4.209   1.220   0.884 -0.1901 -0.8622 -0.2472
   43TMC2    O1  678   0.044   1.309   0.936 -0.2258  0.2692 -0.4220
   43TMC2    O2  679   4.161   1.122   0.823  0.5270  0.0298 -0.2148
   43TMC2    O5  680   4.136   1.299   0.966  0.1627 -0.1275 -0.0494
   43TMC2    H5  681   4.184   1.384   0.980  0.7449 -0.5424  0.4454
   44MPD2     C  682   4.532   1.233   0.036 -0.2649 -0.6177 -0.5455
   44MPD2    C1  683   4.585   1.132   0.109  0.3208  0.1896 -0.1774
   44MPD2    C2  684   4.552   1.130   0.243  0.1556  0.2807  0.1254
   44MPD2    C3  685   4.483   1.231   0.302  0.0939 -0.0754  0.6504
   44MPD2    C4  686   4.442   1.337   0.220 -0.7530  0.3329  0.0216
   44MPD2    C5  687   4.469   1.340   0.091  0.1453  0.8466 -1.4323
   44MPD2     H  688   4.593   1.042   0.292 -0.2352  0.4353  0.7323
   44MPD2    H1  689   4.382   1.409   0.275  0.1346 -0.0517  1.4733
   44MPD2    H2  690   4.552   1.245  17.675 -0.5415 -0.1051 -0.5411
   44MPD2    H3  691   4.445   1.427   0.030 -1.3354  1.8982  0.6291
   44MPD2     N  692   4.451   1.245   0.441  0.2938 -0.7971  0.3199
   44MPD2    H5  693   4.389   1.322   0.464  2.0689  0.9328 -0.7372
   44MPD2    N1  694   4.661   1.030   0.055  0.2813 -0.4897 -0.3169
   44MPD2    H7  695   4.692   0.955   0.117  0.9740 -0.2485 -0.3723
   45TMC2    C1  696   0.993   3.410   9.229 -0.3720  0.0087  0.0007
   45TMC2    C2  697   1.085   3.409   9.128 -0.3754 -0.0474  0.4500
   45TMC2    C3  698   1.197   3.480   9.143 -0.0751 -0.5003 -0.2912
   45TMC2    C4  699   1.005   3.476   9.348  0.3254  0.1728  0.7705
   45TMC2    C5  700   1.132   3.548   9.364 -0.1545 -0.4620  0.3461
   45TMC2    C6  701   1.219   3.549   9.259 -0.1448 -0.3601  0.2210
   45TMC2     C  702   0.925   3.285   9.239  0.0822 -0.1174  0.1208
   45TMC2     O  703   0.947   3.211   9.146 -0.0149  0.1163  0.0785
   45TMC2     H  704   1.060   3.363   9.033 -2.0803  0.7382  0.5217
   45TMC2    H1  705   0.945   3.477   9.438 -0.2236 -0.8846  0.4180
   45TMC2    H2  706   1.300   3.621   9.255 -0.1277 -0.2112  3.7955
   45TMC2    C7  707   1.163   3.610   9.491 -0.0319  0.0591  0.0248
   45TMC2    C8  708   1.276   3.508   9.024 -0.2686  0.2241 -0.5621
   45TMC2    O1  709   1.074   3.625   9.577  0.2003 -0.3657 -0.2077
   45TMC2    O2  710   1.258   3.443   8.920  0.0335  0.3317  0.2684
   45TMC2    O5  711   1.337   3.633   9.030  0.4191 -0.1901  1.0348
   45TMC2    H5  712   1.310   3.691   9.105 -0.3450  1.8305 -0.7986
   46MPD2     C  713   0.719   3.066   9.257 -0.0811  0.4162 -0.4225
   46MPD2    C1  714   0.727   3.169   9.347 -0.5614  0.6866  0.1784
   46MPD2    C2  715   0.636   3.173   9.452  0.1932  0.0228 -0.1288
   46MPD2    C3  716   0.536   3.082   9.463 -0.9139  0.4279  0.2542
   46MPD2    C4  717   0.522   2.987   9.367 -0.3517 -0.3799  0.7691
   46MPD2    C5  718   0.608   2.984   9.261  0.0651  0.1047  0.7865
   46MPD2     H  719   0.632   3.258   9.519  1.2143 -2.7417  3.3941
   46MPD2    H1  720   0.442   2.914   9.368  0.3616 -1.1809 -1.7630
   46MPD2    H2  721   0.783   3.066   9.169 -0.9718 -0.9895 -1.0857
   46MPD2    H3  722   0.611   2.908   9.184 -0.0956 -0.0994  0.9805
   46MPD2     N  723   0.453   3.082   9.578  0.1494  0.0130 -0.7921
   46MPD2    H5  724   0.472   3.150   9.651 -2.1130  0.5547 -0.6945
   46MPD2    N1  725   0.827   3.272   9.337 -0.2191 -0.1164 -0.3503
   46MPD2    H7  726   0.827   3.347   9.405  2.1973 -1.2534  0.8938
   47TMC2    C1  727   3.826   3.615   8.705  0.5079 -0.2027  0.1362
   47TMC2    C2  728   3.847   3.510   8.622 -0.2984 -0.4163 -0.5761
   47TMC2    C3  729   3.815   3.523   8.493 -0.3228 -0.6855  0.5651
   47TMC2    C4  730   3.769   3.731   8.656 -0.5999 -0.0243  0.4549
   47TMC2    C5  731   3.728   3.729   8.520 -0.3517 -0.1003  0.5746
   47TMC2    C6  732   3.740   3.624   8.440  0.5228 -0.5826 -0.0877
   47TMC2     C  733   3.877   3.615   8.844  0.0877  0.0281 -0.1598
   47TMC2     O  734   3.898   3.724   8.893 -0.0333  0.4074  0.7621
   47TMC2     H  735   3.911   3.434   8.664 -1.1538 -0.7208  0.1718
   47TMC2    H1  736   3.769   3.819   8.719 -2.0246  0.3742 -0.1071
   47TMC2    H2  737   3.705   3.635   8.339  0.8118 -0.1393 -0.1379
   47TMC2    C7  738   3.651   3.843   8.477  0.2374 -0.2356 -0.3855
   47TMC2    C8  739   3.838   3.419   8.395 -0.4978 -0.1818  0.2692
   47TMC2    O1  740   3.635   3.852   8.356 -0.0709 -0.1666 -0.2854
   47TMC2    O2  741   3.795   3.423   8.284 -0.1111 -0.4756  0.8058
   47TMC2    O5  742   3.873   3.310   8.470  0.3358 -0.0958  0.7449
   47TMC2    H5  743   3.888   3.335   8.563 -0.6957 -0.6928  1.0710
   48MPD2     C  744   3.931   3.537   9.131  0.8719 -0.1150 -0.1077
   48MPD2    C1  745   3.897   3.447   9.031 -0.7448 -1.3365 -0.1341
   48MPD2    C2  746   3.869   3.314   9.071  0.6369 -0.2085 -0.4434
   48MPD2    C3  747   3.906   3.273   9.198  0.0372  0.0945 -0.0841
   48MPD2    C4  748   3.947   3.363   9.289  0.3086 -1.0153 -0.6993
   48MPD2    C5  749   3.965   3.500   9.256 -0.1082 -0.1026  0.6371
   48MPD2     H  750   3.807   3.253   9.006  1.1264 -0.0583 -1.0470
   48MPD2    H1  751   3.978   3.335   9.389 -0.8800 -1.3458 -0.4162
   48MPD2    H2  752   3.943   3.642   9.105  0.6472 -0.6052 -2.1629
   48MPD2    H3  753   4.004   3.569   9.330  0.1635  0.0775  0.3283
   48MPD2     N  754   3.870   3.140   9.237  0.0173 -0.2187  0.0308
   48MPD2    H5  755   3.823   3.080   9.169 -1.1791  0.9447 -0.1849
   48MPD2    N1  756   3.870   3.487   8.897  0.2097  0.5227 -0.2241
   48MPD2    H7  757   3.838   3.409   8.840  0.2155  0.9229 -0.7725
   49TMC2    C1  758   1.677   1.850   9.798 -0.1411 -0.3598  0.2277
   49TMC2    C2  759   1.764   1.924   9.728  0.2073 -0.4603  0.3630
   49TMC2    C3  760   1.796   1.890   9.596 -0.2217  0.9427  0.5448
   49TMC2    C4  761   1.606   1.749   9.739 -0.8704 -0.2715  0.0499
   49TMC2    C5  762   1.633   1.726   9.609 -0.5604  0.9246 -0.2971
   49TMC2    C6  763   1.716   1.801   9.532 -0.1091  0.3913 -0.2531
   49TMC2     C  764   1.661   1.892   9.934 -0.1038 -0.3440  0.4491
   49TMC2     O  765   1.723   1.993   9.965 -0.3220 -0.7367 -0.3119
   49TMC2     H  766   1.826   2.000   9.774 -0.0489 -0.8048  1.2630
   49TMC2    H1  767   1.525   1.709   9.799 -2.4325  1.0170 -1.1920
   49TMC2    H2  768   1.710   1.778   9.426  0.5214 -0.1397 -0.1731
   49TMC2    C7  769   1.598   1.598   9.554  0.3156  0.8302  0.0942
   49TMC2    C8  770   1.840   1.993   9.507  0.7106 -0.3090 -0.2505
   49TMC2    O1  771   1.593   1.575   9.434  0.7840 -0.2752  0.4120
   49TMC2    O2  772   1.757   2.043   9.430  0.2920 -0.6895 -0.4796
   49TMC2    O5  773   1.941   2.051   9.565 -0.4177 -0.1333  0.3436
   49TMC2    H5  774   1.979   1.998   9.639  0.6858  0.0730 -0.0750
   50MPD2     C  775   1.535   1.969  10.188  0.1745  0.1692  0.7307
   50MPD2    C1  776   1.542   1.838  10.143 -0.0993 -0.0245 -0.0617
   50MPD2    C2  777   1.479   1.740  10.214  0.3956  0.0714 -1.0705
   50MPD2    C3  778   1.419   1.767  10.342 -0.0234  0.6163 -0.7587
   50MPD2    C4  779   1.413   1.897  10.390 -0.7349 -0.0667 -0.4087
   50MPD2    C5  780   1.472   1.993  10.311 -0.8326  0.6567  0.5118
   50MPD2     H  781   1.474   1.646  10.160  2.4868 -0.8570  0.3439
   50MPD2    H1  782   1.361   1.916  10.483 -0.3711 -1.4803  0.0765
   50MPD2    H2  783   1.586   2.050  10.137 -1.0668 -0.0914 -0.9464
   50MPD2    H3  784   1.460   2.094  10.347  0.3912  0.6714  0.9086
   50MPD2     N  785   1.349   1.665  10.416  0.2270 -0.4205 -0.0228
   50MPD2    H5  786   1.285   1.693  10.490  1.5408  1.1135  0.5247
   50MPD2    N1  787   1.588   1.805  10.012  0.1309 -0.9378  0.1255
   50MPD2    H7  788   1.581   1.706   9.990  1.2216 -0.8332 -0.6472
   51TMC2    C1  789   3.131   4.184   1.901  0.1110  0.9757  0.4891
   51TMC2    C2  790   3.263   4.161   1.928 -0.6965 -0.0154 -0.9260
   51TMC2    C3  791   3.311   4.248   2.019  1.2724  0.1274 -0.2938
   51TMC2    C4  792   3.055   4.289   1.952 -0.3064 -1.0394 -0.6723
   51TMC2    C5  793   3.117   4.374   2.032 -0.3682 -0.3673 -1.0265
   51TMC2    C6  794   3.249   4.358   2.068  0.1987  0.0199 -0.3352
   51TMC2     C  795   3.052   4.081   1.842  0.5348  0.6134  0.5927
   51TMC2     O  796   2.944   4.105   1.793 -0.1590  0.6544  0.4563
   51TMC2     H  797   3.317   4.085   1.873  0.3792 -1.7531  2.4726
   51TMC2    H1  798   2.947   4.301   1.948 -0.3128 -0.6981  0.3860
   51TMC2    H2  799   3.296   4.429   2.135  0.0129 -0.1750 -0.0003
   51TMC2    C7  800   3.047   4.491   2.083  0.8180  0.5826 -0.5943
   51TMC2    C8  801   3.451   4.234   2.070  0.5673  0.5526  0.3208
   51TMC2    O1  802   3.075   4.513   2.199 -0.6214  0.7438 -0.0817
   51TMC2    O2  803   3.509   4.327   2.127  0.2386 -0.3165 -0.5053
   51TMC2    O5  804   3.510   4.114   2.042 -0.2034 -0.7252  0.1645
   51TMC2    H5  805   3.440   4.053   2.010 -1.3627 -0.8814  2.9770
   52MPD2     C  806   3.057   3.591   1.650  0.1422 -0.0472  0.0751
   52MPD2    C1  807   2.974   3.695   1.612  0.0536 -0.2539 -0.5016
   52MPD2    C2  808   2.989   3.824   1.666  0.3889  0.4978 -0.4381
   52MPD2    C3  809   3.086   3.838   1.771  0.4319  0.2582  0.0396
   52MPD2    C4  810   3.162   3.728   1.809  0.5084  0.2427 -0.1837
   52MPD2    C5  811   3.155   3.615   1.745  0.4440  0.5494 -0.4874
   52MPD2     H  812   2.914   3.897   1.639  1.1911  0.7104 -2.1234
   52MPD2    H1  813   3.231   3.731   1.892  0.2353 -1.2908  0.1044
   52MPD2    H2  814   3.037   3.488   1.625 -1.1463  0.0874  0.5435
   52MPD2    H3  815   3.214   3.530   1.779 -0.5092  0.0901  0.0044
   52MPD2     N  816   3.121   3.961   1.841 -0.6862 -0.0085  0.1620
   52MPD2    H5  817   3.200   3.960   1.904 -0.3891  0.8682 -0.1910
   52MPD2    N1  818   2.879   3.678   1.508 -0.3224  0.0345 -0.2651
   52MPD2    H7  819   2.803   3.745   1.502 -0.2271  0.2185  0.5144
   53TMC2    C1  820   1.406   3.015  10.881  1.0749 -0.1829  0.1453
   53TMC2    C2  821   1.457   2.946  10.779 -0.1630  0.2294 -0.4851
   53TMC2    C3  822   1.593   2.935  10.764  0.2903  0.0211 -0.2643
   53TMC2    C4  823   1.486   3.065  10.980 -0.0836 -0.3877 -0.0876
   53TMC2    C5  824   1.618   3.031  10.977 -0.3447  0.3691 -0.1958
   53TMC2    C6  825   1.682   2.970  10.866  0.1993  0.7068 -0.1309
   53TMC2     C  826   1.276   2.971  10.924  0.4850  0.7869 -0.0054
   53TMC2     O  827   1.190   2.967  10.837 -0.0780  0.4695  0.3665
   53TMC2     H  828   1.384   2.902  10.712  0.3310  1.3197 -1.7385
   53TMC2    H1  829   1.445   3.125  11.061 -0.9339  0.1740 -0.9376
   53TMC2    H2  830   1.785   2.992  10.844  0.3752 -0.7784 -0.7898
   53TMC2    C7  831   1.645   2.988  11.111 -0.1919  0.0359  0.2396
   53TMC2    C8  832   1.645   2.880  10.639 -0.8001 -0.3344  0.0913
   53TMC2    O1  833   1.538   2.967  11.174 -0.9230  0.8302 -0.0484
   53TMC2    O2  834   1.762   2.857  10.625 -0.1582 -0.1700 -0.8689
   53TMC2    O5  835   1.557   2.917  10.542 -0.3456 -0.2236  0.3002
   53TMC2    H5  836   1.478   2.964  10.577 -0.3432  0.1178 -0.1537
   54MPD2     C  837   1.045   2.863  11.082 -0.6653  0.4487  0.3341
   54MPD2    C1  838   1.176   2.866  11.126  0.0184  0.3382  0.9668
   54MPD2    C2  839   1.204   2.812  11.257 -0.2584 -0.3223  0.2998
   54MPD2    C3  840   1.093   2.759  11.324  0.2069 -0.6373  0.2795
   54MPD2    C4  841   0.970   2.738  11.265 -0.2480  0.9621  0.5076
   54MPD2    C5  842   0.947   2.783  11.139  0.2463 -0.1101 -0.6483
   54MPD2     H  843   1.303   2.819  11.298  0.3638  0.3833 -1.3101
   54MPD2    H1  844   0.899   2.684  11.326  0.0860  0.7771  0.7306
   54MPD2    H2  845   1.022   2.909  10.986 -2.4982 -0.3976  0.3716
   54MPD2    H3  846   0.853   2.775  11.085 -0.7235  0.5075  0.9552
   54MPD2     N  847   1.108   2.725  11.460  0.5680 -0.1180  0.0119
   54MPD2    H5  848   1.024   2.691  11.505  0.3205 -0.3936 -0.6601
   54MPD2    N1  849   1.282   2.928  11.054  0.2364  0.0370 -0.1510
   54MPD2    H7  850   1.377   2.937  11.089  0.0532  1.3318  0.0461
   55TMC2    C1  851   2.989   0.959   0.030 -0.4605 -0.3763 -0.3414
   55TMC2    C2  852   2.993   0.950  17.637 -0.2015 -0.2945 -0.2873
   55TMC2    C3  853   2.969   0.836  17.574  0.1301 -0.0512 -1.1116
   55TMC2    C4  854   2.968   0.845   0.100  0.3832  0.0783 -0.4093
   55TMC2    C5  855   2.963   0.721   0.033 -0.1931 -0.6451 -0.2171
   55TMC2    C6  856   2.963   0.716  17.639 -0.2615  0.3766 -0.5140
   55TMC2     C  857   2.969   1.090   0.090 -0.3849 -0.2887 -0.5725
   55TMC2     O  858   2.899   1.089   0.190 -0.4452 -0.1774  0.5789
   55TMC2     H  859   3.006   1.039  17.576  0.9907  0.2813  0.8045
   55TMC2    H1  860   2.978   0.844   0.208 -0.0819 -2.5992 -0.3960
   55TMC2    H2  861   2.985   0.621  17.591 -1.0388 -0.5575  0.9625
   55TMC2    C7  862   2.922   0.603   0.106  0.8750 -0.4570  0.2908
   55TMC2    C8  863   2.988   0.845  17.432 -0.0550 -0.4085 -0.1831
   55TMC2    O1  864   2.962   0.495   0.061 -0.0725 -0.1209  0.0322
   55TMC2    O2  865   3.051   0.931  17.375  0.7579 -0.4859  0.1786
   55TMC2    O5  866   2.902   0.758  17.370  0.5986 -0.4934  0.1141
   55TMC2    H5  867   2.857   0.693  17.429  0.1843  1.3358  1.8071
   56MPD2     C  868   3.007   1.435  17.687 -0.3826  0.3057 -0.5471
   56MPD2    C1  869   2.970   1.340   0.038  0.6341  0.4245  0.3912
   56MPD2    C2  870   2.890   1.384   0.141  0.9613 -0.0441  0.4826
   56MPD2    C3  871   2.846   1.515   0.151  0.0828 -0.3580 -0.0469
   56MPD2    C4  872   2.887   1.610   0.062 -0.4475 -0.2332 -0.6890
   56MPD2    C5  873   2.969   1.568  17.702 -0.2786 -0.6856 -0.0315
   56MPD2     H  874   2.845   1.314   0.211  1.3036 -0.7112  0.0340
   56MPD2    H1  875   2.856   1.714   0.062  1.7571  0.4197  0.1789
   56MPD2    H2  876   3.060   1.393  17.603  0.8957 -0.1860  0.5031
   56MPD2    H3  877   3.008   1.631  17.623 -0.4688 -0.5302  0.0003
   56MPD2     N  878   2.747   1.543   0.251 -0.0055  0.3240 -0.3173
   56MPD2    H5  879   2.733   1.478   0.328 -1.1399  1.1360  0.1604
   56MPD2    N1  880   3.007   1.202   0.012 -0.3366  0.2255 -0.0917
   56MPD2    H7  881   3.065   1.191  17.674  1.8188 -1.2861  1.6190
   57TMC2    C1  882   1.502   0.888  13.199 -0.5917  0.0102 -0.5572
   57TMC2    C2  883   1.502   0.751  13.193  0.6088  0.3374 -0.7913
   57TMC2    C3  884   1.623   0.686  13.204  0.2547 -0.6568 -0.1445
   57TMC2    C4  885   1.620   0.952  13.205  0.5967 -0.8079  0.0370
   57TMC2    C5  886   1.732   0.878  13.222 -0.8101  0.8140 -0.4464
   57TMC2    C6  887   1.744   0.742  13.216  0.2076 -0.4527  0.0669
   57TMC2     C  888   1.386   0.961  13.191 -0.3192 -0.6762  0.0305
   57TMC2     O  889   1.388   1.080  13.221 -0.3312 -0.1581 -0.4999
   57TMC2     H  890   1.416   0.687  13.182  0.4484  0.7653 -2.0479
   57TMC2    H1  891   1.622   1.060  13.209 -2.4026 -0.7421 -0.2353
   57TMC2    H2  892   1.834   0.682  13.221  1.5126  1.7402  2.7779
   57TMC2    C7  893   1.848   0.949  13.279 -0.0835 -0.2123  0.4237
   57TMC2    C8  894   1.620   0.551  13.239 -0.1234  0.0877  0.6888
   57TMC2    O1  895   1.835   1.071  13.280 -0.2063  0.3557  0.5619
   57TMC2    O2  896   1.617   0.508  13.360  0.3281  0.1779  0.3229
   57TMC2    O5  897   1.560   0.496  13.133 -0.5290  0.1460  0.2128
   57TMC2    H5  898   1.556   0.544  13.048  1.5338 -0.5106 -0.2801
   58MPD2     C  899   0.868   0.989  13.196  0.3128  0.1127  0.2937
   58MPD2    C1  900   0.968   1.077  13.234 -0.1391  0.1438  0.0035
   58MPD2    C2  901   1.098   1.042  13.221 -0.2829  0.3352 -0.2204
   58MPD2    C3  902   1.136   0.919  13.169 -0.3890  0.0085 -0.4076
   58MPD2    C4  903   1.038   0.835  13.131 -0.2374  0.0213  0.3900
   58MPD2    C5  904   0.909   0.868  13.154 -0.1197  0.1332 -0.6856
   58MPD2     H  905   1.178   1.113  13.239 -0.5487  0.7791 -0.7617
   58MPD2    H1  906   1.052   0.738  13.084 -1.3919  0.4364 -0.8383
   58MPD2    H2  907   0.762   1.010  13.193  0.4344  0.5288 -1.0301
   58MPD2    H3  908   0.823   0.813  13.118  0.2461  0.2814 -1.7751
   58MPD2     N  909   1.273   0.881  13.154  0.5122  0.1281  0.4227
   58MPD2    H5  910   1.300   0.786  13.128 -0.1461  0.1203 -0.2224
   58MPD2    N1  911   0.937   1.200  13.291 -0.0743  0.6138 -0.1122
   58MPD2    H7  912   1.021   1.247  13.323 -0.3751  2.0582 -1.4570
   59TMC2    C1  913   4.658   1.570  12.398  0.3557 -0.1507 -0.0026
   59TMC2    C2  914   4.559   1.596  12.484  0.1877 -0.2101  0.5359
   59TMC2    C3  915   4.436   1.605  12.436  0.1270  0.3274  0.0885
   59TMC2    C4  916   4.632   1.563  12.262  0.3792  0.4428 -0.1837
   59TMC2    C5  917   4.500   1.561  12.216  0.8849  0.0326 -0.4633
   59TMC2    C6  918   4.402   1.583  12.307 -0.2666  0.7266  0.4214
   59TMC2     C  919   0.061   1.583  12.429  0.1120 -0.4691  0.5153
   59TMC2     O  920   0.138   1.572  12.334  0.3238 -0.4669 -0.0115
   59TMC2     H  921   4.576   1.610  12.590  1.4143 -0.6358  0.3930
   59TMC2    H1  922   4.704   1.537  12.186  0.4716  1.4471 -0.4522
   59TMC2    H2  923   4.298   1.597  12.281 -0.3155 -0.2064  0.1065
   59TMC2    C7  924   4.469   1.524  12.079 -0.3209  0.1565  0.3213
   59TMC2    C8  925   4.327   1.605  12.531  0.3426 -0.3325  0.5971
   59TMC2    O1  926   4.552   1.454  12.018 -0.1009  0.0092 -0.2679
   59TMC2    O2  927   4.223   1.547  12.504  0.3098 -0.6443 -0.3252
   59TMC2    O5  928   4.347   1.686  12.641 -0.3191  0.6418 -0.7025
   59TMC2    H5  929   4.429   1.738  12.652 -1.1601  1.7363  0.3518
   60MPD2     C  930   0.327   1.639  12.543  0.2387 -0.1220  0.4688
   60MPD2    C1  931   0.222   1.599  12.620  0.1698  0.0491 -0.2773
   60MPD2    C2  932   0.235   1.615  12.761  0.5656 -0.6365 -0.0645
   60MPD2    C3  933   0.354   1.659  12.814 -0.2794  0.0965  0.9686
   60MPD2    C4  934   0.457   1.696  12.737 -0.1923 -0.4384  0.1882
   60MPD2    C5  935   0.445   1.685  12.599  0.2475  0.0288 -0.9818
   60MPD2     H  936   0.156   1.593  12.833  0.7949 -0.8081  0.1347
   60MPD2    H1  937   0.553   1.730  12.774 -0.4166  1.9613 -1.3678
   60MPD2    H2  938   0.319   1.625  12.435  1.3456 -1.8710  0.6258
   60MPD2    H3  939   0.538   1.716  12.551  1.5284 -1.3597  0.6153
   60MPD2     N  940   0.369   1.670  12.954 -0.2125  0.5321  0.2667
   60MPD2    H5  941   0.463   1.699  12.983 -0.0360 -1.6067  1.7915
   60MPD2    N1  942   0.089   1.586  12.570  0.6901  0.0862  0.1955
   60MPD2    H7  943   0.018   1.586  12.642  0.4672 -0.2838 -0.0267
   61TMC2    C1  944   3.431   3.314  15.914 -0.5576 -0.3935  0.0555
   61TMC2    C2  945   3.439   3.315  16.057  0.3185  1.1627  0.3243
   61TMC2    C3  946   3.383   3.423  16.121  0.0569  0.4162  0.3972
   61TMC2    C4  947   3.380   3.419  15.835  0.6295 -0.4218  0.0662
   61TMC2    C5  948   3.323   3.522  15.911  0.5248 -0.3031  0.2192
   61TMC2    C6  949   3.323   3.530  16.054 -0.0964  0.4173 -0.4629
   61TMC2     C  950   3.507   3.208  15.846  0.8858 -0.2792  0.2595
   61TMC2     O  951   3.563   3.124  15.914 -0.5783 -0.1972  0.0872
   61TMC2     H  952   3.483   3.238  16.119 -1.1045 -0.2267 -0.4070
   61TMC2    H1  953   3.384   3.421  15.727 -0.2734 -0.1805  0.0366
   61TMC2    H2  954   3.284   3.619  16.103 -1.8722 -0.1871 -0.7928
   61TMC2    C7  955   3.255   3.627  15.848  0.9885 -0.3041  0.3902
   61TMC2    C8  956   3.459   3.459  16.234 -0.4312 -0.1693 -0.8971
   61TMC2    O1  957   3.235   3.732  15.917 -0.1995 -0.2765 -0.0210
   61TMC2    O2  958   3.576   3.419  16.245  0.9956  0.3931  0.2439
   61TMC2    O5  959   3.364   3.465  16.332 -0.1852  0.0934  0.4791
   61TMC2    H5  960   3.272   3.495  16.312 -0.2169 -0.6957 -0.5865
   62MPD2     C  961   3.611   2.987  15.655  0.6952  0.5162  0.5828
   62MPD2    C1  962   3.560   3.110  15.618  0.0423  0.6468  0.0464
   62MPD2    C2  963   3.563   3.142  15.484  0.1949 -0.5829  0.2680
   62MPD2    C3  964   3.614   3.054  15.386 -0.1794 -0.6321  0.1244
   62MPD2    C4  965   3.646   2.924  15.428 -0.0239 -0.5747  0.0091
   62MPD2    C5  966   3.650   2.898  15.562  0.5985 -0.7083  0.1129
   62MPD2     H  967   3.513   3.230  15.447 -1.1546  0.0834  3.6809
   62MPD2    H1  968   3.686   2.852  15.357 -0.2567  0.6086 -1.3400
   62MPD2    H2  969   3.612   2.958  15.759 -1.8741 -2.6609 -0.2788
   62MPD2    H3  970   3.692   2.802  15.587 -1.2461 -1.5041  0.1579
   62MPD2     N  971   3.614   3.095  15.249 -0.4394  0.0884 -0.4088
   62MPD2    H5  972   3.583   3.190  15.232  4.1491  1.7337  0.3833
   62MPD2    N1  973   3.498   3.205  15.705  0.6692  0.2770  0.1934
   62MPD2    H7  974   3.441   3.279  15.666  0.8581  1.4002  2.0641
   63TMC2    C1  975   3.424   2.888  10.066 -0.4386 -0.1912  0.3799
   63TMC2    C2  976   3.429   2.900  10.208 -0.2524  0.2451 -0.2677
   63TMC2    C3  977   3.443   3.024  10.269 -0.1515 -0.3811  0.0636
   63TMC2    C4  978   3.430   3.006   9.992  0.5837 -0.4719  0.4204
   63TMC2    C5  979   3.459   3.122  10.059  0.5529 -0.2542 -0.0104
   63TMC2    C6  980   3.454   3.142  10.198  0.0246 -0.2644  0.1704
   63TMC2     C  981   3.359   2.768  10.013 -0.2152  0.0031  0.9964
   63TMC2     O  982   3.325   2.686  10.094 -0.0480 -0.6751 -0.1750
   63TMC2     H  983   3.419   2.812  10.271 -2.2374 -0.6406 -1.8152
   63TMC2    H1  984   3.448   2.989   9.886 -1.9667  2.8274 -0.5055
   63TMC2    H2  985   3.474   3.237  10.248  2.4270  0.4386 -2.1550
   63TMC2    C7  986   3.491   3.239   9.979  0.0405  0.5494 -0.1933
   63TMC2    C8  987   3.430   3.024  10.412 -0.4600 -0.6958  0.6459
   63TMC2    O1  988   3.458   3.234   9.859  0.2013  0.6583  0.1520
   63TMC2    O2  989   3.452   2.929  10.488 -0.1106 -0.4074  0.4534
   63TMC2    O5  990   3.372   3.141  10.447 -0.4414  0.2564 -0.1702
   63TMC2    H5  991   3.319   3.182  10.375 -2.7217 -1.6487  0.4399
   64MPD2     C  992   3.137   2.486   9.656 -0.4765  0.4855  0.0987
   64MPD2    C1  993   3.191   2.444   9.781  0.0645 -0.0373  0.0528
   64MPD2    C2  994   3.244   2.545   9.860  0.5095  0.3946  0.5716
   64MPD2    C3  995   3.266   2.676   9.807 -0.2539 -0.1206 -0.3936
   64MPD2    C4  996   3.210   2.712   9.690  1.1070  0.0290 -0.6957
   64MPD2    C5  997   3.152   2.618   9.608 -0.0776  0.0652  0.0736
   64MPD2     H  998   3.295   2.516   9.951  1.6520 -2.5827 -1.0215
   64MPD2    H1  999   3.234   2.812   9.657 -0.6504  1.3429  2.0130
   64MPD2    H2 1000   3.092   2.414   9.589  0.1890 -0.5185  0.7339
   64MPD2    H3 1001   3.126   2.644   9.506 -1.0076  0.2595  0.3628
   64MPD2     N 1002   3.326   2.774   9.879 -0.1289  0.7267  0.0738
   64MPD2    H5 1003   3.366   2.848   9.822 -1.0645  0.4888 -0.8836
   64MPD2    N1 1004   3.199   2.312   9.823 -0.2188  0.3319  0.4276
   64MPD2    H7 1005   3.254   2.279   9.901 -0.5290 -1.1912  0.0023
   65TMC2    C1 1006   3.990   2.984  15.616 -0.0831 -0.1132  0.0370
   65TMC2    C2 1007   4.066   2.940  15.510 -0.3487  0.1347  0.5317
   65TMC2    C3 1008   4.069   3.019  15.399 -0.0599  0.0344  0.1803
   65TMC2    C4 1009   3.926   3.110  15.610  0.1235 -0.3663  0.3895
   65TMC2    C5 1010   3.924   3.177  15.488 -0.3272 -0.2480 -0.1060
   65TMC2    C6 1011   3.989   3.128  15.382  0.2255  0.7129  0.6221
   65TMC2     C 1012   3.953   2.896  15.720  0.5742  0.1927  0.3908
   65TMC2     O 1013   3.906   2.951  15.821 -0.2085 -0.1996  0.2522
   65TMC2     H 1014   4.137   2.858  15.517  0.3045  0.5168 -1.7711
   65TMC2    H1 1015   3.874   3.147  15.698  1.6058  1.9886  0.2490
   65TMC2    H2 1016   3.985   3.183  15.289 -2.9041  0.4941  0.6436
   65TMC2    C7 1017   3.850   3.298  15.471  0.0974  0.3904 -0.1351
   65TMC2    C8 1018   4.173   2.977  15.303 -0.8401 -0.1624  0.2849
   65TMC2    O1 1019   3.833   3.347  15.361  0.5279 -0.0254 -0.3493
   65TMC2    O2 1020   4.219   2.863  15.306 -0.0229  0.5469 -0.3425
   65TMC2    O5 1021   4.249   3.085  15.282 -0.2247  0.0567  0.0047
   65TMC2    H5 1022   4.217   3.169  15.320 -0.0628 -0.2082  0.7284
   66MPD2     C 1023   3.862   2.661  15.894 -0.8664  0.0014 -1.1144
   66MPD2    C1 1024   3.913   2.650  15.767  0.8285  0.3550 -0.1810
   66MPD2    C2 1025   3.902   2.531  15.703  0.5853  0.2234  0.1154
   66MPD2    C3 1026   3.876   2.414  15.771 -0.4345  0.4636  0.3699
   66MPD2    C4 1027   3.843   2.432  15.905 -0.2157 -0.2680 -0.0510
   66MPD2    C5 1028   3.833   2.554  15.964  0.3259 -0.1739 -0.0414
   66MPD2     H 1029   3.909   2.526  15.595 -0.3113  1.4018  0.0069
   66MPD2    H1 1030   3.831   2.342  15.964  4.6066 -1.3084 -0.6892
   66MPD2    H2 1031   3.874   2.757  15.945  0.4354 -0.7468  0.0042
   66MPD2    H3 1032   3.810   2.553  16.070 -0.0122 -0.7988 -0.1196
   66MPD2     N 1033   3.872   2.288  15.718 -0.1925 -0.4747  0.2032
   66MPD2    H5 1034   3.861   2.205  15.775  1.8986 -0.1404  1.1001
   66MPD2    N1 1035   3.952   2.764  15.682 -0.1192  0.0603  0.6492
   66MPD2    H7 1036   3.972   2.749  15.584  1.1835  2.9646  0.4856
   67TMC2    C1 1037   4.440   1.970  14.403 -0.2332 -0.9934  1.1398
   67TMC2    C2 1038   4.387   2.096  14.377 -0.1877  0.1955 -0.2933
   67TMC2    C3 1039   4.394   2.192  14.481 -0.5102 -0.8879  0.3146
   67TMC2    C4 1040   4.521   1.950  14.513 -0.1622 -0.0140 -0.1384
   67TMC2    C5 1041   4.524   2.039  14.616  0.3090  0.8591  0.2975
   67TMC2    C6 1042   4.462   2.165  14.603 -0.0901  0.2261  0.1045
   67TMC2     C 1043   4.414   1.867  14.300  0.6918  0.6356 -0.6127
   67TMC2     O 1044   4.505   1.791  14.273  0.0177 -0.5024  0.1946
   67TMC2     H 1045   4.328   2.123  14.290  0.6627  2.6974 -0.0954
   67TMC2    H1 1046   4.555   1.849  14.531 -2.2029 -0.5857  0.4525
   67TMC2    H2 1047   4.480   2.239  14.680 -0.8738  0.8031 -0.2688
   67TMC2    C7 1048   4.605   2.009  14.736 -0.1048 -0.6871  0.3249
   67TMC2    C8 1049   4.339   2.329  14.456 -0.0802 -0.2889 -0.7725
   67TMC2    O1 1050   4.685   1.912  14.732 -0.3155 -0.0953 -0.2033
   67TMC2    O2 1051   4.276   2.335  14.351 -1.1171  0.2572 -0.3334
   67TMC2    O5 1052   4.296   2.386  14.570  0.6088 -0.1225 -0.0556
   67TMC2    H5 1053   4.327   2.333  14.647 -0.2028  1.0760  1.1052
   68MPD2     C 1054   4.302   1.718  14.063 -0.0540 -0.1854 -0.2779
   68MPD2    C1 1055   4.223   1.804  14.145 -0.3394 -0.6272 -0.4659
   68MPD2    C2 1056   4.084   1.817  14.118 -0.2669 -0.3184 -0.8810
   68MPD2    C3 1057   4.031   1.750  14.013 -0.2894  0.0819 -0.1729
   68MPD2    C4 1058   4.108   1.663  13.938  0.1416  0.1244  0.0466
   68MPD2    C5 1059   4.245   1.649  13.958 -0.1510  0.0845 -0.5900
   68MPD2     H 1060   4.025   1.886  14.178 -1.2484 -0.4505 -1.6951
   68MPD2    H1 1061   4.069   1.612  13.851 -1.7493 -0.0623  1.0090
   68MPD2    H2 1062   4.409   1.717  14.076 -0.1440 -0.7789  0.3666
   68MPD2    H3 1063   4.304   1.580  13.899 -0.0224 -1.3126  1.1793
   68MPD2     N 1064   3.890   1.755  13.974 -0.4626 -0.6814 -0.3430
   68MPD2    H5 1065   3.873   1.717  13.882  1.9094 -2.3103 -0.1310
   68MPD2    N1 1066   4.278   1.878  14.255  0.2171 -0.3352 -0.3776
   68MPD2    H7 1067   4.210   1.943  14.294 -0.0378 -0.4159 -0.6926
   69TMC2    C1 1068   1.817   3.307  12.107 -0.0398 -0.2955 -0.3414
   69TMC2    C2 1069   1.789   3.439  12.128  0.8368 -0.5997 -0.6903
   69TMC2    C3 1070   1.889   3.537  12.105 -0.0513 -0.7500 -0.0131
   69TMC2    C4 1071   1.947   3.269  12.076 -0.3133  0.0092  0.4664
   69TMC2    C5 1072   2.044   3.367  12.063 -0.3420  0.3162  0.6371
   69TMC2    C6 1073   2.019   3.506  12.065 -0.1736 -0.1200 -0.2788
   69TMC2     C 1074   1.734   3.200  12.146  0.5604 -0.1174 -0.0348
   69TMC2     O 1075   1.778   3.099  12.202  0.2938 -0.5439 -0.3308
   69TMC2     H 1076   1.690   3.469  12.162  1.2500  2.4388 -2.2314
   69TMC2    H1 1077   1.970   3.163  12.075  1.2766  0.3585 -0.1146
   69TMC2    H2 1078   2.082   3.587  12.030 -1.3441  0.4857 -0.9830
   69TMC2    C7 1079   2.174   3.330  12.003  0.2325 -0.3943 -0.7247
   69TMC2    C8 1080   1.858   3.666  12.146 -0.4736  0.5439 -0.2920
   69TMC2    O1 1081   2.171   3.222  11.947  0.0255  0.2252  0.3614
   69TMC2    O2 1082   1.780   3.685  12.239  0.0159  1.0151  0.3199
   69TMC2    O5 1083   1.843   3.725  12.026  0.0972 -0.0394 -0.0223
   69TMC2    H5 1084   1.862   3.677  11.943  1.8473  0.2959  0.2013
   70MPD2     C 1085   1.380   3.218  12.184  0.2185  0.1764 -0.5094
   70MPD2    C1 1086   1.500   3.162  12.203  0.1636 -0.1868  0.5235
   70MPD2    C2 1087   1.501   3.039  12.266 -0.2167  0.0682  0.8071
   70MPD2    C3 1088   1.387   2.982  12.319  0.1619  0.2361 -0.6717
   70MPD2    C4 1089   1.267   3.046  12.299 -0.6001  0.8344  0.0697
   70MPD2    C5 1090   1.261   3.164  12.224  0.3198 -0.9383 -0.8353
   70MPD2     H 1091   1.597   2.990  12.273  0.8526  1.9433 -0.8269
   70MPD2    H1 1092   1.175   3.020  12.351 -2.1408  0.7475 -2.6912
   70MPD2    H2 1093   1.374   3.317  12.141  1.5495 -0.1372 -1.4058
   70MPD2    H3 1094   1.170   3.216  12.198 -0.5673 -2.7794 -1.4069
   70MPD2     N 1095   1.391   2.860  12.397  0.0979  1.3957 -0.2036
   70MPD2    H5 1096   1.297   2.830  12.420 -0.7842  3.3701 -1.3423
   70MPD2    N1 1097   1.604   3.229  12.136 -0.9179 -0.6354 -0.4248
   70MPD2    H7 1098   1.578   3.310  12.080 -0.4523 -1.7624 -2.2646
   71TMC2    C1 1099   4.231   3.689   1.569  0.0417 -0.4208 -0.2070
   71TMC2    C2 1100   4.338   3.636   1.640 -0.2056  0.7507 -0.4715
   71TMC2    C3 1101   4.306   3.543   1.737 -0.1477 -0.5991  0.1947
   71TMC2    C4 1102   4.107   3.641   1.585 -0.5145 -0.3119 -0.2381
   71TMC2    C5 1103   4.081   3.542   1.668  0.3029  1.0709  0.4415
   71TMC2    C6 1104   4.177   3.493   1.749  0.5274  0.2114  0.1385
   71TMC2     C 1105   4.241   3.808   1.480 -0.3002  0.2713 -0.0351
   71TMC2     O 1106   4.145   3.856   1.425  0.1181 -0.4489 -0.2494
   71TMC2     H 1107   4.441   3.664   1.625  0.2516 -0.2226  0.8746
   71TMC2    H1 1108   4.037   3.682   1.513 -1.8215 -1.1924  0.5453
   71TMC2    H2 1109   4.154   3.413   1.819  1.9547 -0.1493  0.1972
   71TMC2    C7 1110   3.961   3.474   1.657  0.0699 -0.1032 -0.5287
   71TMC2    C8 1111   4.404   3.447   1.762 -1.0614  0.4814 -0.3327
   71TMC2    O1 1112   3.959   3.360   1.703  0.0008 -0.3976 -0.1874
   71TMC2    O2 1113   4.480   3.419   1.670  0.4337 -0.2567  0.6047
   71TMC2    O5 1114   4.379   3.384   1.878  0.0696 -0.7137 -0.9133
   71TMC2    H5 1115   4.313   3.433   1.932 -1.2936 -3.0524 -0.4953
   72MPD2     C 1116   4.505   4.112   1.161 -0.5377 -0.2047  0.3478
   72MPD2    C1 1117   4.379   4.063   1.150  0.4443  0.0081  0.7436
   72MPD2    C2 1118   4.336   3.970   1.247  0.1208 -0.3760  0.1374
   72MPD2    C3 1119   4.414   3.932   1.357 -0.4695  0.3296  0.0854
   72MPD2    C4 1120   4.541   3.983   1.357 -0.4468 -0.0386  0.2331
   72MPD2    C5 1121   4.585   4.074   1.266  0.8099 -0.5852  0.0814
   72MPD2     H 1122   4.234   3.936   1.232  0.0450 -0.2459  0.3697
   72MPD2    H1 1123   4.610   3.957   1.436  1.8081 -2.6461 -2.6543
   72MPD2    H2 1124   4.565   4.157   1.082 -1.9403 -0.8347 -1.0602
   72MPD2    H3 1125   4.686   4.112   1.276  0.2834  0.6771  0.5940
   72MPD2     N 1126   4.374   3.840   1.454 -0.0590  0.2286  0.2078
   72MPD2    H5 1127   4.452   3.807   1.508  0.3970 -0.5733 -0.9512
   72MPD2    N1 1128   4.291   4.096   1.036  0.0942  0.1665 -0.3556
   72MPD2    H7 1129   4.202   4.048   1.029 -0.1736  0.7401 -0.9135
   73TMC2    C1 1130   3.340   1.030  13.859 -0.1167  0.3866 -0.0495
   73TMC2    C2 1131   3.308   1.122  13.953  0.2683  0.2966 -0.1298
   73TMC2    C3 1132   3.317   1.086  14.087 -0.6954  0.5571  0.1565
   73TMC2    C4 1133   3.370   0.903  13.892  0.1067 -0.2797 -0.2830
   73TMC2    C5 1134   3.384   0.867  14.024  0.7385 -0.1291  0.9114
   73TMC2    C6 1135   3.356   0.955  14.123  0.2531  0.2717 -0.6916
   73TMC2     C 1136   3.426   1.075  13.754  0.0030 -0.3394  0.2947
   73TMC2     O 1137   3.519   1.000  13.729 -0.5424  0.0126 -0.8165
   73TMC2     H 1138   3.285   1.226  13.934  0.2182  0.5750  1.4792
   73TMC2    H1 1139   3.392   0.827  13.818 -1.1022 -1.2041  0.3139
   73TMC2    H2 1140   3.392   0.925  14.220  1.4387  4.3724  0.1292
   73TMC2    C7 1141   3.507   0.793  14.040 -0.2722  1.0524  0.3736
   73TMC2    C8 1142   3.282   1.187  14.182  0.3201 -0.9605 -0.3598
   73TMC2    O1 1143   3.529   0.707  14.123  0.1762  0.2818  0.0246
   73TMC2    O2 1144   3.294   1.307  14.152  0.2352  0.1824 -0.1104
   73TMC2    O5 1145   3.293   1.131  14.312  0.0614  0.2143 -0.6525
   73TMC2    H5 1146   3.252   1.042  14.302  0.3081  0.2073 -1.6293
   74MPD2     C 1147   3.615   1.406  13.430  0.2092 -0.0585  0.3324
   74MPD2    C1 1148   3.676   1.299  13.492 -0.2920 -0.2616  0.6044
   74MPD2    C2 1149   3.603   1.230  13.586 -0.3293 -0.2211 -0.2807
   74MPD2    C3 1150   3.471   1.269  13.615 -0.4965 -0.2258 -0.3162
   74MPD2    C4 1151   3.413   1.377  13.545 -0.0186 -0.5672  0.7588
   74MPD2    C5 1152   3.483   1.450  13.453 -0.8559 -0.3302 -0.7747
   74MPD2     H 1153   3.643   1.138  13.628 -0.1734  0.0373  0.1380
   74MPD2    H1 1154   3.312   1.410  13.567  0.3616  1.9660 -1.1833
   74MPD2    H2 1155   3.675   1.469  13.366  0.9533  0.7780  1.8392
   74MPD2    H3 1156   3.449   1.542  13.406 -1.2963 -0.5799 -0.9425
   74MPD2     N 1157   3.386   1.199  13.700  0.5499 -0.0217  0.1635
   74MPD2    H5 1158   3.295   1.235  13.724  1.1345  0.4206  1.7266
   74MPD2    N1 1159   3.813   1.266  13.468 -0.5245 -0.5945 -0.1034
   74MPD2    H7 1160   3.866   1.319  13.399  1.3459 -0.4857  1.4223
   75TMC2    C1 1161   3.665   1.832  13.986  0.8510  0.0331 -0.0328
   75TMC2    C2 1162   3.554   1.842  14.057  0.1090 -0.1943 -0.6448
   75TMC2    C3 1163   3.438   1.886  13.993 -0.8727  0.7496 -0.1077
   75TMC2    C4 1164   3.664   1.862  13.853 -0.4839  0.0104  0.2738
   75TMC2    C5 1165   3.547   1.900  13.791 -0.2334 -0.1044 -0.8811
   75TMC2    C6 1166   3.437   1.920  13.857 -0.2044  0.2266  0.1656
   75TMC2     C 1167   3.794   1.808  14.054 -0.5703 -0.5320 -0.1584
   75TMC2     O 1168   3.786   1.829  14.176 -0.4236 -0.1215 -0.1377
   75TMC2     H 1169   3.563   1.804  14.158  0.5383  0.8369 -0.2905
   75TMC2    H1 1170   3.755   1.840  13.799  0.1818  1.9600  0.5861
   75TMC2    H2 1171   3.347   1.946  13.802 -0.4434  1.0587  0.9400
   75TMC2    C7 1172   3.543   1.918  13.647  0.0304  0.0219 -0.3529
   75TMC2    C8 1173   3.311   1.913  14.051  1.1365  0.3015 -0.1034
   75TMC2    O1 1174   3.451   1.982  13.600 -0.4292  0.0765 -0.5850
   75TMC2    O2 1175   3.226   1.984  14.005  0.4258  0.1489  0.5021
   75TMC2    O5 1176   3.317   1.896  14.181 -0.0306  0.1214  0.5942
   75TMC2    H5 1177   3.375   1.822  14.209  0.9261  0.0878 -1.4594
   76TMC2    C1 1178   2.762   2.198  11.577 -0.0685  0.1561 -0.1191
   76TMC2    C2 1179   2.708   2.102  11.493  0.0182  0.3076  0.4938
   76TMC2    C3 1180   2.660   1.997  11.553  0.5159  0.2895 -0.7374
   76TMC2    C4 1181   2.773   2.186  11.714 -0.3552 -0.1204  0.3997
   76TMC2    C5 1182   2.715   2.073  11.765  0.5099  0.6874  0.4213
   76TMC2    C6 1183   2.659   1.982  11.687 -0.4943 -0.2456  0.0278
   76TMC2     C 1184   2.828   2.306  11.514 -0.3751  0.5869  0.0480
   76TMC2     O 1185   2.768   2.353  11.416  0.0288  0.4463 -0.2266
   76TMC2     H 1186   2.721   2.118  11.387  1.0240  1.8489  0.8347
   76TMC2    H1 1187   2.828   2.255  11.777  3.6379 -1.0443 -2.0782
   76TMC2    H2 1188   2.621   1.891  11.733  0.6688 -1.4970 -1.5117
   76TMC2    C7 1189   2.708   2.043  11.905  0.1064 -0.0948 -0.2833
   76TMC2    C8 1190   2.595   1.900  11.464  0.0722 -0.7339 -0.2604
   76TMC2    O1 1191   2.648   1.943  11.938 -0.0374 -0.2110  0.0580
   76TMC2    O2 1192   2.571   1.787  11.499  0.4037 -0.4223 -0.7273
   76TMC2    O5 1193   2.554   1.957  11.342 -0.4463 -0.4043 -0.3349
   76TMC2    H5 1194   2.569   2.054  11.344  1.3939 -0.6714 -1.2436
   77MPD2     C 1195   3.121   2.727  11.535 -0.1540  0.3726  0.9062
   77MPD2    C1 1196   2.986   2.706  11.508 -0.2157  0.2908 -0.0054
   77MPD2    C2 1197   2.935   2.580  11.511 -0.0306 -0.3624  0.2124
   77MPD2    C3 1198   3.007   2.478  11.561 -0.6881  0.2984  0.1488
   77MPD2    C4 1199   3.130   2.505  11.612 -0.0367  0.2912  0.1964
   77MPD2    C5 1200   3.194   2.632  11.595 -0.0277  0.1288 -0.3285
   77MPD2     H 1201   2.829   2.570  11.489  0.4983  0.7496 -2.8595
   77MPD2    H1 1202   3.175   2.426  11.672 -1.6646 -0.3646  0.5557
   77MPD2    H2 1203   3.158   2.829  11.530  1.8651 -0.5412 -2.6607
   77MPD2    H3 1204   3.297   2.646  11.626  0.2068 -0.1243 -1.0036
   77MPD2     N 1205   2.941   2.352  11.581  0.3049  0.1250  0.0519
   77MPD2    H5 1206   2.989   2.285  11.640  0.4181 -0.5672 -0.8193
   77MPD2    N1 1207   2.897   2.813  11.479  0.1579  0.0545 -0.5036
   77MPD2    H7 1208   2.806   2.782  11.445  1.0275 -0.4885 -2.3617
   78TMC2    C1 1209   3.567   3.617   1.179 -0.4703 -0.2630 -0.5491
   78TMC2    C2 1210   3.494   3.502   1.156 -0.1604 -0.0703 -0.1915
   78TMC2    C3 1211   3.558   3.380   1.182  0.0839  0.4106 -0.6147
   78TMC2    C4 1212   3.699   3.607   1.189  0.3965  0.3594 -0.0521
   78TMC2    C5 1213   3.762   3.483   1.217 -0.3483 -0.0620  0.0226
   78TMC2    C6 1214   3.690   3.371   1.216  0.3231 -0.4318 -0.3697
   78TMC2     C 1215   3.505   3.748   1.157 -0.3074  0.2550  0.0503
   78TMC2     O 1216   3.405   3.744   1.088 -0.6012  0.5930  0.0078
   78TMC2     H 1217   3.386   3.508   1.153 -0.1826  0.0041  0.5487
   78TMC2    H1 1218   3.767   3.691   1.195  2.0193 -0.7368 -2.6617
   78TMC2    H2 1219   3.729   3.273   1.245  0.4153 -1.2915 -3.4168
   78TMC2    C7 1220   3.903   3.484   1.251  0.0821  0.1697  0.1534
   78TMC2    C8 1221   3.482   3.255   1.192 -0.6026 -0.4668  0.1310
   78TMC2    O1 1222   3.964   3.588   1.247  1.7255 -0.6070  0.1590
   78TMC2    O2 1223   3.515   3.155   1.259 -0.4765 -0.0990  0.0512
   78TMC2    O5 1224   3.364   3.271   1.140  0.4690  0.3465  0.1286
   78TMC2    H5 1225   3.379   3.339   1.072 -0.5365 -0.4436 -0.8856
   79MPD1     C 1226   3.439   4.258   1.265 -0.1400 -0.1414  0.3312
   79MPD1    C1 1227   3.356   4.175   1.194 -0.1613  0.2477  0.4665
   79MPD1    C2 1228   3.402   4.044   1.171 -0.8613 -0.2378 -0.8896
   79MPD1    C3 1229   3.516   3.990   1.233  0.3247 -0.7396  0.4473
   79MPD1    C4 1230   3.597   4.073   1.305  1.1229  0.1665  0.3049
   79MPD1    C5 1231   3.560   4.202   1.321 -0.9041 -0.0289  0.8995
   79MPD1     H 1232   3.349   3.980   1.101 -0.0998 -1.4719 -0.3316
   79MPD1    H1 1233   3.688   4.038   1.352  0.8631  0.7953  1.2716
   79MPD1    H2 1234   3.423   4.364   1.273  1.0978  0.3133 -2.8673
   79MPD1    H3 1235   3.628   4.267   1.375  1.2308 -0.7462 -0.9300
   79MPD1     N 1236   3.562   3.852   1.223  0.7639  0.5280  0.0877
   79MPD1    H5 1237   3.642   3.828   1.280 -0.1237  0.1038  1.1374
   79MPD1    N1 1238   3.250   4.221   1.123 -0.3873  0.5392 -0.4733
   79MPD1    H6 1239   3.184   4.145   1.110 -0.0528  0.3544 -1.0863
   79MPD1    H7 1240   3.210   4.309   1.158  2.1350  1.3501  0.3602
   80TMC2    C1 1241   0.465   0.824  12.268  1.2461  0.1239  0.5062
   80TMC2    C2 1242   0.331   0.802  12.268 -0.3438 -0.3081 -0.3169
   80TMC2    C3 1243   0.288   0.704  12.356  0.8974  0.2286 -0.4716
   80TMC2    C4 1244   0.560   0.758  12.338  0.0580  0.2497  0.1860
   80TMC2    C5 1245   0.508   0.664  12.422  0.4040  0.0336 -0.3240
   80TMC2    C6 1246   0.375   0.638  12.431 -0.0734 -0.2382 -0.0103
   80TMC2     C 1247   0.511   0.910  12.158 -0.0767 -0.4327 -0.2521
   80TMC2     O 1248   0.434   0.916  12.065  0.0686 -0.4047 -0.1832
   80TMC2     H 1249   0.256   0.850  12.205 -3.4402 -3.7473  0.7247
   80TMC2    H1 1250   0.667   0.757  12.320  0.1799  0.4483  0.9258
   80TMC2    H2 1251   0.350   0.572  12.512  0.0620  0.9531  1.0051
   80TMC2    C7 1252   0.584   0.597  12.528  0.1544 -0.6968 -0.5119
   80TMC2    C8 1253   0.154   0.646  12.321  0.0370  0.3545 -0.4253
   80TMC2    O1 1254   0.533   0.501  12.584  0.3482 -0.2846 -0.2358
   80TMC2    O2 1255   0.105   0.662  12.212  0.0383  0.3001 -0.3474
   80TMC2    O5 1256   0.098   0.579  12.422  0.3535  0.3897  0.2031
   80TMC2    H5 1257   0.129   0.595  12.514 -2.3267 -0.8064  1.3195
   81MPD2     C 1258   0.636   1.085  11.944  0.3105 -0.0751 -0.2782
   81MPD2    C1 1259   0.664   1.085  12.085  0.0890 -0.0390 -0.3345
   81MPD2    C2 1260   0.741   1.186  12.138  0.8127 -0.1110  0.2478
   81MPD2    C3 1261   0.783   1.292  12.058 -0.7190  0.1733  0.0719
   81MPD2    C4 1262   0.750   1.288  11.928 -0.2279  0.4728  0.5802
   81MPD2    C5 1263   0.680   1.186  11.865 -0.3379 -0.4326  0.1183
   81MPD2     H 1264   0.748   1.193  12.246 -1.1033  1.1038  0.2912
   81MPD2    H1 1265   0.783   1.363  11.857 -1.6300 -0.7321 -1.3255
   81MPD2    H2 1266   0.567   1.011  11.905  1.6588 -1.9879  0.9222
   81MPD2    H3 1267   0.649   1.178  11.761  0.7428 -0.3496 -0.2075
   81MPD2     N 1268   0.851   1.409  12.108 -0.0931 -0.0664  0.5847
   81MPD2    H5 1269   0.863   1.483  12.040  1.9989 -0.8778  0.0872
   81MPD2    N1 1270   0.617   0.988  12.182  0.5933 -0.0376 -0.0105
   81MPD2    H7 1271   0.668   0.982  12.270  0.8492  1.8600 -0.0271
   82TMC2    C1 1272   3.866   1.784  10.750 -0.5085  0.1479  0.5304
   82TMC2    C2 1273   3.738   1.835  10.759  0.4616 -0.2497 -0.8429
   82TMC2    C3 1274   3.666   1.797  10.870 -0.7002 -0.6652  0.0952
   82TMC2    C4 1275   3.926   1.708  10.844  0.2609  0.1096 -0.6594
   82TMC2    C5 1276   3.849   1.679  10.952 -0.0274  0.3175  0.2982
   82TMC2    C6 1277   3.717   1.719  10.967 -0.7298  0.5880  0.0911
   82TMC2     C 1278   3.940   1.803  10.627 -0.3813 -0.1272 -0.5005
   82TMC2     O 1279   3.879   1.839  10.527  0.4404 -0.4649 -0.0916
   82TMC2     H 1280   3.677   1.864  10.674  0.1263 -1.9591 -1.1695
   82TMC2    H1 1281   4.023   1.664  10.827 -0.1899 -0.4827 -1.6927
   82TMC2    H2 1282   3.659   1.699  11.056 -0.9964  1.5480  0.1291
   82TMC2    C7 1283   3.907   1.606  11.061 -0.1115 -0.2497 -0.9932
   82TMC2    C8 1284   3.524   1.805  10.861 -0.6628  0.0668  0.0330
   82TMC2    O1 1285   3.831   1.521  11.109  0.2827  0.6547  0.3222
   82TMC2    O2 1286   3.466   1.819  10.968 -0.0237  0.4534  0.3188
   82TMC2    O5 1287   3.513   1.697  10.779 -0.0224  0.5209  0.1750
   82TMC2    H5 1288   3.568   1.699  10.698  0.0949  0.2605  0.2504
   83MPD2     C 1289   4.395   1.873  10.381 -0.2018  0.1037  0.6687
   83MPD2    C1 1290   4.265   1.870  10.336  0.0366  0.1769 -0.3004
   83MPD2    C2 1291   4.155   1.845  10.422 -0.2614  0.2820 -0.0417
   83MPD2    C3 1292   4.176   1.827  10.557 -0.3266  0.0151 -0.4841
   83MPD2    C4 1293   4.307   1.843  10.600 -0.0656  0.4052  0.6346
   83MPD2    C5 1294   4.411   1.859  10.519 -0.1482  0.0427 -0.8008
   83MPD2     H 1295   4.053   1.845  10.383 -0.0596 -1.9970 -0.5644
   83MPD2    H1 1296   4.323   1.832  10.707  0.1839 -0.2870  0.5286
   83MPD2    H2 1297   4.476   1.879  10.311 -0.7035  1.0251  0.1763
   83MPD2    H3 1298   4.510   1.864  10.563  0.1778 -0.8520 -1.4168
   83MPD2     N 1299   4.074   1.802  10.653  0.4311  0.2294  0.5065
   83MPD2    H5 1300   4.112   1.804  10.748  1.5983  0.5560  0.0383
   83MPD2    N1 1301   4.263   1.875  10.195  0.4218  0.6078 -0.0906
   83MPD2    H7 1302   4.348   1.877  10.140  0.2907 -1.7721 -0.3712
   84TMC2    C1 1303   1.162   1.408  10.683 -0.4107 -0.1720 -0.6100
   84TMC2    C2 1304   1.198   1.277  10.703  0.1650  0.4907 -0.0644
   84TMC2    C3 1305   1.291   1.232  10.607  0.1639  0.1276 -0.3102
   84TMC2    C4 1306   1.215   1.494  10.592  0.1845 -0.4184 -1.2563
   84TMC2    C5 1307   1.311   1.441  10.511 -0.0386  0.5540  0.5171
   84TMC2    C6 1308   1.340   1.307  10.506  0.1214  0.0332 -0.2264
   84TMC2     C 1309   1.056   1.447  10.771  0.0132  0.1964 -0.5610
   84TMC2     O 1310   1.056   1.561  10.812 -0.4172  0.2759 -0.2258
   84TMC2     H 1311   1.162   1.225  10.791  0.5213  0.1487 -0.1192
   84TMC2    H1 1312   1.193   1.600  10.589  0.1753 -0.4101 -0.8318
   84TMC2    H2 1313   1.410   1.255  10.442 -1.2240 -0.4500 -1.3146
   84TMC2    C7 1314   1.374   1.533  10.405  0.0323  0.4059  0.1587
   84TMC2    C8 1315   1.305   1.091  10.589  0.0324  0.2737  0.0532
   84TMC2    O1 1316   1.458   1.470  10.338  0.0788  0.5586 -0.2889
   84TMC2    O2 1317   1.260   1.034  10.487 -0.5877  0.3951 -0.4484
   84TMC2    O5 1318   1.305   1.034  10.708  0.1285  0.0999 -0.0602
   84TMC2    H5 1319   1.345   1.098  10.771  1.4766  0.1588 -0.9564
   85TMC2    C1 1320   2.233   3.825  16.557 -0.1189  0.3183 -0.0770
   85TMC2    C2 1321   2.360   3.833  16.600 -0.1875  0.2561  0.3724
   85TMC2    C3 1322   2.450   3.899  16.519  0.1451  0.4661 -0.7533
   85TMC2    C4 1323   2.190   3.896  16.455 -0.2331 -0.3629  0.2883
   85TMC2    C5 1324   2.273   3.975  16.385  0.9592  0.4648  0.2101
   85TMC2    C6 1325   2.408   3.983  16.417  0.2983  0.1528 -1.0387
   85TMC2     C 1326   2.136   3.739  16.629 -0.1197  0.3026 -0.4977
   85TMC2     O 1327   2.178   3.689  16.729  0.2520 -0.4728 -0.2523
   85TMC2     H 1328   2.388   3.770  16.683  0.5736  0.4479  0.2592
   85TMC2    H1 1329   2.092   3.885  16.409  1.3360  0.8494 -3.3824
   85TMC2    H2 1330   2.471   4.051  16.362  0.2159  0.7931 -0.3341
   85TMC2    C7 1331   2.243   4.056  16.273  0.2195 -0.5954 -0.2665
   85TMC2    C8 1332   2.578   3.943  16.580 -0.4184 -1.1725  0.8669
   85TMC2    O1 1333   2.330   4.074  16.189  0.2720 -0.6076 -0.1629
   85TMC2    O2 1334   2.626   4.054  16.555 -0.0976  0.2279 -0.4156
   85TMC2    O5 1335   2.620   3.870  16.687 -0.2408 -0.1018 -0.5314
   85TMC2    H5 1336   2.580   3.781  16.688 -1.8384  0.6311  0.9860
   86MPD2     C 1337   1.660   3.578  16.746  0.0045  0.6259 -0.3750
   86MPD2    C1 1338   1.678   3.582  16.607 -0.3362 -0.1824  0.0714
   86MPD2    C2 1339   1.787   3.648  16.550  0.1073  0.2187 -0.6398
   86MPD2    C3 1340   1.902   3.664  16.631 -0.6304 -1.5167 -0.7599
   86MPD2    C4 1341   1.902   3.628  16.761 -0.3573 -0.4652  0.2692
   86MPD2    C5 1342   1.776   3.604  16.823 -0.2309 -0.0101 -0.0477
   86MPD2     H 1343   1.799   3.667  16.444 -1.2953  1.7070 -0.5189
   86MPD2    H1 1344   1.986   3.649  16.826 -1.2465  0.7495  1.0418
   86MPD2    H2 1345   1.571   3.546  16.799  0.2356  1.3109  0.4308
   86MPD2    H3 1346   1.768   3.595  16.931 -1.4146 -1.7723 -0.2720
   86MPD2     N 1347   2.010   3.735  16.571  0.0851 -0.7579 -0.1539
   86MPD2    H5 1348   1.997   3.766  16.475 -2.5394 -2.4379 -0.3197
   86MPD2    N1 1349   1.597   3.520  16.513  0.1942  0.4596  0.1029
   86MPD2    H7 1350   1.625   3.536  16.417  3.2664 -1.3859  0.7227
   87TMC2    C1 1351   4.615   2.167   1.047 -0.4378 -0.2999  0.5013
   87TMC2    C2 1352   0.011   2.136   1.091 -0.4263 -0.1768  0.2339
   87TMC2    C3 1353   0.076   2.226   1.176  0.0369  1.2006  0.1491
   87TMC2    C4 1354   4.569   2.294   1.069  0.1243  0.7148  0.3153
   87TMC2    C5 1355   4.654   2.380   1.135 -0.4939 -0.4173  0.2649
   87TMC2    C6 1356   0.031   2.350   1.201  0.7333 -0.2834  0.2936
   87TMC2     C 1357   4.550   2.093   0.943  0.1211 -0.0276 -0.0527
   87TMC2     O 1358   4.472   2.157   0.875 -0.3125 -0.1833  0.5426
   87TMC2     H 1359   0.058   2.044   1.059 -0.1861  0.9685 -2.6679
   87TMC2    H1 1360   4.471   2.328   1.038  0.0058 -0.0014 -0.0911
   87TMC2    H2 1361   0.104   2.426   1.229 -1.1418 -0.0733  4.6468
   87TMC2    C7 1362   4.616   2.523   1.142 -0.1412 -0.1243  0.3970
   87TMC2    C8 1363   0.215   2.196   1.188  0.3814 -0.6158  0.1739
   87TMC2    O1 1364   4.555   2.574   1.048 -0.5822 -0.1894 -0.1996
   87TMC2    O2 1365   0.283   2.146   1.103  0.8948 -0.0661 -0.9087
   87TMC2    O5 1366   0.259   2.269   1.296  0.3623 -0.0715  0.1737
   87TMC2    H5 1367   0.183   2.282   1.358  0.8908 -1.7777  1.1881
   88MPD2     C 1368   4.656   2.745   1.429 -0.8468 -0.0396 -0.0709
   88MPD2    C1 1369   4.614   2.701   1.300  0.1651 -0.5064 -0.0467
   88MPD2    C2 1370   4.536   2.798   1.229 -0.6157  0.8273 -0.5707
   88MPD2    C3 1371   4.500   2.923   1.279 -0.5310  0.3422  0.7645
   88MPD2    C4 1372   4.549   2.957   1.408 -0.7024  0.1522  0.4245
   88MPD2    C5 1373   4.622   2.868   1.481  0.2760  0.6038  0.2068
   88MPD2     H 1374   4.503   2.775   1.128 -0.4466 -0.4205 -0.3440
   88MPD2    H1 1375   4.535   3.054   1.453 -1.0916  0.0663  0.4886
   88MPD2    H2 1376   4.720   2.678   1.485 -0.6448  0.5052  0.3476
   88MPD2    H3 1377   4.670   2.898   1.573 -1.9629  1.2874  1.1524
   88MPD2     N 1378   4.431   3.018   1.197 -0.3002 -0.7267 -0.2184
   88MPD2    H5 1379   4.449   3.116   1.219 -0.1407 -0.5769 -1.0016
   88MPD2    N1 1380   4.650   2.576   1.262  0.1737  0.1014  0.2978
   88MPD2    H7 1381   4.698   2.512   1.324  2.2560  1.6409  0.2476
   89TMC2    C1 1382   0.316   0.282   1.409 -0.0900 -0.1889 -1.2419
   89TMC2    C2 1383   0.194   0.346   1.432 -0.1043  1.3626  0.2174
   89TMC2    C3 1384   0.177   0.469   1.374 -0.3138  0.1183 -0.0189
   89TMC2    C4 1385   0.410   0.334   1.321 -0.3744  0.3792  0.2569
   89TMC2    C5 1386   0.382   0.456   1.265  0.2227 -0.1958 -0.5104
   89TMC2    C6 1387   0.271   0.535   1.303  0.5430  0.7519  0.1265
   89TMC2     C 1388   0.322   0.138   1.435 -0.7135  0.3717  0.0664
   89TMC2     O 1389   0.433   0.098   1.446 -0.1808  0.1965 -0.0619
   89TMC2     H 1390   0.127   0.305   1.506  0.8486 -0.3710  0.1188
   89TMC2    H1 1391   0.498   0.275   1.299  0.0278  1.1231 -0.1498
   89TMC2    H2 1392   0.244   0.629   1.258  0.5741  0.7485  0.1006
   89TMC2    C7 1393   0.449   0.484   1.138  0.1404  0.2518 -0.2098
   89TMC2    C8 1394   0.070   0.558   1.412 -0.3628 -0.3371  0.4736
   89TMC2    O1 1395   0.518   0.395   1.087 -0.2309  0.1172  0.1092
   89TMC2    O2 1396   0.078   0.679   1.388  0.5735 -0.4416 -0.5993
   89TMC2    O5 1397   4.699   0.486   1.452  0.4571 -0.1024  0.2424
   89TMC2    H5 1398   4.707   0.389   1.468 -0.0137  0.0546  1.4342
   90MPD2     C 1399   0.126   4.398   1.472  0.0614 -0.4449 -0.5141
   90MPD2    C1 1400   0.018   4.480   1.444 -0.9546  0.3799  0.2920
   90MPD2    C2 1401   0.048   4.614   1.423  0.2353  0.3797 -0.4585
   90MPD2    C3 1402   0.183   4.666   1.433 -0.5939 -0.1303  0.1253
   90MPD2    C4 1403   0.279   4.580   1.457  0.6553 -0.4761  0.6973
   90MPD2    C5 1404   0.259   4.446   1.476 -0.3459  0.7146 -0.2998
   90MPD2     H 1405   4.700   4.679   1.403  0.0415  0.5127  0.8260
   90MPD2    H1 1406   0.385   4.604   1.458  0.4669  0.2114  3.6536
   90MPD2    H2 1407   0.109   4.294   1.497  0.1343 -0.0840  0.9984
   90MPD2    H3 1408   0.336   4.374   1.503 -2.1113 -0.9944  0.1703
   90MPD2     N 1409   0.204   0.068   1.419  0.0481  0.2564 -0.5280
   90MPD2    H5 1410   0.116   0.113   1.395 -0.1606  0.0107 -0.2250
   90MPD2    N1 1411   4.619   4.433   1.429  0.2691  0.0841 -0.2042
   90MPD2    H7 1412   4.550   4.504   1.405  0.5019  0.8244  1.3318
   91TMC2    C1 1413   1.886   4.564  16.422  0.1029 -0.2032 -0.1117
   91TMC2    C2 1414   1.972   4.480  16.496  0.2139  0.2238 -0.7360
   91TMC2    C3 1415   1.928   4.375  16.564  0.1305 -0.2622 -0.3063
   91TMC2    C4 1416   1.754   4.542  16.418  0.0434  0.2955  0.2498
   91TMC2    C5 1417   1.708   4.437  16.502  0.5375 -0.2769  0.4626
   91TMC2    C6 1418   1.793   4.358  16.575  1.4700  0.4563 -0.0290
   91TMC2     C 1419   1.920   4.691  16.359  0.4043 -0.3352  0.2691
   91TMC2     O 1420   1.836   0.010  16.289  0.3839  0.3150 -0.1627
   91TMC2     H 1421   2.078   4.506  16.501  1.0564 -3.0597 -1.5591
   91TMC2    H1 1422   1.689   4.599  16.353  0.6539 -1.2404 -1.7175
   91TMC2    H2 1423   1.752   4.293  16.652 -0.3873  0.1749 -1.2632
   91TMC2    C7 1424   1.563   4.417  16.520 -0.1472 -0.0279 -0.0106
   91TMC2    C8 1425   2.005   4.303  16.667 -0.4444 -0.4442  0.0359
   91TMC2    O1 1426   1.525   4.341  16.608  0.4818  0.0980  0.1614
   91TMC2    O2 1427   1.950   4.263  16.770 -0.2217 -0.6056  0.0814
   91TMC2    O5 1428   2.114   4.253  16.606 -0.0897  0.0939 -0.3738
   91TMC2    H5 1429   2.158   4.312  16.542  0.1658 -2.7504 -2.8580
   92MPD2     C 1430   2.031   0.225  16.328  0.0780 -0.5077  0.4939
   92MPD2    C1 1431   2.100   0.126  16.390  0.4489  0.5890  0.4565
   92MPD2    C2 1432   2.227   0.153  16.449 -0.3743  0.3046 -0.2730
   92MPD2    C3 1433   2.262   0.288  16.465 -0.2508  0.4551 -0.0904
   92MPD2    C4 1434   2.173   0.386  16.422 -0.1036  0.4081  0.8330
   92MPD2    C5 1435   2.063   0.353  16.356  0.4361  0.2355 -0.2263
   92MPD2     H 1436   2.292   0.074  16.483  0.6227  1.3844  0.3199
   92MPD2    H1 1437   2.190   0.492  16.434 -0.4501  0.5194  0.3260
   92MPD2    H2 1438   1.949   0.208  16.260  1.0596 -1.7585 -0.3766
   92MPD2    H3 1439   2.008   0.430  16.303  1.2792  1.4469  0.6611
   92MPD2     N 1440   2.372   0.320  16.552 -0.1676 -0.5096 -0.2167
   92MPD2    H5 1441   2.414   0.238  16.594  1.0519  0.6501  0.8051
   92MPD2    N1 1442   2.047   4.729  16.397 -0.5065  0.8159  0.5458
   92MPD2    H7 1443   2.111   4.665  16.443  0.7935  1.1219 -0.8008
   93TMC2    C1 1444   3.369   4.728  13.965  0.0088  0.0830 -0.0649
   93TMC2    C2 1445   3.317   4.718  14.089 -0.2707  0.9654 -0.2460
   93TMC2    C3 1446   3.397   0.028  14.186  1.1739 -0.3734  0.0283
   93TMC2    C4 1447   3.494   0.043  13.939  0.5437 -0.3527  0.3275
   93TMC2    C5 1448   3.567   0.098  14.038  0.1927 -0.4271  0.4525
   93TMC2    C6 1449   3.524   0.077  14.168 -0.2151 -0.0980  0.1319
   93TMC2     C 1450   3.288   4.694  13.844 -0.3290  0.2184 -0.1205
   93TMC2     O 1451   3.341   4.713  13.737 -0.0774 -0.3518 -0.3649
   93TMC2     H 1452   3.214   4.685  14.098  1.0010 -2.3126  2.0455
   93TMC2    H1 1453   3.538   0.046  13.840  0.7048  0.7267  0.4301
   93TMC2    H2 1454   3.581   0.106  14.256  1.8437 -4.0694  0.1045
   93TMC2    C7 1455   3.706   0.132  14.013  0.2733 -0.0721 -0.2767
   93TMC2    C8 1456   3.350   0.013  14.326  0.0109 -0.0238 -0.7969
   93TMC2    O1 1457   3.798   0.085  14.078  0.2269  0.2308 -0.5542
   93TMC2    O2 1458   3.408   0.060  14.421 -0.3005 -0.1470 -0.1149
   93TMC2    O5 1459   3.232   4.690  14.339  0.6418  0.3788  0.4340
   93TMC2    H5 1460   3.198   4.644  14.260 -1.6173  1.4297  0.8099
   94MPD2     C 1461   3.135   4.512  13.659  0.3435 -0.0766  0.0056
   94MPD2    C1 1462   3.085   4.570  13.776  0.9998 -0.0108 -0.6378
   94MPD2    C2 1463   2.948   4.558  13.798 -0.0596 -0.1798 -0.9371
   94MPD2    C3 1464   2.858   4.493  13.710  0.4171 -0.2447 -0.5722
   94MPD2    C4 1465   2.910   4.433  13.601 -0.0929  0.2665  0.0825
   94MPD2    C5 1466   3.044   4.438  13.579 -0.3577 -0.0600  0.2116
   94MPD2     H 1467   2.910   4.617  13.881 -2.7297  0.6410 -2.7573
   94MPD2    H1 1468   2.842   4.387  13.530  0.6052 -1.3128  0.4308
   94MPD2    H2 1469   3.235   4.530  13.621  0.6183 -1.4279  0.0858
   94MPD2    H3 1470   3.082   4.392  13.489  0.2657  0.1519  0.3683
   94MPD2     N 1471   2.718   4.502  13.730 -0.6447 -0.4584  0.1051
   94MPD2    H5 1472   2.651   4.449  13.674 -2.9484  0.8770  1.5874
   94MPD2    N1 1473   3.164   4.644  13.869 -0.7164  0.8280  0.0071
   94MPD2    H7 1474   3.121   4.671  13.957 -1.3790 -2.3977  0.6546
   95TMC2    C1 1475   2.868   1.976  15.664 -0.6327 -0.1504 -0.2039
   95TMC2    C2 1476   2.821   2.091  15.608  0.0238  0.6110 -0.8382
   95TMC2    C3 1477   2.686   2.111  15.612 -0.1088  0.1947 -0.0875
   95TMC2    C4 1478   2.795   1.877  15.717  0.5995  0.3323 -0.3409
   95TMC2    C5 1479   2.662   1.886  15.700 -0.0759  0.0709 -0.5758
   95TMC2    C6 1480   2.610   2.002  15.643 -0.7093 -0.4942 -0.5595
   95TMC2     C 1481   3.008   1.950  15.641 -0.4090  0.2143  0.3264
   95TMC2     O 1482   3.086   2.047  15.636 -0.1719 -0.0553  0.5955
   95TMC2     H 1483   2.897   2.157  15.567  0.0602  0.3431 -1.2070
   95TMC2    H1 1484   2.846   1.809  15.785  0.0267 -0.1120 -0.3513
   95TMC2    H2 1485   2.502   2.011  15.643 -0.5796  0.8396  1.1853
   95TMC2    C7 1486   2.569   1.813  15.794 -0.2867 -0.2891  0.3979
   95TMC2    C8 1487   2.642   2.246  15.603 -0.0174  0.1439 -0.1700
   95TMC2    O1 1488   2.462   1.863  15.814  0.2845 -0.9397  0.3328
   95TMC2    O2 1489   2.711   2.340  15.565 -0.3080  0.1149 -0.0962
   95TMC2    O5 1490   2.550   2.258  15.703 -0.3432  0.8565 -0.3954
   95TMC2    H5 1491   2.535   2.171  15.746  3.3193  0.7319  0.5583
   96MPD2     C 1492   3.375   1.618  15.531  1.0328 -0.0852  0.0735
   96MPD2    C1 1493   3.379   1.749  15.574  0.3829  0.0722  0.2790
   96MPD2    C2 1494   3.266   1.817  15.608 -0.3308 -0.2112 -0.3965
   96MPD2    C3 1495   3.150   1.751  15.591 -0.3411 -0.4772 -0.3049
   96MPD2    C4 1496   3.142   1.618  15.559 -0.1457  0.5847  0.2243
   96MPD2    C5 1497   3.257   1.555  15.523 -0.3292  0.1456 -0.0290
   96MPD2     H 1498   3.269   1.925  15.624  1.1134 -0.0874 -1.4894
   96MPD2    H1 1499   3.045   1.570  15.561 -0.2959  0.8571 -0.8192
   96MPD2    H2 1500   3.472   1.576  15.506 -0.3457 -2.2697 -1.5394
   96MPD2    H3 1501   3.254   1.454  15.482  0.4991 -0.1483  0.6153
   96MPD2     N 1502   3.031   1.814  15.620 -0.1052 -0.0251  0.0497
   96MPD2    H5 1503   2.946   1.758  15.627  0.5273 -1.1754 -1.3154
   96MPD2    N1 1504   3.507   1.812  15.560 -0.5572 -0.3868 -0.2949
   96MPD2    H7 1505   3.582   1.754  15.524  0.9103  0.8101  0.8111
   97TMC2    C1 1506   1.179   0.137  17.573 -0.3911  0.6296  0.3802
   97TMC2    C2 1507   1.116   0.083  17.463 -0.7155 -0.0579 -0.3513
   97TMC2    C3 1508   1.121   0.151  17.347 -0.4429  0.2549  0.1963
   97TMC2    C4 1509   1.248   0.257  17.571 -0.1996  0.8472 -0.3617
   97TMC2    C5 1510   1.241   0.324  17.448  0.1951 -0.1110  0.3403
   97TMC2    C6 1511   1.178   0.271  17.332 -0.5089  0.7341 -0.2428
   97TMC2     C 1512   1.172   0.067  17.699  0.2816 -0.0995 -0.2986
   97TMC2     O 1513   1.198   0.131   0.057  0.5906  0.2900 -0.2644
   97TMC2     H 1514   1.051   4.733  17.465 -0.6921 -0.0376  1.5589
   97TMC2    H1 1515   1.281   0.310  17.659  1.0115  0.5969 -0.6556
   97TMC2    H2 1516   1.202   0.303  17.232 -0.0102  1.2659  0.0450
   97TMC2    C7 1517   1.330   0.442  17.445 -1.1514 -0.2771 -0.1196
   97TMC2    C8 1518   1.032   0.104  17.248 -0.1661 -0.1699  0.0299
   97TMC2    O1 1519   1.400   0.464  17.545 -0.3767 -0.1081 -0.5984
   97TMC2    O2 1520   0.996   4.724  17.249  0.3972  0.7947  0.5332
   97TMC2    O5 1521   0.964   0.220  17.234 -0.0654  0.1507 -0.6729
   97TMC2    H5 1522   1.002   0.301  17.277  1.7890 -1.7052  1.1838
   98MPD2     C 1523   1.134   4.347   0.206 -0.7815  0.3547 -0.1960
   98MPD2    C1 1524   1.162   4.472   0.255 -0.0006  0.4093  0.1703
   98MPD2    C2 1525   1.164   4.586   0.171  0.6592 -0.0895 -0.5133
   98MPD2    C3 1526   1.149   4.568   0.036 -0.2187  0.9147  0.8495
   98MPD2    C4 1527   1.113   4.443  17.734 -0.3191 -0.1178  0.6002
   98MPD2    C5 1528   1.107   4.331   0.070  0.0868  0.3622  0.9700
   98MPD2     H 1529   1.186   4.686   0.207 -0.4644  0.1700 -0.5221
   98MPD2    H1 1530   1.086   4.424  17.631  0.6423 -1.9161  0.6796
   98MPD2    H2 1531   1.133   4.263   0.275  1.4164  1.4609  1.1859
   98MPD2    H3 1532   1.067   4.239   0.028  2.3561  0.2103 -0.8919
   98MPD2     N 1533   1.156   4.671  17.684 -0.1363  0.0697  0.8517
   98MPD2    H5 1534   1.157   4.639  17.588  2.7458  1.4234  0.4212
   98MPD2    N1 1535   1.177   4.487   0.391 -0.5059 -0.2209  0.0650
   98MPD2    H7 1536   1.170   4.407   0.454 -1.2559  0.4337  0.8231
   99TMC2    C1 1537   4.721   1.666   1.757  0.2388 -0.6499 -0.4119
   99TMC2    C2 1538   0.063   1.685   1.870  0.0306 -0.0452 -0.1384
   99TMC2    C3 1539   0.001   1.728   1.984 -0.1898  0.3857 -0.4715
   99TMC2    C4 1540   4.591   1.719   1.750 -0.8578  0.2421  0.3946
   99TMC2    C5 1541   4.544   1.767   1.869  0.0184 -0.2149 -0.1637
   99TMC2    C6 1542   4.609   1.762   1.988  0.3715 -0.4891  0.3848
   99TMC2     C 1543   0.044   1.591   1.644  0.1884 -0.0808  0.8015
   99TMC2     O 1544   0.166   1.590   1.652 -0.2911  0.2156  0.1431
   99TMC2     H 1545   0.169   1.663   1.867 -0.2160 -1.3888  0.9332
   99TMC2    H1 1546   4.546   1.733   1.653 -0.6569  0.1532  0.2900
   99TMC2    H2 1547   4.561   1.782   2.083 -1.4066 -0.5559 -0.5041
   99TMC2    C7 1548   4.415   1.824   1.866  0.1711  1.3426  0.4387
   99TMC2    C8 1549   0.069   1.674   2.095 -0.2889 -0.2667  0.2739
   99TMC2    O1 1550   4.394   1.924   1.931  0.2692  0.1001 -0.3445
   99TMC2    O2 1551   0.125   1.569   2.095  0.8975 -0.0286  0.4844
   99TMC2    O5 1552   0.047   1.751   2.205 -0.1728 -0.6417 -0.5451
   99TMC2    H5 1553   0.016   1.840   2.177 -1.8391 -0.8962  0.4950
  100MPD2     C 1554   0.148   1.448   1.419 -0.1772  0.4771  0.7597
  100MPD2    C1 1555   0.022   1.489   1.433 -0.1981 -0.1963  0.6568
  100MPD2    C2 1556   4.669   1.456   1.333 -0.0630 -0.2956 -0.0437
  100MPD2    C3 1557   4.712   1.398   1.213  0.3098 -0.1661 -0.1438
  100MPD2    C4 1558   0.107   1.353   1.206  0.4287 -0.5914  0.6629
  100MPD2    C5 1559   0.188   1.378   1.309  0.2655  0.4673 -0.2031
  100MPD2     H 1560   4.567   1.492   1.342 -0.7184 -2.0370 -0.4882
  100MPD2    H1 1561   0.150   1.290   1.129  1.3302  0.6707  0.1223
  100MPD2    H2 1562   0.225   1.486   1.484  1.1748  0.1073 -0.6365
  100MPD2    H3 1563   0.292   1.349   1.297 -0.3481 -0.7290 -2.6204
  100MPD2     N 1564   4.633   1.389   1.099  0.0606  0.9299 -0.5682
  100MPD2    H5 1565   4.540   1.429   1.106 -1.0122 -1.4907 -0.8057
  100MPD2    N1 1566   4.702   1.555   1.543  0.1842 -0.0669 -0.3300
  100MPD2    H7 1567   4.604   1.580   1.544  0.9274  2.7733  1.5448
  101TMC2    C1 1568   0.775   2.346  12.532 -0.5081 -0.2199 -0.1583
  101TMC2    C2 1569   0.663   2.397  12.471 -0.8720  0.0595 -0.4465
  101TMC2    C3 1570   0.689   2.424  12.341 -0.5504  0.2303  0.0283
  101TMC2    C4 1571   0.897   2.321  12.473 -0.0483 -0.4558 -0.2629
  101TMC2    C5 1572   0.910   2.348  12.339 -0.9658  0.1491 -0.3480
  101TMC2    C6 1573   0.802   2.396  12.267 -0.2497 -0.2593 -0.1075
  101TMC2     C 1574   0.759   2.315  12.675  0.1316 -0.6340 -0.0735
  101TMC2     O 1575   0.647   2.332  12.719  0.4424  0.0708 -0.1772
  101TMC2     H 1576   0.583   2.455  12.517 -1.0364 -1.0697  0.6722
  101TMC2    H1 1577   0.976   2.270  12.526  2.0736  0.9411 -2.0980
  101TMC2    H2 1578   0.810   2.436  12.167  0.9726  1.4282  0.6486
  101TMC2    C7 1579   1.042   2.347  12.267 -0.2127 -0.7413 -0.6851
  101TMC2    C8 1580   0.591   2.505  12.271  0.5072  0.1132  0.0954
  101TMC2    O1 1581   1.051   2.389  12.155 -0.3902 -0.1539 -0.6913
  101TMC2    O2 1582   0.626   2.592  12.192  0.7416  0.0437  0.3023
  101TMC2    O5 1583   0.494   2.414  12.247  0.3450  0.1859 -0.3344
  101TMC2    H5 1584   0.478   2.351  12.321  0.9530 -1.8192 -1.9302
  102MPD2     C 1585   0.991   2.183  12.939  0.4135  0.1108  0.0156
  102MPD2    C1 1586   0.867   2.212  12.880  0.1399  0.2180  0.2007
  102MPD2    C2 1587   0.754   2.157  12.936 -0.0733 -0.2282  0.9905
  102MPD2    C3 1588   0.755   2.093  13.056 -0.2177 -0.5612  0.1048
  102MPD2    C4 1589   0.874   2.078  13.126 -0.3801  0.1871 -0.1253
  102MPD2    C5 1590   0.996   2.121  13.065  0.0099  0.5852 -0.5277
  102MPD2     H 1591   0.654   2.173  12.898  0.8975  0.3055 -1.3230
  102MPD2    H1 1592   0.873   2.019  13.217  2.0712  1.2667  0.6235
  102MPD2    H2 1593   1.080   2.214  12.885  0.3986  2.4675  1.3682
  102MPD2    H3 1594   1.093   2.097  13.108 -0.7599  2.3473  2.1817
  102MPD2     N 1595   0.628   2.048  13.100 -0.3005 -0.3601  0.7218
  102MPD2    H5 1596   0.552   2.056  13.034  1.3992  0.2799 -1.1554
  102MPD2    N1 1597   0.866   2.272  12.745 -0.2873 -0.1668  0.7637
  102MPD2    H7 1598   0.955   2.279  12.695 -0.9237 -0.9952 -0.4839
  103TMC2    C1 1599   2.934   2.577  12.467  0.2313 -0.4677  0.0329
  103TMC2    C2 1600   2.917   2.712  12.438  0.6428 -0.4326 -0.7311
  103TMC2    C3 1601   2.948   2.786  12.544  0.0144 -0.1206 -0.5655
  103TMC2    C4 1602   2.975   2.521  12.588 -0.3413 -0.1233 -0.0296
  103TMC2    C5 1603   2.987   2.608  12.690  0.3191 -0.4724 -0.1738
  103TMC2    C6 1604   2.994   2.739  12.663 -0.6339 -0.1962  0.2560
  103TMC2     C 1605   2.894   2.486  12.363  0.2984 -0.2152  1.1771
  103TMC2     O 1606   2.914   2.521  12.248 -0.4030  0.0870 -0.7579
  103TMC2     H 1607   2.876   2.752  12.346 -2.2328 -2.2493 -0.2400
  103TMC2    H1 1608   2.980   2.413  12.600 -0.1138 -0.3082 -1.7989
  103TMC2    H2 1609   3.029   2.816  12.731  3.3508 -0.6437 -1.2650
  103TMC2    C7 1610   3.060   2.563  12.799  0.2641  0.2725 -0.5360
  103TMC2    C8 1611   2.942   2.932  12.533  0.2841  0.2688 -0.3663
  103TMC2    O1 1612   3.141   2.474  12.782  0.3755 -0.1277 -0.0150
  103TMC2    O2 1613   2.969   2.973  12.423 -0.7277 -0.2461  0.0538
  103TMC2    O5 1614   2.878   2.994  12.635  0.3029 -0.5011  0.2701
  103TMC2    H5 1615   2.860   2.939  12.714 -0.1362 -1.0469 -0.1973
  104MPD2     C 1616   2.747   2.142  12.411  0.0493 -0.2272  1.0804
  104MPD2    C1 1617   2.788   2.257  12.343 -0.0456  0.0691  0.1667
  104MPD2    C2 1618   2.797   2.250  12.205  0.2129  0.0672  0.2363
  104MPD2    C3 1619   2.761   2.142  12.134 -0.2855  0.2560  0.6993
  104MPD2    C4 1620   2.707   2.033  12.205  0.2863 -0.2762 -0.2524
  104MPD2    C5 1621   2.700   2.031  12.338 -0.4073 -0.3216  0.8224
  104MPD2     H 1622   2.822   2.339  12.148 -0.2700 -0.2813 -0.5129
  104MPD2    H1 1623   2.680   1.947  12.145  0.8207 -0.3847 -0.3374
  104MPD2    H2 1624   2.743   2.143  12.519 -0.1128  2.1587  1.0502
  104MPD2    H3 1625   2.672   1.942  12.392  0.3680 -1.6254 -0.9012
  104MPD2     N 1626   2.764   2.141  11.989 -0.4656  0.6401 -0.1263
  104MPD2    H5 1627   2.810   2.222  11.949  1.0920  0.5259  1.4607
  104MPD2    N1 1628   2.835   2.371  12.413 -0.2152 -0.1576  0.4850
  104MPD2    H7 1629   2.823   2.362  12.513  2.5724 -2.4769  0.6321
  105TMC2    C1 1630   4.208   1.769   0.076  0.3665 -0.1937  0.7379
  105TMC2    C2 1631   4.081   1.790   0.125 -0.1408  0.1420 -0.6379
  105TMC2    C3 1632   4.065   1.846   0.248 -0.0968 -0.0194 -0.2757
  105TMC2    C4 1633   4.320   1.788   0.152 -0.0422 -0.3132 -0.3109
  105TMC2    C5 1634   4.303   1.833   0.279  0.2403 -0.5118  0.3241
  105TMC2    C6 1635   4.180   1.861   0.329  0.1910 -0.3755  0.8693
  105TMC2     C 1636   4.221   1.724  17.688 -0.2996  0.1908 -0.1947
  105TMC2     O 1637   4.137   1.648  17.646  0.7455 -0.0429 -0.0025
  105TMC2     H 1638   3.989   1.782   0.068 -0.0399 -1.8033 -0.5368
  105TMC2    H1 1639   4.418   1.759   0.115 -0.6384 -1.3792 -1.0484
  105TMC2    H2 1640   4.168   1.886   0.433 -2.0645 -0.4811  0.6350
  105TMC2    C7 1641   4.405   1.788   0.371 -0.5521 -0.1742  0.0367
  105TMC2    C8 1642   3.942   1.875   0.305  0.4265  0.3765 -0.1760
  105TMC2    O1 1643   4.504   1.723   0.333 -0.2026  0.1265 -0.8854
  105TMC2    O2 1644   3.865   1.786   0.346 -0.4048  0.4412 -0.0490
  105TMC2    O5 1645   3.949   1.998   0.358  0.4811 -0.1395 -0.1268
  105TMC2    H5 1646   4.018   2.044   0.305  1.6636 -0.3907  1.2197
  106MPD2     C 1647   4.463   1.676  17.232  0.4121  0.3929 -0.3905
  106MPD2    C1 1648   4.502   1.790  17.301 -0.0813 -0.4412  0.0826
  106MPD2    C2 1649   4.461   1.813  17.427 -0.1719 -0.5366  0.0223
  106MPD2    C3 1650   4.364   1.739  17.490 -0.0794  0.3200  0.4641
  106MPD2    C4 1651   4.312   1.626  17.417  0.5236  0.5167  0.4163
  106MPD2    C5 1652   4.366   1.594  17.293 -0.2356  0.2220 -0.0195
  106MPD2     H 1653   4.502   1.892  17.488 -0.4275  0.4994 -1.1515
  106MPD2    H1 1654   4.248   1.555  17.468  0.6276  0.2583  0.1883
  106MPD2    H2 1655   4.517   1.641  17.145 -1.3952  0.8742 -1.7190
  106MPD2    H3 1656   4.347   1.495  17.253 -3.3989 -0.1369  2.3287
  106MPD2     N 1657   4.322   1.781  17.622  0.3946 -0.5651 -0.4316
  106MPD2    H5 1658   4.368   1.862  17.663  0.8216  0.9199 -3.8042
  106MPD2    N1 1659   4.593   1.881  17.253 -0.0233  0.2302  0.3865
  106MPD2    H7 1660   4.605   1.966  17.307 -0.3126  0.0645  0.7156
  107TMC2    C1 1661   0.593   1.599  11.590  0.0600 -0.1470 -0.5696
  107TMC2    C2 1662   0.673   1.708  11.581 -0.0335 -0.4638  0.1028
  107TMC2    C3 1663   0.731   1.733  11.462  0.7982 -0.3439  0.1267
  107TMC2    C4 1664   0.568   1.520  11.480 -0.4926  0.0194  0.6091
  107TMC2    C5 1665   0.621   1.555  11.357 -0.1711  0.1978  0.3626
  107TMC2    C6 1666   0.712   1.655  11.353 -0.3933  0.1642  0.2230
  107TMC2     C 1667   0.527   1.556  11.716  0.5227 -0.1931  0.0938
  107TMC2     O 1668   0.467   1.447  11.717 -0.0044  0.0469 -0.7173
  107TMC2     H 1669   0.708   1.758  11.671 -0.6679 -1.4622  0.9093
  107TMC2    H1 1670   0.486   1.449  11.483  0.6006 -1.2826  0.0381
  107TMC2    H2 1671   0.732   1.695  11.255 -1.2900 -1.8008 -0.7503
  107TMC2    C7 1672   0.609   1.455  11.250  0.1539 -0.5002  0.1862
  107TMC2    C8 1673   0.815   1.854  11.448 -0.4932 -0.6033 -0.2422
  107TMC2    O1 1674   0.518   1.371  11.257 -0.0532  0.4405 -0.5842
  107TMC2    O2 1675   0.814   1.953  11.526 -0.8223  0.1348  0.4236
  107TMC2    O5 1676   0.923   1.824  11.377 -0.5164  0.3788 -0.1939
  107TMC2    H5 1677   0.916   1.743  11.321 -1.6333 -1.4770  2.5975
  108MPD2     C 1678   0.585   1.690  12.049 -0.6272  0.5986  0.2455
  108MPD2    C1 1679   0.530   1.606  11.956  0.1072  0.1157  0.2060
  108MPD2    C2 1680   0.460   1.497  11.999  0.7323 -0.6754  0.5211
  108MPD2    C3 1681   0.458   1.455  12.132 -0.3464  0.4318  0.4299
  108MPD2    C4 1682   0.516   1.536  12.227 -0.0961  0.0586 -0.3172
  108MPD2    C5 1683   0.571   1.657  12.179  0.3500  0.2679 -0.0892
  108MPD2     H 1684   0.403   1.426  11.940  1.2258  0.4693 -1.3263
  108MPD2    H1 1685   0.502   1.510  12.331 -2.2122  0.3046 -0.5411
  108MPD2    H2 1686   0.631   1.779  12.007  0.4257 -0.3457 -0.6127
  108MPD2    H3 1687   0.602   1.731  12.252  0.8893  0.0804 -0.1247
  108MPD2     N 1688   0.387   1.343  12.182 -0.2695  0.1280  0.1619
  108MPD2    H5 1689   0.406   1.333  12.282 -0.6264 -3.4458 -0.1230
  108MPD2    N1 1690   0.549   1.638  11.824  0.3190 -0.2001 -0.5174
  108MPD2    H7 1691   0.604   1.723  11.811  2.0153 -1.1432  0.4025
  109TMC2    C1 1692   0.376   3.988   0.418  0.0496 -1.0415 -0.0773
  109TMC2    C2 1693   0.383   3.947   0.289 -0.7064 -0.0801 -0.2543
  109TMC2    C3 1694   0.501   3.902   0.243  0.2167  0.2555 -0.1067
  109TMC2    C4 1695   0.483   3.988   0.496 -0.6015 -0.3562 -0.7489
  109TMC2    C5 1696   0.597   3.929   0.458  0.5067  0.5269  0.7182
  109TMC2    C6 1697   0.608   3.888   0.324  0.5361 -0.1351  0.2867
  109TMC2     C 1698   0.240   4.018   0.467 -0.5323 -0.2792  0.0464
  109TMC2     O 1699   0.159   4.062   0.389 -1.0719  0.0911 -0.2419
  109TMC2     H 1700   0.298   3.932   0.224 -1.4605 -1.8687  1.1416
  109TMC2    H1 1701   0.474   4.024   0.598  2.1641 -1.4177 -0.1407
  109TMC2    H2 1702   0.702   3.847   0.287 -0.3900 -3.2619  1.4825
  109TMC2    C7 1703   0.711   3.965   0.537  0.5391  0.1817  0.3838
  109TMC2    C8 1704   0.512   3.871   0.101 -1.0300 -0.0267 -0.5117
  109TMC2    O1 1705   0.814   3.981   0.478 -0.1404  0.2247  0.1644
  109TMC2    O2 1706   0.450   3.942   0.021  0.1861 -0.4163 -0.3401
  109TMC2    O5 1707   0.532   3.740   0.101  0.2812 -0.2607 -0.6273
  109TMC2    H5 1708   0.572   3.691   0.176  0.0953 -0.9362 -0.9723
  110MPD2     C 1709   4.593   3.999   0.803 -0.0048  0.2694  0.5512
  110MPD2    C1 1710   4.700   3.948   0.859  0.2638  0.1161  1.5169
  110MPD2    C2 1711   0.094   3.953   0.800 -0.1276 -0.3544  0.3986
  110MPD2    C3 1712   0.106   4.013   0.677 -0.2641 -0.5060 -0.0705
  110MPD2    C4 1713   4.736   4.077   0.629  0.6149  0.1755  0.3464
  110MPD2    C5 1714   4.611   4.056   0.687  0.4850 -0.4305  0.1528
  110MPD2     H 1715   0.177   3.896   0.841  1.1176 -0.0389 -1.7141
  110MPD2    H1 1716   4.736   4.128   0.533  2.0477  0.7731  0.6595
  110MPD2    H2 1717   4.497   3.995   0.853 -0.9438  0.8153 -1.2182
  110MPD2    H3 1718   4.525   4.103   0.642  1.2704  1.8500  1.0210
  110MPD2     N 1719   0.225   3.983   0.594 -0.8669  0.1012  0.4164
  110MPD2    H5 1720   0.291   3.929   0.649  0.1694 -0.7767 -1.7095
  110MPD2    N1 1721   4.678   3.865   0.975 -0.5457  0.2461  0.2562
  110MPD2    H7 1722   4.579   3.862   0.995 -1.1257 -1.4906 -2.9005
  111TMC2    C1 1723   0.545   3.269  11.509 -0.7179  0.1591 -0.0382
  111TMC2    C2 1724   0.450   3.332  11.580 -0.2525 -0.4521  0.5079
  111TMC2    C3 1725   0.467   3.358  11.709 -0.4460 -0.9572  1.0595
  111TMC2    C4 1726   0.676   3.251  11.559 -0.0691 -0.1514 -0.4846
  111TMC2    C5 1727   0.692   3.290  11.688  0.2553  0.6691  0.1667
  111TMC2    C6 1728   0.590   3.347  11.760  0.2589  1.1118  0.0810
  111TMC2     C 1729   0.523   3.270  11.364 -0.1677 -0.4429  0.0822
  111TMC2     O 1730   0.433   3.347  11.329  0.2365 -0.1471  0.2214
  111TMC2     H 1731   0.355   3.351  11.530  1.1409  1.4583 -1.4028
  111TMC2    H1 1732   0.751   3.206  11.495  0.9813  3.2709 -1.6751
  111TMC2    H2 1733   0.610   3.373  11.863 -1.9036  1.3693  0.4336
  111TMC2    C7 1734   0.833   3.321  11.730 -0.5549 -0.4349  0.1976
  111TMC2    C8 1735   0.364   3.427  11.787  0.1638  0.5893  0.5735
  111TMC2    O1 1736   0.869   3.299  11.848 -0.8051 -0.3334 -0.2731
  111TMC2    O2 1737   0.280   3.496  11.729 -0.4334 -0.8196  0.1229
  111TMC2    O5 1738   0.394   3.416  11.916 -0.0773  0.6526 -0.4202
  111TMC2    H5 1739   0.447   3.336  11.935 -4.2099 -1.6229  1.4255
  112MPD2     C 1740   0.673   3.181  10.886  0.3120 -0.5384  0.5371
  112MPD2    C1 1741   0.594   3.279  10.937  0.0205 -0.3952  0.3365
  112MPD2    C2 1742   0.574   3.284  11.075  0.4537 -0.1222  0.5709
  112MPD2    C3 1743   0.624   3.183  11.156  0.6864  0.3290 -0.6091
  112MPD2    C4 1744   0.703   3.090  11.109 -0.4290 -0.4048  0.4414
  112MPD2    C5 1745   0.732   3.092  10.975 -0.1297  0.3353  0.4263
  112MPD2     H 1746   0.508   3.360  11.115 -1.8017 -1.5216 -0.4885
  112MPD2    H1 1747   0.738   3.017  11.182 -0.1880 -0.0402  0.6930
  112MPD2    H2 1748   0.690   3.178  10.779  0.9314 -1.5389  0.6705
  112MPD2    H3 1749   0.807   3.022  10.939 -0.2507  0.5546 -0.2507
  112MPD2     N 1750   0.598   3.182  11.295  0.1650  0.1902  0.4778
  112MPD2    H5 1751   0.646   3.113  11.352  0.4427  1.5230  1.8691
  112MPD2    N1 1752   0.546   3.379  10.849 -0.1163 -0.0941 -0.1296
  112MPD2    H7 1753   0.591   3.383  10.758  1.3026 -0.2925  0.5622
  113TMC2    C1 1754   3.436   1.774   0.765  0.5666 -0.0860  0.2005
  113TMC2    C2 1755   3.382   1.890   0.723  0.3527  0.7125  0.1336
  113TMC2    C3 1756   3.279   1.887   0.632  0.3667 -0.6393 -0.1483
  113TMC2    C4 1757   3.382   1.657   0.729 -0.0888  0.4491 -0.1649
  113TMC2    C5 1758   3.276   1.657   0.640  0.1189  0.6902  0.5835
  113TMC2    C6 1759   3.235   1.770   0.581  0.1158 -0.7616 -0.1301
  113TMC2     C 1760   3.549   1.787   0.863  0.1750  0.2687  0.1416
  113TMC2     O 1761   3.587   1.890   0.901 -0.0794 -0.1803  0.0158
  113TMC2     H 1762   3.425   1.983   0.760  1.2934 -0.7383  2.7155
  113TMC2    H1 1763   3.437   1.564   0.741 -0.5333  0.2226  0.1552
  113TMC2    H2 1764   3.150   1.761   0.515 -1.9434  0.8463  2.3011
  113TMC2    C7 1765   3.222   1.533   0.583 -0.1760 -0.1280 -0.8623
  113TMC2    C8 1766   3.224   2.019   0.600  0.1356  0.4028  0.6204
  113TMC2    O1 1767   3.154   1.543   0.478 -0.1060  0.5013  0.3061
  113TMC2    O2 1768   3.223   2.106   0.684 -0.2991 -0.6615 -0.5582
  113TMC2    O5 1769   3.142   2.009   0.491 -0.0149  0.4112 -0.0166
  113TMC2    H5 1770   3.181   1.941   0.431  0.4698  0.1796  0.5587
  114MPD2     C 1771   3.919   1.566   1.134 -0.6003 -0.4988 -0.3986
  114MPD2    C1 1772   3.862   1.689   1.159  0.4462  0.0056  0.6550
  114MPD2    C2 1773   3.764   1.728   1.072 -0.4367 -0.4475 -0.6302
  114MPD2    C3 1774   3.717   1.638   0.971 -0.8329  0.2222  0.5876
  114MPD2    C4 1775   3.776   1.513   0.954 -0.7927  0.0698  0.2603
  114MPD2    C5 1776   3.875   1.478   1.037  0.7747  0.4017 -0.1256
  114MPD2     H 1777   3.736   1.833   1.062 -0.1159 -0.2556  0.4337
  114MPD2    H1 1778   3.743   1.449   0.873  1.3370  0.3032 -0.7962
  114MPD2    H2 1779   3.993   1.513   1.194 -0.9501  2.4789  2.6631
  114MPD2    H3 1780   3.922   1.380   1.035  0.1731  0.1111 -0.1456
  114MPD2     N 1781   3.611   1.662   0.881 -0.1983 -0.0084  0.4507
  114MPD2    H5 1782   3.595   1.587   0.816  1.3503  1.6471 -1.8348
  114MPD2    N1 1783   3.893   1.765   1.270 -0.1557 -0.7983 -0.1096
  114MPD2    H7 1784   3.838   1.850   1.280 -0.0482 -0.4166 -2.6872
  115TMC2    C1 1785   4.469   4.243  17.675 -0.3752 -1.0376  0.1456
  115TMC2    C2 1786   4.602   4.212  17.673 -0.4711 -0.3747 -0.5569
  115TMC2    C3 1787   4.685   4.326  17.665 -0.2206  0.0509 -0.1346
  115TMC2    C4 1788   4.422   4.374  17.683  0.0118 -0.0697 -0.2764
  115TMC2    C5 1789   4.510   4.477  17.681 -0.1309 -0.2626 -0.7244
  115TMC2    C6 1790   4.643   4.456  17.676 -0.5830  0.3415  0.2648
  115TMC2     C 1791   4.383   4.130  17.693 -0.2721  0.1185  0.1212
  115TMC2     O 1792   4.421   4.019  17.662 -0.0673 -0.1965  0.2569
  115TMC2     H 1793   4.635   4.111  17.655  3.3240  0.6626  0.5354
  115TMC2    H1 1794   4.314   4.388  17.676 -0.0563  0.1312  1.2961
  115TMC2    H2 1795   4.711   4.541  17.679  2.0575 -1.7887 -0.0064
  115TMC2    C7 1796   4.454   4.598  17.638 -0.4330  0.3278  0.9725
  115TMC2    C8 1797   0.092   4.319  17.643 -1.1715  0.2703 -0.0113
  115TMC2    O1 1798   4.337   4.616  17.667  0.1482 -0.5586  0.4348
  115TMC2    O2 1799   0.145   4.384  17.555 -0.0720  0.0194  0.0832
  115TMC2    O5 1800   0.126   4.193  17.678 -0.4850 -0.7367 -0.4944
  115TMC2    H5 1801   0.071   4.143  17.742  0.4501 -1.5469 -0.3239
  116MPD2     C 1802   3.900   3.985   0.083  1.0737 -0.2133  0.1412
  116MPD2    C1 1803   4.000   3.911   0.020 -0.2890  0.1142  0.1927
  116MPD2    C2 1804   4.116   3.975  17.734 -0.2540 -0.0645  0.3099
  116MPD2    C3 1805   4.143   4.104   0.030  0.3304 -0.8797  0.0550
  116MPD2    C4 1806   4.041   4.179   0.083 -0.1777 -0.4837  0.2782
  116MPD2    C5 1807   3.924   4.120   0.105 -0.4139  0.3679  0.0298
  116MPD2     H 1808   4.191   3.929  17.671 -0.3392 -0.3022  0.3798
  116MPD2    H1 1809   4.050   4.285   0.104  0.0961 -0.1550 -1.5270
  116MPD2    H2 1810   3.809   3.936   0.117  0.0719  1.9707  0.6250
  116MPD2    H3 1811   3.850   4.176   0.161 -0.2845  0.6622 -0.0965
  116MPD2     N 1812   4.259   4.174  17.740 -0.0137 -0.1284  0.2655
  116MPD2    H5 1813   4.257   4.268   0.034 -0.9021  0.5189 -1.3632
  116MPD2    N1 1814   3.965   3.785  17.721 -0.4164 -0.2205  0.2275
  116MPD2    H7 1815   3.873   3.742  17.733 -0.4069 -0.6057 -1.1418
  117TMC2    C1 1816   2.802   0.411  14.184  0.7230 -0.1252 -0.4224
  117TMC2    C2 1817   2.912   0.388  14.262 -0.0403 -0.6632 -0.0456
  117TMC2    C3 1818   2.965   0.492  14.338  0.0607 -0.1663 -0.8907
  117TMC2    C4 1819   2.752   0.535  14.165  0.8133  0.4627  0.8578
  117TMC2    C5 1820   2.809   0.630  14.246  0.0574 -0.2516  0.1030
  117TMC2    C6 1821   2.907   0.608  14.337 -0.0046 -0.5098  0.0082
  117TMC2     C 1822   2.728   0.291  14.150  0.9065 -0.3109 -0.6042
  117TMC2     O 1823   2.796   0.187  14.154  0.3280  0.1385 -0.2644
  117TMC2     H 1824   2.942   0.289  14.294 -0.0950 -0.8979 -0.7405
  117TMC2    H1 1825   2.684   0.557  14.083  0.7420  0.6000  0.9543
  117TMC2    H2 1826   2.947   0.692  14.393  0.1087 -0.1677 -0.5856
  117TMC2    C7 1827   2.808   0.773  14.201  0.4661  0.0419 -0.2399
  117TMC2    C8 1828   3.057   0.483  14.447  0.3367  0.2545 -0.6625
  117TMC2    O1 1829   2.892   0.851  14.244  0.8135 -0.3321  0.0942
  117TMC2    O2 1830   3.061   0.561  14.542  0.3207 -0.1199  0.2665
  117TMC2    O5 1831   3.128   0.372  14.440  0.1307  0.4918 -0.1573
  117TMC2    H5 1832   3.144   0.336  14.350 -0.2618  0.8277 -0.3600
  118MPD2     C 1833   2.527   0.937  14.011 -0.2168 -0.3589  0.7659
  118MPD2    C1 1834   2.655   0.925  14.074  0.1665  0.8188  0.3518
  118MPD2    C2 1835   2.731   1.040  14.084  0.0996 -0.6454  0.9871
  118MPD2    C3 1836   2.692   1.161  14.039  0.4148 -0.2559  0.1477
  118MPD2    C4 1837   2.564   1.168  13.991  0.1163  0.1224  0.1055
  118MPD2    C5 1838   2.484   1.057  13.975 -0.1647 -0.4463 -0.5743
  118MPD2     H 1839   2.831   1.037  14.127 -0.0669 -2.5791  1.2381
  118MPD2    H1 1840   2.519   1.262  13.961  0.5905  0.5792  0.8206
  118MPD2    H2 1841   2.467   0.847  13.999  1.5009 -1.3520 -0.3433
  118MPD2    H3 1842   2.382   1.070  13.941  0.7871  0.5911 -2.9829
  118MPD2     N 1843   2.776   1.275  14.043  0.8060  0.0000 -0.2576
  118MPD2    H5 1844   2.720   1.360  14.037 -0.2231 -0.7151 -0.8118
  118MPD2    N1 1845   2.699   0.795  14.119 -0.0790  0.3139  0.1426
  118MPD2    H7 1846   2.632   0.721  14.099 -0.6099  0.5206  1.1591
  119TMC2    C1 1847   0.696   1.272  12.884 -0.5955  0.2763  0.0442
  119TMC2    C2 1848   0.701   1.313  12.752  0.2168 -0.3113 -0.5663
  119TMC2    C3 1849   0.586   1.318  12.676  0.2951 -0.1891  0.3491
  119TMC2    C4 1850   0.572   1.247  12.943 -0.5669  0.1188  0.8195
  119TMC2    C5 1851   0.459   1.253  12.861 -0.1557 -0.2231  0.1281
  119TMC2    C6 1852   0.465   1.291  12.728  0.3564  0.1425  0.1873
  119TMC2     C 1853   0.782   1.339  12.974 -1.0461 -0.3517 -0.2910
  119TMC2     O 1854   0.724   1.405  13.061  0.1062  0.0259 -0.1225
  119TMC2     H 1855   0.801   1.341  12.721  0.4458  1.5986  1.8661
  119TMC2    H1 1856   0.569   1.230  13.049  0.2648 -1.5077  0.5811
  119TMC2    H2 1857   0.375   1.329  12.681  0.2645 -1.7260 -1.1549
  119TMC2    C7 1858   0.334   1.286  12.924 -0.3866  0.2651 -0.1374
  119TMC2    C8 1859   0.587   1.344  12.536 -0.1392  0.7114 -0.3480
  119TMC2    O1 1860   0.233   1.276  12.855  0.3749 -0.1214 -0.2744
  119TMC2    O2 1861   0.499   1.310  12.459 -0.1076  0.6415  0.5993
  119TMC2    O5 1862   0.650   1.466  12.533 -0.2299  0.4802  0.3959
  119TMC2    H5 1863   0.690   1.498  12.617 -1.9771 -0.5607  1.6457
  120MPD2     C 1864   1.236   1.544  13.104 -0.2369 -0.6451  0.3978
  120MPD2    C1 1865   1.107   1.582  13.145 -0.9353 -0.2174  0.5164
  120MPD2    C2 1866   0.995   1.520  13.077  0.2819  0.1247 -0.2600
  120MPD2    C3 1867   1.020   1.421  12.980 -0.5043  0.2159 -0.5155
  120MPD2    C4 1868   1.153   1.390  12.947 -0.5072  0.8523  0.0399
  120MPD2    C5 1869   1.258   1.446  13.012 -0.3044 -0.4720 -0.0042
  120MPD2     H 1870   0.895   1.558  13.093  0.3555 -0.3138  1.3040
  120MPD2    H1 1871   1.173   1.322  12.865  1.0620  0.5691  0.6596
  120MPD2    H2 1872   1.330   1.583  13.143 -0.4790  1.6350 -1.2712
  120MPD2    H3 1873   1.360   1.419  12.985 -0.3229 -1.8918  1.3364
  120MPD2     N 1874   0.914   1.337  12.923 -0.0882  0.1168  0.0023
  120MPD2    H5 1875   0.928   1.262  12.857 -2.4987  1.8367 -2.4604
  120MPD2    N1 1876   1.099   1.674  13.251 -0.3845 -0.0274 -0.0292
  120MPD2    H7 1877   1.185   1.727  13.261 -0.7232  0.3548  0.8899
  121TMC2    C1 1878   2.338   3.545  14.323 -0.3266  0.5163  0.3356
  121TMC2    C2 1879   2.459   3.477  14.327 -0.2263  0.2240 -0.5909
  121TMC2    C3 1880   2.456   3.358  14.391  0.0200  0.4312  0.4174
  121TMC2    C4 1881   2.222   3.498  14.381 -0.3090  0.1427 -0.3324
  121TMC2    C5 1882   2.232   3.375  14.445 -0.1310 -0.1197  0.2610
  121TMC2    C6 1883   2.345   3.303  14.456 -0.2774 -0.2169  0.4519
  121TMC2     C 1884   2.328   3.672  14.256  0.2920  0.1071  0.0685
  121TMC2     O 1885   2.227   3.741  14.281  0.3655 -0.0283  0.3192
  121TMC2     H 1886   2.551   3.522  14.292  0.4327 -2.0451 -1.7682
  121TMC2    H1 1887   2.130   3.554  14.372 -1.9883 -2.3902  1.0272
  121TMC2    H2 1888   2.348   3.207  14.506 -0.3232 -1.0274 -1.1055
  121TMC2    C7 1889   2.120   3.336  14.532 -0.2161 -1.0356 -0.4171
  121TMC2    C8 1890   2.596   3.325  14.429 -0.1675 -0.7568  0.6000
  121TMC2    O1 1891   2.148   3.277  14.635  0.5283 -0.4903  0.4223
  121TMC2    O2 1892   2.695   3.397  14.434 -0.0254  0.0196 -0.7282
  121TMC2    O5 1893   2.609   3.191  14.421 -0.1837 -0.0572  0.3557
  121TMC2    H5 1894   2.529   3.141  14.394  1.0498 -2.8282  1.7900
  122MPD2     C 1895   2.391   3.917  14.087 -0.4423  0.2976 -0.0826
  122MPD2    C1 1896   2.425   3.788  14.051  0.4132  0.1134  0.0102
  122MPD2    C2 1897   2.479   3.764  13.918  0.3434 -0.0662 -0.6216
  122MPD2    C3 1898   2.494   3.875  13.828  0.0349 -0.0141 -0.6760
  122MPD2    C4 1899   2.453   4.000  13.867 -0.4427 -0.0185 -0.4442
  122MPD2    C5 1900   2.407   4.020  13.994 -0.1751 -0.0772 -1.0761
  122MPD2     H 1901   2.520   3.666  13.897 -0.2483  0.0887 -2.5293
  122MPD2    H1 1902   2.467   4.080  13.796  0.7412  1.0137  0.9547
  122MPD2    H2 1903   2.347   3.947  14.181  0.7291 -1.1416  0.9098
  122MPD2    H3 1904   2.368   4.115  14.027  1.4300 -0.3926  1.7059
  122MPD2     N 1905   2.555   3.862  13.706  0.1834  0.1295  0.6239
  122MPD2    H5 1906   2.558   3.944  13.646  2.1197 -1.8307 -1.9947
  122MPD2    N1 1907   2.415   3.681  14.143 -0.5811 -0.4772 -0.3233
  122MPD2    H7 1908   2.448   3.592  14.107 -0.5130 -0.7818  0.4693
  123TMC2    C1 1909   1.268   2.345  10.424  0.8242 -0.3865  0.0003
  123TMC2    C2 1910   1.285   2.453  10.504  0.1204 -0.0819  0.0428
  123TMC2    C3 1911   1.287   2.579  10.448  0.2838  0.1511  0.1348
  123TMC2    C4 1912   1.284   2.347  10.289  0.5331 -0.2676 -0.4886
  123TMC2    C5 1913   1.292   2.479  10.240  0.7502 -0.1257  0.2278
  123TMC2    C6 1914   1.301   2.598  10.309 -0.0422  0.1713 -0.3078
  123TMC2     C 1915   1.234   2.225  10.497  0.2386  0.2927 -0.0065
  123TMC2     O 1916   1.282   2.204  10.609  0.3875  0.1443 -0.0984
  123TMC2     H 1917   1.276   2.444  10.611 -4.0240  0.3931 -0.2636
  123TMC2    H1 1918   1.308   2.254  10.238  2.4749  0.1759 -0.3921
  123TMC2    H2 1919   1.298   2.694  10.259 -0.0157  0.6025  0.5011
  123TMC2    C7 1920   1.324   2.480  10.099  0.1709 -0.4354 -0.3950
  123TMC2    C8 1921   1.292   2.694  10.545 -0.2843 -0.0924  1.1098
  123TMC2    O1 1922   1.290   2.391  10.021  0.0612 -0.5296 -0.4950
  123TMC2    O2 1923   1.312   2.678  10.666  0.0734 -0.3808  0.0410
  123TMC2    O5 1924   1.262   2.815  10.482 -0.5150  0.0452  0.2044
  123TMC2    H5 1925   1.220   2.807  10.393 -0.5469 -1.7091  0.3618
  124MPD2     C 1926   1.013   1.758  10.455  0.8613  0.1720 -0.7382
  124MPD2    C1 1927   1.010   1.823  10.332 -0.7490 -0.0748  0.4755
  124MPD2    C2 1928   1.049   1.959  10.325  0.5687 -0.0500  0.4274
  124MPD2    C3 1929   1.106   2.021  10.434 -0.3952  0.1716  0.4296
  124MPD2    C4 1930   1.123   1.953  10.548 -0.4708  0.1726  0.1813
  124MPD2    C5 1931   1.077   1.823  10.562 -0.2693 -0.2155  0.0417
  124MPD2     H 1932   1.035   2.023  10.239 -1.2808 -0.0725  0.7167
  124MPD2    H1 1933   1.158   2.000  10.640  1.1874 -0.9398  0.1363
  124MPD2    H2 1934   0.971   1.659  10.470  0.7992  0.3305  0.0944
  124MPD2    H3 1935   1.064   1.772  10.657 -1.6790 -1.4341 -0.8097
  124MPD2     N 1936   1.155   2.149  10.416  0.0348 -0.5730  0.3562
  124MPD2    H5 1937   1.116   2.203  10.340 -1.5839 -1.2782  0.6986
  124MPD2    N1 1938   0.961   1.749  10.222 -0.1947 -0.0893  0.1227
  124MPD2    H7 1939   0.970   1.648  10.229  0.2354 -0.3799 -4.6586
  125TMC2    C1 1940   3.258   4.591   8.024  0.4837 -0.5629 -0.7225
  125TMC2    C2 1941   3.230   4.509   7.914  0.4047  0.6816 -0.2573
  125TMC2    C3 1942   3.190   4.381   7.944 -0.0361 -0.4280 -0.0507
  125TMC2    C4 1943   3.261   4.545   8.153 -0.1932 -0.7806 -0.0055
  125TMC2    C5 1944   3.265   4.411   8.164  0.0534 -0.2255 -0.2178
  125TMC2    C6 1945   3.228   4.323   8.065 -0.2350 -0.1056  0.3202
  125TMC2     C 1946   3.255   4.733   7.995 -0.2418  0.2235  0.4252
  125TMC2     O 1947   3.187   0.040   7.899  0.4556 -0.2789 -0.5221
  125TMC2     H 1948   3.240   4.545   7.812 -0.3879 -2.9560 -1.6418
  125TMC2    H1 1949   3.285   4.610   8.235 -2.0497 -0.2656  0.1285
  125TMC2    H2 1950   3.225   4.216   8.080  0.4978  0.0343  1.4531
  125TMC2    C7 1951   3.289   4.361   8.295 -0.0400 -0.3608  0.0589
  125TMC2    C8 1952   3.188   4.298   7.826 -0.2089  0.2878 -0.4576
  125TMC2    O1 1953   3.250   4.445   8.374 -0.0978  0.6933 -0.2075
  125TMC2    O2 1954   3.251   4.316   7.722 -0.2516  0.7230  0.4054
  125TMC2    O5 1955   3.120   4.192   7.861 -0.1455  0.1876  0.4735
  125TMC2    H5 1956   3.049   4.213   7.925 -0.6011  1.3841 -0.4143
  126MPD1     C 1957   3.363   0.471   8.139 -0.5945 -0.0737 -0.3697
  126MPD1    C1 1958   3.449   0.388   8.202  0.6100  0.0221  0.3451
  126MPD1    C2 1959   3.427   0.256   8.185 -0.1257 -0.1321 -0.3495
  126MPD1    C3 1960   3.328   0.206   8.099  0.4431 -0.3650  0.4153
  126MPD1    C4 1961   3.245   0.294   8.034  0.4075 -0.2705 -0.2263
  126MPD1    C5 1962   3.261   0.425   8.059  0.1389 -0.0034 -0.2259
  126MPD1     H 1963   3.508   0.198   8.227 -0.2495  0.1149  0.2421
  126MPD1    H1 1964   3.167   0.258   7.968 -2.9816  1.9440  2.5374
  126MPD1    H2 1965   3.371   0.578   8.146 -0.1003 -0.0084 -1.9246
  126MPD1    H3 1966   3.198   0.496   8.007  0.8672  0.7747 -0.0365
  126MPD1     N 1967   3.323   0.062   8.092 -0.9190 -0.2358 -0.1288
  126MPD1    H5 1968   3.378   4.734   8.148  0.1054  1.5920  0.9327
  126MPD1    N1 1969   3.557   0.438   8.273  0.2995  0.2033  0.3187
  126MPD1    H6 1970   3.580   0.370   8.345 -0.8806  1.1890  1.6360
  126MPD1    H7 1971   3.536   0.528   8.315 -2.8436 -0.2032 -0.3666
  127TMC2    C1 1972   3.167   2.017   9.354  0.2232 -0.4332  0.5303
  127TMC2    C2 1973   3.216   1.891   9.338 -0.0922 -0.8827 -0.3459
  127TMC2    C3 1974   3.128   1.785   9.373 -0.0933 -0.0271 -0.4942
  127TMC2    C4 1975   3.037   2.033   9.413  0.6414  0.3401 -0.2749
  127TMC2    C5 1976   2.966   1.928   9.455 -0.2218 -0.4411 -0.0863
  127TMC2    C6 1977   3.007   1.799   9.436  0.0684  0.1463 -0.4549
  127TMC2     C 1978   3.250   2.131   9.328 -0.3365 -0.0707  0.1710
  127TMC2     O 1979   3.372   2.126   9.321  0.5650  0.0522 -0.6384
  127TMC2     H 1980   3.320   1.876   9.311 -0.2983 -0.5271 -1.3486
  127TMC2    H1 1981   3.003   2.133   9.438  1.4186 -0.4792  3.9718
  127TMC2    H2 1982   2.943   1.712   9.441 -1.1056  1.0103 -0.3355
  127TMC2    C7 1983   2.842   1.954   9.531  0.2417 -0.1885 -0.8669
  127TMC2    C8 1984   3.186   1.656   9.355 -0.0942  0.2672  0.6745
  127TMC2    O1 1985   2.787   2.062   9.504  0.2608  0.2753 -0.6570
  127TMC2    O2 1986   3.231   1.602   9.456 -0.0390  0.3712 -0.2801
  127TMC2    O5 1987   3.249   1.662   9.234  0.0024 -0.3110 -0.1028
  127TMC2    H5 1988   3.194   1.704   9.165 -2.1118  0.4965  2.0384
  128MPD2     C 1989   3.112   2.458   9.229 -0.3988  0.4797 -0.4799
  128MPD2    C1 1990   3.213   2.375   9.270  0.5743  0.0483 -0.3316
  128MPD2    C2 1991   3.342   2.426   9.286 -0.0388 -0.1537  0.3028
  128MPD2    C3 1992   3.372   2.565   9.272 -0.1754 -0.4194  0.4234
  128MPD2    C4 1993   3.266   2.639   9.235 -0.4482 -0.1527 -0.2043
  128MPD2    C5 1994   3.137   2.586   9.212 -0.9153  0.2668 -0.2132
  128MPD2     H 1995   3.430   2.367   9.309 -0.0746  0.8009  2.8489
  128MPD2    H1 1996   3.266   2.747   9.222  1.1765 -0.2743 -1.0922
  128MPD2    H2 1997   3.012   2.418   9.221 -0.3175  0.7350 -2.8890
  128MPD2    H3 1998   3.059   2.659   9.193 -0.9067  0.6909  1.3871
  128MPD2     N 1999   3.502   2.621   9.297 -0.0088  0.4078  0.2309
  128MPD2    H5 2000   3.584   2.563   9.313 -1.3911 -0.6764  3.2618
  128MPD2    N1 2001   3.173   2.240   9.297  0.3802  0.6152  0.1093
  128MPD2    H7 2002   3.074   2.218   9.283  0.1459  0.8659  1.3649
  129TMC2    C1 2003   2.015   2.963   1.706 -0.2967  0.2728  0.1946
  129TMC2    C2 2004   2.010   3.090   1.752 -0.1631  0.1947 -0.2584
  129TMC2    C3 2005   1.895   3.128   1.819  0.0771 -0.0680 -0.2725
  129TMC2    C4 2006   1.914   2.876   1.743 -0.6431  0.2932  0.5890
  129TMC2    C5 2007   1.806   2.914   1.813  0.4953  0.3246  0.4767
  129TMC2    C6 2008   1.785   3.042   1.847  0.5024  0.3653 -0.1428
  129TMC2     C 2009   2.081   2.933   1.584  0.2352 -0.7203 -0.0195
  129TMC2     O 2010   2.065   2.824   1.535 -0.0568  0.8328  0.2670
  129TMC2     H 2011   2.077   3.170   1.723 -1.1678  1.1101 -0.0462
  129TMC2    H1 2012   1.922   2.773   1.710  0.6401  1.5188 -2.8494
  129TMC2    H2 2013   1.696   3.070   1.902  0.7655  0.5164  0.2082
  129TMC2    C7 2014   1.706   2.819   1.851 -1.0655  0.1993 -0.4656
  129TMC2    C8 2015   1.881   3.274   1.823  0.7286 -0.8678  0.8247
  129TMC2    O1 2016   1.590   2.860   1.847 -0.8436  0.4067 -0.9933
  129TMC2    O2 2017   1.892   3.338   1.717  0.6222 -0.1949  0.7295
  129TMC2    O5 2018   1.791   3.290   1.924  0.2982 -0.0116 -0.3130
  129TMC2    H5 2019   1.800   3.239   2.007 -1.3707 -0.9554 -0.7211
  130MPD2     C 2020   2.219   2.941   1.315  1.4332 -0.0714  0.4453
  130MPD2    C1 2021   2.243   3.027   1.423  0.5230  0.2616 -0.0337
  130MPD2    C2 2022   2.333   3.131   1.402 -0.4020 -0.6215  0.2652
  130MPD2    C3 2023   2.401   3.151   1.285  0.2729 -1.3393  0.7873
  130MPD2    C4 2024   2.377   3.065   1.183  0.0004 -0.2450 -0.3704
  130MPD2    C5 2025   2.283   2.965   1.194  0.0841  0.2887  0.3469
  130MPD2     H 2026   2.336   3.204   1.482 -0.5462  1.4615 -1.6206
  130MPD2    H1 2027   2.437   3.069   1.092  0.6898  0.1237  0.1022
  130MPD2    H2 2028   2.148   2.859   1.314  1.8294 -0.3843 -1.2341
  130MPD2    H3 2029   2.273   2.890   1.116  0.1273  1.2848 -0.6158
  130MPD2     N 2030   2.478   3.267   1.281 -0.0748 -0.0671 -0.2996
  130MPD2    H5 2031   2.490   3.326   1.363 -0.2666 -0.6859  0.1757
  130MPD2    N1 2032   2.173   3.030   1.547  0.8320 -0.7497 -0.4836
  130MPD2    H7 2033   2.195   3.103   1.614 -0.7098 -2.2647  1.6781
  131TMC2    C1 2034   1.196   2.540   9.692  0.3569 -0.2551 -0.2735
  131TMC2    C2 2035   1.176   2.617   9.798  0.0170 -0.4664 -0.7324
  131TMC2    C3 2036   1.224   2.749   9.790  0.1182 -0.3758 -0.4111
  131TMC2    C4 2037   1.279   2.578   9.586 -0.4405 -0.5676 -0.1630
  131TMC2    C5 2038   1.331   2.705   9.597 -0.1430 -0.1369  0.5483
  131TMC2    C6 2039   1.305   2.799   9.687  0.0478  0.4339  0.4361
  131TMC2     C 2040   1.146   2.402   9.688  0.1405  0.0285  0.5413
  131TMC2     O 2041   1.103   2.361   9.798 -0.2560 -0.5777 -0.6575
  131TMC2     H 2042   1.103   2.577   9.867  0.6223 -1.3499 -0.6082
  131TMC2    H1 2043   1.310   2.503   9.514  2.2785  0.4736 -0.0857
  131TMC2    H2 2044   1.315   2.903   9.660  0.7877  0.1454 -0.3846
  131TMC2    C7 2045   1.422   2.746   9.492 -0.0942  0.1176  0.0905
  131TMC2    C8 2046   1.207   2.817   9.913 -0.2738  0.2799  0.2252
  131TMC2    O1 2047   1.414   2.680   9.390 -0.2545  0.3012  0.3681
  131TMC2    O2 2048   1.141   2.774  10.008 -0.2567  0.1501  0.5836
  131TMC2    O5 2049   1.322   2.884   9.925  0.4615  0.6464  0.0121
  131TMC2    H5 2050   1.375   2.909   9.847  0.1142 -0.0558 -0.4495
  132MPD2     C 2051   1.116   2.186   9.397 -0.4564 -0.9552  0.4078
  132MPD2    C1 2052   1.107   2.218   9.532 -0.3370  0.2727  0.1237
  132MPD2    C2 2053   1.048   2.133   9.626 -0.1531 -0.9127  0.4173
  132MPD2    C3 2054   1.011   2.008   9.586  0.1629  0.0744 -0.4158
  132MPD2    C4 2055   1.021   1.979   9.447  0.2835  0.3935  0.8397
  132MPD2    C5 2056   1.085   2.060   9.355 -0.2264 -0.1672 -0.1571
  132MPD2     H 2057   1.033   2.154   9.731 -1.0397  0.4164  0.0222
  132MPD2    H1 2058   1.016   1.874   9.422 -1.6246  0.4767  0.8939
  132MPD2    H2 2059   1.149   2.254   9.319 -0.2925  0.4076  1.6698
  132MPD2    H3 2060   1.107   2.035   9.252  0.3857  1.8198 -0.5159
  132MPD2     N 2061   0.960   1.920   9.685  0.4883  0.7795 -0.1861
  132MPD2    H5 2062   0.983   1.941   9.782  0.4993  3.5203 -0.7688
  132MPD2    N1 2063   1.160   2.341   9.562  0.2182 -0.5856  0.3808
  132MPD2    H7 2064   1.185   2.401   9.484 -0.8015 -0.2003  0.3421
  133TMC2    C1 2065   0.050   3.868   9.910  0.1089 -0.0058 -0.8917
  133TMC2    C2 2066   4.701   3.942   9.986  0.4516  0.1478 -0.2388
  133TMC2    C3 2067   4.650   4.056   9.931 -0.0545 -0.1240  1.0513
  133TMC2    C4 2068   0.097   3.905   9.784 -0.5171  1.0320 -0.5533
  133TMC2    C5 2069   0.040   4.020   9.736  0.0498  0.4630  0.3143
  133TMC2    C6 2070   4.677   4.096   9.802 -0.0415  0.1174 -0.1307
  133TMC2     C 2071   0.092   3.741   9.961  0.1479  0.5931 -0.4051
  133TMC2     O 2072   0.116   3.656   9.876  0.2468 -0.2785  0.0604
  133TMC2     H 2073   4.676   3.928  10.091  0.0051 -1.1266 -0.5140
  133TMC2    H1 2074   0.184   3.856   9.741 -1.3823 -0.7558 -0.2832
  133TMC2    H2 2075   4.628   4.188   9.770  0.2178 -0.3297 -1.7982
  133TMC2    C7 2076   0.052   4.038   9.590  0.8025  0.1505 -0.1048
  133TMC2    C8 2077   4.575   4.144  10.015 -0.3025  0.1776  0.3408
  133TMC2    O1 2078   0.028   4.150   9.555  0.1369 -0.1202 -0.7676
  133TMC2    O2 2079   4.595   4.171  10.133  0.1062  0.2222 -0.4684
  133TMC2    O5 2080   4.448   4.144   9.959  0.1373  0.2840  0.1454
  133TMC2    H5 2081   4.448   4.092   9.876 -1.8009  1.1571 -0.3910
  134MPD2     C 2082   0.150   3.617  10.301 -0.0392 -0.0373  0.1025
  134MPD2    C1 2083   0.154   3.615  10.163 -0.3663  0.0173  0.2826
  134MPD2    C2 2084   0.207   3.500  10.107 -0.2534  0.0717  0.1056
  134MPD2    C3 2085   0.265   3.404  10.181  0.2457  0.5622  0.5991
  134MPD2    C4 2086   0.248   3.405  10.317  0.3229  0.1378 -0.0678
  134MPD2    C5 2087   0.179   3.507  10.374 -0.1936 -0.1338  0.2778
  134MPD2     H 2088   0.241   3.503  10.004  0.6105  0.7083  0.4054
  134MPD2    H1 2089   0.277   3.326  10.385  2.8540 -0.6345 -2.0851
  134MPD2    H2 2090   0.090   3.691  10.353 -0.3123  0.9088 -1.5614
  134MPD2    H3 2091   0.155   3.503  10.480  0.4566  0.6763  0.4512
  134MPD2     N 2092   0.305   3.278  10.131  0.0100 -0.3180 -0.2264
  134MPD2    H5 2093   0.320   3.195  10.188  0.4932 -0.3494 -0.4049
  134MPD2    N1 2094   0.107   3.732  10.097 -0.5176  0.0268 -0.3821
  134MPD2    H7 2095   0.088   3.815  10.153  0.7272 -0.9960  1.5225
  135TMC2    C1 2096   3.013   4.515   9.349 -0.5451  0.5440  0.7081
  135TMC2    C2 2097   2.932   4.557   9.455  1.1470  0.1730 -0.4211
  135TMC2    C3 2098   2.870   4.463   9.525 -0.6068  0.1464  0.3231
  135TMC2    C4 2099   3.022   4.382   9.311 -0.4720 -0.0846 -0.2312
  135TMC2    C5 2100   2.957   4.291   9.389 -0.9038  0.4245 -0.2138
  135TMC2    C6 2101   2.881   4.332   9.495  0.1243 -0.0225 -0.1824
  135TMC2     C 2102   3.072   4.617   9.254  1.1451  0.5796  0.1118
  135TMC2     O 2103   3.035   4.733   9.276  0.0395 -0.6772 -0.0142
  135TMC2     H 2104   2.926   4.661   9.487  0.0284  0.9560 -3.2186
  135TMC2    H1 2105   3.088   4.345   9.233 -0.0521  0.8140 -0.2973
  135TMC2    H2 2106   2.816   4.266   9.552  3.3217 -2.1786  0.9569
  135TMC2    C7 2107   2.950   4.157   9.337  0.6168  0.3849  0.1710
  135TMC2    C8 2108   2.745   4.503   9.590  0.4498  0.1373  0.1498
  135TMC2    O1 2109   2.922   4.142   9.215  0.3900  0.5956 -0.1192
  135TMC2    O2 2110   2.635   4.480   9.544  0.0076  0.3954 -0.7690
  135TMC2    O5 2111   2.783   4.584   9.683 -0.0549  0.5790 -0.4076
  135TMC2    H5 2112   2.881   4.574   9.687 -0.0025  1.2589  0.0749
  136MPD2     C 2113   3.168   0.048   9.039 -0.3495 -0.7765 -0.6726
  136MPD2    C1 2114   3.208   4.654   9.047 -0.9285  0.8860 -0.2023
  136MPD2    C2 2115   3.274   4.587   8.944  0.1411 -0.1502  0.6899
  136MPD2    C3 2116   3.312   4.663   8.834  0.0881  0.2731  0.2353
  136MPD2    C4 2117   3.278   0.059   8.824 -0.5275 -0.4561 -0.2752
  136MPD2    C5 2118   3.205   0.120   8.923  0.4192 -0.6822 -0.0074
  136MPD2     H 2119   3.296   4.481   8.955  0.5651 -0.1405 -0.0326
  136MPD2    H1 2120   3.295   0.121   8.737 -2.3467 -0.2540 -0.4720
  136MPD2    H2 2121   3.112   0.102   9.115  0.9650  1.0822 -1.0507
  136MPD2    H3 2122   3.178   0.225   8.928  0.4469 -0.7436  1.3781
  136MPD2     N 2123   3.395   4.606   8.733  0.4748 -0.0430  0.1199
  136MPD2    H5 2124   3.396   4.665   8.650 -2.0237  0.3700  0.4005
  136MPD2    N1 2125   3.158   4.573   9.156 -0.1032  0.3006  0.4522
  136MPD2    H7 2126   3.182   4.475   9.148  0.5126  0.7512 -3.1633
  137TMC2    C1 2127   2.168   3.795   8.597 -1.5530  0.2934 -0.0392
  137TMC2    C2 2128   2.105   3.865   8.501  0.2590  0.0218  1.0838
  137TMC2    C3 2129   2.059   3.987   8.535  0.6947  0.1910 -0.4099
  137TMC2    C4 2130   2.173   3.836   8.724 -0.1573 -0.7017 -0.4533
  137TMC2    C5 2131   2.105   3.951   8.751 -0.3833 -0.1850 -0.2122
  137TMC2    C6 2132   2.053   4.030   8.658  0.2122 -0.4052  0.0563
  137TMC2     C 2133   2.218   3.663   8.548 -0.0500  0.4875  0.2196
  137TMC2     O 2134   2.172   3.620   8.444 -1.1022 -0.0984 -0.6480
  137TMC2     H 2135   2.145   3.854   8.401  0.5227  1.1835  1.0641
  137TMC2    H1 2136   2.219   3.772   8.798 -0.0323  0.4299  0.4354
  137TMC2    H2 2137   1.999   4.121   8.680  0.4290 -0.5472  1.1760
  137TMC2    C7 2138   2.129   4.005   8.881  0.5193 -0.3085  0.0111
  137TMC2    C8 2139   2.005   4.066   8.423 -0.5069  0.1483 -0.5457
  137TMC2    O1 2140   2.144   4.125   8.903  0.2506 -0.0305 -0.0821
  137TMC2    O2 2141   1.945   4.011   8.334  0.3845 -0.5423 -0.4514
  137TMC2    O5 2142   1.998   4.196   8.463 -0.2156 -0.2192  0.0700
  137TMC2    H5 2143   2.073   4.218   8.522 -1.9779  3.1124  1.0720
  138MPD2     C 2144   2.318   3.385   8.528  0.9472  0.5250 -0.0257
  138MPD2    C1 2145   2.381   3.486   8.603 -0.2127 -0.0048  0.2145
  138MPD2    C2 2146   2.500   3.452   8.674  0.1056  0.0653 -0.0494
  138MPD2    C3 2147   2.542   3.324   8.675 -0.1191  0.0116  0.0174
  138MPD2    C4 2148   2.481   3.231   8.598  0.1326  0.3066  0.7297
  138MPD2    C5 2149   2.370   3.263   8.523  0.3056 -0.9093 -0.1407
  138MPD2     H 2150   2.534   3.520   8.752  0.5789 -0.6594  0.3802
  138MPD2    H1 2151   2.526   3.133   8.592 -1.7851 -0.5857  0.7705
  138MPD2    H2 2152   2.227   3.400   8.471 -0.0578  0.8576  1.6651
  138MPD2    H3 2153   2.333   3.186   8.456  2.4941 -1.2102 -1.0165
  138MPD2     N 2154   2.651   3.292   8.766 -0.1630 -0.6234 -0.0398
  138MPD2    H5 2155   2.708   3.366   8.806 -0.2793 -1.2032  1.2223
  138MPD2    N1 2156   2.326   3.614   8.620 -0.6571 -0.2706 -0.0971
  138MPD2    H7 2157   2.371   3.675   8.688  1.2290 -0.8261 -0.8451
  139TMC2    C1 2158   2.812   1.055  13.718  0.4040 -0.0360 -0.1217
  139TMC2    C2 2159   2.919   1.140  13.732  0.0092  0.8918 -0.3849
  139TMC2    C3 2160   2.906   1.260  13.679 -1.1275 -0.4506 -0.5843
  139TMC2    C4 2161   2.695   1.092  13.663 -0.4715  0.2292  0.2240
  139TMC2    C5 2162   2.689   1.217  13.607  0.0031 -0.0435 -0.2067
  139TMC2    C6 2163   2.791   1.308  13.621 -0.3566 -0.4121  0.6556
  139TMC2     C 2164   2.833   0.921  13.749 -0.1067 -0.2417 -0.3645
  139TMC2     O 2165   2.749   0.840  13.712 -0.0810  0.5624 -0.4373
  139TMC2     H 2166   3.019   1.126  13.772 -0.1456 -0.2102 -0.3652
  139TMC2    H1 2167   2.619   1.019  13.637 -0.7983  0.6209  0.0869
  139TMC2    H2 2168   2.786   1.401  13.566  0.2952  0.4507  2.0570
  139TMC2    C7 2169   2.556   1.275  13.579 -0.4711 -0.1160  0.7854
  139TMC2    C8 2170   3.014   1.349  13.695 -0.2049  0.0175 -0.6374
  139TMC2    O1 2171   2.562   1.388  13.542 -0.5957  0.1293 -0.0966
  139TMC2    O2 2172   3.126   1.310  13.721  0.4105 -0.1863  0.1825
  139TMC2    O5 2173   2.959   1.470  13.735 -0.3507 -0.4277  0.6903
  139TMC2    H5 2174   2.862   1.478  13.736 -0.2736  0.5949 -0.4979
  140MPD2     C 2175   3.050   0.792  14.006 -0.2940 -0.1584 -0.1503
  140MPD2    C1 2176   2.974   0.784  13.889 -0.7067 -0.0759  0.1618
  140MPD2    C2 2177   2.971   0.670  13.816  0.7384  0.0541 -0.6275
  140MPD2    C3 2178   3.041   0.555  13.857 -0.0779 -0.3853 -0.1668
  140MPD2    C4 2179   3.105   0.562  13.977 -0.5061  0.3985  0.0400
  140MPD2    C5 2180   3.112   0.678  14.046 -0.2752 -0.4015 -0.2060
  140MPD2     H 2181   2.922   0.664  13.719  0.5118 -1.6560 -0.4022
  140MPD2    H1 2182   3.164   0.480  14.017 -1.1747 -1.1848 -2.2458
  140MPD2    H2 2183   3.051   0.880  14.070 -3.0314 -0.1341 -0.1454
  140MPD2    H3 2184   3.165   0.675  14.140 -1.7607 -1.5432  0.5865
  140MPD2     N 2185   3.063   0.446  13.768  0.0348 -0.2692  0.0851
  140MPD2    H5 2186   3.050   0.462  13.669  1.2750  0.5860  0.0703
  140MPD2    N1 2187   2.922   0.910  13.848  0.5848  0.1977  0.4023
  140MPD2    H7 2188   2.958   0.995  13.890 -2.6911  1.0260  1.4749
  141TMC2    C1 2189   3.298   2.270  14.173 -0.0511  0.3094  0.1513
  141TMC2    C2 2190   3.323   2.204  14.285  0.0715 -0.0773  0.1296
  141TMC2    C3 2191   3.279   2.269  14.402  0.1457 -0.5729  1.1115
  141TMC2    C4 2192   3.237   2.394  14.171  0.6609 -0.2607 -0.1850
  141TMC2    C5 2193   3.202   2.455  14.289 -0.2692  0.2510 -1.0414
  141TMC2    C6 2194   3.223   2.395  14.411  0.7781  0.0000 -0.1096
  141TMC2     C 2195   3.391   2.258  14.068  0.3090  0.0650  0.8737
  141TMC2     O 2196   3.356   2.304  13.961  0.3720  0.1436 -0.5074
  141TMC2     H 2197   3.352   2.100  14.293  0.3649  0.0468  0.6608
  141TMC2    H1 2198   3.228   2.457  14.084 -1.0637 -1.2280 -0.6966
  141TMC2    H2 2199   3.178   2.435  14.502  1.6989 -0.9689  0.7823
  141TMC2    C7 2200   3.198   2.599  14.284 -0.5240 -0.8058  0.0454
  141TMC2    C8 2201   3.276   2.188  14.518 -1.5861  0.1869  0.0399
  141TMC2    O1 2202   3.131   2.648  14.195 -0.1407  0.5206 -0.6591
  141TMC2    O2 2203   3.351   2.093  14.537 -0.2616  0.2825 -0.4771
  141TMC2    O5 2204   3.139   2.182  14.538 -0.1774 -0.3356  0.7768
  141TMC2    H5 2205   3.085   2.250  14.492 -1.0420 -2.6259 -1.5231
  142TMC2    C1 2206   1.419   1.986   9.504  0.4613 -0.2488  0.9031
  142TMC2    C2 2207   1.415   2.020   9.372  0.7438  0.6948 -0.7327
  142TMC2    C3 2208   1.458   2.145   9.341 -0.0196  0.4609 -0.7915
  142TMC2    C4 2209   1.473   2.064   9.599  0.4068  0.0291 -0.8042
  142TMC2    C5 2210   1.525   2.184   9.565  0.2465 -0.4138 -0.0514
  142TMC2    C6 2211   1.510   2.233   9.435  0.2672 -0.5576 -0.5098
  142TMC2     C 2212   1.344   1.870   9.546 -0.0257  0.1011 -0.1558
  142TMC2     O 2213   1.320   1.781   9.463  0.6319 -0.3587  0.7598
  142TMC2     H 2214   1.366   1.959   9.297 -0.2454  3.1550 -2.0881
  142TMC2    H1 2215   1.486   2.027   9.700 -0.3368  1.4804 -0.1728
  142TMC2    H2 2216   1.551   2.328   9.401 -1.1648  0.2765  0.0977
  142TMC2    C7 2217   1.554   2.274   9.676 -0.4689 -0.7301 -0.1113
  142TMC2    C8 2218   1.445   2.200   9.206  0.0873  0.3736 -0.5929
  142TMC2    O1 2219   1.539   2.231   9.793  0.3615  0.3376  0.5913
  142TMC2    O2 2220   1.423   2.321   9.186  0.4986 -0.3903 -0.0202
  142TMC2    O5 2221   1.412   2.096   9.127 -0.5224 -0.1238  0.0190
  142TMC2    H5 2222   1.463   2.022   9.165 -0.4112  0.5717  1.1906
  143MPD2     C 2223   1.214   1.576   9.932 -0.3482  0.2089 -0.1012
  143MPD2    C1 2224   1.212   1.557   9.793 -0.3939 -0.6915 -0.2420
  143MPD2    C2 2225   1.227   1.662   9.710  0.2162  0.9210  0.0913
  143MPD2    C3 2226   1.249   1.789   9.754  0.0934  0.0253 -0.5001
  143MPD2    C4 2227   1.244   1.810   9.899 -0.2732  0.6326  0.2402
  143MPD2    C5 2228   1.230   1.704   9.983 -0.7207 -0.3268 -0.7231
  143MPD2     H 2229   1.226   1.638   9.604 -0.4293 -1.2764  0.6034
  143MPD2    H1 2230   1.266   1.909   9.938  0.5930  0.6031 -0.1722
  143MPD2    H2 2231   1.210   1.488   9.995  0.4251  1.6635  1.9485
  143MPD2    H3 2232   1.229   1.724  10.089  0.0144 -2.8832 -0.2340
  143MPD2     N 2233   1.293   1.888   9.669  0.6713 -0.1232  0.5204
  143MPD2    H5 2234   1.311   1.978   9.713 -1.1044  0.0516  0.8767
  143MPD2    N1 2235   1.177   1.428   9.750  0.1208 -0.5082 -0.1231
  143MPD2    H7 2236   1.173   1.360   9.825  1.1841 -0.6379 -0.1801
  144TMC2    C1 2237   4.313   0.734   0.751  0.6816  0.1502 -0.1536
  144TMC2    C2 2238   4.416   0.654   0.719 -0.5411  0.2417 -0.3287
  144TMC2    C3 2239   4.545   0.697   0.749  0.3144  0.0837  0.1285
  144TMC2    C4 2240   4.322   0.843   0.835 -0.3027 -0.0130 -0.3167
  144TMC2    C5 2241   4.450   0.872   0.874  0.7022 -0.1378 -0.6291
  144TMC2    C6 2242   4.560   0.800   0.832  0.2643 -0.7490 -0.0916
  144TMC2     C 2243   4.183   0.675   0.732  0.0394  0.0264 -0.1478
  144TMC2     O 2244   4.177   0.555   0.716  0.0299  0.0824 -0.5970
  144TMC2     H 2245   4.410   0.557   0.672  0.3734  1.0353 -2.0890
  144TMC2    H1 2246   4.235   0.908   0.842 -1.5388 -1.5719 -1.2313
  144TMC2    H2 2247   4.659   0.825   0.870 -0.0645 -1.1459  1.0375
  144TMC2    C7 2248   4.474   0.970   0.976  0.9914 -0.0703 -0.7318
  144TMC2    C8 2249   4.655   0.609   0.716 -0.3097 -0.0490  0.4549
  144TMC2    O1 2250   4.584   1.020   0.995  0.1650  0.2849  0.1620
  144TMC2    O2 2251   4.625   0.499   0.675 -0.2358 -0.2788  0.3666
  144TMC2    O5 2252   0.041   0.675   0.707 -0.1434 -0.2597 -0.2144
  144TMC2    H5 2253   0.035   0.771   0.724 -0.4527 -0.4699  0.9365
  145MPD2     C 2254   3.697   0.723   0.563  0.1741 -0.7293  0.5457
  145MPD2    C1 2255   3.795   0.622   0.541  0.6321 -0.2017 -0.4770
  145MPD2    C2 2256   3.921   0.623   0.603 -0.2091  0.4292  0.3932
  145MPD2    C3 2257   3.953   0.744   0.676 -0.1890  0.1343  0.3458
  145MPD2    C4 2258   3.859   0.846   0.688 -0.2771 -0.6283  0.1250
  145MPD2    C5 2259   3.731   0.835   0.633 -0.0222  0.6424  0.6371
  145MPD2     H 2260   3.997   0.547   0.585 -0.2143  0.6189 -0.4263
  145MPD2    H1 2261   3.886   0.942   0.730 -1.7462  0.0219 -0.4087
  145MPD2    H2 2262   3.602   0.727   0.510  0.6968 -0.5271 -0.3706
  145MPD2    H3 2263   3.657   0.911   0.654 -0.2991  0.6068 -0.2205
  145MPD2     N 2264   4.080   0.766   0.731  0.5568  0.1376  0.4118
  145MPD2    H5 2265   4.087   0.857   0.776 -1.2668  0.0531  0.8483
  145MPD2    N1 2266   3.769   0.511   0.462  0.2508  0.2758 -0.0394
  145MPD2    H7 2267   3.847   0.446   0.464 -0.4875 -0.6126 -0.0562
  146TMC2    C1 2268   0.264   3.673  12.444  0.4385 -0.0949  0.4778
  146TMC2    C2 2269   0.195   3.714  12.332 -0.0948 -0.8651 -0.1700
  146TMC2    C3 2270   0.197   3.629  12.227  0.0361 -0.1431 -0.0703
  146TMC2    C4 2271   0.345   3.561  12.449 -0.0842 -0.5296  0.0897
  146TMC2    C5 2272   0.351   3.482  12.339 -1.0473 -0.1885 -0.3252
  146TMC2    C6 2273   0.278   3.521  12.228  0.0512 -0.5097  0.2191
  146TMC2     C 2274   0.272   3.764  12.562 -0.5984 -0.0994  0.5426
  146TMC2     O 2275   0.218   3.874  12.544  0.0475  0.1423  0.2415
  146TMC2     H 2276   0.133   3.802  12.328  2.0138  0.7011  1.3945
  146TMC2    H1 2277   0.409   3.533  12.532 -1.1320 -1.4499  0.5690
  146TMC2    H2 2278   0.274   3.462  12.138  0.2657 -1.7580  1.0194
  146TMC2    C7 2279   0.435   3.368  12.327 -0.0396 -0.0663  0.1616
  146TMC2    C8 2280   0.111   3.644  12.120  0.3877 -0.6922 -0.1471
  146TMC2    O1 2281   0.422   3.306  12.221 -0.3811  0.6236 -0.7596
  146TMC2    O2 2282   0.136   3.605  12.006  0.1163  0.2377  0.1002
  146TMC2    O5 2283   0.014   3.731  12.150 -0.6041 -0.6220  0.4762
  146TMC2    H5 2284   4.723   3.727  12.244  2.2477 -0.4335  1.3210
  147MPD2     C 2285   0.831   3.088  12.463 -0.1411 -0.2781  0.0788
  147MPD2    C1 2286   0.778   3.141  12.579 -1.0286 -0.5427  0.3448
  147MPD2    C2 2287   0.669   3.229  12.577 -0.5807  0.0999 -0.0102
  147MPD2    C3 2288   0.611   3.254  12.450  0.1052 -0.2589 -0.0099
  147MPD2    C4 2289   0.676   3.217  12.340 -0.5467 -0.1942 -0.3053
  147MPD2    C5 2290   0.785   3.132  12.340  0.5631  0.6433 -1.1206
  147MPD2     H 2291   0.620   3.271  12.664  0.4599 -1.6687  1.4341
  147MPD2    H1 2292   0.639   3.231  12.239 -0.5443 -0.5837 -0.3608
  147MPD2    H2 2293   0.918   3.023  12.472 -2.1505 -3.0776 -0.7349
  147MPD2    H3 2294   0.825   3.105  12.243  0.0190 -0.3080 -1.0749
  147MPD2     N 2295   0.500   3.333  12.442 -0.4357  0.0218 -0.1398
  147MPD2    H5 2296   0.458   3.374  12.524  0.0484  0.5513 -0.1581
  147MPD2    N1 2297   0.841   3.105  12.702  0.9148  0.0434  0.3343
  147MPD2    H7 2298   0.924   3.048  12.690  0.5092 -0.0664 -1.9534
  148TMC2    C1 2299   0.676   2.370  10.353 -0.2860 -0.6505  0.8025
  148TMC2    C2 2300   0.737   2.406  10.462 -0.2690 -0.2321  1.3028
  148TMC2    C3 2301   0.812   2.312  10.530  0.7779  0.8547  1.9804
  148TMC2    C4 2302   0.674   2.240  10.311  0.0198 -0.4316 -0.0344
  148TMC2    C5 2303   0.720   2.150  10.405  0.1931 -0.1956 -0.7964
  148TMC2    C6 2304   0.798   2.178  10.509 -0.2289 -0.2867  0.1674
  148TMC2     C 2305   0.651   2.484  10.259  0.3807  0.1690 -0.9823
  148TMC2     O 2306   0.655   2.599  10.301 -0.1372 -0.0602 -0.1624
  148TMC2     H 2307   0.748   2.508  10.496 -0.4048 -1.4160  4.9147
  148TMC2    H1 2308   0.594   2.214  10.241 -1.6223 -0.5193  1.8655
  148TMC2    H2 2309   0.850   2.102  10.566 -1.4326 -1.5884 -0.4687
  148TMC2    C7 2310   0.694   2.015  10.373  0.2766  0.1068 -0.9102
  148TMC2    C8 2311   0.899   2.350  10.635  0.3914 -0.1374  0.0561
  148TMC2    O1 2312   0.664   1.986  10.255  0.3735 -0.2352 -0.3572
  148TMC2    O2 2313   0.930   2.273  10.720  0.8906 -0.2839 -0.0972
  148TMC2    O5 2314   0.973   2.456  10.598  0.4092  0.5086  0.1008
  148TMC2    H5 2315   0.939   2.509  10.523 -1.2708 -0.7090  0.0002
  149MPD2     C 2316   0.575   2.648  10.024  0.5724  0.0072  0.2242
  149MPD2    C1 2317   0.562   2.509  10.035  0.3015  0.4922  0.4232
  149MPD2    C2 2318   0.505   2.440   9.940  0.2787 -0.6201  0.0417
  149MPD2    C3 2319   0.438   2.501   9.827 -0.1044 -0.1919  1.1041
  149MPD2    C4 2320   0.452   2.632   9.815  0.4591 -0.3763  0.1242
  149MPD2    C5 2321   0.522   2.706   9.911 -0.8376 -0.0361 -0.1079
  149MPD2     H 2322   0.500   2.332   9.947  0.6014 -0.9049 -4.1558
  149MPD2    H1 2323   0.419   2.671   9.719  1.6043 -2.8822 -1.2936
  149MPD2    H2 2324   0.623   2.704  10.103 -0.4023 -1.0933  1.6175
  149MPD2    H3 2325   0.536   2.812   9.899 -1.4145  0.1618  0.8865
  149MPD2     N 2326   0.379   2.425   9.724  0.4508 -0.3374  0.3016
  149MPD2    H5 2327   0.357   2.467   9.634 -0.7310  3.1475  2.2603
  149MPD2    N1 2328   0.620   2.437  10.133 -0.5504 -0.3811  0.4251
  149MPD2    H7 2329   0.635   2.338  10.119  2.0860 -0.2060  1.9129
  150TMC2    C1 2330   1.775   1.548  12.418  0.5891 -0.1619  0.0119
  150TMC2    C2 2331   1.692   1.659  12.424 -0.2444 -0.4521  0.2354
  150TMC2    C3 2332   1.740   1.780  12.394 -0.1644 -0.1095  0.5186
  150TMC2    C4 2333   1.907   1.554  12.390 -0.7176 -0.4706  0.1099
  150TMC2    C5 2334   1.944   1.679  12.349 -0.4494 -0.0516 -0.4753
  150TMC2    C6 2335   1.871   1.792  12.343  0.1363  0.4191 -0.1176
  150TMC2     C 2336   1.707   1.421  12.440  0.5987 -0.1547  0.6206
  150TMC2     O 2337   1.773   1.327  12.486  0.8673  0.1680  0.0173
  150TMC2     H 2338   1.591   1.654  12.463  0.7714  1.4583  3.1007
  150TMC2    H1 2339   1.957   1.458  12.382 -0.3393 -0.4141  1.8201
  150TMC2    H2 2340   1.913   1.887  12.311 -1.1241  0.8405 -0.4989
  150TMC2    C7 2341   2.075   1.699  12.299 -0.6563  0.5309 -0.3807
  150TMC2    C8 2342   1.637   1.878  12.353  0.0822  0.2488 -0.3885
  150TMC2    O1 2343   2.094   1.797  12.229 -0.3333  0.1497 -0.1582
  150TMC2    O2 2344   1.541   1.913  12.416 -0.1085  0.9332 -0.0682
  150TMC2    O5 2345   1.692   1.937  12.253 -0.0374 -0.3635  0.3067
  150TMC2    H5 2346   1.744   1.872  12.201  0.6643 -0.5736  1.2661
  151MPD2     C 2347   1.328   1.115  12.304 -0.0366 -0.1332 -0.1377
  151MPD2    C1 2348   1.319   1.224  12.225 -0.2223 -0.4140 -0.1216
  151MPD2    C2 2349   1.414   1.326  12.247  0.1982  0.1630  0.4996
  151MPD2    C3 2350   1.516   1.312  12.340  0.5398  0.0522  0.0731
  151MPD2    C4 2351   1.525   1.201  12.416 -0.6249 -0.2087  0.0882
  151MPD2    C5 2352   1.428   1.103  12.393  0.2486  0.3406 -0.3630
  151MPD2     H 2353   1.397   1.417  12.191  0.1423 -1.8278 -2.7533
  151MPD2    H1 2354   1.611   1.178  12.477 -0.6565  3.3706  1.4383
  151MPD2    H2 2355   1.258   1.032  12.301 -2.1082  1.6601 -1.8234
  151MPD2    H3 2356   1.435   1.015  12.456 -0.2626 -0.1966 -1.0429
  151MPD2     N 2357   1.597   1.419  12.361  0.1242  0.3387 -0.1488
  151MPD2    H5 2358   1.580   1.495  12.296 -2.1400 -0.9559 -1.0518
  151MPD2    N1 2359   1.227   1.221  12.122 -0.4807 -0.0461 -0.0635
  151MPD2    H7 2360   1.163   1.143  12.114  0.8617 -1.1399 -0.1904
  152TMC2    C1 2361   2.383   0.907  12.990  0.1063  0.2526  0.0042
  152TMC2    C2 2362   2.472   0.838  12.909  0.0767  0.5709 -0.4675
  152TMC2    C3 2363   2.603   0.885  12.890 -0.3023 -0.3341 -0.3697
  152TMC2    C4 2364   2.408   1.036  13.037  0.6307  0.6784  0.5404
  152TMC2    C5 2365   2.535   1.071  13.020 -0.3138 -0.3592 -0.1803
  152TMC2    C6 2366   2.640   0.996  12.965 -0.1361 -0.2762 -0.6486
  152TMC2     C 2367   2.246   0.882  12.975 -0.0101 -0.4157  0.2032
  152TMC2     O 2368   2.168   0.974  13.005  0.4692  0.3490  0.4043
  152TMC2     H 2369   2.434   0.748  12.861  0.1646  0.3486 -0.1150
  152TMC2    H1 2370   2.335   1.103  13.082 -2.1428 -1.4616 -0.7659
  152TMC2    H2 2371   2.746   1.018  12.963  0.2463 -2.0449 -0.4567
  152TMC2    C7 2372   2.569   1.196  13.086  0.0867  0.3183 -0.1029
  152TMC2    C8 2373   2.686   0.774  12.863 -1.2436 -0.2425 -0.4991
  152TMC2    O1 2374   2.493   1.233  13.177 -0.2837  0.5685 -0.5409
  152TMC2    O2 2375   2.653   0.657  12.875  0.4990  0.4001 -0.5358
  152TMC2    O5 2376   2.762   0.833  12.769  0.2097 -0.0489 -0.1825
  152TMC2    H5 2377   2.769   0.930  12.766 -2.3961  0.1860  0.9067
  153MPD2     C 2378   2.086   0.550  12.994  0.8269 -0.8615  0.0676
  153MPD2    C1 2379   2.098   0.687  12.971 -0.3955 -0.5330 -0.9645
  153MPD2    C2 2380   1.984   0.758  12.931  0.7728 -0.1887 -0.2890
  153MPD2    C3 2381   1.863   0.695  12.929  0.4579  0.3589  0.7202
  153MPD2    C4 2382   1.852   0.558  12.955 -0.1890 -0.5047 -0.4014
  153MPD2    C5 2383   1.968   0.484  12.986 -0.3393 -0.1609  0.5382
  153MPD2     H 2384   1.991   0.857  12.889  1.9131 -0.1382  0.0104
  153MPD2    H1 2385   1.758   0.504  12.955 -1.0360  0.9402 -3.0174
  153MPD2    H2 2386   2.173   0.489  13.019  2.5428  1.6088  0.1318
  153MPD2    H3 2387   1.963   0.378  13.007 -0.8755 -0.0942  0.7239
  153MPD2     N 2388   1.757   0.776  12.889  0.2066  0.3947 -0.2325
  153MPD2    H5 2389   1.784   0.873  12.869  2.9247  0.0413  1.7027
  153MPD2    N1 2390   2.225   0.747  12.981  0.1170  0.0969 -0.8858
  153MPD2    H7 2391   2.308   0.690  12.995  1.9428  2.9088 -0.4240
  154TMC2    C1 2392   3.906   1.768   0.720 -0.3425  0.1549 -0.5601
  154TMC2    C2 2393   4.006   1.777   0.818  0.5491  0.1987  0.1321
  154TMC2    C3 2394   4.115   1.693   0.802  0.0797 -0.1742  0.0592
  154TMC2    C4 2395   3.908   1.668   0.623  0.4574  0.2955  0.2709
  154TMC2    C5 2396   4.025   1.593   0.610 -0.3350  0.0836 -0.3544
  154TMC2    C6 2397   4.131   1.605   0.696  0.1032 -0.2531  0.9877
  154TMC2     C 2398   3.825   1.884   0.708  0.5068  0.2361 -0.5304
  154TMC2     O 2399   3.840   1.969   0.794  0.0832 -0.3464  0.0217
  154TMC2     H 2400   3.986   1.835   0.907  3.5504 -0.6478  1.3506
  154TMC2    H1 2401   3.823   1.645   0.560  1.0968 -1.2751 -0.0057
  154TMC2    H2 2402   4.220   1.544   0.685  0.1526 -0.2489  1.3596
  154TMC2    C7 2403   4.046   1.514   0.487  0.1030 -0.3078  0.6415
  154TMC2    C8 2404   4.197   1.663   0.912  0.3503 -0.3389 -0.1579
  154TMC2    O1 2405   4.168   1.486   0.461 -0.0525 -0.1241 -0.3220
  154TMC2    O2 2406   4.214   1.550   0.954 -0.5185  1.1610  0.6271
  154TMC2    O5 2407   4.195   1.777   0.983 -0.4437 -0.1614  0.2686
  154TMC2    H5 2408   4.184   1.854   0.923 -1.4136  0.7083  1.5447
  155MPD2     C 2409   3.600   1.983   0.429 -0.6161 -0.8620  0.1684
  155MPD2    C1 2410   3.664   1.997   0.548  0.5740 -0.1001  0.0764
  155MPD2    C2 2411   3.628   2.101   0.637 -0.1197 -0.3215 -0.7370
  155MPD2    C3 2412   3.534   2.189   0.593 -0.6860  0.8975 -0.8040
  155MPD2    C4 2413   3.480   2.179   0.464 -0.5178  0.0291  0.9479
  155MPD2    C5 2414   3.512   2.073   0.390 -0.5135  0.3091  0.3120
  155MPD2     H 2415   3.662   2.100   0.740  1.0342 -0.3011 -1.1206
  155MPD2    H1 2416   3.405   2.248   0.428 -1.3019 -1.1519  0.3093
  155MPD2    H2 2417   3.632   1.901   0.366 -1.3318  0.1165 -1.4686
  155MPD2    H3 2418   3.464   2.072   0.293 -0.2477 -2.9254  0.2161
  155MPD2     N 2419   3.503   2.298   0.678  0.0098 -0.1719 -0.0695
  155MPD2    H5 2420   3.544   2.299   0.771  2.9741  3.0201 -1.4221
  155MPD2    N1 2421   3.755   1.893   0.587  0.8505 -0.2150 -0.0654
  155MPD2    H7 2422   3.765   1.809   0.531 -2.4298 -0.9291  0.4217
  156TMC2    C1 2423   2.375   3.438  10.991  0.0118  0.7892 -0.2950
  156TMC2    C2 2424   2.436   3.384  10.878 -0.0596  0.1891  0.0028
  156TMC2    C3 2425   2.388   3.438  10.754 -0.2515  0.4610  0.3772
  156TMC2    C4 2426   2.259   3.517  10.983  0.8213 -1.0455  0.1524
  156TMC2    C5 2427   2.217   3.565  10.856  0.4847  0.5967 -0.5474
  156TMC2    C6 2428   2.279   3.524  10.740 -0.2918  0.0039 -0.4849
  156TMC2     C 2429   2.446   3.457  11.123  0.7886 -0.0172  0.0939
  156TMC2     O 2430   2.388   3.496  11.223 -0.0026 -0.0948  0.6090
  156TMC2     H 2431   2.516   3.312  10.878 -0.6403 -0.4520  1.5109
  156TMC2    H1 2432   2.202   3.547  11.070 -1.2201 -0.1734 -1.4824
  156TMC2    H2 2433   2.246   3.566  10.646  1.1765 -0.0138 -1.0069
  156TMC2    C7 2434   2.100   3.652  10.849 -0.0837 -0.1268  0.5373
  156TMC2    C8 2435   2.459   3.398  10.634  1.0032  0.1879 -0.2217
  156TMC2    O1 2436   2.055   3.697  10.745  0.0543 -0.6193 -0.5899
  156TMC2    O2 2437   2.401   3.394  10.528 -0.0599 -0.0318 -0.0161
  156TMC2    O5 2438   2.588   3.441  10.636 -0.0983 -0.2122 -0.3159
  156TMC2    H5 2439   2.617   3.459  10.728  1.5717  1.4694 -1.1546
  157MPD2     C 2440   2.806   3.391  11.187 -0.3803  0.4424  0.2172
  157MPD2    C1 2441   2.680   3.446  11.206 -0.7877 -0.4476 -0.0865
  157MPD2    C2 2442   2.657   3.513  11.331 -1.0240 -0.0191 -0.5795
  157MPD2    C3 2443   2.754   3.518  11.423 -0.7925 -0.1843 -0.2384
  157MPD2    C4 2444   2.875   3.460  11.402  0.2449 -0.0723  0.1393
  157MPD2    C5 2445   2.896   3.392  11.288 -0.0843  0.4666 -0.0811
  157MPD2     H 2446   2.567   3.573  11.345 -0.8163 -0.0280  0.8643
  157MPD2    H1 2447   2.962   3.473  11.465 -0.0198 -1.9727  0.8771
  157MPD2    H2 2448   2.816   3.330  11.098  1.0263  1.2454 -0.1670
  157MPD2    H3 2449   2.995   3.354  11.267 -0.0002 -0.2930  1.6660
  157MPD2     N 2450   2.704   3.584  11.535  0.5718 -0.4935 -0.6485
  157MPD2    H5 2451   2.604   3.603  11.529  0.5740  0.1683  1.3365
  157MPD2    N1 2452   2.583   3.438  11.105 -0.0589  0.0427 -0.1219
  157MPD2    H7 2453   2.613   3.424  11.009  1.7770 -1.5947  0.6916
  158TMC2    C1 2454   2.860   2.507  13.305  0.3639 -0.5779 -0.0673
  158TMC2    C2 2455   2.981   2.447  13.339 -0.0442  0.7510  0.3556
  158TMC2    C3 2456   3.023   2.348  13.255  0.6082  0.0134  0.2990
  158TMC2    C4 2457   2.782   2.473  13.200 -0.8553 -0.1941  0.1280
  158TMC2    C5 2458   2.834   2.382  13.116  0.1242 -0.1993 -0.3453
  158TMC2    C6 2459   2.957   2.314  13.140 -0.1217  0.0197 -0.4110
  158TMC2     C 2460   2.810   2.606  13.394  0.7377 -0.2565 -0.6799
  158TMC2     O 2461   2.737   2.688  13.340  0.2142 -0.2953  0.1126
  158TMC2     H 2462   3.046   2.487  13.416  0.3363  0.7058  0.0589
  158TMC2    H1 2463   2.682   2.515  13.199  0.7335  3.6509  1.9950
  158TMC2    H2 2464   2.990   2.234  13.075  1.3545 -0.8290  1.4091
  158TMC2    C7 2465   2.741   2.302  13.038  0.5833 -0.4741  0.4966
  158TMC2    C8 2466   3.151   2.276  13.282 -0.2913 -0.3487 -0.0961
  158TMC2    O1 2467   2.787   2.262  12.931  0.9416  0.4110 -0.0432
  158TMC2    O2 2468   3.202   2.208  13.194  0.0388  0.2289 -0.2125
  158TMC2    O5 2469   3.145   2.246  13.414 -0.3405  0.0527 -0.2470
  158TMC2    H5 2470   3.083   2.300  13.467  3.1802  2.5084  1.3692
  159MPD2     C 2471   2.662   2.803  13.832  0.1541  0.1866  0.0033
  159MPD2    C1 2472   2.698   2.671  13.853 -0.6685 -0.4649 -0.6828
  159MPD2    C2 2473   2.757   2.595  13.756  0.3560 -0.3298  0.1132
  159MPD2    C3 2474   2.779   2.649  13.629 -0.1313  0.3880 -0.1023
  159MPD2    C4 2475   2.754   2.786  13.609 -0.2277  0.1778  0.1521
  159MPD2    C5 2476   2.691   2.857  13.711 -1.3871 -0.3603  0.2714
  159MPD2     H 2477   2.799   2.497  13.776 -0.2973 -0.5777  0.2541
  159MPD2    H1 2478   2.770   2.846  13.521  0.4270  1.0533  0.8784
  159MPD2    H2 2479   2.605   2.861  13.903  0.0711 -1.5757  1.3629
  159MPD2    H3 2480   2.659   2.958  13.687  2.3971  0.4338 -1.3420
  159MPD2     N 2481   2.829   2.570  13.524  0.3675 -0.1966 -0.4764
  159MPD2    H5 2482   2.866   2.478  13.545  0.4758 -0.7500 -3.0262
  159MPD2    N1 2483   2.681   2.616  13.981 -0.5094  0.1766  0.1548
  159MPD2    H7 2484   2.621   2.670  14.041 -1.6056 -0.7510 -0.1093
  160TMC2    C1 2485   2.214   0.558   1.286  0.4535 -0.1055  0.3431
  160TMC2    C2 2486   2.198   0.643   1.386 -0.0523 -0.5250  0.5148
  160TMC2    C3 2487   2.302   0.712   1.424  0.0528  0.3109  1.1480
  160TMC2    C4 2488   2.331   0.528   1.233 -0.1421  0.0193 -0.3106
  160TMC2    C5 2489   2.436   0.615   1.260  0.0167  0.7384 -0.6442
  160TMC2    C6 2490   2.417   0.715   1.352 -0.5523  0.2315  0.5470
  160TMC2     C 2491   2.099   0.538   1.204  0.6810  0.3026 -0.1008
  160TMC2     O 2492   2.087   0.429   1.151  0.1301  0.1547 -0.0254
  160TMC2     H 2493   2.097   0.661   1.423  0.3183 -1.2051  1.8360
  160TMC2    H1 2494   2.338   0.458   1.150  1.3964 -2.9319  2.3270
  160TMC2    H2 2495   2.502   0.777   1.377 -1.0361  0.5336  1.4218
  160TMC2    C7 2496   2.534   0.640   1.159  0.3394 -0.1569 -0.1349
  160TMC2    C8 2497   2.277   0.823   1.514 -0.0176 -0.0349  0.8455
  160TMC2    O1 2498   2.583   0.547   1.099 -0.0993 -0.5167  0.1512
  160TMC2    O2 2499   2.341   0.925   1.509 -0.8062  0.2230 -0.0997
  160TMC2    O5 2500   2.201   0.779   1.615  0.5050 -0.1690  0.1516
  160TMC2    H5 2501   2.153   0.695   1.598  0.2542 -0.5107  2.6163
  161MPD2     C 2502   1.879   0.566   1.016  0.1332 -0.1051 -0.4773
  161MPD2    C1 2503   1.939   0.669   1.079 -0.3484  0.0153 -0.5345
  161MPD2    C2 2504   1.899   0.799   1.055 -0.0118 -0.0956 -0.1453
  161MPD2    C3 2505   1.789   0.827   0.975  0.4008  0.1596  0.0861
  161MPD2    C4 2506   1.729   0.721   0.909 -0.6888  0.5105  0.1212
  161MPD2    C5 2507   1.768   0.592   0.939  0.3693  0.1156 -0.1804
  161MPD2     H 2508   1.956   0.880   1.100 -0.5348 -0.4473  1.1620
  161MPD2    H1 2509   1.649   0.738   0.838  1.6382  2.4479 -2.0133
  161MPD2    H2 2510   1.906   0.462   1.032  3.7935  0.6871 -1.4432
  161MPD2    H3 2511   1.726   0.510   0.881  1.0031 -0.6042  0.3690
  161MPD2     N 2512   1.756   0.960   0.947  0.0076  0.6586  0.5183
  161MPD2    H5 2513   1.690   0.971   0.870 -1.1980 -4.4705  0.8376
  161MPD2    N1 2514   2.045   0.657   1.175 -0.3720  0.2645 -0.0449
  161MPD2    H7 2515   2.083   0.745   1.208  0.2138 -0.6616  1.7376
  162TMC2    C1 2516   0.181   2.970   1.209  0.0646 -0.1722 -0.9839
  162TMC2    C2 2517   0.102   3.081   1.181  0.2494 -0.4117 -0.1652
  162TMC2    C3 2518   0.093   3.172   1.277 -0.2118 -0.6151 -0.2493
  162TMC2    C4 2519   0.248   2.957   1.329 -0.0458  0.1310 -0.2136
  162TMC2    C5 2520   0.231   3.055   1.423  0.4730 -0.4040 -0.5564
  162TMC2    C6 2521   0.156   3.161   1.400  0.4582 -0.1633 -0.3354
  162TMC2     C 2522   0.182   2.862   1.109  0.3223 -0.4311 -1.2013
  162TMC2     O 2523   0.154   2.884   0.994  0.4988  0.0842  0.3745
  162TMC2     H 2524   0.050   3.091   1.087 -3.2149  1.7575  1.9763
  162TMC2    H1 2525   0.312   2.872   1.349  1.2009  0.9104 -0.8798
  162TMC2    H2 2526   0.138   3.218   1.490 -1.3806 -0.0773 -0.7666
  162TMC2    C7 2527   0.285   3.025   1.553 -0.0706 -0.4284 -0.2801
  162TMC2    C8 2528   4.721   3.273   1.264 -0.3040 -0.2202  0.0272
  162TMC2    O1 2529   0.226   3.065   1.650 -0.4820 -0.1719  0.3266
  162TMC2    O2 2530   4.672   3.306   1.157 -0.0099 -0.2179 -0.6357
  162TMC2    O5 2531   4.647   3.273   1.375  0.2984 -0.4404  0.4449
  162TMC2    H5 2532   4.692   3.237   1.454 -0.1047 -0.3678  0.7041
  163MPD2     C 2533   0.417   2.441   0.937 -0.5307 -0.0123 -0.6024
  163MPD2    C1 2534   0.355   2.535   0.868  0.0944 -0.4388  0.1180
  163MPD2    C2 2535   0.295   2.633   0.945  0.1782  0.5332  0.3228
  163MPD2    C3 2536   0.310   2.646   1.081 -0.7644  0.3345 -0.0577
  163MPD2    C4 2537   0.387   2.555   1.148  0.0213 -0.1220 -0.2068
  163MPD2    C5 2538   0.434   2.452   1.076  0.2058  0.9019  0.5887
  163MPD2     H 2539   0.232   2.705   0.894  0.8159  0.1121 -1.0813
  163MPD2    H1 2540   0.414   2.550   1.252 -0.0259  0.4463 -0.1632
  163MPD2    H2 2541   0.469   2.360   0.888 -0.6872  1.1716 -2.7001
  163MPD2    H3 2542   0.489   2.373   1.126  1.0952  0.8969 -0.3943
  163MPD2     N 2543   0.245   2.749   1.157 -0.3727 -0.2179 -0.2849
  163MPD2    H5 2544   0.260   2.742   1.257  0.5235 -1.2795 -0.4968
  163MPD2    N1 2545   0.359   2.531   0.722  0.1306 -0.0585 -0.1324
  163MPD2    H7 2546   0.395   2.442   0.689 -0.4216 -1.1386  2.1308
  164TMC2    C1 2547   1.221   2.319  10.997 -0.9302  0.0429 -0.8168
  164TMC2    C2 2548   1.344   2.381  10.996  0.7511  0.1305 -0.4080
  164TMC2    C3 2549   1.341   2.514  10.983  0.6820  0.1343  0.4400
  164TMC2    C4 2550   1.112   2.381  10.950 -0.2545 -0.6358 -0.1276
  164TMC2    C5 2551   1.113   2.518  10.935  0.2583 -0.6816  0.3193
  164TMC2    C6 2552   1.227   2.591  10.956  0.0444 -1.1091  0.2914
  164TMC2     C 2553   1.227   2.176  10.998  0.1140 -0.1699 -0.0904
  164TMC2     O 2554   1.123   2.118  11.027 -0.3974  0.5807  0.9986
  164TMC2     H 2555   1.429   2.331  11.041  0.4723  0.2101  0.2113
  164TMC2    H1 2556   1.022   2.320  10.947 -2.1096  2.2168 -2.6489
  164TMC2    H2 2557   1.240   2.696  10.929  0.4325 -0.7254  1.9456
  164TMC2    C7 2558   0.987   2.578  10.888  0.2968 -0.0297 -0.4660
  164TMC2    C8 2559   1.465   2.590  10.952  0.6026 -0.1668 -0.3384
  164TMC2    O1 2560   0.880   2.527  10.920  0.6850 -0.0715 -0.1182
  164TMC2    O2 2561   1.487   2.697  11.004  0.9627  0.3870 -0.3059
  164TMC2    O5 2562   1.559   2.496  10.912  0.3311 -0.0170  0.2205
  164TMC2    H5 2563   1.524   2.428  10.851  0.3201  0.3993 -0.2431
  165TMC2    C1 2564   2.413   0.075   1.719 -0.0173  0.1842  0.2482
  165TMC2    C2 2565   2.346   0.010   1.619  0.4341  0.0076  0.2341
  165TMC2    C3 2566   2.297   0.085   1.516 -0.1547 -0.6254 -0.4178
  165TMC2    C4 2567   2.443   0.207   1.715 -1.0707  1.5808 -0.4982
  165TMC2    C5 2568   2.390   0.281   1.612  0.5292  0.5735 -0.2043
  165TMC2    C6 2569   2.315   0.222   1.511  0.2666 -0.6228  0.1384
  165TMC2     C 2570   2.495   4.729   1.804  0.6569  0.2400 -0.6703
  165TMC2     O 2571   2.526   4.624   1.760  0.0385 -0.8597 -0.4314
  165TMC2     H 2572   2.336   4.640   1.631  0.1220 -0.1716 -1.6823
  165TMC2    H1 2573   2.514   0.253   1.783  1.6146 -0.6025 -1.8263
  165TMC2    H2 2574   2.314   0.272   1.415 -0.5844  1.7150  1.3476
  165TMC2    C7 2575   2.476   0.386   1.561  0.5618 -0.8817 -1.0321
  165TMC2    C8 2576   2.246   0.010   1.404  0.4945 -0.1599  0.1239
  165TMC2    O1 2577   2.520   0.365   1.450  0.3106 -0.2519  0.3438
  165TMC2    O2 2578   2.319   4.655   1.367  0.3292 -0.6528 -0.3890
  165TMC2    O5 2579   2.181   0.097   1.325  0.2587  0.2932 -0.4755
  165TMC2    H5 2580   2.122   0.155   1.377 -2.6811 -2.0001 -1.2623
  166MPD2     C 2581   2.874   4.721   2.166  0.0520  0.2908  0.3800
  166MPD2    C1 2582   2.853   4.642   2.049 -0.5213  0.6695 -0.5569
  166MPD2    C2 2583   2.747   4.672   1.964  0.1209 -0.3048  0.3320
  166MPD2    C3 2584   2.649   0.035   1.992 -0.6179 -0.2285  0.0123
  166MPD2    C4 2585   2.671   0.101   2.109 -0.0860 -0.3867  0.3551
  166MPD2    C5 2586   2.779   0.081   2.189  0.2210  0.1230 -0.6759
  166MPD2     H 2587   2.743   4.607   1.877  0.5972 -1.9586  1.5654
  166MPD2    H1 2588   2.603   0.182   2.134  0.6307  0.8410 -1.6368
  166MPD2    H2 2589   2.951   4.699   2.240  0.0677  1.4788  0.7147
  166MPD2    H3 2590   2.784   0.149   2.273  3.3887 -0.1068 -0.6762
  166MPD2     N 2591   2.539   0.063   1.911 -0.2053  0.3091  0.2114
  166MPD2    H5 2592   2.486   0.145   1.938  2.3891  2.1376 -0.2217
  166MPD2    N1 2593   2.940   4.537   2.006 -0.2640  0.0661  0.1627
  166MPD2    H7 2594   2.919   4.494   1.917 -0.6375 -0.4564  0.5066
  167TMC2    C1 2595   0.336   2.410  12.799  0.1069  0.5390 -0.0147
  167TMC2    C2 2596   0.294   2.420  12.930 -0.4822 -0.4362 -0.1174
  167TMC2    C3 2597   0.282   2.306  12.995  0.2847  0.1390 -0.2028
  167TMC2    C4 2598   0.367   2.296  12.734 -0.2362 -0.8521  0.0550
  167TMC2    C5 2599   0.364   2.184  12.810  0.4222 -0.3843  0.5417
  167TMC2    C6 2600   0.317   2.187  12.939 -1.0857  0.1480 -0.1707
  167TMC2     C 2601   0.380   2.542  12.742 -1.0474 -0.0286 -0.6701
  167TMC2     O 2602   0.439   2.616  12.816  0.3199 -0.3172 -0.3157
  167TMC2     H 2603   0.282   2.516  12.979 -0.4320  0.8638 -2.6796
  167TMC2    H1 2604   0.413   2.302  12.636  1.1250 -1.3822  0.6682
  167TMC2    H2 2605   0.324   2.101  13.003  0.2651 -0.3905 -1.0340
  167TMC2    C7 2606   0.443   2.066  12.773 -0.0556  0.0798  0.3967
  167TMC2    C8 2607   0.255   2.305  13.139 -0.1150 -0.2425 -0.1684
  167TMC2    O1 2608   0.483   1.984  12.854  0.6280 -0.1453 -0.4986
  167TMC2    O2 2609   0.273   2.208  13.212 -0.1311 -0.0226  0.0126
  167TMC2    O5 2610   0.167   2.402  13.167 -0.4187 -0.4901  0.2001
  167TMC2    H5 2611   0.154   2.464  13.092  0.1118  0.9420  1.2905
  168MPD2     C 2612   0.447   2.777  12.573 -0.1944 -0.3924  0.4833
  168MPD2    C1 2613   0.363   2.674  12.537  0.1977  0.4680  0.4424
  168MPD2    C2 2614   0.304   2.677  12.408 -0.3627  0.4143 -0.0883
  168MPD2    C3 2615   0.323   2.788  12.327  0.2122  0.3516 -0.9002
  168MPD2    C4 2616   0.398   2.894  12.378  0.1361  0.2402  1.0827
  168MPD2    C5 2617   0.460   2.887  12.494  0.2013  0.1325  0.0217
  168MPD2     H 2618   0.243   2.599  12.363 -1.2942 -0.1732  2.1794
  168MPD2    H1 2619   0.409   2.989  12.326 -2.2659 -0.3284 -0.4737
  168MPD2    H2 2620   0.479   2.791  12.675 -0.6414  0.8668  0.4535
  168MPD2    H3 2621   0.508   2.982  12.514 -1.3831  0.5920  1.6055
  168MPD2     N 2622   0.249   2.816  12.211  0.5714 -0.6616 -1.0276
  168MPD2    H5 2623   0.244   2.909  12.172  1.2890 -0.6189 -1.0075
  168MPD2    N1 2624   0.337   2.558  12.616  0.3563 -0.4618 -0.2619
  168MPD2    H7 2625   0.274   2.488  12.577  1.1096 -1.1582 -0.2229
  169MPD1     C 2626   2.135   2.523   9.624 -0.5187  0.1680 -0.2225
  169MPD1    C1 2627   2.087   2.414   9.694 -0.0842 -0.2162  0.1135
  169MPD1    C2 2628   2.149   2.290   9.686 -0.5403  0.2132 -0.0211
  169MPD1    C3 2629   2.257   2.272   9.600 -0.4408 -0.1588 -0.3980
  169MPD1    C4 2630   2.287   2.379   9.514  0.0236 -0.2320 -0.6754
  169MPD1    C5 2631   2.234   2.505   9.525  0.2605 -0.1803  0.0946
  169MPD1     H 2632   2.117   2.201   9.740  0.5442 -0.1152  0.0814
  169MPD1    H1 2633   2.357   2.370   9.432  0.7383  2.2836 -0.3462
  169MPD1    H2 2634   2.100   2.624   9.642 -0.2332  0.2713 -0.2425
  169MPD1    H3 2635   2.286   2.584   9.473  0.8565 -0.2495  0.5744
  169MPD1     N 2636   2.315   2.147   9.577 -0.4797  0.1622  0.2183
  169MPD1    H5 2637   2.275   2.076   9.638 -1.7978  1.6687  1.1155
  169MPD1    N1 2638   1.983   2.432   9.785 -0.3091 -0.0256  0.2405
  169MPD1    H6 2639   1.947   2.348   9.829 -1.2309 -1.1860 -2.7066
  169MPD1    H7 2640   1.903   2.490   9.764  0.1463  0.0148 -1.4147
  170MPD1     C 2641   4.562   4.562  13.893 -0.2105  0.0585  0.1962
  170MPD1    C1 2642   4.629   4.447  13.900 -0.5939  0.7648 -0.0183
  170MPD1    C2 2643   4.717   4.416  13.799 -0.3646 -0.2115 -0.1944
  170MPD1    C3 2644   0.025   4.514  13.710  0.1569 -0.5264  0.5446
  170MPD1    C4 2645   4.708   4.637  13.722 -0.0756  0.0225  1.1555
  170MPD1    C5 2646   4.607   4.658  13.808 -0.4426 -0.0845  0.2158
  170MPD1     H 2647   0.012   4.312  13.798  0.2705 -0.0217  0.2343
  170MPD1    H1 2648   0.007   4.723  13.666 -1.1979  0.5233  1.1941
  170MPD1    H2 2649   4.493   4.590  13.973  1.6455 -0.3340  1.9329
  170MPD1    H3 2650   4.575   0.023  13.827  3.5386  0.7422  2.5282
  170MPD1     N 2651   0.134   4.481  13.635 -0.6044 -0.3849 -0.6862
  170MPD1    H5 2652   0.172   4.387  13.645  0.8328  0.3687  0.8239
  170MPD1    N1 2653   4.581   4.353  13.992  0.8454  0.0027 -0.2370
  170MPD1    H6 2654   4.664   4.304  14.025  0.8820 -0.2628 -0.7198
  170MPD1    H7 2655   4.551   4.395  14.080  2.7576 -2.9140  1.8063
  171MPD1     C 2656   4.084   1.093  15.388  0.3903  0.2425 -0.5167
  171MPD1    C1 2657   4.050   0.959  15.412 -1.4107 -0.3196  0.3421
  171MPD1    C2 2658   4.119   0.885  15.505 -0.3915  0.0696 -0.5259
  171MPD1    C3 2659   4.241   0.937  15.555  0.7738  0.2514 -0.5756
  171MPD1    C4 2660   4.276   1.072  15.517 -0.0261 -0.0110 -0.5006
  171MPD1    C5 2661   4.199   1.146  15.436  0.0045 -0.4906  0.0978
  171MPD1     H 2662   4.074   0.791  15.536  1.9996 -0.4738  1.3101
  171MPD1    H1 2663   4.363   1.124  15.555 -0.1638  0.7158 -1.1879
  171MPD1    H2 2664   4.019   1.150  15.322  0.6686  0.4900 -0.5793
  171MPD1    H3 2665   4.218   1.251  15.416 -1.7941 -0.4862 -1.6053
  171MPD1     N 2666   4.330   0.858  15.645 -0.4894  0.1479  0.0658
  171MPD1    H5 2667   4.408   0.905  15.691 -0.1650  0.7194 -1.0562
  171MPD1    N1 2668   3.928   0.918  15.359 -0.0151 -0.4726  0.0141
  171MPD1    H6 2669   3.897   0.956  15.270  0.2586  1.5761  0.8042
  171MPD1    H7 2670   3.921   0.817  15.349  0.2226 -0.4691 -0.1911
  172MPD1     C 2671   4.002   4.659   0.260 -0.5191 -0.0318  0.0368
  172MPD1    C1 2672   3.975   0.017   0.355  0.6758 -0.8495  0.2433
  172MPD1    C2 2673   4.031   0.141   0.345  0.4805 -0.1944  0.9576
  172MPD1    C3 2674   4.123   0.177   0.248  0.3050 -0.2512  0.5925
  172MPD1    C4 2675   4.142   0.085   0.146  0.2255  0.0957 -0.1626
  172MPD1    C5 2676   4.083   4.699   0.156  0.4528  0.2350 -0.1081
  172MPD1     H 2677   4.005   0.217   0.418  3.4227 -1.3505  3.1713
  172MPD1    H1 2678   4.213   0.093   0.065  1.6113 -0.2262  1.0242
  172MPD1    H2 2679   3.959   4.559   0.253 -1.5569  0.3848  0.4455
  172MPD1    H3 2680   4.095   4.623   0.080 -0.2896 -2.2900  2.2701
  172MPD1     N 2681   4.177   0.312   0.231 -0.3962 -0.7213  0.1811
  172MPD1    H5 2682   4.255   0.320   0.168 -0.6003 -0.6479 -0.0618
  172MPD1    N1 2683   3.879   4.729   0.452 -1.0676 -0.2293  0.0479
  172MPD1    H6 2684   3.903   4.644   0.503 -1.1062 -0.1252  0.2420
  172MPD1    H7 2685   3.888   0.065   0.522  0.1364  0.0048 -0.3626
  173MPD1     C 2686   0.235   0.585  14.035 -0.0479 -0.1773 -0.4051
  173MPD1    C1 2687   0.149   0.576  14.139  0.8324  0.3328 -0.0262
  173MPD1    C2 2688   0.157   0.469  14.226  0.5249  0.2249  0.0354
  173MPD1    C3 2689   0.237   0.357  14.198 -0.2454 -0.2038 -0.1113
  173MPD1    C4 2690   0.314   0.364  14.085  0.0304 -0.8960  0.4285
  173MPD1    C5 2691   0.311   0.478  14.004 -0.1346  0.4300  0.5816
  173MPD1     H 2692   0.090   0.466  14.312 -0.3814 -0.1466 -0.6939
  173MPD1    H1 2693   0.364   0.277  14.042  1.0164 -0.4655  0.7042
  173MPD1    H2 2694   0.232   0.676  13.978  0.5431  1.1971  1.7484
  173MPD1    H3 2695   0.365   0.468  13.911 -0.0405 -2.0010  0.9164
  173MPD1     N 2696   0.237   0.247  14.288  0.2634 -0.3708  0.3074
  173MPD1    H5 2697   0.164   0.242  14.358 -0.1487  2.5237  0.0809
  173MPD1    N1 2698   0.066   0.683  14.171 -0.4006  0.6428  0.6594
  173MPD1    H6 2699   0.046   0.741  14.090 -0.2044 -2.3500 -1.5414
  173MPD1    H7 2700   4.715   0.657  14.217  0.9572 -1.8111  1.8681
  174MPD1     C 2701   0.975   4.296  14.487 -0.0804 -0.5380  0.6938
  174MPD1    C1 2702   0.890   4.279  14.589 -0.8754 -0.5568  0.4646
  174MPD1    C2 2703   0.762   4.340  14.582  0.0849 -0.3150 -0.0029
  174MPD1    C3 2704   0.721   4.405  14.467 -0.0627 -0.1672  0.2322
  174MPD1    C4 2705   0.802   4.413  14.360 -0.3925  0.5404 -0.1928
  174MPD1    C5 2706   0.924   4.351  14.370 -0.7163 -0.3628 -0.5186
  174MPD1     H 2707   0.688   4.330  14.661 -2.0966  2.4642 -1.7108
  174MPD1    H1 2708   0.778   4.457  14.264  0.4425  1.5425  0.0487
  174MPD1    H2 2709   1.070   4.245  14.487 -0.1165 -0.5971 -0.7411
  174MPD1    H3 2710   0.999   4.365  14.292  0.1431 -0.6531  0.2554
  174MPD1     N 2711   0.596   4.479  14.457 -0.0278 -0.6079  0.1809
  174MPD1    H5 2712   0.563   4.505  14.365  2.9887 -0.5074 -0.8819
  174MPD1    N1 2713   0.918   4.189  14.692 -0.1721 -0.4974 -0.1940
  174MPD1    H6 2714   1.015   4.198  14.721 -0.4999 -1.0103  1.0480
  174MPD1    H7 2715   0.849   4.195  14.767 -2.1854 -1.0890 -1.9870
  175MPD1     C 2716   3.191   0.723  15.924  0.4571 -0.8559  0.6935
  175MPD1    C1 2717   3.330   0.735  15.912 -0.8113 -0.6298  0.9556
  175MPD1    C2 2718   3.401   0.694  16.022  0.2104  0.0439  0.6970
  175MPD1    C3 2719   3.342   0.633  16.132 -0.3914  0.0321  0.1465
  175MPD1    C4 2720   3.205   0.616  16.128 -0.1999 -1.0443 -0.1056
  175MPD1    C5 2721   3.127   0.665  16.025 -0.3357  0.1752  0.2446
  175MPD1     H 2722   3.507   0.716  16.026 -0.1854  2.2854 -0.6925
  175MPD1    H1 2723   3.150   0.559  16.202 -0.4210  1.1184  1.3796
  175MPD1    H2 2724   3.130   0.762  15.843  1.9547 -3.1897 -1.5511
  175MPD1    H3 2725   3.021   0.643  16.016 -0.2098 -0.4439  0.2786
  175MPD1     N 2726   3.410   0.587  16.247 -0.6274  0.1603  0.5006
  175MPD1    H5 2727   3.349   0.542  16.316 -0.4614 -0.1669  0.4355
  175MPD1    N1 2728   3.396   0.810  15.818  0.3023 -0.0714  0.5379
  175MPD1    H6 2729   3.353   0.811  15.725  1.0775 -2.2111  0.1547
  175MPD1    H7 2730   3.493   0.782  15.808  0.4035 -0.0429  1.4557
  176MPD1     C 2731   0.439   3.215  17.519  0.0598  0.7575 -0.2050
  176MPD1    C1 2732   0.397   3.319  17.440  0.3942 -0.2422  0.0129
  176MPD1    C2 2733   0.455   3.444  17.459 -0.0569  0.9708  0.4144
  176MPD1    C3 2734   0.558   3.465  17.554 -0.5123  0.3554  0.4649
  176MPD1    C4 2735   0.592   3.360  17.635  0.1388 -0.1500  1.0360
  176MPD1    C5 2736   0.532   3.237  17.615 -0.5283 -0.2052  0.6235
  176MPD1     H 2737   0.423   3.530  17.401  0.4507  0.0054 -1.2926
  176MPD1    H1 2738   0.666   3.372  17.713  1.8578 -1.2682 -0.4228
  176MPD1    H2 2739   0.393   3.117  17.509  0.5916  0.5452 -0.5458
  176MPD1    H3 2740   0.557   3.153  17.679  0.5997 -0.4193 -0.1000
  176MPD1     N 2741   0.637   3.583  17.550  0.0065  0.2800  0.4822
  176MPD1    H5 2742   0.596   3.659  17.498 -1.4265 -1.1824 -0.5306
  176MPD1    N1 2743   0.316   3.295  17.328  0.6161  0.0517 -0.0444
  176MPD1    H6 2744   0.247   3.368  17.311  1.6989  0.9859 -0.4399
  176MPD1    H7 2745   0.263   3.210  17.348  1.3098 -0.4442 -0.2851
  177MPD1     C 2746   4.235   2.571   9.979  0.8258 -0.0020 -0.1894
  177MPD1    C1 2747   4.314   2.594   9.870 -1.0291 -0.3877 -0.2212
  177MPD1    C2 2748   4.247   2.657   9.766 -0.0468  0.5959 -0.2209
  177MPD1    C3 2749   4.109   2.644   9.749 -0.5527 -0.9031  0.0931
  177MPD1    C4 2750   4.042   2.582   9.850  0.0974  0.0647  0.3441
  177MPD1    C5 2751   4.097   2.553   9.969 -0.1014  0.4979 -0.1150
  177MPD1     H 2752   4.308   2.721   9.703  0.6733  0.8913  0.7786
  177MPD1    H1 2753   3.936   2.561   9.849 -0.2406  1.8705 -2.0525
  177MPD1    H2 2754   4.274   2.532  10.072  1.7873  2.6181  0.4890
  177MPD1    H3 2755   4.038   2.504  10.045 -1.3918  2.0178 -0.1340
  177MPD1     N 2756   4.048   2.695   9.634 -0.0790 -0.0317  0.2224
  177MPD1    H5 2757   4.083   2.776   9.585  0.5700 -0.2744  0.2850
  177MPD1    N1 2758   4.455   2.616   9.890 -0.2686  0.1320  0.0608
  177MPD1    H6 2759   4.490   2.613   9.794  2.9322 -1.8940  1.2972
  177MPD1    H7 2760   4.497   2.545   9.949  0.9774  0.2313 -0.7073
  178MPD1     C 2761   1.636   4.651   0.070 -0.2388 -0.5041  0.1022
  178MPD1    C1 2762   1.748   4.575   0.080 -0.3710  0.3720  0.0130
  178MPD1    C2 2763   1.739   4.435   0.080  0.4948  0.0733  0.2351
  178MPD1    C3 2764   1.620   4.373   0.052 -0.0991  0.2571 -0.2935
  178MPD1    C4 2765   1.508   4.454   0.031 -0.1001 -0.3508  0.3223
  178MPD1    C5 2766   1.512   4.590   0.040 -0.2130 -0.3959  0.9194
  178MPD1     H 2767   1.829   4.374   0.088  0.4714 -0.0149 -0.1579
  178MPD1    H1 2768   1.415   4.406  17.744 -1.6011  2.0929  0.9949
  178MPD1    H2 2769   1.640   0.021   0.094  0.6698 -0.4703 -0.2195
  178MPD1    H3 2770   1.428   4.658   0.037  1.6281  1.9057  1.1797
  178MPD1     N 2771   1.596   4.232   0.042 -0.1089  0.0706 -0.2290
  178MPD1    H5 2772   1.502   4.198   0.022 -0.7568  0.9843  1.2823
  178MPD1    N1 2773   1.864   4.636   0.129  0.2198  0.1997  0.2442
  178MPD1    H6 2774   1.945   4.591   0.088 -1.1392 -0.1821 -2.0441
  178MPD1    H7 2775   1.860   0.001   0.121  0.5172  0.2492  0.6926
  179MPD1     C 2776   0.608   1.595  15.014  0.0800 -0.3536  0.1863
  179MPD1    C1 2777   0.584   1.731  15.000  0.3974 -0.3039  0.2582
  179MPD1    C2 2778   0.574   1.807  15.112 -0.4111 -0.1188  0.2747
  179MPD1    C3 2779   0.609   1.751  15.242  0.0974  0.6651 -0.5581
  179MPD1    C4 2780   0.642   1.614  15.248  0.3514  0.5203 -0.3150
  179MPD1    C5 2781   0.642   1.536  15.133  0.2662 -0.6602  0.3850
  179MPD1     H 2782   0.540   1.909  15.108  0.5553  0.1613 -1.0980
  179MPD1    H1 2783   0.675   1.570  15.341 -0.8136 -1.5970 -0.8966
  179MPD1    H2 2784   0.604   1.527  14.930 -3.6411 -0.9713  0.8610
  179MPD1    H3 2785   0.663   1.430  15.130 -0.3022 -0.7282 -1.3055
  179MPD1     N 2786   0.596   1.826  15.362  0.0602 -0.3123 -0.8650
  179MPD1    H5 2787   0.615   1.773  15.446 -2.7559  2.0012  1.2389
  179MPD1    N1 2788   0.541   1.789  14.875 -0.9409 -0.1327 -0.8528
  179MPD1    H6 2789   0.597   1.747  14.802  3.3228 -0.0730  2.3565
  179MPD1    H7 2790   0.579   1.883  14.868 -0.9169  0.1413  2.7121
  180MPD1     C 2791   4.660   3.515  15.061  0.3384  0.5971  0.0543
  180MPD1    C1 2792   0.038   3.523  14.980 -0.3079 -0.7933  0.2081
  180MPD1    C2 2793   0.046   3.454  14.858 -0.0493 -0.9975 -0.6221
  180MPD1    C3 2794   4.686   3.365  14.822  0.2709 -0.6661 -0.2578
  180MPD1    C4 2795   4.579   3.350  14.911 -0.1139 -0.5248  0.1437
  180MPD1    C5 2796   4.561   3.431  15.016  0.2919  0.0201 -0.1786
  180MPD1     H 2797   0.133   3.461  14.793 -1.4410  0.7165 -2.3182
  180MPD1    H1 2798   4.501   3.278  14.885  0.1705 -1.0827  0.8415
  180MPD1    H2 2799   4.639   3.578  15.147 -0.3545  0.6757 -0.1725
  180MPD1    H3 2800   4.469   3.421  15.072  1.1307 -0.3268  1.1490
  180MPD1     N 2801   4.701   3.290  14.698  0.0625  0.5608  0.5750
  180MPD1    H5 2802   0.048   3.314  14.646  0.2004  0.6819  0.8535
  180MPD1    N1 2803   0.118   3.634  15.011 -0.2438  0.6347 -0.7476
  180MPD1    H6 2804   0.216   3.624  14.983  0.0587 -0.0118  0.5082
  180MPD1    H7 2805   0.128   3.656  15.110  1.2305 -1.4148 -0.4116
  181MPD1     C 2806   2.315   0.064   9.452  0.1690  0.3897  0.8463
  181MPD1    C1 2807   2.300   0.184   9.518 -0.2250 -0.4890 -0.3632
  181MPD1    C2 2808   2.408   0.229   9.602  0.7929 -0.0926  0.4949
  181MPD1    C3 2809   2.530   0.173   9.583 -0.4707 -0.6160 -0.7753
  181MPD1    C4 2810   2.552   0.071   9.497  0.1486  0.3778  0.4606
  181MPD1    C5 2811   2.443   0.016   9.438 -0.1533  0.4337  0.0514
  181MPD1     H 2812   2.395   0.311   9.671  0.3526  0.4983 -0.2917
  181MPD1    H1 2813   2.642   0.010   9.491 -0.2261 -0.0707 -0.5479
  181MPD1    H2 2814   2.231   0.009   9.411 -0.1051  2.3185 -1.1611
  181MPD1    H3 2815   2.465   4.666   9.376  2.5895  1.6374 -0.6407
  181MPD1     N 2816   2.649   0.203   9.655  0.2185  0.4557  0.4379
  181MPD1    H5 2817   2.738   0.167   9.622 -0.5875 -0.8787 -0.2642
  181MPD1    N1 2818   2.167   0.239   9.542  0.1868  0.0810  0.2007
  181MPD1    H6 2819   2.178   0.339   9.558 -3.2494  0.5975 -0.5583
  181MPD1    H7 2820   2.107   0.225   9.460 -0.7059  3.8627  0.2197
  182MPD1     C 2821   3.425   3.913   0.802  0.0617 -0.3836  0.2752
  182MPD1    C1 2822   3.428   4.044   0.764 -0.1463 -0.4274 -0.2751
  182MPD1    C2 2823   3.315   4.124   0.793  0.3780 -0.2044  0.1980
  182MPD1    C3 2824   3.191   4.064   0.818  0.0588 -0.5700 -0.1833
  182MPD1    C4 2825   3.189   3.931   0.827  0.3241  0.4631  0.5542
  182MPD1    C5 2826   3.306   3.856   0.825 -0.3617 -1.0609 -0.1036
  182MPD1     H 2827   3.314   4.231   0.775  1.4478 -0.4603 -1.3938
  182MPD1    H1 2828   3.095   3.877   0.831  2.7559 -3.7860  1.3970
  182MPD1    H2 2829   3.516   3.854   0.807  0.6317  0.3769 -0.9263
  182MPD1    H3 2830   3.307   3.748   0.836 -0.8895 -1.1311 -0.7686
  182MPD1     N 2831   3.075   4.137   0.814 -0.4405  0.2284  0.5327
  182MPD1    H5 2832   2.985   4.091   0.819 -0.7691  0.9248  0.9356
  182MPD1    N1 2833   3.553   4.102   0.734  1.0755  0.5873  0.4937
  182MPD1    H6 2834   3.624   4.038   0.699  0.7673  0.9485 -0.7717
  182MPD1    H7 2835   3.532   4.176   0.668  0.0889 -0.7208 -0.6665
  183MPD1     C 2836   4.287   4.672   8.397  0.6071 -0.1171  0.1499
  183MPD1    C1 2837   4.245   4.614   8.517 -0.0682 -0.1499  0.2813
  183MPD1    C2 2838   4.180   4.692   8.611 -0.2103 -0.7108 -0.1213
  183MPD1    C3 2839   4.163   0.094   8.596  0.3612 -0.2112  0.5185
  183MPD1    C4 2840   4.199   0.145   8.471  0.4872 -0.1651  0.2966
  183MPD1    C5 2841   4.254   0.064   8.376 -0.2107 -0.0095  0.2789
  183MPD1     H 2842   4.145   4.643   8.701  1.4213 -1.7278 -0.0373
  183MPD1    H1 2843   4.191   0.249   8.442 -1.9656 -0.8124 -1.3872
  183MPD1    H2 2844   4.348   4.619   8.326  0.4520 -1.0860  0.7330
  183MPD1    H3 2845   4.270   0.107   8.278  3.7301 -0.3456  0.7721
  183MPD1     N 2846   4.100   0.159   8.695 -0.1894 -1.0029 -0.6365
  183MPD1    H5 2847   4.084   0.104   8.779 -0.1474  0.2455  0.1978
  183MPD1    N1 2848   4.246   4.475   8.535  0.1756 -0.6870  0.1222
  183MPD1    H6 2849   4.233   4.448   8.633 -0.7942 -3.3800 -0.7366
  183MPD1    H7 2850   4.339   4.446   8.505 -0.3522 -1.3394 -0.8556
  184MPD1     C 2851   3.184   2.797   8.789  0.0300  0.8101 -0.3247
  184MPD1    C1 2852   3.281   2.844   8.873  0.5756  0.1173  0.1405
  184MPD1    C2 2853   3.319   2.973   8.851 -0.5752  0.0573 -0.5720
  184MPD1    C3 2854   3.264   3.053   8.751  0.5966 -0.2507 -0.5071
  184MPD1    C4 2855   3.158   3.002   8.675  0.2340  0.0379  0.6052
  184MPD1    C5 2856   3.129   2.874   8.696  0.8081 -0.3679  0.0489
  184MPD1     H 2857   3.399   3.011   8.913 -0.6761 -0.7082  0.0219
  184MPD1    H1 2858   3.094   3.057   8.607 -0.5847 -3.1332 -1.1613
  184MPD1    H2 2859   3.131   2.705   8.806  1.9355 -0.4200 -1.0731
  184MPD1    H3 2860   3.045   2.833   8.642  1.4028  0.1957 -1.3238
  184MPD1     N 2861   3.299   3.185   8.728 -0.1767  0.0480  0.0817
  184MPD1    H5 2862   3.240   3.244   8.669 -0.2193 -2.0508 -1.9422
  184MPD1    N1 2863   3.359   2.755   8.952 -0.0769 -0.6479 -0.3765
  184MPD1    H6 2864   3.414   2.796   9.028  0.0818  2.0575 -1.9328
  184MPD1    H7 2865   3.305   2.676   8.984  1.2122 -2.3809 -2.4921
  185MPD1     C 2866   2.986   3.543   8.101  0.0215 -0.2696 -0.2234
  185MPD1    C1 2867   2.985   3.648   8.190  0.2777 -0.7588 -0.5591
  185MPD1    C2 2868   3.074   3.638   8.299  0.1167 -0.0516 -0.3615
  185MPD1    C3 2869   3.173   3.545   8.308 -0.3878  0.1932  0.0060
  185MPD1    C4 2870   3.175   3.449   8.205  0.3867 -0.2459  0.1172
  185MPD1    C5 2871   3.081   3.448   8.102 -0.0606  0.1838 -0.0525
  185MPD1     H 2872   3.062   3.713   8.377  1.3041 -3.0648  2.7097
  185MPD1    H1 2873   3.241   3.363   8.212  1.4306  0.4709 -0.7181
  185MPD1    H2 2874   2.917   3.541   8.018 -0.8623 -0.6523  0.5170
  185MPD1    H3 2875   3.091   3.373   8.024  1.8846  0.6087 -0.2113
  185MPD1     N 2876   3.263   3.525   8.413  0.1561 -0.1325  0.2948
  185MPD1    H5 2877   3.313   3.437   8.422  1.2613  0.3287 -1.3013
  185MPD1    N1 2878   2.883   3.739   8.184 -0.3781  0.2689 -0.0178
  185MPD1    H6 2879   2.835   3.745   8.094 -1.1117  1.1936  0.4318
  185MPD1    H7 2880   2.901   3.829   8.226  1.4627 -0.9326  1.7455
  186MPD1     C 2881   1.355   1.908  16.151  0.9072 -0.5766 -0.1223
  186MPD1    C1 2882   1.225   1.946  16.164  0.0416  0.4433  0.0176
  186MPD1    C2 2883   1.195   2.048  16.244 -0.3219  1.1125  0.1031
  186MPD1    C3 2884   1.294   2.089  16.336  0.3873  0.3458  0.1225
  186MPD1    C4 2885   1.427   2.052  16.321  0.0771  0.6281  0.2998
  186MPD1    C5 2886   1.455   1.968  16.222 -0.4527 -0.4173  0.1670
  186MPD1     H 2887   1.095   2.089  16.248 -0.0424  1.7438  0.6715
  186MPD1    H1 2888   1.499   2.093  16.390  0.1834  1.4938 -0.3278
  186MPD1    H2 2889   1.378   1.832  16.077 -0.7127  0.5199 -1.7575
  186MPD1    H3 2890   1.557   1.935  16.213 -0.0037  0.7904  0.8619
  186MPD1     N 2891   1.269   2.195  16.427  0.2617  0.5275  0.4409
  186MPD1    H5 2892   1.342   2.217  16.494  0.2335  0.1331  0.6011
  186MPD1    N1 2893   1.134   1.887  16.079 -0.1292 -0.1488 -1.0569
  186MPD1    H6 2894   1.038   1.898  16.109  0.4748  0.0288  0.8024
  186MPD1    H7 2895   1.145   1.789  16.053  2.8266  0.3419 -1.7153
  187MPD1     C 2896   0.846   0.154  17.712 -0.8814 -0.0917 -0.8494
  187MPD1    C1 2897   0.800   0.025  17.730  0.1973 -0.0589  0.3472
  187MPD1    C2 2898   0.721   4.700  17.629 -0.4057  0.0538 -0.2648
  187MPD1    C3 2899   0.705   0.032  17.509  0.4756 -0.0138 -0.2947
  187MPD1    C4 2900   0.763   0.162  17.492 -0.1134 -0.3441  0.9273
  187MPD1    C5 2901   0.829   0.223  17.595  0.5312  0.0907  0.8847
  187MPD1     H 2902   0.688   4.598  17.640  1.0175 -0.4454 -0.5865
  187MPD1    H1 2903   0.751   0.222  17.402  0.1857 -3.2465 -1.0348
  187MPD1    H2 2904   0.862   0.207   0.060  0.3676  0.6767 -1.5177
  187MPD1    H3 2905   0.880   0.316  17.577  2.0615 -1.0104 -0.4332
  187MPD1     N 2906   0.630   4.726  17.396  0.1100 -0.2096 -0.1189
  187MPD1    H5 2907   0.628   0.047  17.313 -1.7145 -1.0176 -0.6507
  187MPD1    N1 2908   0.802   4.710   0.117  0.4543 -0.1013  0.2657
  187MPD1    H6 2909   0.799   4.609   0.110 -0.0474  0.0286 -1.4916
  187MPD1    H7 2910   0.883   0.006   0.170  0.5229 -2.2883  1.5020
  188MPD1     C 2911   1.563   3.461   9.479 -0.1534  0.8310 -0.5627
  188MPD1    C1 2912   1.536   3.441   9.344  0.5087  0.0900  0.1414
  188MPD1    C2 2913   1.457   3.330   9.311 -0.8445  0.3461 -0.0979
  188MPD1    C3 2914   1.391   3.256   9.401 -0.3446  0.4599  0.9067
  188MPD1    C4 2915   1.411   3.285   9.533 -0.1817 -0.5570 -0.6031
  188MPD1    C5 2916   1.495   3.390   9.576  0.2359 -0.3180 -0.2318
  188MPD1     H 2917   1.446   3.318   9.204  1.6975  0.7651 -0.4030
  188MPD1    H1 2918   1.340   3.242   9.602  0.1171 -0.1490 -0.0424
  188MPD1    H2 2919   1.629   3.542   9.507 -0.9115  0.5622  2.0709
  188MPD1    H3 2920   1.511   3.402   9.682 -1.0717  1.6379 -0.2561
  188MPD1     N 2921   1.298   3.153   9.369 -0.2196  0.1205  0.8390
  188MPD1    H5 2922   1.264   3.102   9.450  2.5781 -1.4332  1.0351
  188MPD1    N1 2923   1.573   3.533   9.248 -0.1855 -0.0065 -0.0744
  188MPD1    H6 2924   1.651   3.584   9.290 -1.1382  2.1384 -0.8941
  188MPD1    H7 2925   1.601   3.494   9.158 -2.6016 -0.6090 -0.5761
  189MPD1     C 2926   2.247   0.362   0.394 -0.0054 -0.1722 -0.3961
  189MPD1    C1 2927   2.120   0.333   0.349 -0.5245  0.2557 -0.3726
  189MPD1    C2 2928   2.041   0.429   0.282  0.1045 -0.9414  0.1902
  189MPD1    C3 2929   2.087   0.557   0.272 -0.0422  0.0257  0.1700
  189MPD1    C4 2930   2.209   0.583   0.332 -0.1491 -0.3191 -0.0757
  189MPD1    C5 2931   2.290   0.488   0.391  0.4769  0.2229 -0.5949
  189MPD1     H 2932   1.942   0.401   0.248 -0.1880  0.7196 -0.3202
  189MPD1    H1 2933   2.253   0.682   0.331  0.0492 -0.4120 -0.7075
  189MPD1    H2 2934   2.309   0.286   0.441  0.1651  0.8242  1.0125
  189MPD1    H3 2935   2.384   0.518   0.436  1.0927 -1.3956 -0.8213
  189MPD1     N 2936   1.998   0.649   0.211 -0.4564  0.4144 -0.1126
  189MPD1    H5 2937   1.901   0.629   0.192 -0.7166  0.5648  1.0334
  189MPD1    N1 2938   2.071   0.202   0.351  0.0362 -0.3480 -0.5122
  189MPD1    H6 2939   1.973   0.197   0.322 -0.6617 -0.8583  1.9810
  189MPD1    H7 2940   2.096   0.155   0.437  0.2082  1.1892  0.2773
  190MPD1     C 2941   0.765   3.874  15.466  0.0487  0.3096  0.6833
  190MPD1    C1 2942   0.881   3.819  15.404  0.3115  0.2453  0.4345
  190MPD1    C2 2943   0.970   3.752  15.488 -0.8766  0.0260 -0.0693
  190MPD1    C3 2944   0.947   3.738  15.624  0.3731  0.3509  0.5250
  190MPD1    C4 2945   0.817   3.773  15.675  0.3136 -0.0368 -0.2757
  190MPD1    C5 2946   0.728   3.836  15.588 -0.7934 -0.2616 -0.2740
  190MPD1     H 2947   1.057   3.706  15.443  0.0528  0.9741  0.7468
  190MPD1    H1 2948   0.788   3.754  15.777 -1.2731 -0.3762 -0.7879
  190MPD1    H2 2949   0.699   3.931  15.402 -1.2219 -2.9613 -0.9412
  190MPD1    H3 2950   0.633   3.868  15.629 -1.2810 -2.3480  0.2591
  190MPD1     N 2951   1.050   3.674  15.700 -0.2163  0.1429  0.5822
  190MPD1    H5 2952   1.126   3.627  15.651  0.5020  1.2091  0.6648
  190MPD1    N1 2953   0.918   3.849  15.278  0.2069  0.7323  0.1947
  190MPD1    H6 2954   0.839   3.874  15.218  2.3221 -1.5133 -3.5455
  190MPD1    H7 2955   0.985   3.783  15.240 -0.4242 -1.0896  2.2915
  191MPD1     C 2956   0.047   4.700  13.021 -0.6729 -0.2092 -0.3065
  191MPD1    C1 2957   4.664   4.699  12.952 -0.4533  0.1211 -0.0844
  191MPD1    C2 2958   4.658   0.027  12.829  0.2173  0.4887  0.0324
  191MPD1    C3 2959   0.031   0.091  12.773 -0.4290  0.2610  0.4155
  191MPD1    C4 2960   0.152   0.090  12.843 -0.1772 -0.2521  0.2978
  191MPD1    C5 2961   0.153   0.034  12.972 -0.1100  0.4357  0.0304
  191MPD1     H 2962   4.568   0.025  12.768  0.7652 -1.9475 -0.6669
  191MPD1    H1 2963   0.244   0.140  12.814 -0.3188  1.3905  2.6923
  191MPD1    H2 2964   0.063   4.648  13.114  1.5162  1.3971  0.2101
  191MPD1    H3 2965   0.250   0.031  13.020  0.4339 -3.7672 -1.3955
  191MPD1     N 2966   0.014   0.146  12.643 -0.1378  0.7396  1.1317
  191MPD1    H5 2967   4.672   0.115  12.587  1.8504 -0.4748 -0.9623
  191MPD1    N1 2968   4.550   4.642  13.008  0.2276 -0.0898 -0.2214
  191MPD1    H6 2969   4.555   4.635  13.109  0.8273  0.8764 -0.1806
  191MPD1    H7 2970   4.460   4.687  12.989 -0.0034 -0.0521  0.9499
  192MPD1     C 2971   4.275   0.630  11.906 -0.6512 -0.5245  0.0715
  192MPD1    C1 2972   4.245   0.566  12.023 -0.1734 -0.2724 -0.5001
  192MPD1    C2 2973   4.346   0.524  12.099  0.0842  0.2458 -0.3137
  192MPD1    C3 2974   4.474   0.559  12.070  0.5178  0.2914 -1.1559
  192MPD1    C4 2975   4.503   0.644  11.961  0.2378 -0.0075  0.1691
  192MPD1    C5 2976   4.401   0.673  11.874  0.1506 -0.0103  0.1027
  192MPD1     H 2977   4.329   0.443  12.169  1.0193 -1.1074 -1.6563
  192MPD1    H1 2978   4.604   0.676  11.937 -0.3151 -0.2348 -2.4702
  192MPD1    H2 2979   4.205   0.657  11.828  1.0980 -1.2107 -1.7335
  192MPD1    H3 2980   4.431   0.713  11.778  4.1666 -0.4726  1.1458
  192MPD1     N 2981   4.585   0.512  12.151  0.3293  0.8920 -0.8042
  192MPD1    H5 2982   4.677   0.542  12.122  0.0379  0.3476 -2.2893
  192MPD1    N1 2983   4.123   0.497  12.038 -0.1410  0.2150 -0.3072
  192MPD1    H6 2984   4.051   0.545  11.985  0.8215  1.6419 -0.3243
  192MPD1    H7 2985   4.104   0.502  12.138 -0.2964 -0.6325 -0.2987
  193MPD1     C 2986   4.186   0.881  16.122  0.2485 -0.2385  0.0392
  193MPD1    C1 2987   4.210   1.009  16.082 -0.1531 -0.2065 -0.2377
  193MPD1    C2 2988   4.280   1.092  16.164  0.1137  0.0172  0.6514
  193MPD1    C3 2989   4.315   1.063  16.298 -0.0858 -0.6675 -0.3322
  193MPD1    C4 2990   4.282   0.937  16.344 -0.0878  0.3557 -0.2996
  193MPD1    C5 2991   4.221   0.848  16.252 -0.5389  0.3954 -0.2546
  193MPD1     H 2992   4.287   1.195  16.133 -0.6545 -0.1634 -0.1170
  193MPD1    H1 2993   4.308   0.905  16.444  0.9047  0.8647 -0.4003
  193MPD1    H2 2994   4.129   0.808  16.067 -0.9158 -0.9761  2.2114
  193MPD1    H3 2995   4.202   0.745  16.281 -2.4727  0.4169 -1.4601
  193MPD1     N 2996   4.374   1.155  16.389  0.0547  0.0307 -0.2355
  193MPD1    H5 2997   4.393   1.127  16.484  0.0504  1.4327  0.1778
  193MPD1    N1 2998   4.189   1.043  15.948 -0.1155 -0.2023 -0.2321
  193MPD1    H6 2999   4.182   1.143  15.931  3.7711  0.3064  1.1527
  193MPD1    H7 3000   4.108   0.995  15.907 -0.4887  0.1604  0.0798
  194MPD1     C 3001   2.435   2.678  16.184  0.3548  0.1441  0.0638
  194MPD1    C1 3002   2.438   2.760  16.299 -0.3297  0.3704 -0.1158
  194MPD1    C2 3003   2.500   2.708  16.412 -0.0315  0.3676  0.2939
  194MPD1    C3 3004   2.536   2.571  16.419 -0.0138 -1.0747 -0.2670
  194MPD1    C4 3005   2.526   2.493  16.305 -0.4143 -0.2368  0.1905
  194MPD1    C5 3006   2.480   2.547  16.185  0.6489 -0.4688 -0.5898
  194MPD1     H 3007   2.520   2.764  16.503 -1.5906  0.5623  0.5039
  194MPD1    H1 3008   2.548   2.388  16.295  2.3804  0.4121 -0.2748
  194MPD1    H2 3009   2.394   2.730  16.098 -0.9633 -3.6214 -1.5715
  194MPD1    H3 3010   2.471   2.484  16.097 -2.4188  2.6236 -2.5103
  194MPD1     N 3011   2.597   2.503  16.529 -0.7237  0.2007  0.0634
  194MPD1    H5 3012   2.621   2.406  16.517  0.1826 -0.0376  3.8165
  194MPD1    N1 3013   2.412   2.904  16.299 -0.6434  0.0156  1.1699
  194MPD1    H6 3014   2.347   2.938  16.228  1.5544  0.2167 -0.7415
  194MPD1    H7 3015   2.384   2.935  16.391 -4.3698  0.6275 -0.1664
  195MPD1     C 3016   0.322   0.165  17.266 -0.1182 -0.1476 -0.4490
  195MPD1    C1 3017   0.230   0.074  17.316 -0.5699  0.7841  0.1660
  195MPD1    C2 3018   0.225   0.058  17.447 -0.2903  0.4254  0.7900
  195MPD1    C3 3019   0.311   0.127  17.529 -0.3534 -0.3971  0.3643
  195MPD1    C4 3020   0.392   0.227  17.478  0.5267  0.5776  0.1881
  195MPD1    C5 3021   0.398   0.241  17.346 -0.5229 -0.3099 -0.3508
  195MPD1     H 3022   0.162   4.713  17.481  0.1971 -1.7068 -3.4654
  195MPD1    H1 3023   0.461   0.288  17.536  1.2541 -0.7638  0.7638
  195MPD1    H2 3024   0.322   0.195  17.161  0.8352  3.1749  0.4974
  195MPD1    H3 3025   0.448   0.318  17.289 -0.0091  1.2152  2.1283
  195MPD1     N 3026   0.308   0.101  17.673 -1.2152 -0.0351  0.2964
  195MPD1    H5 3027   0.368   0.159  17.731  0.9560 -1.6061 -0.3368
  195MPD1    N1 3028   0.130   0.008  17.236 -0.0002  0.2088  0.1534
  195MPD1    H6 3029   0.080   4.661  17.267 -1.9032  0.9021 -1.0452
  195MPD1    H7 3030   0.139   0.004  17.135 -1.9498  1.4805 -0.0472
  196MPD1     C 3031   3.798   3.567   0.522  0.1119 -0.6441  1.0667
  196MPD1    C1 3032   3.731   3.694   0.513  0.3748 -0.2675  0.4646
  196MPD1    C2 3033   3.787   3.801   0.575 -0.0567 -0.6765  0.3244
  196MPD1    C3 3034   3.912   3.805   0.618  0.8601  0.0389 -0.0806
  196MPD1    C4 3035   3.991   3.693   0.611 -0.4730  0.4918 -0.9228
  196MPD1    C5 3036   3.930   3.579   0.562  0.6602 -0.0035  0.0195
  196MPD1     H 3037   3.729   3.891   0.583  0.6471 -0.0375 -2.0074
  196MPD1    H1 3038   4.096   3.689   0.639 -0.3263 -1.3544 -1.7372
  196MPD1    H2 3039   3.755   3.473   0.492 -1.1941  0.3915 -0.3130
  196MPD1    H3 3040   3.999   3.497   0.548  0.3223 -0.0894 -1.1201
  196MPD1     N 3041   3.978   3.922   0.670  0.2995  0.0494  0.2107
  196MPD1    H5 3042   4.078   3.917   0.683  0.0227  0.8026  2.6323
  196MPD1    N1 3043   3.597   3.708   0.475  0.2667 -0.5752 -0.3321
  196MPD1    H6 3044   3.582   3.798   0.430  0.4687  0.6115  1.9471
  196MPD1    H7 3045   3.579   3.634   0.408 -2.5491  1.1303 -1.4172
  197MPD1     C 3046   3.756   0.787  17.602 -0.2157 -0.4424  0.5665
  197MPD1    C1 3047   3.787   0.912  17.630 -0.1133 -0.3742 -0.2935
  197MPD1    C2 3048   3.719   1.019  17.565  0.1835  0.1163 -0.5410
  197MPD1    C3 3049   3.644   0.987  17.456 -0.2347  0.6849 -0.1447
  197MPD1    C4 3050   3.617   0.855  17.418 -0.1612 -0.7760 -0.1556
  197MPD1    C5 3051   3.669   0.752  17.498  0.0304 -0.6456  0.0395
  197MPD1     H 3052   3.732   1.124  17.589  0.1921 -0.6255  2.7953
  197MPD1    H1 3053   3.560   0.837  17.328  1.3033 -1.5814 -0.9103
  197MPD1    H2 3054   3.805   0.716  17.667  0.4588 -0.5632 -0.0729
  197MPD1    H3 3055   3.651   0.647  17.477 -1.9706 -0.6595  1.8669
  197MPD1     N 3056   3.607   1.087  17.367 -0.9585 -0.7947 -0.2419
  197MPD1    H5 3057   3.569   1.043  17.283 -0.5244 -0.0841 -0.8063
  197MPD1    N1 3058   3.860   0.943   0.003 -0.4706  0.1726  0.4394
  197MPD1    H6 3059   3.896   1.038   0.012 -2.1644  0.9336 -0.6775
  197MPD1    H7 3060   3.947   0.890   0.006  0.9262  2.4833  0.6606
  198MPD1     C 3061   0.350   4.638  15.472  0.0124 -0.3573  0.0672
  198MPD1    C1 3062   0.480   4.649  15.442 -0.2894  0.6176 -0.3304
  198MPD1    C2 3063   0.576   4.670  15.541 -0.6923  0.9049 -0.2265
  198MPD1    C3 3064   0.545   4.688  15.675 -0.0501  0.5212  1.0268
  198MPD1    C4 3065   0.408   4.682  15.709 -0.4837  0.3451  0.3791
  198MPD1    C5 3066   0.317   4.658  15.605  0.9283  0.1163 -0.0514
  198MPD1     H 3067   0.681   4.676  15.518 -1.1924 -0.0658 -2.7780
  198MPD1    H1 3068   0.371   4.689  15.811 -1.2817  0.0529  0.1125
  198MPD1    H2 3069   0.274   4.608  15.401 -2.4029 -0.5249  2.7367
  198MPD1    H3 3070   0.211   4.655  15.628  0.8419  1.6195 -0.2154
  198MPD1     N 3071   0.645   0.008  15.758 -0.0620  0.2774 -0.1290
  198MPD1    H5 3072   0.736   0.023  15.717 -0.0775 -0.4129 -0.4233
  198MPD1    N1 3073   0.519   4.616  15.307  0.4943 -0.1223  0.5414
  198MPD1    H6 3074   0.601   4.671  15.284  0.8784 -1.0914 -0.4001
  198MPD1    H7 3075   0.450   4.640  15.236  2.9386 -1.1676 -2.1951
  199MPD1     C 3076   2.830   0.402   9.343 -0.4826  0.2569  0.4107
  199MPD1    C1 3077   2.856   0.487   9.447  0.2841 -0.2702 -0.0808
  199MPD1    C2 3078   2.755   0.550   9.508  0.2490  0.9811  0.3554
  199MPD1    C3 3079   2.625   0.517   9.483  0.6318  0.6548  0.2203
  199MPD1    C4 3080   2.601   0.429   9.383  0.9023 -0.5272  0.1051
  199MPD1    C5 3081   2.698   0.370   9.305 -0.0513  0.0851 -0.6282
  199MPD1     H 3082   2.784   0.628   9.577 -1.6835 -0.0568  2.3003
  199MPD1    H1 3083   2.497   0.415   9.355  1.0658 -2.1342  0.2783
  199MPD1    H2 3084   2.904   0.348   9.286 -0.5350  1.1901 -0.5431
  199MPD1    H3 3085   2.680   0.307   9.218  0.0723 -1.0663  0.1873
  199MPD1     N 3086   2.507   0.572   9.539  0.3998 -0.2242 -0.5553
  199MPD1    H5 3087   2.415   0.556   9.501  0.9223  0.4525 -2.0830
  199MPD1    N1 3088   2.998   0.510   9.466 -0.0655 -0.1702 -0.2225
  199MPD1    H6 3089   3.065   0.435   9.446  1.5044  1.1263  0.1680
  199MPD1    H7 3090   3.021   0.540   9.561  2.0019  0.2484 -0.8623
  200MPD1     C 3091   1.702   0.494  16.207  0.4540 -0.1261 -0.3257
  200MPD1    C1 3092   1.724   0.633  16.213 -0.0575  0.1247 -0.9969
  200MPD1    C2 3093   1.716   0.700  16.095 -0.0276 -0.8607 -0.4020
  200MPD1    C3 3094   1.690   0.634  15.977  0.9864  0.7061 -0.0399
  200MPD1    C4 3095   1.672   0.501  15.976  0.6065 -0.2209 -0.2188
  200MPD1    C5 3096   1.679   0.432  16.093  0.1111 -0.3914  0.4301
  200MPD1     H 3097   1.738   0.806  16.104  4.6131 -1.7576 -1.3188
  200MPD1    H1 3098   1.664   0.450  15.881 -1.6836 -0.7740  0.2775
  200MPD1    H2 3099   1.701   0.439  16.301  1.2069  1.2551  0.4816
  200MPD1    H3 3100   1.657   0.326  16.103 -2.8043  0.2538  1.0638
  200MPD1     N 3101   1.666   0.706  15.858 -0.5838 -0.3994 -0.4528
  200MPD1    H5 3102   1.650   0.651  15.774  0.5555 -2.5578  0.7487
  200MPD1    N1 3103   1.772   0.688  16.333  0.4363 -0.3591 -0.2206
  200MPD1    H6 3104   1.731   0.657  16.421  2.0495  0.3612  0.7745
  200MPD1    H7 3105   1.770   0.790  16.327  2.8355 -0.2625  0.6578
  201MPD1     C 3106   3.856   4.470  13.570  1.1569  0.1443 -0.1776
  201MPD1    C1 3107   3.980   4.499  13.631 -0.4306 -0.4983 -0.1635
  201MPD1    C2 3108   4.039   4.400  13.712 -0.4161  0.3556 -0.4435
  201MPD1    C3 3109   3.968   4.288  13.740  0.3414  0.5606  0.3432
  201MPD1    C4 3110   3.850   4.265  13.676  0.9240  0.5454 -0.2477
  201MPD1    C5 3111   3.791   4.358  13.600 -0.0904  0.8277 -0.3966
  201MPD1     H 3112   4.138   4.419  13.753 -0.7100  1.0050 -0.0313
  201MPD1    H1 3113   3.790   4.177  13.696  3.2665 -1.4656 -2.0016
  201MPD1    H2 3114   3.827   4.541  13.493  2.1958  1.0252  0.2347
  201MPD1    H3 3115   3.690   4.341  13.567  0.2964 -1.1144 -0.6305
  201MPD1     N 3116   4.033   4.203  13.823 -0.0166  0.3430 -0.2918
  201MPD1    H5 3117   4.127   4.226  13.854 -0.4547 -0.4047  1.5756
  201MPD1    N1 3118   4.047   4.622  13.585 -0.6304  0.2979 -0.3803
  201MPD1    H6 3119   3.975   4.690  13.564 -2.2050 -1.3050 -0.1924
  201MPD1    H7 3120   4.117   4.666  13.645 -1.1121  0.5596 -0.0169
  202MPD1     C 3121   4.579   3.841   8.745  0.8333  0.1575  0.1057
  202MPD1    C1 3122   4.552   3.972   8.754 -0.0570  0.1176  0.1700
  202MPD1    C2 3123   4.546   4.032   8.879  0.4386 -0.3565  0.3716
  202MPD1    C3 3124   4.521   3.955   8.995  0.6930  0.5229  0.8028
  202MPD1    C4 3125   4.539   3.821   8.979 -1.4512 -0.2834  0.1968
  202MPD1    C5 3126   4.571   3.762   8.858 -0.0288 -0.5831 -0.0578
  202MPD1     H 3127   4.509   4.133   8.868  1.0365  0.0461  2.1128
  202MPD1    H1 3128   4.536   3.751   9.062 -0.5001 -0.3793  0.1495
  202MPD1    H2 3129   4.623   3.800   8.655  2.4541  1.8619  0.1128
  202MPD1    H3 3130   4.599   3.657   8.869  1.1964 -0.2344  0.1652
  202MPD1     N 3131   4.508   4.004   9.131 -0.0128 -0.4202  0.1801
  202MPD1    H5 3132   4.497   3.935   9.205  1.7049 -0.4666  0.3940
  202MPD1    N1 3133   4.587   4.059   8.644 -0.5755 -0.0161  0.4642
  202MPD1    H6 3134   4.554   4.016   8.558  1.7612  0.4142 -0.6541
  202MPD1    H7 3135   4.545   4.151   8.653  1.2995  0.5173  3.9497
  203MPD1     C 3136   2.428   0.156  12.177 -0.0431  0.6413 -0.3510
  203MPD1    C1 3137   2.482   0.069  12.081 -0.2100  0.1496 -0.1113
  203MPD1    C2 3138   2.571   4.717  12.126  0.0371  0.0493  0.3736
  203MPD1    C3 3139   2.603   4.704  12.262 -0.7962  0.1131  0.0003
  203MPD1    C4 3140   2.544   0.053  12.354  0.0286  0.5121 -0.1486
  203MPD1    C5 3141   2.462   0.148  12.309  0.1044  0.0333  0.1271
  203MPD1     H 3142   2.625   4.654  12.056  2.3968  2.2600  0.2035
  203MPD1    H1 3143   2.568   0.041  12.459 -0.2549 -2.2607 -0.4059
  203MPD1    H2 3144   2.360   0.235  12.147 -1.6435 -1.6795 -2.8578
  203MPD1    H3 3145   2.425   0.222  12.378 -0.9857 -0.7074  0.3258
  203MPD1     N 3146   2.693   4.600  12.300  0.3133 -0.5234 -0.0129
  203MPD1    H5 3147   2.701   4.529  12.227  0.5954 -1.9106  1.3771
  203MPD1    N1 3148   2.463   0.091  11.944  0.3398 -0.2514  0.5751
  203MPD1    H6 3149   2.377   0.143  11.926  0.2575 -0.8282 -0.7218
  203MPD1    H7 3150   2.465   0.009  11.883 -0.1393 -0.7721  1.2727
  204MPD1     C 3151   2.400   2.016  17.713  0.7379  0.0467 -0.0957
  204MPD1    C1 3152   2.440   2.003  17.583  0.9017  0.3992  0.2767
  204MPD1    C2 3153   2.504   1.884  17.547 -0.0805  0.1652  0.1317
  204MPD1    C3 3154   2.495   1.768  17.628  0.8181 -0.6741  0.4305
  204MPD1    C4 3155   2.446   1.787   0.012 -0.3228  0.0623 -0.0915
  204MPD1    C5 3156   2.394   1.909   0.054 -0.2246  0.4816 -0.6734
  204MPD1     H 3157   2.537   1.871  17.444 -0.3417  0.1992  0.0451
  204MPD1    H1 3158   2.438   1.704   0.081  0.1611  1.1024  1.2214
  204MPD1    H2 3159   2.362   2.105   0.017  1.4359  0.6212 -0.6059
  204MPD1    H3 3160   2.328   1.921   0.139  0.0240 -0.4873 -0.3392
  204MPD1     N 3161   2.543   1.642  17.579 -0.1468 -0.2520  0.1460
  204MPD1    H5 3162   2.595   1.649  17.492  0.8996  0.7960  0.8512
  204MPD1    N1 3163   2.430   2.117  17.498  0.5843  0.4094 -0.5712
  204MPD1    H6 3164   2.374   2.094  17.417 -1.2706  1.7807  0.3205
  204MPD1    H7 3165   2.389   2.196  17.548 -0.0756 -0.1311 -0.2674
  205MPD1     C 3166   3.293   4.657  17.380  0.0174 -0.2608  0.2449
  205MPD1    C1 3167   3.179   4.586  17.341  0.5072 -0.3759  0.0032
  205MPD1    C2 3168   3.055   4.641  17.353  0.6763  0.2500  0.6448
  205MPD1    C3 3169   3.042   0.038  17.389  0.2109 -0.2256 -0.2285
  205MPD1    C4 3170   3.154   0.108  17.431  0.2176  0.0010  0.2076
  205MPD1    C5 3171   3.273   0.049  17.423  0.1917 -0.5042  0.5116
  205MPD1     H 3172   2.969   4.580  17.326  0.9068  0.7500 -1.2081
  205MPD1    H1 3173   3.147   0.214  17.456 -1.3214 -0.2514  0.8486
  205MPD1    H2 3174   3.388   4.607  17.393  1.9061  2.8060 -1.6201
  205MPD1    H3 3175   3.359   0.112  17.445  2.0274 -2.1027 -2.0206
  205MPD1     N 3176   2.916   0.112  17.407  0.0368 -0.0043 -0.3271
  205MPD1    H5 3177   2.931   0.205  17.446 -1.1174  0.2636 -0.5244
  205MPD1    N1 3178   3.204   4.454  17.322  0.1065 -0.6088  0.0625
  205MPD1    H6 3179   3.299   4.445  17.286  0.6430  1.6902  0.9048
  205MPD1    H7 3180   3.153   4.422  17.240  0.6247 -1.1280 -0.0537
  206MPD1     C 3181   3.513   2.869  16.744  0.0984  0.2819 -0.1311
  206MPD1    C1 3182   3.400   2.858  16.824 -1.0141 -0.0796 -0.5390
  206MPD1    C2 3183   3.275   2.860  16.763 -0.5011  0.2412 -0.0472
  206MPD1    C3 3184   3.266   2.853  16.622  0.1797 -0.6335  0.6933
  206MPD1    C4 3185   3.382   2.834  16.549  0.0466 -0.2059 -0.6295
  206MPD1    C5 3186   3.507   2.843  16.602 -0.2589 -0.2514 -0.1182
  206MPD1     H 3187   3.191   2.857  16.830  0.3241  1.1992  1.0361
  206MPD1    H1 3188   3.380   2.809  16.443  0.9822  0.9648 -0.9275
  206MPD1    H2 3189   3.607   2.894  16.792  0.2689 -0.9355  0.1690
  206MPD1    H3 3190   3.598   2.836  16.544 -0.1702 -0.4979  0.0520
  206MPD1     N 3191   3.144   2.866  16.554  0.0251  0.1318 -0.1072
  206MPD1    H5 3192   3.152   2.862  16.453 -2.4102  2.5534 -0.3697
  206MPD1    N1 3193   3.410   2.873  16.964 -0.5479 -0.2622 -0.2201
  206MPD1    H6 3194   3.496   2.828  16.995  0.4083  0.8346 -1.2840
  206MPD1    H7 3195   3.329   2.835  17.013  1.6881 -1.8275  2.2922
  207MPD1     C 3196   0.876   0.640   9.012 -0.0696  0.4621  0.3319
  207MPD1    C1 3197   0.976   0.735   8.999  0.3859 -0.2351  0.0723
  207MPD1    C2 3198   1.001   0.819   9.110 -0.2950  0.3180  1.2857
  207MPD1    C3 3199   0.915   0.820   9.218 -0.0088 -0.3209  0.3098
  207MPD1    C4 3200   0.822   0.713   9.227 -0.0514  0.2002 -0.7866
  207MPD1    C5 3201   0.805   0.622   9.125 -0.1544 -0.3529  0.5400
  207MPD1     H 3202   1.080   0.893   9.097  0.5053 -0.8440 -0.5059
  207MPD1    H1 3203   0.766   0.688   9.316  1.3300  1.6926  0.5079
  207MPD1    H2 3204   0.858   0.567   8.934 -0.1460  1.8232 -0.9212
  207MPD1    H3 3205   0.719   0.555   9.125  0.5378 -1.2469  0.0766
  207MPD1     N 3206   0.940   0.905   9.331 -0.3258  0.4548  0.0363
  207MPD1    H5 3207   0.882   0.883   9.411  0.7323  0.5144  0.8151
  207MPD1    N1 3208   1.065   0.740   8.890  0.6297  0.7207 -0.5025
  207MPD1    H6 3209   1.032   0.703   8.801 -1.8245  1.4995  0.0936
  207MPD1    H7 3210   1.101   0.833   8.874  0.1306  1.0970  0.5794
  208MPD1     C 3211   2.681   3.635  17.531 -0.5078  0.0383 -0.2798
  208MPD1    C1 3212   2.607   3.569  17.624 -0.6338  0.5656  0.0138
  208MPD1    C2 3213   2.493   3.631  17.671 -0.6278 -0.1043 -0.7591
  208MPD1    C3 3214   2.449   3.741  17.609  0.1746  0.0626  0.3730
  208MPD1    C4 3215   2.507   3.800  17.503 -0.2711 -0.3379 -0.2015
  208MPD1    C5 3216   2.634   3.757  17.475  0.1410  0.0865  0.1031
  208MPD1     H 3217   2.441   3.598   0.016 -1.7516  0.5419 -1.1669
  208MPD1    H1 3218   2.481   3.893  17.453 -1.7259 -0.8837 -0.4505
  208MPD1    H2 3219   2.781   3.601  17.508 -1.3870 -2.6291 -0.1520
  208MPD1    H3 3220   2.698   3.815  17.410 -1.0833  0.5954 -0.6481
  208MPD1     N 3221   2.330   3.790  17.659 -0.1042 -1.1527 -0.9990
  208MPD1    H5 3222   2.306   3.758   0.008  5.3933  2.2314  1.5493
  208MPD1    N1 3223   2.663   3.461  17.708  0.3217 -0.0452  0.1378
  208MPD1    H6 3224   2.724   3.398  17.656  0.0608  0.3908 -0.6955
  208MPD1    H7 3225   2.591   3.407   0.010  1.5759  0.3378  2.4989
  209MPD1     C 3226   1.324   0.381  11.216 -0.3566 -0.6773  0.6918
  209MPD1    C1 3227   1.314   0.287  11.113  0.1950  0.2644  0.4219
  209MPD1    C2 3228   1.320   0.323  10.983  0.3090 -0.5452 -0.1323
  209MPD1    C3 3229   1.366   0.456  10.947  0.0641  0.2802 -0.9641
  209MPD1    C4 3230   1.380   0.544  11.045  0.1749  0.1029  0.5049
  209MPD1    C5 3231   1.368   0.505  11.178  0.2620  0.0336  0.3457
  209MPD1     H 3232   1.299   0.241  10.915 -1.5508  1.5296 -2.0427
  209MPD1    H1 3233   1.402   0.649  11.026 -1.8018  0.6480  1.2906
  209MPD1    H2 3234   1.293   0.367  11.319  1.3651 -2.3926  0.9756
  209MPD1    H3 3235   1.370   0.575  11.260  1.1223 -2.6956  2.6354
  209MPD1     N 3236   1.372   0.500  10.811  0.5103 -0.0747  0.2483
  209MPD1    H5 3237   1.372   0.599  10.789 -2.4603 -0.6105 -2.1554
  209MPD1    N1 3238   1.263   0.164  11.150  0.0841  0.1731 -0.1232
  209MPD1    H6 3239   1.256   0.088  11.083  0.3559 -0.8739  1.0414
  209MPD1    H7 3240   1.313   0.118  11.226  0.5441 -0.8849 -1.0709
  210MPD1     C 3241   1.719   1.149  10.130  0.6029 -0.8267 -0.0620
  210MPD1    C1 3242   1.779   1.026  10.164  0.4232 -0.9075  0.3252
  210MPD1    C2 3243   1.703   0.927  10.218 -0.7398  0.2765 -1.2554
  210MPD1    C3 3244   1.565   0.935  10.234 -0.4355  0.1341  0.7823
  210MPD1    C4 3245   1.507   1.055  10.201 -0.1868  0.9129 -0.2412
  210MPD1    C5 3246   1.582   1.160  10.146 -0.0023  0.0407 -0.1267
  210MPD1     H 3247   1.745   0.830  10.243 -2.1398  0.0462  0.1862
  210MPD1    H1 3248   1.402   1.072  10.220  0.1384  1.9753  0.6209
  210MPD1    H2 3249   1.777   1.234  10.097 -0.3153 -0.0019  0.4336
  210MPD1    H3 3250   1.529   1.243  10.102 -0.2772  0.7669  1.5757
  210MPD1     N 3251   1.487   0.840  10.303  0.1630 -1.0315 -0.0609
  210MPD1    H5 3252   1.386   0.841  10.298  0.1537  1.9301  0.6853
  210MPD1    N1 3253   1.913   1.005  10.133  0.4516 -0.4261 -0.9719
  210MPD1    H6 3254   1.919   0.906  10.110  2.4632 -0.0138 -2.2063
  210MPD1    H7 3255   1.941   1.047  10.045 -0.4892  0.6604 -0.7591
  211MPD1     C 3256   3.116   4.624  16.583  0.0873 -0.0741 -0.7352
  211MPD1    C1 3257   2.980   4.593  16.567  0.3244  0.3885 -0.5937
  211MPD1    C2 3258   2.890   4.693  16.603  0.2531 -0.5931 -0.2174
  211MPD1    C3 3259   2.933   0.087  16.622 -0.1218 -0.1165 -0.0849
  211MPD1    C4 3260   3.060   0.110  16.620 -0.0807 -0.0877  0.5411
  211MPD1    C5 3261   3.158   0.014  16.600 -0.4034 -1.0248 -0.1037
  211MPD1     H 3262   2.785   4.674  16.585 -0.6985  2.5225  2.0452
  211MPD1    H1 3263   3.091   0.212  16.639 -0.1728  0.1502 -0.5926
  211MPD1    H2 3264   3.189   4.544  16.579  0.2157  0.0131 -0.2053
  211MPD1    H3 3265   3.259   0.038  16.633 -0.8234 -0.5597  0.8493
  211MPD1     N 3266   2.835   0.176  16.663 -0.7086 -0.0783  0.2257
  211MPD1    H5 3267   2.742   0.138  16.645 -0.5035 -1.7758  2.6636
  211MPD1    N1 3268   2.937   4.460  16.542 -0.3150 -0.0012  0.2889
  211MPD1    H6 3269   2.843   4.463  16.503  0.2076  0.6069 -0.9444
  211MPD1    H7 3270   2.994   4.420  16.467  0.2644 -0.8377  1.1639
  212MPD1     C 3271   2.382   2.898  16.662  0.3221  0.0244 -0.2881
  212MPD1    C1 3272   2.290   3.000  16.666  0.5309 -0.4850 -0.3938
  212MPD1    C2 3273   2.167   2.974  16.711  0.2620 -0.1917  0.0459
  212MPD1    C3 3274   2.125   2.856  16.764 -0.8260  0.4173 -0.1376
  212MPD1    C4 3275   2.220   2.752  16.765 -0.5334  0.3423 -0.4313
  212MPD1    C5 3276   2.348   2.775  16.714 -0.3850  0.6625  0.1537
  212MPD1     H 3277   2.097   3.056  16.710  0.0680 -0.3642 -0.4909
  212MPD1    H1 3278   2.190   2.654  16.800 -3.2681  0.3958 -2.5900
  212MPD1    H2 3279   2.483   2.917  16.627  0.2030 -2.7474 -2.1379
  212MPD1    H3 3280   2.420   2.696  16.731 -0.5113  0.6016  0.4054
  212MPD1     N 3281   1.992   2.828  16.818 -0.1056 -0.4132  0.0556
  212MPD1    H5 3282   1.982   2.736  16.861  2.2274 -1.1977 -1.0693
  212MPD1    N1 3283   2.321   3.120  16.597 -0.4851 -0.5567 -0.2945
  212MPD1    H6 3284   2.421   3.139  16.606 -0.8673  0.3537  2.1852
  212MPD1    H7 3285   2.265   3.198  16.630 -0.0515 -0.8090  1.0353
  213MPD1     C 3286   0.575   3.890  16.358  0.8485  0.2364  0.5628
  213MPD1    C1 3287   0.529   3.758  16.346  0.7527 -0.1746  0.5521
  213MPD1    C2 3288   0.407   3.743  16.272  0.7465  0.4951  0.1903
  213MPD1    C3 3289   0.330   3.855  16.237  0.4032  0.4033 -0.0561
  213MPD1    C4 3290   0.379   3.979  16.253  0.4201 -0.9791  0.2185
  213MPD1    C5 3291   0.497   3.995  16.325  0.2061 -0.5896 -0.0910
  213MPD1     H 3292   0.364   3.646  16.250 -0.4930  1.5912 -2.1685
  213MPD1    H1 3293   0.325   4.071  16.231 -0.7965 -1.2914  1.8577
  213MPD1    H2 3294   0.679   3.909  16.384  1.1086 -2.5471  1.6086
  213MPD1    H3 3295   0.532   4.095  16.347 -0.2877 -0.4923  0.2640
  213MPD1     N 3296   0.204   3.841  16.180 -0.5750  0.4528 -0.1990
  213MPD1    H5 3297   0.164   3.748  16.186 -1.6754  0.8269 -1.5749
  213MPD1    N1 3298   0.612   3.645  16.340  0.0017 -0.1987  1.6334
  213MPD1    H6 3299   0.557   3.560  16.338 -0.0734 -0.1546  1.8179
  213MPD1    H7 3300   0.682   3.632  16.412  1.6552  0.7061  0.1878
  214MPD1     C 3301   4.373   3.071  16.093 -0.5978 -0.6272 -0.2929
  214MPD1    C1 3302   4.452   3.136  16.190  0.1925 -0.0162  0.0057
  214MPD1    C2 3303   4.487   3.267  16.172 -0.5163  0.4678  0.1639
  214MPD1    C3 3304   4.468   3.328  16.047  0.4244  0.6625  0.3775
  214MPD1    C4 3305   4.394   3.263  15.950 -0.0315 -0.3027  0.7459
  214MPD1    C5 3306   4.348   3.137  15.974 -0.0672 -0.3811 -0.2115
  214MPD1     H 3307   4.534   3.318  16.255 -0.0677 -1.7620  1.2883
  214MPD1    H1 3308   4.361   3.307  15.856 -0.2605 -0.4804  0.7414
  214MPD1    H2 3309   4.346   2.966  16.100  1.4859 -1.2346 -1.5447
  214MPD1    H3 3310   4.295   3.086  15.894  1.4078  2.4916 -3.0281
  214MPD1     N 3311   4.503   3.459  16.010 -0.2674  0.2032  0.6890
  214MPD1    H5 3312   4.511   3.483  15.912  3.1340 -2.1239  0.3869
  214MPD1    N1 3313   4.480   3.077  16.313 -0.2026 -0.3439 -0.3807
  214MPD1    H6 3314   4.488   2.976  16.317  1.0582 -0.2281 -0.0163
  214MPD1    H7 3315   4.561   3.118  16.358 -0.4244 -3.8376  3.2066
  215MPD1     C 3316   4.070   4.126  11.201 -0.2832  0.0508 -0.0312
  215MPD1    C1 3317   4.183   4.166  11.271 -0.1183  0.1820  0.3602
  215MPD1    C2 3318   4.241   4.283  11.223 -0.4812  1.1102 -0.3196
  215MPD1    C3 3319   4.189   4.351  11.119 -0.4725  0.2647  0.4247
  215MPD1    C4 3320   4.067   4.319  11.063 -0.0519  0.0671  0.4143
  215MPD1    C5 3321   4.007   4.203  11.103  0.9022  0.1006 -0.0722
  215MPD1     H 3322   4.335   4.315  11.265 -0.5950  2.8710 -1.4319
  215MPD1    H1 3323   4.019   4.385  10.992  0.8039  0.0129 -0.2074
  215MPD1    H2 3324   4.017   4.033  11.216 -0.7620  0.1615 -1.0548
  215MPD1    H3 3325   3.915   4.166  11.060  0.6922  1.3286 -0.6735
  215MPD1     N 3326   4.263   4.457  11.067  0.6384  0.0933 -0.3692
  215MPD1    H5 3327   4.359   4.467  11.099  0.0007  1.1986  1.1800
  215MPD1    N1 3328   4.253   4.082  11.358  0.2316 -0.1599  0.6466
  215MPD1    H6 3329   4.306   4.133  11.429 -0.4896  0.5676  0.6596
  215MPD1    H7 3330   4.204   4.003  11.401 -2.3294  1.3095  0.4665
  216MPD1     C 3331   1.925   3.462  17.139 -0.4289 -0.4895  0.1996
  216MPD1    C1 3332   1.828   3.450  17.235  0.0851 -0.0269 -0.1767
  216MPD1    C2 3333   1.779   3.318  17.251  0.3440 -0.7742  0.5695
  216MPD1    C3 3334   1.842   3.210  17.201  0.2480  0.0738 -0.3811
  216MPD1    C4 3335   1.960   3.227  17.140 -0.1465  0.1410  0.2376
  216MPD1    C5 3336   1.990   3.354  17.099  0.4640 -0.0473 -0.0710
  216MPD1     H 3337   1.699   3.303  17.322  1.4337 -0.9327  1.7662
  216MPD1    H1 3338   2.028   3.145  17.118  0.3196  0.1126  1.8289
  216MPD1    H2 3339   1.951   3.561  17.106  0.6812 -0.8287  0.0403
  216MPD1    H3 3340   2.069   3.366  17.026  0.0018  0.3157 -0.5088
  216MPD1     N 3341   1.817   3.081  17.266  0.2055 -0.2778 -0.6202
  216MPD1    H5 3342   1.729   3.072  17.315 -0.0159 -1.6508 -1.2920
  216MPD1    N1 3343   1.766   3.567  17.279 -0.6282  0.2755 -0.2848
  216MPD1    H6 3344   1.814   3.656  17.276 -1.4082  0.7428  0.8149
  216MPD1    H7 3345   1.723   3.557  17.371 -0.8387 -0.7336 -0.4946
  217MPD1     C 3346   3.547   4.617   7.769  0.1346 -0.9633  0.6838
  217MPD1    C1 3347   3.587   4.712   7.863  0.5999  0.1270  0.7492
  217MPD1    C2 3348   3.602   4.670   7.996 -0.0495 -0.7911 -0.0713
  217MPD1    C3 3349   3.597   4.533   8.026 -0.3008 -0.1759  0.7005
  217MPD1    C4 3350   3.591   4.440   7.926  0.7988  0.4795 -0.2214
  217MPD1    C5 3351   3.557   4.484   7.803  0.2023 -0.9986  0.3362
  217MPD1     H 3352   3.604   0.011   8.072  1.2166  0.2967 -1.2183
  217MPD1    H1 3353   3.591   4.335   7.950 -0.8677  0.2251 -1.3360
  217MPD1    H2 3354   3.513   4.648   7.671 -0.5889  2.1659  1.9218
  217MPD1    H3 3355   3.522   4.410   7.731 -1.4607 -1.8203  1.9846
  217MPD1     N 3356   3.619   4.487   8.159  0.1458  0.6801 -0.3611
  217MPD1    H5 3357   3.634   4.389   8.179  0.1554  0.0797 -3.3291
  217MPD1    N1 3358   3.575   0.117   7.844  0.0935  0.0463 -0.1016
  217MPD1    H6 3359   3.638   0.172   7.901  0.6535 -0.8429  0.1444
  217MPD1    H7 3360   3.611   0.127   7.749  0.2535  1.5458  0.1312
  218MPD1     C 3361   3.922   0.436  12.400  0.0549 -0.1156  0.1264
  218MPD1    C1 3362   4.052   0.478  12.429 -0.3842  0.9776  0.2766
  218MPD1    C2 3363   4.159   0.393  12.395  0.0050  0.0357 -0.1345
  218MPD1    C3 3364   4.131   0.268  12.345 -0.3720 -0.1359  0.2753
  218MPD1    C4 3365   4.001   0.230  12.317 -0.4899  0.7421  0.1185
  218MPD1    C5 3366   3.897   0.310  12.347 -0.2883  0.1937 -0.5554
  218MPD1     H 3367   4.262   0.416  12.419  0.5935 -0.9160 -1.7266
  218MPD1    H1 3368   3.978   0.131  12.278 -0.1236  0.9270 -0.5652
  218MPD1    H2 3369   3.837   0.494  12.434  0.5525  0.8511 -0.2810
  218MPD1    H3 3370   3.798   0.277  12.317 -0.1375  0.3194 -1.1952
  218MPD1     N 3371   4.246   0.186  12.309  0.1953  0.4965 -0.2239
  218MPD1    H5 3372   4.338   0.224  12.327 -0.9568  1.1916  4.1366
  218MPD1    N1 3373   4.076   0.592  12.506 -0.4320  0.4365  0.5215
  218MPD1    H6 3374   4.165   0.635  12.484  0.0084 -1.0222 -0.5420
  218MPD1    H7 3375   4.009   0.665  12.530 -2.5896 -1.6822  1.0046
  219MPD1     C 3376   4.641   0.435  11.628 -0.5870 -0.2299  0.3097
  219MPD1    C1 3377   0.009   0.393  11.703 -0.1002 -0.5080  0.0488
  219MPD1    C2 3378   4.715   0.308  11.808  0.2134 -0.3408  0.7373
  219MPD1    C3 3379   4.582   0.265  11.824 -0.1986 -0.5756 -0.0334
  219MPD1    C4 3380   4.478   0.313  11.737  0.0159 -0.3277 -0.0108
  219MPD1    C5 3381   4.509   0.394  11.633 -0.2901 -0.0919  0.4019
  219MPD1     H 3382   0.052   0.274  11.880 -0.9802  1.8842  3.0264
  219MPD1    H1 3383   4.374   0.284  11.752 -0.8222  2.5863 -0.0582
  219MPD1    H2 3384   4.666   0.508  11.552 -1.5578 -1.2980 -1.0253
  219MPD1    H3 3385   4.442   0.443  11.563  0.4835 -1.0116 -0.9789
  219MPD1     N 3386   4.546   0.189  11.938 -0.1666 -0.5558  0.1729
  219MPD1    H5 3387   4.447   0.173  11.956 -0.1766 -0.0800  0.5597
  219MPD1    N1 3388   0.127   0.464  11.698  0.3649  0.9429 -0.0561
  219MPD1    H6 3389   0.154   0.486  11.603 -1.3988  0.4512 -0.6758
  219MPD1    H7 3390   0.205   0.412  11.737  0.7285  0.1492 -1.8516
  220MPD1     C 3391   4.269   0.299   9.084  0.0485 -0.3938  0.1934
  220MPD1    C1 3392   4.357   0.196   9.125  0.7620 -0.6712 -0.6218
  220MPD1    C2 3393   4.370   0.170   9.262  0.2448  0.0646 -0.4188
  220MPD1    C3 3394   4.291   0.238   9.353 -0.3227 -0.4960 -0.1016
  220MPD1    C4 3395   4.211   0.337   9.304 -0.0315 -0.4101  0.0154
  220MPD1    C5 3396   4.200   0.372   9.173 -0.6525  0.2803 -0.7292
  220MPD1     H 3397   4.429   0.084   9.292  0.1493  0.5353  1.1411
  220MPD1    H1 3398   4.153   0.405   9.366  1.7549  0.6044  0.5872
  220MPD1    H2 3399   4.245   0.326   8.982 -2.7297 -1.1438  0.6448
  220MPD1    H3 3400   4.137   0.453   9.139 -0.6005  1.5568  2.2700
  220MPD1     N 3401   4.292   0.212   9.490  0.0103 -0.4056 -0.3663
  220MPD1    H5 3402   4.231   0.262   9.553  0.6691  0.2372 -0.2343
  220MPD1    N1 3403   4.427   0.112   9.033  0.2532 -0.0782 -0.0891
  220MPD1    H6 3404   4.451   0.157   8.945  1.5131  0.7825  0.6921
  220MPD1    H7 3405   4.515   0.078   9.071 -0.3530 -1.1776  0.3535
  221MPD1     C 3406   3.295   3.533  16.866 -0.0658 -0.5654  0.1453
  221MPD1    C1 3407   3.163   3.510  16.890  0.5979  0.8894 -0.5642
  221MPD1    C2 3408   3.074   3.535  16.793 -0.9339  0.9666 -0.5635
  221MPD1    C3 3409   3.114   3.574  16.662 -0.5625 -0.7420  0.1655
  221MPD1    C4 3410   3.251   3.572  16.637 -0.1939 -0.4999  0.6329
  221MPD1    C5 3411   3.340   3.558  16.738 -0.2452 -0.1776 -0.7861
  221MPD1     H 3412   2.971   3.529  16.827 -0.1794  0.6369  1.6186
  221MPD1    H1 3413   3.288   3.608  16.541 -1.1197  0.5855  0.6817
  221MPD1    H2 3414   3.366   3.545  16.947  0.3803  4.0378 -0.9353
  221MPD1    H3 3415   3.448   3.563  16.723 -0.2918  0.7347 -0.8544
  221MPD1     N 3416   3.027   3.613  16.557  0.3762 -0.1642  0.7908
  221MPD1    H5 3417   3.066   3.637  16.466 -0.0727  0.1662  0.6835
  221MPD1    N1 3418   3.124   3.494  17.027 -0.1404 -0.0811  0.1171
  221MPD1    H6 3419   3.187   3.432  17.079  0.9814  0.4912 -0.5568
  221MPD1    H7 3420   3.025   3.472  17.029  0.5730 -3.5888 -1.3272
  222MPD1     C 3421   0.581   3.537   0.446 -0.3313 -0.9018  0.9548
  222MPD1    C1 3422   0.703   3.557   0.382  1.1834  0.5020 -0.3103
  222MPD1    C2 3423   0.809   3.599   0.458 -0.3209  0.7491 -0.0938
  222MPD1    C3 3424   0.790   3.624   0.594  0.4546  0.5040 -0.5119
  222MPD1    C4 3425   0.671   3.596   0.658 -0.0840 -0.2729 -0.5948
  222MPD1    C5 3426   0.565   3.558   0.582 -0.4534 -0.1504 -0.7040
  222MPD1     H 3427   0.903   3.613   0.407 -0.2437 -0.6136 -0.3224
  222MPD1    H1 3428   0.659   3.627   0.761  0.8823  0.1124 -0.6003
  222MPD1    H2 3429   0.493   3.503   0.394 -0.5273  3.1315 -1.3737
  222MPD1    H3 3430   0.470   3.540   0.632 -0.1066 -1.3773 -0.4801
  222MPD1     N 3431   0.891   3.680   0.682 -0.9698 -0.8107 -0.0254
  222MPD1    H5 3432   0.874   3.680   0.782 -2.5307 -0.8268 -0.2919
  222MPD1    N1 3433   0.717   3.543   0.236  0.0013  0.1518 -0.2665
  222MPD1    H6 3434   0.649   3.474   0.205 -1.0531  0.2366  1.8092
  222MPD1    H7 3435   0.811   3.535   0.199 -0.2888  0.6942 -1.1299
  223MPD1     C 3436   1.469   3.532   1.466 -0.2513 -0.4882 -0.2948
  223MPD1    C1 3437   1.536   3.522   1.343  0.1606 -0.4785 -0.5909
  223MPD1    C2 3438   1.483   3.592   1.235  0.4625  0.4590  0.3755
  223MPD1    C3 3439   1.363   3.651   1.233 -0.3760 -0.3859  0.3447
  223MPD1    C4 3440   1.306   3.667   1.361  0.6118  0.5218  1.2268
  223MPD1    C5 3441   1.363   3.617   1.472 -0.2483 -0.2582  0.1579
  223MPD1     H 3442   1.540   3.591   1.143  0.1123  1.9420  0.1450
  223MPD1    H1 3443   1.217   3.722   1.388  0.9242  0.6083  2.1174
  223MPD1    H2 3444   1.514   3.504   1.561 -0.9507  1.6018  0.6374
  223MPD1    H3 3445   1.320   3.646   1.568 -1.4156  1.1672 -0.7990
  223MPD1     N 3446   1.320   3.722   1.121  0.5240 -0.7756  0.0843
  223MPD1    H5 3447   1.384   3.746   1.045 -0.4310  1.2307 -0.0858
  223MPD1    N1 3448   1.655   3.447   1.331 -0.1263  0.1730 -0.2312
  223MPD1    H6 3449   1.692   3.451   1.237 -0.6207 -2.0540 -0.5383
  223MPD1    H7 3450   1.662   3.356   1.377 -2.3973  0.2014  0.1899
  224MPD1     C 3451   3.654   0.419   8.594  0.4428 -0.1528  0.1514
  224MPD1    C1 3452   3.681   0.289   8.574  0.6582  0.2321 -1.0957
  224MPD1    C2 3453   3.673   0.199   8.680 -1.2755 -0.3390 -0.2762
  224MPD1    C3 3454   3.640   0.239   8.807  0.0750 -0.4155 -0.9403
  224MPD1    C4 3455   3.617   0.374   8.829 -0.2396  0.4072 -0.5109
  224MPD1    C5 3456   3.625   0.459   8.716  0.0989  0.1129  0.0429
  224MPD1     H 3457   3.696   0.096   8.657  0.8478  0.2643 -0.9049
  224MPD1    H1 3458   3.573   0.417   8.918  0.1782  0.6912 -0.4446
  224MPD1    H2 3459   3.664   0.493   8.515 -1.8179  1.7426  1.6234
  224MPD1    H3 3460   3.604   0.565   8.724  1.0123  0.2370  0.7616
  224MPD1     N 3461   3.649   0.149   8.919 -0.2358 -0.6191  0.3898
  224MPD1    H5 3462   3.602   0.183   9.002  1.3191 -1.3289  1.5594
  224MPD1    N1 3463   3.697   0.237   8.442  0.2333 -0.0653 -0.2897
  224MPD1    H6 3464   3.739   0.297   8.371 -0.9531 -0.8535 -1.6565
  224MPD1    H7 3465   3.745   0.147   8.441  3.5285  1.6722 -1.1248
  225MPD1     C 3466   4.564   0.852  12.420 -0.4027  0.3508  0.9945
  225MPD1    C1 3467   4.475   0.896  12.519  0.5084  0.4247  0.2220
  225MPD1    C2 3468   4.344   0.909  12.484 -0.3235  0.1687 -0.0478
  225MPD1    C3 3469   4.305   0.906  12.349 -0.7183  0.0278  0.9163
  225MPD1    C4 3470   4.396   0.856  12.251  0.7564  0.5878 -0.1389
  225MPD1    C5 3471   4.522   0.838  12.290 -0.8140 -0.6308 -0.3782
  225MPD1     H 3472   4.271   0.936  12.559 -2.3003 -1.0080 -1.5294
  225MPD1    H1 3473   4.375   0.841  12.146  1.0494  1.6635 -0.3478
  225MPD1    H2 3474   4.667   0.822  12.438 -1.0099 -2.3891 -0.0902
  225MPD1    H3 3475   4.599   0.811  12.218  1.6059  0.6965  1.7445
  225MPD1     N 3476   4.173   0.929  12.308 -0.1932 -0.2295  0.7444
  225MPD1    H5 3477   4.156   0.913  12.209  2.4388  2.7618 -0.1766
  225MPD1    N1 3478   4.508   0.899  12.658 -0.2295 -0.8204  0.0596
  225MPD1    H6 3479   4.455   0.966  12.714  2.7166 -0.5182  2.4845
  225MPD1    H7 3480   4.606   0.915  12.680 -0.3596  2.1494 -1.5457
  226MPD1     C 3481   3.231   0.932   9.741 -0.4270  0.6519 -0.0024
  226MPD1    C1 3482   3.269   0.897   9.615  0.3558  0.1123  0.3225
  226MPD1    C2 3483   3.378   0.963   9.564  0.3345  0.1352 -0.3567
  226MPD1    C3 3484   3.452   1.055   9.630  0.0528 -0.1207 -0.2980
  226MPD1    C4 3485   3.417   1.081   9.759 -0.2799  0.5748  0.6703
  226MPD1    C5 3486   3.309   1.018   9.812 -0.1104  0.2389  0.9629
  226MPD1     H 3487   3.388   0.956   9.456  0.0408  1.8669 -0.4865
  226MPD1    H1 3488   3.474   1.147   9.823 -0.0657  0.5868  0.4666
  226MPD1    H2 3489   3.141   0.901   9.793 -0.8202  1.4145 -0.2112
  226MPD1    H3 3490   3.279   1.050   9.911 -0.8737  2.0517  0.1530
  226MPD1     N 3491   3.559   1.112   9.558  0.3886 -0.1101 -0.9534
  226MPD1    H5 3492   3.573   1.084   9.462  1.6750  0.3138 -0.8891
  226MPD1    N1 3493   3.175   0.833   9.529 -0.4086  0.2548  0.0582
  226MPD1    H6 3494   3.241   0.792   9.462  0.3560 -0.4899  1.2561
  226MPD1    H7 3495   3.129   0.755   9.576 -1.8362  0.7009 -0.6103
  227MPD1     C 3496   4.456   1.733   9.505  0.0737  0.3586 -0.3667
  227MPD1    C1 3497   4.395   1.755   9.380  0.0184  0.0518 -0.4694
  227MPD1    C2 3498   4.259   1.714   9.369  0.0913 -0.1506  0.7782
  227MPD1    C3 3499   4.193   1.641   9.466  0.7862  0.7104  0.8447
  227MPD1    C4 3500   4.259   1.629   9.585 -0.3401  0.3571  0.0456
  227MPD1    C5 3501   4.389   1.672   9.604  0.0028 -0.7511 -0.2071
  227MPD1     H 3502   4.201   1.740   9.281  0.8646  0.6553  0.5099
  227MPD1    H1 3503   4.211   1.573   9.665 -0.4631 -0.5281 -0.6542
  227MPD1    H2 3504   4.559   1.762   9.519 -0.0729  0.9247 -0.4857
  227MPD1    H3 3505   4.440   1.644   9.696 -1.3155  0.5097  0.8943
  227MPD1     N 3506   4.064   1.598   9.443 -0.1289  0.4513 -0.4548
  227MPD1    H5 3507   4.025   1.634   9.356 -0.4870  1.7497  0.2502
  227MPD1    N1 3508   4.454   1.845   9.285 -0.1860  0.5558 -0.5927
  227MPD1    H6 3509   4.433   1.838   9.185  0.3361  1.2624 -0.7523
  227MPD1    H7 3510   4.555   1.838   9.287 -0.1661  0.5649 -1.4689
  228MPD1     C 3511   1.584   2.727  12.851 -0.3779  0.0815  0.6994
  228MPD1    C1 3512   1.541   2.849  12.801 -1.1756  1.0090  0.1424
  228MPD1    C2 3513   1.418   2.891  12.842 -0.0700  0.3156 -0.4407
  228MPD1    C3 3514   1.337   2.815  12.927 -0.0971 -0.1213  0.7307
  228MPD1    C4 3515   1.384   2.697  12.975 -0.0640 -0.0276 -0.3875
  228MPD1    C5 3516   1.507   2.651  12.938  0.5215  1.1172  0.3532
  228MPD1     H 3517   1.383   2.988  12.808 -2.4026  0.2391  1.7568
  228MPD1    H1 3518   1.328   2.638  13.047  0.4009  0.6559  0.5363
  228MPD1    H2 3519   1.687   2.701  12.829  0.4601  3.5974  0.4427
  228MPD1    H3 3520   1.540   2.558  12.983 -0.5776  1.2302  1.3814
  228MPD1     N 3521   1.202   2.867  12.948 -0.0033 -0.4323 -0.4911
  228MPD1    H5 3522   1.177   2.955  12.906  2.6274 -1.0775 -3.3573
  228MPD1    N1 3523   1.626   2.927  12.725 -0.5899  0.0478 -0.0008
  228MPD1    H6 3524   1.577   3.009  12.692  1.2187  1.7955  1.6612
  228MPD1    H7 3525   1.662   2.875  12.645  3.2320 -1.2457  2.5230
  229MPD1     C 3526   0.645   2.241  14.457 -0.1272  0.2457  0.3653
  229MPD1    C1 3527   0.619   2.102  14.454 -0.6290 -0.4569 -0.7142
  229MPD1    C2 3528   0.690   2.022  14.542  0.4784  0.2444  0.5085
  229MPD1    C3 3529   0.796   2.072  14.619 -0.2190  0.4311 -0.3123
  229MPD1    C4 3530   0.829   2.204  14.612  0.3002 -0.1443  0.3523
  229MPD1    C5 3531   0.747   2.286  14.533 -0.0853 -0.3448  0.1322
  229MPD1     H 3532   0.653   1.920  14.550  1.4399 -0.0942  0.5580
  229MPD1    H1 3533   0.904   2.249  14.676 -0.8186  2.1945  0.0137
  229MPD1    H2 3534   0.593   2.320  14.403  0.7651  0.9893  0.5996
  229MPD1    H3 3535   0.756   2.394  14.539  0.8987 -0.5645  2.3155
  229MPD1     N 3536   0.859   1.990  14.719  0.0990 -0.5294 -0.5793
  229MPD1    H5 3537   0.930   2.041  14.770 -0.3987 -0.9642  0.5516
  229MPD1    N1 3538   0.508   2.052  14.396 -0.2703  0.2556 -0.2453
  229MPD1    H6 3539   0.490   2.090  14.304 -0.3683  0.3006 -0.2072
  229MPD1    H7 3540   0.508   1.951  14.380  0.6501  0.4730 -1.5925
  230MPD1     C 3541   1.021   2.050  15.712 -0.0038 -0.3364  0.0855
  230MPD1    C1 3542   1.100   1.946  15.682  0.0240 -0.7199 -0.3633
  230MPD1    C2 3543   1.091   1.898  15.556 -0.2963  0.3133  0.0125
  230MPD1    C3 3544   1.009   1.961  15.463 -0.3922  0.4914  1.4463
  230MPD1    C4 3545   0.918   2.055  15.505 -0.3640  0.6392  0.4155
  230MPD1    C5 3546   0.932   2.104  15.634  0.4900 -0.6311  0.8392
  230MPD1     H 3547   1.170   1.832  15.522 -0.1605 -0.2924  1.5021
  230MPD1    H1 3548   0.840   2.093  15.439  0.6431  1.0458 -0.5451
  230MPD1    H2 3549   1.019   2.096  15.810 -0.3263 -0.1108 -0.0283
  230MPD1    H3 3550   0.864   2.181  15.669  0.2972 -0.6173  0.4391
  230MPD1     N 3551   1.001   1.901  15.332 -0.0818 -0.3436  0.1155
  230MPD1    H5 3552   1.056   1.817  15.317  0.2293 -0.0365 -0.4488
  230MPD1    N1 3553   1.192   1.895  15.772 -0.2268 -0.4538 -0.2025
  230MPD1    H6 3554   1.238   1.807  15.746 -0.8758 -1.0329  0.6111
  230MPD1    H7 3555   1.147   1.871  15.860  1.5147 -1.6357  0.3649
  231MPD1     C 3556   3.613   3.948  15.472  0.3103  0.6143 -0.2862
  231MPD1    C1 3557   3.601   3.950  15.334 -0.0009 -0.4888  0.2695
  231MPD1    C2 3558   3.723   3.978  15.272 -0.0712 -0.2553  0.0897
  231MPD1    C3 3559   3.846   3.983  15.337  0.1598  0.3241  0.2017
  231MPD1    C4 3560   3.855   3.965  15.473 -0.0892  0.7434  0.0403
  231MPD1    C5 3561   3.730   3.955  15.538  0.0745  0.3628  0.3199
  231MPD1     H 3562   3.727   3.998  15.166 -2.0574  3.0895  0.6641
  231MPD1    H1 3563   3.947   3.959  15.530 -0.0699 -3.7049 -0.4479
  231MPD1    H2 3564   3.524   3.951  15.533  0.6649  2.0898  0.1584
  231MPD1    H3 3565   3.730   3.945  15.646 -1.5458 -0.3920  0.2413
  231MPD1     N 3566   3.959   4.006  15.248  0.0255  0.7150 -0.2745
  231MPD1    H5 3567   3.947   4.016  15.147  0.3696  0.7902 -0.3075
  231MPD1    N1 3568   3.474   3.955  15.269 -0.1393 -0.0364 -0.6354
  231MPD1    H6 3569   3.394   3.925  15.325 -0.2138  0.4909 -0.4646
  231MPD1    H7 3570   3.471   3.897  15.185 -0.4335  1.1431 -1.4323
  232MPD1     C 3571   1.302   1.941   0.253  0.3657  0.4538 -0.5844
  232MPD1    C1 3572   1.234   2.050   0.198 -0.3389 -1.1589 -0.2153
  232MPD1    C2 3573   1.130   2.024   0.115 -0.6117  0.1012  0.0460
  232MPD1    C3 3574   1.100   1.900   0.066 -0.5867 -0.4110  0.5242
  232MPD1    C4 3575   1.174   1.792   0.116  0.7652  0.7428 -0.0804
  232MPD1    C5 3576   1.274   1.812   0.207 -0.5578  0.5941  0.0011
  232MPD1     H 3577   1.073   2.110   0.080  0.4593  0.7877 -0.0183
  232MPD1    H1 3578   1.150   1.689   0.092  0.9507  0.3097  1.6147
  232MPD1    H2 3579   1.384   1.946   0.324  1.5842  1.4797 -2.0713
  232MPD1    H3 3580   1.319   1.726   0.256 -1.1083 -0.2969 -1.0362
  232MPD1     N 3581   0.990   1.881  17.722 -0.8422 -0.3818 -0.8390
  232MPD1    H5 3582   0.938   1.966  17.701  2.0867  2.1619  2.3140
  232MPD1    N1 3583   1.249   2.173   0.266  0.4593 -0.2653  0.3635
  232MPD1    H6 3584   1.218   2.260   0.224 -0.3611 -0.2255  1.0564
  232MPD1    H7 3585   1.343   2.186   0.303  1.0826  2.2091 -2.1210
  233MPD1     C 3586   3.248   0.859   1.704 -0.6543 -0.2939  0.3977
  233MPD1    C1 3587   3.206   0.797   1.588  0.1975  0.2394 -0.1876
  233MPD1    C2 3588   3.103   0.705   1.583  0.1529  0.3032 -0.4007
  233MPD1    C3 3589   3.049   0.651   1.696  0.6950 -0.3940 -0.2934
  233MPD1    C4 3590   3.087   0.706   1.815 -0.1803  0.9897 -0.4441
  233MPD1    C5 3591   3.174   0.816   1.816 -0.6014 -0.4788  0.0955
  233MPD1     H 3592   3.081   0.663   1.485 -0.8222 -1.7231  0.6666
  233MPD1    H1 3593   3.042   0.686   1.911 -3.9111  0.5828 -2.2702
  233MPD1    H2 3594   3.315   0.944   1.709 -0.4284 -0.2241 -3.4195
  233MPD1    H3 3595   3.200   0.862   1.910 -0.7507 -0.8997  0.3434
  233MPD1     N 3596   2.971   0.534   1.709  0.2893  1.2103  0.4993
  233MPD1    H5 3597   2.931   0.511   1.800 -0.6912 -0.7173 -0.4009
  233MPD1    N1 3598   3.259   0.849   1.462  1.0712 -0.8080  0.3829
  233MPD1    H6 3599   3.248   0.769   1.400 -0.5506 -0.1071 -0.2123
  233MPD1    H7 3600   3.358   0.873   1.465  0.1289  3.1153  0.2296
  234MPD1     C 3601   4.333   2.987   9.126  0.5313  0.7513 -0.1478
  234MPD1    C1 3602   4.267   3.054   9.233 -0.1316  1.1478 -0.4119
  234MPD1    C2 3603   4.237   3.187   9.210 -0.0449 -1.1991  0.2604
  234MPD1    C3 3604   4.276   3.251   9.093 -0.5405  0.1342 -0.5180
  234MPD1    C4 3605   4.321   3.186   8.987 -0.9215 -0.9264  0.6784
  234MPD1    C5 3606   4.342   3.050   9.002  0.7932  0.4056  0.0411
  234MPD1     H 3607   4.216   3.257   9.290  0.0732  0.4435 -1.1292
  234MPD1    H1 3608   4.347   3.238   8.895 -0.0587 -0.6420  1.0749
  234MPD1    H2 3609   4.373   2.889   9.148 -1.1266  0.5690  1.9666
  234MPD1    H3 3610   4.390   2.992   8.924 -1.0576  0.9988 -1.5246
  234MPD1     N 3611   4.257   3.393   9.086  0.5673 -0.3331  0.3945
  234MPD1    H5 3612   4.231   3.439   9.173  0.6032 -0.4126  0.4469
  234MPD1    N1 3613   4.267   3.003   9.367 -0.0091 -0.0178  0.1384
  234MPD1    H6 3614   4.185   3.037   9.417 -0.8526  0.7248 -1.7461
  234MPD1    H7 3615   4.256   2.902   9.365  2.0114 -0.2147 -0.6174
  235MPD1     C 3616   0.627   0.963   9.719  1.4440 -0.0076  0.5924
  235MPD1    C1 3617   0.659   1.050   9.613 -0.4121 -0.6050  0.3223
  235MPD1    C2 3618   0.726   1.159   9.643 -0.1354 -0.1101  0.1892
  235MPD1    C3 3619   0.738   1.198   9.775 -0.1451 -0.0221  0.4564
  235MPD1    C4 3620   0.716   1.108   9.878 -0.3121  0.1634 -0.2361
  235MPD1    C5 3621   0.669   0.987   9.838  0.6988  0.0561  0.3903
  235MPD1     H 3622   0.756   1.236   9.573 -2.1219  0.7978  0.3185
  235MPD1    H1 3623   0.716   1.125   9.985 -1.2024  0.3206 -0.2628
  235MPD1    H2 3624   0.575   0.872   9.691 -0.2776  0.8203  1.0665
  235MPD1    H3 3625   0.635   0.928   9.922  0.7947  0.7948  0.9463
  235MPD1     N 3626   0.781   1.333   9.791  0.1822  0.4675  0.5548
  235MPD1    H5 3627   0.780   1.399   9.713  1.3994 -2.0369 -1.5813
  235MPD1    N1 3628   0.655   1.007   9.480  0.1685  0.3123 -0.0274
  235MPD1    H6 3629   0.655   1.089   9.419  2.8470  0.4047  0.1187
  235MPD1    H7 3630   0.575   0.953   9.448 -1.5612  1.8382  1.7633
  236MPD1     C 3631   0.575   2.055   8.855 -0.4612  0.5514 -0.2647
  236MPD1    C1 3632   0.569   2.184   8.897 -0.4794 -0.6563  0.4787
  236MPD1    C2 3633   0.481   2.215   8.999 -0.3514  0.2441  0.4007
  236MPD1    C3 3634   0.399   2.118   9.059  0.0466  1.2110  0.5619
  236MPD1    C4 3635   0.401   1.990   9.009 -0.1470 -0.2267 -0.3479
  236MPD1    C5 3636   0.488   1.966   8.906  0.4773 -0.7168  0.4140
  236MPD1     H 3637   0.465   2.318   9.027 -1.1857  0.0082  0.8113
  236MPD1    H1 3638   0.357   1.912   9.070  0.4571  0.3150  0.7798
  236MPD1    H2 3639   0.622   2.042   8.758 -3.4689  0.3702 -1.7054
  236MPD1    H3 3640   0.477   1.873   8.851 -0.1844  0.1674 -0.9456
  236MPD1     N 3641   0.313   2.141   9.174  0.0894  0.3047  0.3745
  236MPD1    H5 3642   0.235   2.076   9.183 -1.4257  1.7690 -2.1329
  236MPD1    N1 3643   0.639   2.285   8.833 -0.0281 -0.5168 -0.4126
  236MPD1    H6 3644   0.715   2.258   8.770  0.0266 -3.1308  0.7578
  236MPD1    H7 3645   0.649   2.372   8.885 -1.6724  0.1371 -1.2068
  237MPD1     C 3646   4.341   0.167  15.419 -0.4191 -0.2793 -0.2160
  237MPD1    C1 3647   4.253   0.268  15.439  0.1804  0.8891  0.2335
  237MPD1    C2 3648   4.136   0.266  15.364  0.2776  0.9351  0.0105
  237MPD1    C3 3649   4.122   0.189  15.245  0.2336  0.2315  0.6405
  237MPD1    C4 3650   4.218   0.101  15.221  0.3796  0.0501  0.6461
  237MPD1    C5 3651   4.327   0.089  15.308  0.2653 -0.1324  0.9502
  237MPD1     H 3652   4.059   0.338  15.390  0.0637  0.8543 -0.3995
  237MPD1    H1 3653   4.221   0.046  15.128 -0.7982  1.9386 -0.5110
  237MPD1    H2 3654   4.420   0.137  15.487 -1.9603 -1.5986  0.9824
  237MPD1    H3 3655   4.408   0.025  15.275 -0.7619 -0.9641  0.0262
  237MPD1     N 3656   4.012   0.187  15.159 -0.2266  0.5403  0.2522
  237MPD1    H5 3657   4.010   0.125  15.079  0.6029  0.9772 -0.1116
  237MPD1    N1 3658   4.257   0.356  15.554 -0.3077  0.4426  0.6977
  237MPD1    H6 3659   4.355   0.377  15.566 -0.4948  0.8559  1.4679
  237MPD1    H7 3660   4.225   0.451  15.541 -1.0805  0.4242  2.5146
  238MPD1     C 3661   1.483   4.089  14.882 -1.3706  0.3005  0.3269
  238MPD1    C1 3662   1.439   4.003  14.980 -0.1772  0.3215  0.3955
  238MPD1    C2 3663   1.310   3.956  14.953  0.1548 -0.4543  0.0821
  238MPD1    C3 3664   1.218   4.014  14.867 -0.2002  0.2552  0.3649
  238MPD1    C4 3665   1.271   4.108  14.785  0.3254 -0.1366 -0.5347
  238MPD1    C5 3666   1.404   4.145  14.796 -0.1044  0.2106  0.3127
  238MPD1     H 3667   1.271   3.875  15.014  1.8487 -1.2458  0.1024
  238MPD1    H1 3668   1.216   4.154  14.703 -1.4601  0.8743  1.2408
  238MPD1    H2 3669   1.590   4.109  14.872 -1.4086  0.8657  1.0594
  238MPD1    H3 3670   1.442   4.210  14.718 -2.1061  1.0298  0.0301
  238MPD1     N 3671   1.089   3.963  14.833  0.1287  0.0824 -0.1585
  238MPD1    H5 3672   1.030   4.010  14.765  0.1203  0.5384  0.1619
  238MPD1    N1 3673   1.532   3.945  15.069 -0.5790  0.0523 -0.0632
  238MPD1    H6 3674   1.489   3.887  15.140 -0.7494 -1.1037 -1.1068
  238MPD1    H7 3675   1.611   3.996  15.107  0.6980 -1.6560 -0.4238
  239MPD1     C 3676   0.874   4.242  15.219  0.0112 -0.1621  0.0550
  239MPD1    C1 3677   0.980   4.214  15.133 -0.2391  0.3594  0.1393
  239MPD1    C2 3678   1.011   4.304  15.029 -0.4611 -0.3541 -0.6647
  239MPD1    C3 3679   0.937   4.418  15.011 -0.4643 -1.0801 -0.1748
  239MPD1    C4 3680   0.842   4.449  15.104 -0.2252 -0.0239  0.2052
  239MPD1    C5 3681   0.815   4.366  15.200 -0.7092 -0.5268 -0.7573
  239MPD1     H 3682   1.089   4.273  14.960 -0.0331  0.6908 -0.6570
  239MPD1    H1 3683   0.788   4.543  15.096 -1.5717 -0.7502  0.7016
  239MPD1    H2 3684   0.837   4.181  15.301  0.6164 -0.2131  0.2892
  239MPD1    H3 3685   0.743   4.396  15.274  0.6456  1.5291 -0.2408
  239MPD1     N 3686   0.953   4.506  14.899 -0.3368  0.2653 -0.1634
  239MPD1    H5 3687   0.889   4.585  14.902 -1.2942 -0.5412  0.9536
  239MPD1    N1 3688   1.066   4.100  15.151 -0.4718 -0.4658  0.0637
  239MPD1    H6 3689   1.025   4.024  15.205 -1.6121 -1.8094 -2.7130
  239MPD1    H7 3690   1.094   4.062  15.061  0.3542 -0.0558  0.1423
  240MPD1     C 3691   0.177   4.539  14.163 -0.5375 -0.3620  0.0040
  240MPD1    C1 3692   0.261   4.433  14.137 -1.0102 -0.0551 -0.2651
  240MPD1    C2 3693   0.275   4.328  14.229 -0.1667  0.3803  0.2961
  240MPD1    C3 3694   0.190   4.325  14.342 -0.9514 -0.2111 -0.3338
  240MPD1    C4 3695   0.089   4.421  14.359  0.3042 -0.3604 -0.5592
  240MPD1    C5 3696   0.090   4.527  14.267 -0.5151 -0.4147  0.0492
  240MPD1     H 3697   0.338   4.241  14.213  0.6470  1.3347 -1.6979
  240MPD1    H1 3698   0.014   4.431  14.437 -1.3976 -0.8761 -2.1285
  240MPD1    H2 3699   0.173   4.617  14.087  1.8192  0.4949  0.7575
  240MPD1    H3 3700   0.038   4.616  14.301 -0.1302 -0.6690  1.2950
  240MPD1     N 3701   0.211   4.224  14.444 -0.0921 -0.5778  0.0180
  240MPD1    H5 3702   0.280   4.153  14.420 -0.6711 -1.1551  0.0731
  240MPD1    N1 3703   0.353   4.445  14.031  0.2651 -0.2696 -0.4447
  240MPD1    H6 3704   0.306   4.495  13.956  0.8300 -0.2687 -0.7912
  240MPD1    H7 3705   0.371   4.350  13.998  1.9605 -0.2011  0.2833
  241MPD1     C 3706   0.355   4.111  15.421  0.6080 -0.6307  0.3066
  241MPD1    C1 3707   0.346   3.982  15.371 -0.1143  0.2259 -0.0572
  241MPD1    C2 3708   0.360   3.967  15.233  0.2520 -0.3540  0.0978
  241MPD1    C3 3709   0.364   4.081  15.146 -0.5013  0.2096 -0.2964
  241MPD1    C4 3710   0.364   4.203  15.205 -0.4118  0.0804  1.0247
  241MPD1    C5 3711   0.370   4.221  15.341  0.8304  0.3142  0.0412
  241MPD1     H 3712   0.352   3.869  15.186 -1.5711  0.5061 -1.3915
  241MPD1    H1 3713   0.352   4.294  15.149 -0.4208  1.1143  2.7037
  241MPD1    H2 3714   0.352   4.122  15.529 -0.3222  1.6029  0.0592
  241MPD1    H3 3715   0.358   4.316  15.391 -0.7477  0.7401 -1.1583
  241MPD1     N 3716   0.357   4.076  15.005  0.2625 -0.3589 -0.1114
  241MPD1    H5 3717   0.354   4.166  14.958  2.0069 -1.2123 -1.8328
  241MPD1    N1 3718   0.333   3.873  15.456 -0.0700  0.2734  0.3089
  241MPD1    H6 3719   0.373   3.786  15.423  2.4751  0.8010  2.0567
  241MPD1    H7 3720   0.367   3.900  15.548 -2.3921  1.2026  0.9022
  242MPD1     C 3721   4.733   2.532  15.986  0.0844 -0.8333 -0.4165
  242MPD1    C1 3722   4.664   2.447  15.899  0.6040 -0.4023  0.0728
  242MPD1    C2 3723   4.713   2.426  15.772  0.4116  0.0796 -0.3388
  242MPD1    C3 3724   0.081   2.505  15.724  1.0683 -0.3196 -0.2106
  242MPD1    C4 3725   0.148   2.580  15.816  0.6734 -0.1388  0.0909
  242MPD1    C5 3726   0.106   2.597  15.944  0.6978  0.3878  0.4087
  242MPD1     H 3727   4.682   2.352  15.698 -1.8629  0.5162  0.1694
  242MPD1    H1 3728   0.234   2.630  15.774 -0.1110  1.2665  0.1411
  242MPD1    H2 3729   4.697   2.535  16.088  1.5670 -0.0823  0.0842
  242MPD1    H3 3730   0.164   2.649  16.019  2.6251  0.9839 -1.4792
  242MPD1     N 3731   0.150   2.481  15.605 -0.1820 -0.4568 -0.1257
  242MPD1    H5 3732   0.237   2.529  15.582  0.2751 -1.2646 -0.0766
  242MPD1    N1 3733   4.567   2.365  15.942 -0.0862  0.5531 -0.7376
  242MPD1    H6 3734   4.493   2.353  15.873 -0.2977 -0.5116 -0.3215
  242MPD1    H7 3735   4.525   2.419  16.017  3.5441  1.0927  0.8870
  243MPD1     C 3736   1.988   2.170   0.040 -0.3606 -0.3756  0.0342
  243MPD1    C1 3737   2.024   2.046   0.093  0.3715  0.1780  0.0872
  243MPD1    C2 3738   2.063   1.952  17.744 -0.4556  1.0511  0.2893
  243MPD1    C3 3739   2.088   1.978  17.609  0.0355  0.7803 -0.1731
  243MPD1    C4 3740   2.055   2.105  17.561 -0.0736  0.2224  0.0637
  243MPD1    C5 3741   2.002   2.201  17.650  0.9274  0.1551 -0.1143
  243MPD1     H 3742   2.087   1.851   0.031  0.5367  1.3252  0.3853
  243MPD1    H1 3743   2.063   2.138  17.458  1.2335  1.2040  0.4826
  243MPD1    H2 3744   1.951   2.251   0.102  0.6296 -0.8762  1.2828
  243MPD1    H3 3745   2.000   2.305  17.618  0.6996  0.0267 -0.5098
  243MPD1     N 3746   2.136   1.877  17.523 -0.9349 -0.4388 -0.0483
  243MPD1    H5 3747   2.146   1.781  17.554  1.2316  0.9332  3.5268
  243MPD1    N1 3748   1.994   2.004   0.223 -0.0571 -0.2833  0.2064
  243MPD1    H6 3749   2.065   1.937   0.250  1.0359  0.9077  0.3298
  243MPD1    H7 3750   2.001   2.082   0.288 -3.1199  1.6358 -1.7816
  244MPD1     C 3751   2.279   1.043  17.697 -0.5048  0.1854 -0.0736
  244MPD1    C1 3752   2.278   1.163   0.020  0.8774  0.3403 -0.2043
  244MPD1    C2 3753   2.272   1.279  17.687 -0.4099 -0.3060 -0.0654
  244MPD1    C3 3754   2.284   1.278  17.549  0.7113  0.5749  0.1170
  244MPD1    C4 3755   2.292   1.154  17.483  0.6666  0.2110 -0.7253
  244MPD1    C5 3756   2.282   1.047  17.563  0.6549  1.4149  0.7505
  244MPD1     H 3757   2.265   1.371  17.744  0.1328  0.0827 -0.6207
  244MPD1    H1 3758   2.293   1.150  17.375  0.5775  0.0970 -0.7215
  244MPD1    H2 3759   2.274   0.946   0.001  0.3936 -0.4633 -1.2565
  244MPD1    H3 3760   2.291   0.945  17.526 -1.9696  1.6763 -0.6017
  244MPD1     N 3761   2.282   1.402  17.485 -0.2896  0.1472 -0.6169
  244MPD1    H5 3762   2.252   1.477  17.546  2.2960  2.8081 -2.6164
  244MPD1    N1 3763   2.242   1.163   0.152  0.2186  0.0411 -0.1937
  244MPD1    H6 3764   2.273   1.076   0.195  0.5161  1.0570  1.6269
  244MPD1    H7 3765   2.292   1.239   0.196  0.0816  0.1376 -0.2027
  245MPD1     C 3766   0.078   1.997  12.615  0.1419  0.1973  0.3370
  245MPD1    C1 3767   4.717   2.088  12.615 -0.1288  0.4112  0.0622
  245MPD1    C2 3768   4.674   2.137  12.736 -0.4211 -0.1427 -0.0550
  245MPD1    C3 3769   4.717   2.084  12.862 -0.3904 -0.0826  0.2817
  245MPD1    C4 3770   0.071   1.982  12.851  0.0646 -0.4927  0.0585
  245MPD1    C5 3771   0.126   1.948  12.733 -0.1518  0.8622  0.6064
  245MPD1     H 3772   4.616   2.228  12.729 -2.2856 -1.1253  2.5535
  245MPD1    H1 3773   0.114   1.946  12.944  0.6869  1.7967  0.6631
  245MPD1    H2 3774   0.130   1.955  12.529 -1.5038  0.6125 -0.8643
  245MPD1    H3 3775   0.200   1.869  12.727 -1.4620 -0.4241  1.3948
  245MPD1     N 3776   4.667   2.145  12.985 -0.3499 -0.2058 -0.4148
  245MPD1    H5 3777   4.597   2.219  12.980  0.1900  0.4213  1.3149
  245MPD1    N1 3778   4.687   2.160  12.499 -0.5394 -0.0610  0.0835
  245MPD1    H6 3779   4.592   2.196  12.492 -0.0726  1.0230 -0.7132
  245MPD1    H7 3780   4.706   2.105  12.416 -3.2587 -0.4284 -0.2876
  246MPD1     C 3781   0.125   3.852   9.118  0.5910  0.4025 -0.9421
  246MPD1    C1 3782   0.093   3.741   9.204  0.0969  0.6063 -0.9768
  246MPD1    C2 3783   0.060   3.764   9.337  0.2275  0.1700 -0.2574
  246MPD1    C3 3784   0.061   3.893   9.386  0.4923  0.8898  0.9587
  246MPD1    C4 3785   0.082   3.999   9.296 -0.7920  0.3564 -0.5660
  246MPD1    C5 3786   0.103   3.977   9.163 -0.6366  0.2918  0.0615
  246MPD1     H 3787   0.047   3.672   9.392  0.7380  1.3607  1.8432
  246MPD1    H1 3788   0.063   4.103   9.317  1.7592  1.5831 -4.2600
  246MPD1    H2 3789   0.152   3.840   9.014  0.4555  0.0504 -0.9397
  246MPD1    H3 3790   0.124   4.063   9.099 -3.4389  0.2697 -0.8811
  246MPD1     N 3791   0.045   3.917   9.525  0.1503  0.1613  0.1254
  246MPD1    H5 3792   0.046   3.835   9.585 -0.9700  0.4720  0.5573
  246MPD1    N1 3793   0.117   3.607   9.158  0.5718 -0.0803  0.1370
  246MPD1    H6 3794   0.108   3.605   9.057  0.3009 -1.0916  0.1799
  246MPD1    H7 3795   0.054   3.540   9.203 -0.8555  0.3689 -1.1742
  247MPD1     C 3796   2.469   1.516  16.199  0.5678  0.0807 -0.6709
  247MPD1    C1 3797   2.402   1.627  16.144 -0.7540  0.1170 -0.5859
  247MPD1    C2 3798   2.461   1.695  16.041  0.2207  0.0192  0.3793
  247MPD1    C3 3799   2.585   1.662  15.986 -0.1338  0.0136  0.1586
  247MPD1    C4 3800   2.651   1.547  16.042  0.1601  0.1119  0.1589
  247MPD1    C5 3801   2.591   1.475  16.145  0.0115 -0.7892  0.1211
  247MPD1     H 3802   2.402   1.778  16.006 -1.0342 -0.2125  1.9593
  247MPD1    H1 3803   2.739   1.504  15.995  0.1469  3.4666 -3.0122
  247MPD1    H2 3804   2.432   1.457  16.283 -1.5681  2.1145 -0.1872
  247MPD1    H3 3805   2.630   1.390  16.199 -0.4254 -2.2247 -1.7895
  247MPD1     N 3806   2.631   1.718  15.866 -0.2553  0.4512  0.0063
  247MPD1    H5 3807   2.724   1.684  15.842  0.2840  0.8633  1.4329
  247MPD1    N1 3808   2.286   1.673  16.202  0.3820  0.3621  0.1983
  247MPD1    H6 3809   2.215   1.691  16.131 -2.2908 -2.2809  2.1917
  247MPD1    H7 3810   2.247   1.601  16.262  1.8739 -0.2060  0.4789
  248MPD1     C 3811   3.901   1.329   0.023 -0.1483  0.1300  0.5991
  248MPD1    C1 3812   3.807   1.417   0.065  0.3073 -0.0666  0.3661
  248MPD1    C2 3813   3.831   1.488   0.182 -0.1605 -0.6488 -0.0091
  248MPD1    C3 3814   3.932   1.456   0.270 -0.8263  0.1775 -0.1457
  248MPD1    C4 3815   4.026   1.367   0.225 -0.3063  0.1447  0.3000
  248MPD1    C5 3816   4.010   1.300   0.109 -0.9550 -0.2783 -0.2227
  248MPD1     H 3817   3.765   1.572   0.202 -0.8257 -1.2390  0.2544
  248MPD1    H1 3818   4.110   1.332   0.284  0.9335  1.3973 -0.7356
  248MPD1    H2 3819   3.890   1.292  17.667 -0.5598 -0.7515  0.9640
  248MPD1    H3 3820   4.085   1.222   0.102  0.5126  0.9937  1.4961
  248MPD1     N 3821   3.941   1.513   0.398 -0.0872 -0.2177 -0.1762
  248MPD1    H5 3822   3.868   1.582   0.416  0.6567  0.6630 -0.5442
  248MPD1    N1 3823   3.703   1.457  17.723 -0.0088  0.0912 -0.3495
  248MPD1    H6 3824   3.619   1.489   0.025  0.7623  0.3886  0.8433
  248MPD1    H7 3825   3.696   1.390  17.647 -0.9486  1.9831 -1.9389
  249MPD1     C 3826   1.428   1.115   9.608 -1.0659 -0.4355 -0.6091
  249MPD1    C1 3827   1.480   1.157   9.734 -0.8135 -0.5692 -0.0197
  249MPD1    C2 3828   1.527   1.286   9.745  0.2490 -0.5178  0.1848
  249MPD1    C3 3829   1.522   1.372   9.636  0.2738  0.5048 -0.2652
  249MPD1    C4 3830   1.475   1.322   9.511 -0.7932 -0.2162 -0.4082
  249MPD1    C5 3831   1.436   1.194   9.504 -0.4067  0.3288 -0.2248
  249MPD1     H 3832   1.558   1.327   9.840  0.2499 -0.2109  0.0502
  249MPD1    H1 3833   1.466   1.380   9.420  0.1507  0.1594 -0.2627
  249MPD1    H2 3834   1.387   1.016   9.587 -0.2750 -0.5830 -1.4611
  249MPD1    H3 3835   1.398   1.163   9.407 -3.3759  0.9890  0.7304
  249MPD1     N 3836   1.578   1.501   9.657  0.8317 -0.3610  0.3869
  249MPD1    H5 3837   1.607   1.524   9.751  1.6954 -1.8359  0.4793
  249MPD1    N1 3838   1.471   1.072   9.840 -0.0002  0.0228 -0.1105
  249MPD1    H6 3839   1.552   1.070   9.900 -1.8980 -0.0311  2.4488
  249MPD1    H7 3840   1.449   0.978   9.807 -0.5161 -0.0227  0.3584
  250MPD2     C 3841   2.905   0.129  12.987 -0.6184  0.3643  0.9202
  250MPD2    C1 3842   2.779   0.123  13.032  0.1512  0.4640 -0.2662
  250MPD2    C2 3843   2.676   0.062  12.952 -0.3251 -0.1778 -0.2058
  250MPD2    C3 3844   2.708   0.006  12.832 -0.2681 -0.6964 -0.3640
  250MPD2    C4 3845   2.843   0.009  12.796  0.5701 -0.1436 -1.0208
  250MPD2    C5 3846   2.939   0.067  12.869  0.7437  0.4724  0.0211
  250MPD2     H 3847   2.575   0.058  12.991 -1.0588 -1.1606 -2.1970
  250MPD2    H1 3848   2.878   4.696  12.706  0.1095 -1.7127 -0.3307
  250MPD2    H2 3849   2.975   0.189  13.044 -0.4860  1.1554 -0.0746
  250MPD2    H3 3850   3.042   0.063  12.836  0.5903  1.3524 -0.5483
  250MPD2     N 3851   2.617   4.682  12.736  0.3583  0.2769 -0.2723
  250MPD2    H5 3852   2.654   4.647  12.648 -0.1551  0.1303 -0.4331
  250MPD2    N1 3853   2.757   0.200  13.150 -0.3753  0.6562  0.0266
  250MPD2    H7 3854   2.831   0.258  13.188 -1.0841  2.5482 -1.4884
  251TMC3    C1 3855   2.635   0.336  13.295 -0.4384  0.5632  1.4264
  251TMC3    C2 3856   2.531   0.422  13.281  0.0657  0.0027  0.0175
  251TMC3    C3 3857   2.542   0.544  13.332 -0.7782 -0.0804 -0.0734
  251TMC3    C4 3858   2.752   0.368  13.346  0.8437  0.0845 -0.3011
  251TMC3    C5 3859   2.767   0.500  13.381 -0.6137 -0.6032  0.2574
  251TMC3    C6 3860   2.662   0.591  13.388 -0.7350 -0.6957  0.1923
  251TMC3     C 3861   2.629   0.228  13.205  0.0057 -0.5185  0.6337
  251TMC3     O 3862   2.518   0.210  13.151 -0.2852  0.9493 -0.0696
  251TMC3     H 3863   2.436   0.397  13.233 -0.3787  1.4491  0.1540
  251TMC3    H1 3864   2.843   0.311  13.364 -0.3154 -2.0277 -1.1204
  251TMC3    H2 3865   2.674   0.694  13.421 -0.2740 -0.4381 -0.7740
  251TMC3    C7 3866   2.890   0.537  13.446 -0.2642 -0.4161  0.0543
  251TMC3    C8 3867   2.424   0.628  13.332  1.2454 -0.0920 -0.5151
  251TMC3    O1 3868   2.937   0.454  13.520 -0.0758  0.3221 -0.0503
  251TMC3    O2 3869   2.321   0.557  13.331  0.4864 -0.2731  0.0573
  252TMC3    C1 3870   2.415   1.956   9.466 -0.0673  0.2464 -0.6132
  252TMC3    C2 3871   2.521   1.913   9.389 -0.3296  0.2100 -0.7027
  252TMC3    C3 3872   2.515   1.786   9.336 -0.1837 -0.2670  0.3094
  252TMC3    C4 3873   2.310   1.877   9.475 -0.5880  0.5177  0.7598
  252TMC3    C5 3874   2.313   1.754   9.416  0.3161 -0.3835 -0.1813
  252TMC3    C6 3875   2.418   1.701   9.345  0.1399  0.1407 -0.8502
  252TMC3     C 3876   2.397   2.104   9.468 -0.1991 -0.0698  0.4630
  252TMC3     O 3877   2.459   2.172   9.380 -0.6040 -0.4425 -0.5097
  252TMC3     H 3878   2.609   1.973   9.367 -0.8015  0.0847 -2.9235
  252TMC3    H1 3879   2.214   1.917   9.507 -1.0979  1.7234 -2.2632
  252TMC3    H2 3880   2.418   1.602   9.300  1.5196 -0.2198 -0.0892
  252TMC3    C7 3881   2.194   1.685   9.426 -0.6925  0.3855  0.7330
  252TMC3    C8 3882   2.642   1.740   9.286 -0.4041  0.2160  0.1482
  252TMC3    O1 3883   2.091   1.751   9.420  0.1243 -0.3256 -0.5846
  252TMC3    O2 3884   2.700   1.818   9.214 -0.3031  0.0734  0.2991
  253MPD2     C 3885   3.397   0.908  15.443  0.1078 -0.1609  0.4672
  253MPD2    C1 3886   3.271   0.892  15.486 -0.1190  0.5337  0.3156
  253MPD2    C2 3887   3.229   0.773  15.543 -0.1137  0.5237 -0.0424
  253MPD2    C3 3888   3.307   0.658  15.520  0.9961 -0.5797  1.4497
  253MPD2    C4 3889   3.428   0.670  15.458  0.9497 -0.5356 -0.0352
  253MPD2    C5 3890   3.473   0.798  15.419  0.3353 -0.5433 -0.0736
  253MPD2     H 3891   3.138   0.777  15.601  0.1420  1.7246  0.2792
  253MPD2    H1 3892   3.491   0.582  15.449 -0.6962 -1.4829 -2.2161
  253MPD2    H2 3893   3.441   1.006  15.428 -1.0637  0.4010  0.6574
  253MPD2    H3 3894   3.567   0.819  15.368  0.4058 -1.2817 -0.2503
  253MPD2     N 3895   3.263   0.534  15.570  0.4042  0.5960  0.6077
  253MPD2    H5 3896   3.332   0.460  15.560 -1.0869 -0.6005 -0.8837
  253MPD2    N1 3897   3.178   0.999  15.509  0.5761  0.1964 -0.3861
  253MPD2    H7 3898   3.080   0.979  15.526  1.2600 -2.8070  0.0566
  254TMC3    C1 3899   3.134   0.417  15.729 -0.2848 -0.5077  0.0979
  254TMC3    C2 3900   3.016   0.406  15.801  0.4925 -0.1737  0.1575
  254TMC3    C3 3901   3.019   0.336  15.911 -0.1985  0.4694  1.2131
  254TMC3    C4 3902   3.248   0.374  15.788  0.0616  0.2797 -0.5013
  254TMC3    C5 3903   3.252   0.324  15.916  0.1150  0.4726  0.4520
  254TMC3    C6 3904   3.133   0.298  15.973  0.0914  0.4060 -0.5811
  254TMC3     C 3905   3.139   0.521  15.638 -0.2727 -0.3506  0.9253
  254TMC3     O 3906   3.033   0.590  15.645 -0.5455 -0.2245 -0.3220
  254TMC3     H 3907   2.925   0.408  15.742  1.0557 -1.4709 -0.7728
  254TMC3    H1 3908   3.344   0.381  15.737 -0.2613 -0.4319 -1.2020
  254TMC3    H2 3909   3.129   0.270  16.078 -0.0273  1.0624 -0.4071
  254TMC3    C7 3910   3.373   0.301  15.992  0.6600 -0.0605  0.0953
  254TMC3    C8 3911   2.918   0.374  16.011  1.0441  0.7979  0.1961
  254TMC3    O1 3912   3.342   0.231  16.092  0.3235  0.4381 -0.4180
  254TMC3    O2 3913   2.914   0.318  16.117  0.4459 -1.1160 -0.6680
  255MPD2     C 3914   2.958   2.905   9.614 -0.3087 -0.0657 -0.4285
  255MPD2    C1 3915   3.027   3.014   9.586 -0.5149  0.1043 -0.4645
  255MPD2    C2 3916   3.054   3.043   9.455  0.4540 -0.4851  0.5513
  255MPD2    C3 3917   3.002   2.958   9.358  0.1730 -0.1650  1.0128
  255MPD2    C4 3918   2.941   2.838   9.391 -0.9067 -0.1058 -0.4062
  255MPD2    C5 3919   2.912   2.823   9.523  0.1273  0.2678 -0.6648
  255MPD2     H 3920   3.107   3.134   9.427  0.6982 -0.7792  0.0601
  255MPD2    H1 3921   2.902   2.770   9.315 -2.6502 -3.8609  3.8543
  255MPD2    H2 3922   2.919   2.887   9.713  0.5658  0.3136 -0.0192
  255MPD2    H3 3923   2.863   2.730   9.551 -0.5136  0.1341 -2.2128
  255MPD2     N 3924   3.022   2.998   9.226 -0.3448 -0.2591  0.0379
  255MPD2    H5 3925   3.076   3.083   9.213 -0.5253 -0.1534 -0.0182
  255MPD2    N1 3926   3.070   3.110   9.681 -0.6992 -0.1904  0.4893
  255MPD2    H7 3927   3.117   3.190   9.640  0.7337 -0.6813  1.1574
  256TMC3    C1 3928   3.084   3.241   9.877 -0.2994 -0.3326 -0.0667
  256TMC3    C2 3929   3.135   3.330   9.787  0.5580  0.6794  0.6552
  256TMC3    C3 3930   3.097   3.464   9.790  0.4184  0.1479 -0.0260
  256TMC3    C4 3931   2.981   3.275   9.965 -0.8243 -0.1133 -0.1055
  256TMC3    C5 3932   2.938   3.408   9.956  1.1236  0.1127 -0.1069
  256TMC3    C6 3933   2.994   3.500   9.868  0.4150  0.0435 -0.6280
  256TMC3     C 3934   3.059   3.109   9.820 -0.4400 -0.7078 -0.3883
  256TMC3     O 3935   2.987   3.033   9.885 -0.1870 -0.3567  0.1859
  256TMC3     H 3936   3.200   3.302   9.705 -1.0245 -2.2076  0.3480
  256TMC3    H1 3937   2.929   3.199  10.022 -1.4530  0.4221  0.0268
  256TMC3    H2 3938   2.975   3.606   9.865 -2.4766 -0.5139 -1.4895
  256TMC3    C7 3939   2.795   3.432   9.996 -0.3178  0.0565  0.3856
  256TMC3    C8 3940   3.077   3.506   9.653  0.6048 -0.7699 -0.6400
  256TMC3    O1 3941   2.733   3.510   9.922 -0.8269 -0.2105 -0.1227
  256TMC3    O2 3942   3.079   3.427   9.560  0.2396  0.2904 -0.0142
  257MPD2     C 3943   0.915   0.282  13.169  0.3952 -0.6400 -0.2319
  257MPD2    C1 3944   0.880   0.176  13.085 -0.0622 -0.3945 -0.8671
  257MPD2    C2 3945   0.775   0.091  13.136  0.7250 -0.0364  1.1902
  257MPD2    C3 3946   0.718   0.112  13.259 -0.3122  0.0261 -0.4656
  257MPD2    C4 3947   0.758   0.219  13.337  0.3801 -0.5804 -0.3339
  257MPD2    C5 3948   0.861   0.304  13.291 -0.3749  0.3844  0.7889
  257MPD2     H 3949   0.744   0.004  13.080  1.0950 -0.7185  2.0360
  257MPD2    H1 3950   0.733   0.221  13.443  1.8836 -0.7260  0.0297
  257MPD2    H2 3951   0.989   0.359  13.149  0.0371 -0.5824 -1.3209
  257MPD2    H3 3952   0.890   0.386  13.355  0.2115  0.1706  0.8016
  257MPD2     N 3953   0.620   0.014  13.298 -0.3192  0.0940  0.0974
  257MPD2    H5 3954   0.591   4.678  13.234 -0.4393 -0.3717  0.6849
  257MPD2    N1 3955   0.930   0.153  12.950 -0.3649  0.4030  0.4443
  257MPD2    H7 3956   0.884   0.085  12.889  0.4313  0.0170  0.2819
  258TMC3    C1 3957   0.520   4.607  13.445  0.1394  0.5682 -0.0615
  258TMC3    C2 3958   0.390   4.604  13.426  0.3365 -0.5056  0.3853
  258TMC3    C3 3959   0.322   4.510  13.492  0.4857 -0.0908 -0.4013
  258TMC3    C4 3960   0.593   4.520  13.519 -0.1124 -0.3674 -0.1218
  258TMC3    C5 3961   0.531   4.412  13.576 -0.7612  0.0922 -0.6604
  258TMC3    C6 3962   0.392   4.415  13.566  0.5853 -0.0967  0.5854
  258TMC3     C 3963   0.585   4.733  13.428 -0.0672 -0.5975 -0.2794
  258TMC3     O 3964   0.618   0.060  13.526  0.2548  0.5337 -0.4870
  258TMC3     H 3965   0.342   4.682  13.368 -4.3801 -1.7389  2.6412
  258TMC3    H1 3966   0.697   4.550  13.528 -0.6406  1.5094 -0.1561
  258TMC3    H2 3967   0.341   4.343  13.628  1.9655 -1.8493 -0.3039
  258TMC3    C7 3968   0.584   4.331  13.689  0.2775  0.0087 -0.1387
  258TMC3    C8 3969   0.200   4.557  13.540 -0.3419  0.4803  0.4308
  258TMC3    O1 3970   0.505   4.276  13.766  0.3200  0.3183 -0.4753
  258TMC3    O2 3971   0.154   4.662  13.490 -0.2648  0.5688  0.1229
  259MPD2     C 3972   0.143   2.288   0.823  0.4994  0.2335 -0.0466
  259MPD2    C1 3973   0.193   2.182   0.760  0.4546  0.0765  0.0032
  259MPD2    C2 3974   0.173   2.172   0.627 -0.3501  0.5327 -0.0217
  259MPD2    C3 3975   0.094   2.259   0.549  0.0072  0.6131  0.0001
  259MPD2    C4 3976   0.036   2.360   0.622  1.0809  0.2720 -0.2223
  259MPD2    C5 3977   0.069   2.379   0.756  0.5128 -0.2755 -0.2298
  259MPD2     H 3978   0.215   2.095   0.565  0.2430  1.8410 -1.2421
  259MPD2    H1 3979   4.717   2.440   0.574 -0.6144 -1.6214 -1.3722
  259MPD2    H2 3980   0.170   2.301   0.927  1.2340 -1.1810 -0.0656
  259MPD2    H3 3981   0.024   2.461   0.810 -0.1437 -1.0404  0.3819
  259MPD2     N 3982   0.076   2.249   0.406 -0.4611 -0.2055  0.2276
  259MPD2    H5 3983   0.112   2.165   0.364  0.8439 -0.1796  1.2741
  259MPD2    N1 3984   0.263   2.089   0.841 -0.5658  0.2267  0.0900
  259MPD2    H7 3985   0.304   2.123   0.927  0.6392  1.7753 -1.1108
  260TMC3    C1 3986   0.042   2.333   0.182 -0.6533  0.5094  0.5885
  260TMC3    C2 3987   0.052   2.453   0.114 -1.0195  0.1229  0.2712
  260TMC3    C3 3988   0.071   2.441  17.724  0.7088 -0.1072 -0.3885
  260TMC3    C4 3989   0.047   2.210   0.124 -0.1100  0.1950 -0.4729
  260TMC3    C5 3990   0.048   2.214  17.728  0.0755 -0.0010  0.4516
  260TMC3    C6 3991   0.038   2.330  17.656  0.1503 -0.0572  0.2887
  260TMC3     C 3992   0.036   2.352   0.327  0.1102  0.6261  0.2834
  260TMC3     O 3993   0.001   2.466   0.366  0.5429 -0.1971  0.0702
  260TMC3     H 3994   0.068   2.542   0.174 -0.6693  1.1676 -1.3788
  260TMC3    H1 3995   0.072   2.123   0.183  0.1454  1.3882  1.1882
  260TMC3    H2 3996   0.043   2.323  17.548  1.6097  0.5974  0.3164
  260TMC3    C7 3997   0.055   2.093  17.651 -0.5406  0.2858  0.5037
  260TMC3    C8 3998   0.190   2.513  17.684 -0.5299  0.1574  0.0154
  260TMC3    O1 3999   0.078   2.114  17.532  0.2499  0.2289  0.2740
  260TMC3    O2 4000   0.237   2.594   0.017  0.1770 -0.0034 -0.3345
  261MPD2     C 4001   1.825   0.016  12.675  0.3479 -0.0757  0.1314
  261MPD2    C1 4002   1.890   0.041  12.559 -0.4770 -0.6287  0.3840
  261MPD2    C2 4003   1.827   0.095  12.449 -0.1325  0.1088 -0.2434
  261MPD2    C3 4004   1.694   0.126  12.461  0.2798 -0.3358  0.1624
  261MPD2    C4 4005   1.624   0.091  12.576  0.7553  0.7406 -0.1877
  261MPD2    C5 4006   1.687   0.028  12.676 -0.4203  0.0768  0.3267
  261MPD2     H 4007   1.877   0.120  12.357 -0.3159  1.2853 -0.0312
  261MPD2    H1 4008   1.518   0.115  12.583  0.6579 -0.4979  2.7199
  261MPD2    H2 4009   1.880   4.730  12.765  0.0487  0.8947  0.5595
  261MPD2    H3 4010   1.638   0.021  12.772 -0.6234  2.1187  0.3604
  261MPD2     N 4011   1.628   0.203  12.363 -0.3768 -0.1382 -0.0339
  261MPD2    H5 4012   1.696   0.233  12.294 -1.3504  2.1068  0.0145
  261MPD2    N1 4013   2.026   4.736  12.554  0.2893  0.1506 -0.4368
  261MPD2    H7 4014   2.066   4.693  12.636  3.5013  1.2619 -1.3959
  262TMC3    C1 4015   1.478   0.295  12.217 -0.4142  0.3393  0.3018
  262TMC3    C2 4016   1.360   0.365  12.201  0.2994 -0.5012  0.6093
  262TMC3    C3 4017   1.331   0.421  12.080 -0.5827 -0.7998 -0.0616
  262TMC3    C4 4018   1.552   0.261  12.112  0.0279 -0.7635  0.5521
  262TMC3    C5 4019   1.512   0.304  11.991 -0.1421 -0.3506  0.4453
  262TMC3    C6 4020   1.398   0.377  11.970  0.3101 -0.7309  1.2457
  262TMC3     C 4021   1.493   0.228  12.344  0.1523 -0.0393 -1.7935
  262TMC3     O 4022   1.395   0.180  12.395 -0.2151  0.2116 -0.0080
  262TMC3     H 4023   1.298   0.363  12.290  0.0252 -0.0542  0.4290
  262TMC3    H1 4024   1.635   0.190  12.117  0.7492 -0.0136 -1.0683
  262TMC3    H2 4025   1.374   0.421  11.874  1.3622 -0.6952  0.9989
  262TMC3    C7 4026   1.537   0.199  11.891  0.7386  0.2625  0.1192
  262TMC3    C8 4027   1.203   0.488  12.053  0.0211  0.7044  0.0055
  262TMC3    O1 4028   1.546   0.086  11.933  0.5057  0.3793 -0.2187
  262TMC3    O2 4029   1.142   0.538  12.148 -0.0349 -0.8743 -0.1114
  263MPD2     C 4030   2.500   4.430  11.422 -0.2061  0.2983 -0.5570
  263MPD2    C1 4031   2.584   4.400  11.319  0.4449  0.1130 -0.3404
  263MPD2    C2 4032   2.559   4.453  11.195  0.1278  0.3861 -0.4335
  263MPD2    C3 4033   2.449   4.537  11.176  0.4764 -0.4853 -0.4380
  263MPD2    C4 4034   2.357   4.558  11.272 -0.4314  0.1323 -0.3401
  263MPD2    C5 4035   2.383   4.503  11.400  0.1969 -0.6143 -0.4645
  263MPD2     H 4036   2.637   4.437  11.121  2.1425  0.2421  1.6937
  263MPD2    H1 4037   2.269   4.622  11.264 -1.6898 -1.7182 -1.0922
  263MPD2    H2 4038   2.520   4.391  11.521 -1.0776  1.8489  0.2374
  263MPD2    H3 4039   2.322   4.532  11.485 -0.1537 -1.2594 -0.4943
  263MPD2     N 4040   2.446   4.606  11.055  0.3094  0.4184  0.4099
  263MPD2    H5 4041   2.529   4.596  10.997 -1.0250 -0.3501 -1.3564
  263MPD2    N1 4042   2.701   4.324  11.352 -0.3035 -0.3588  0.0736
  263MPD2    H7 4043   2.697   4.307  11.452  0.7998  0.3827  0.2410
  264TMC3    C1 4044   2.394   0.020  10.889  0.0049  0.6276 -0.7734
  264TMC3    C2 4045   2.378   0.154  10.904 -0.1460 -0.1784 -0.5272
  264TMC3    C3 4046   2.434   0.231  10.797  0.5493  0.2539  0.1809
  264TMC3    C4 4047   2.454   4.699  10.784  0.4553 -0.4074 -1.0009
  264TMC3    C5 4048   2.508   0.043  10.688 -0.1784 -0.1932  0.1505
  264TMC3    C6 4049   2.494   0.177  10.687  0.3398 -0.2920 -0.2210
  264TMC3     C 4050   2.347   4.683  11.003  0.5766  0.5903  0.3359
  264TMC3     O 4051   2.255   4.729  11.066 -0.0660 -0.1776 -0.1139
  264TMC3     H 4052   2.350   0.193  11.001  1.3480  0.2406 -0.2651
  264TMC3    H1 4053   2.444   4.592  10.765 -2.5809 -0.0217 -1.6647
  264TMC3    H2 4054   2.543   0.239  10.612  0.1335 -2.1294 -1.8631
  264TMC3    C7 4055   2.602   4.733  10.582  0.2804  0.2078  0.1014
  264TMC3    C8 4056   2.489   0.362  10.834  0.5067  0.2622 -0.2340
  264TMC3    O1 4057   2.628   0.071  10.484  0.4985 -0.4282 -0.5789
  264TMC3    O2 4058   2.513   0.441  10.744 -0.5680 -0.2015  0.5996
  265MPD2     C 4059   4.605   0.103  15.890 -0.1218 -0.6161  0.4284
  265MPD2    C1 4060   4.598   0.191  15.787  0.1802  0.6035 -0.5951
  265MPD2    C2 4061   4.630   0.143  15.661 -0.8942 -0.7630 -0.3516
  265MPD2    C3 4062   4.664   0.011  15.641  0.2589 -0.6526 -0.2956
  265MPD2    C4 4063   4.662   4.659  15.749 -0.5509  0.0567  0.0432
  265MPD2    C5 4064   4.648   4.710  15.875  0.1006 -0.3264 -0.0357
  265MPD2     H 4065   4.618   0.209  15.576  0.2252  1.6887  1.4044
  265MPD2    H1 4066   4.689   4.554  15.750 -0.3621  0.1147  1.1388
  265MPD2    H2 4067   4.587   0.134  15.992  0.2095  1.7202 -0.2319
  265MPD2    H3 4068   4.653   4.641  15.959  1.0761  1.0040  0.9876
  265MPD2     N 4069   4.700   4.695  15.512 -0.0176  0.4797 -0.1653
  265MPD2    H5 4070   4.723   4.596  15.517 -0.5220  0.3521 -0.4453
  265MPD2    N1 4071   4.564   0.330  15.805 -0.2851 -0.5955  0.2998
  265MPD2    H7 4072   4.554   0.382  15.718  4.4573 -0.6894 -0.2997
  266TMC3    C1 4073   4.498   0.529  15.923 -0.7307 -0.4514  0.0804
  266TMC3    C2 4074   4.535   0.618  16.023 -0.5249  0.7366  0.1073
  266TMC3    C3 4075   4.512   0.753  15.995  0.5990 -0.7618 -0.1205
  266TMC3    C4 4076   4.434   0.569  15.805 -0.5254  0.2253 -0.1395
  266TMC3    C5 4077   4.404   0.699  15.785  0.2524 -0.3675  1.0305
  266TMC3    C6 4078   4.453   0.793  15.876 -0.2520 -0.2604 -0.4439
  266TMC3     C 4079   4.542   0.386  15.929 -0.3055 -0.5367 -0.1151
  266TMC3     O 4080   4.557   0.351  16.045 -0.1138  0.2951 -0.6770
  266TMC3     H 4081   4.590   0.593  16.113  1.1969 -1.5113 -1.5583
  266TMC3    H1 4082   4.395   0.490  15.741  3.2970  0.0052 -2.1811
  266TMC3    H2 4083   4.434   0.899  15.860  0.8283 -0.0491 -0.3563
  266TMC3    C7 4084   4.312   0.728  15.674 -0.1848  0.3221 -0.3762
  266TMC3    C8 4085   4.581   0.853  16.075  0.1883  0.3011 -0.1376
  266TMC3    O1 4086   4.244   0.645  15.617  0.0865  0.1311  0.1236
  266TMC3    O2 4087   4.643   0.803  16.169  0.6435 -0.1504  0.1789
  267MPD2     C 4088   1.977   2.559   0.327  0.0724 -0.4433  0.9566
  267MPD2    C1 4089   2.049   2.523   0.218 -0.4579  0.1052 -0.1853
  267MPD2    C2 4090   1.997   2.561   0.094  0.3028 -0.1061  0.5813
  267MPD2    C3 4091   1.886   2.640   0.081  0.1559 -0.3211  0.1146
  267MPD2    C4 4092   1.822   2.682   0.191 -0.6979 -0.2604 -0.9576
  267MPD2    C5 4093   1.869   2.639   0.313 -0.2718  0.0508 -0.0551
  267MPD2     H 4094   2.044   2.537  17.744  0.8598  0.0721  0.8073
  267MPD2    H1 4095   1.735   2.747   0.191 -0.9022 -0.5349 -0.8288
  267MPD2    H2 4096   2.007   2.523   0.425  0.5190 -0.5175  0.7927
  267MPD2    H3 4097   1.798   2.665   0.390 -1.2801 -1.2309 -0.5462
  267MPD2     N 4098   1.859   2.663  17.687  0.4495 -0.2484 -0.6794
  267MPD2    H5 4099   1.923   2.626  17.618 -3.8555 -2.6103 -3.4042
  267MPD2    N1 4100   2.173   2.449   0.229 -0.5647 -0.2680  0.0224
  267MPD2    H7 4101   2.203   2.414   0.319 -0.3037  1.0162  0.4374
  268TMC3    C1 4102   2.376   2.338   0.174  0.0511  0.4872  0.3721
  268TMC3    C2 4103   2.484   2.326   0.090 -0.5801  1.0733 -0.3793
  268TMC3    C3 4104   2.596   2.258   0.132 -0.0072 -0.7012  0.0564
  268TMC3    C4 4105   2.379   2.263   0.291  0.6008  0.4051 -0.1891
  268TMC3    C5 4106   2.492   2.195   0.333 -0.4586 -0.1252 -0.0087
  268TMC3    C6 4107   2.604   2.193   0.253 -0.8188  0.0733 -0.4101
  268TMC3     C 4108   2.255   2.414   0.124 -0.6546  0.0700  0.0507
  268TMC3     O 4109   2.264   2.448   0.006 -0.4269  0.5000 -0.2926
  268TMC3     H 4110   2.488   2.388   0.001 -0.2213  1.4500 -0.1036
  268TMC3    H1 4111   2.286   2.250   0.345 -0.4246  2.2796 -1.4677
  268TMC3    H2 4112   2.698   2.144   0.276 -0.3079  1.4292  0.3434
  268TMC3    C7 4113   2.506   2.103   0.444  0.5306  0.3192 -0.0552
  268TMC3    C8 4114   2.719   2.281   0.064  0.9066 -0.4291  0.7050
  268TMC3    O1 4115   2.615   2.056   0.470  0.2263 -0.9846 -0.1177
  268TMC3    O2 4116   2.829   2.261   0.118  0.1460 -0.9195  0.1866
  269MPD2     C 4117   2.334   1.071  15.898  0.6662  0.3435 -0.0830
  269MPD2    C1 4118   2.249   1.051  15.792  0.6709  0.1506 -0.3089
  269MPD2    C2 4119   2.259   1.143  15.687  0.4471  0.0179 -0.9090
  269MPD2    C3 4120   2.356   1.250  15.684  0.3836 -0.4720  0.6546
  269MPD2    C4 4121   2.428   1.271  15.801 -0.3860 -0.2054 -0.3010
  269MPD2    C5 4122   2.419   1.179  15.900 -0.2887  0.2004  0.1523
  269MPD2     H 4123   2.194   1.122  15.603 -2.1861  0.0513  1.1120
  269MPD2    H1 4124   2.499   1.353  15.807  0.8242 -1.3227  0.5655
  269MPD2    H2 4125   2.343   1.005  15.984  0.3942  0.1809 -0.1771
  269MPD2    H3 4126   2.475   1.200  15.991 -0.8906  1.3860  0.2505
  269MPD2     N 4127   2.354   1.349  15.584 -0.4008  0.2624 -0.4745
  269MPD2    H5 4128   2.272   1.343  15.524 -0.9544  4.4021 -0.1437
  269MPD2    N1 4129   2.152   0.949  15.803 -0.4828 -0.1450 -0.3685
  269MPD2    H7 4130   2.165   0.895  15.888  1.5567  1.7719  0.5442
  270TMC3    C1 4131   1.994   0.785  15.762 -0.0480  0.1025 -0.6600
  270TMC3    C2 4132   1.946   0.707  15.660 -0.0098 -0.5406  0.5256
  270TMC3    C3 4133   1.925   0.576  15.693 -0.4607 -0.1488 -1.3237
  270TMC3    C4 4134   2.037   0.739  15.891 -0.7295 -0.6395  0.1853
  270TMC3    C5 4135   2.030   0.601  15.915 -0.1085  0.2464 -0.3005
  270TMC3    C6 4136   1.984   0.522  15.815 -0.2527 -0.4470  0.1218
  270TMC3     C 4137   2.058   0.907  15.713  0.7599  0.3158 -0.0244
  270TMC3     O 4138   2.041   0.941  15.596  0.0665 -0.2745  0.1003
  270TMC3     H 4139   1.925   0.743  15.560  0.3098 -2.4509 -0.2336
  270TMC3    H1 4140   2.038   0.805  15.977  1.1809 -0.9598  0.4000
  270TMC3    H2 4141   1.965   0.418  15.834 -2.4163  0.4241  2.7169
  270TMC3    C7 4142   2.135   0.549  16.006 -0.0287  0.2489  0.7134
  270TMC3    C8 4143   1.844   0.489  15.607  0.3345  0.5060 -0.6725
  270TMC3    O1 4144   2.166   0.606  16.107  0.5012 -0.1468 -0.5401
  270TMC3    O2 4145   1.729   0.478  15.649 -0.2408 -0.2256 -0.7289
  271MPD2     C 4146   1.640   0.234  13.763  0.2139  0.1316 -0.5629
  271MPD2    C1 4147   1.626   0.329  13.860 -0.0733  0.0532 -0.0276
  271MPD2    C2 4148   1.538   0.429  13.830  0.0179 -0.1626  0.3105
  271MPD2    C3 4149   1.485   0.438  13.703 -0.2614 -0.3625  0.5751
  271MPD2    C4 4150   1.511   0.349  13.604 -0.2184  0.2719  0.1042
  271MPD2    C5 4151   1.581   0.241  13.643 -0.5749 -0.1456 -0.0600
  271MPD2     H 4152   1.507   0.497  13.909  2.0005 -0.5965  1.4554
  271MPD2    H1 4153   1.457   0.354  13.509 -1.6471 -0.3613  0.8897
  271MPD2    H2 4154   1.692   0.141  13.781  0.9748  0.5261 -0.7455
  271MPD2    H3 4155   1.589   0.160  13.572  3.4214  0.8480 -0.7459
  271MPD2     N 4156   1.387   0.540  13.660 -0.3010  0.5559  0.4391
  271MPD2    H5 4157   1.359   0.538  13.562  0.9364  0.2536  0.0945
  271MPD2    N1 4158   1.681   0.320  13.992  0.1976  0.3206 -0.5304
  271MPD2    H7 4159   1.659   0.394  14.059 -1.3874 -0.8522  0.2601
  272TMC3    C1 4160   1.769   0.204  14.172  0.4204  0.1170  0.7576
  272TMC3    C2 4161   1.882   0.152  14.227  0.1277 -0.4725 -0.0676
  272TMC3    C3 4162   1.893   0.139  14.367 -0.0530 -0.3796 -0.2399
  272TMC3    C4 4163   1.671   0.256  14.251  0.5971 -0.6443  0.1548
  272TMC3    C5 4164   1.693   0.250  14.387  0.1077  0.8993 -0.0368
  272TMC3    C6 4165   1.796   0.182  14.452 -0.1251 -0.1638 -0.1269
  272TMC3     C 4166   1.761   0.214  14.029  0.4648  0.0815  0.3857
  272TMC3     O 4167   1.836   0.143  13.960 -0.6142  0.1984  0.1459
  272TMC3     H 4168   1.965   0.129  14.161  0.2879 -0.0017 -0.0338
  272TMC3    H1 4169   1.596   0.325  14.214  0.4960 -1.3141 -0.8895
  272TMC3    H2 4170   1.804   0.158  14.557  1.9013 -1.8744 -0.6866
  272TMC3    C7 4171   1.599   0.340  14.458 -0.4386 -0.5189 -0.2883
  272TMC3    C8 4172   2.018   0.087  14.411 -0.3230  0.4950  0.8886
  272TMC3    O1 4173   1.493   0.373  14.406 -0.6036 -0.0719  0.1303
  272TMC3    O2 4174   2.113   0.097  14.335  0.2455 -0.1533 -0.5553
  273MPD2     C 4175   3.376   2.858  11.303  0.3811 -0.0159 -0.2242
  273MPD2    C1 4176   3.480   2.954  11.322  0.5343 -0.1525 -0.0368
  273MPD2    C2 4177   3.517   3.040  11.224 -0.3556 -0.5571  0.3318
  273MPD2    C3 4178   3.435   3.066  11.110 -0.6382  0.0786 -0.2490
  273MPD2    C4 4179   3.335   2.976  11.087  0.5212 -1.4064 -0.6019
  273MPD2    C5 4180   3.307   2.880  11.184 -0.1598 -0.0990  0.3697
  273MPD2     H 4181   3.612   3.092  11.232 -0.5330 -0.3812  1.3228
  273MPD2    H1 4182   3.264   2.991  11.007  0.8172 -3.1717 -1.2001
  273MPD2    H2 4183   3.346   2.783  11.375  1.9698 -0.5415 -0.1247
  273MPD2    H3 4184   3.222   2.816  11.168  1.3856 -1.6232 -1.7175
  273MPD2     N 4185   3.472   3.164  11.020  0.2866 -0.2029  0.6589
  273MPD2    H5 4186   3.439   3.152  10.925  0.8178 -0.9058  0.5562
  273MPD2    N1 4187   3.558   2.962  11.437 -0.2867  0.5333 -0.1341
  273MPD2    H7 4188   3.621   3.042  11.436 -1.0555  1.1483  0.3899
  274TMC3    C1 4189   3.568   3.377  10.955  0.7600 -0.6738  0.1471
  274TMC3    C2 4190   3.529   3.347  10.829 -0.9547  0.0826 -0.3151
  274TMC3    C3 4191   3.518   3.454  10.744 -0.4737 -1.0868  0.2014
  274TMC3    C4 4192   3.600   3.504  10.998  0.0123  0.0295  0.4084
  274TMC3    C5 4193   3.585   3.610  10.914 -0.0323  0.2027  0.5444
  274TMC3    C6 4194   3.543   3.586  10.786  0.3671  0.0562 -0.1274
  274TMC3     C 4195   3.549   3.278  11.059 -0.4118  1.1448  0.2010
  274TMC3     O 4196   3.580   3.311  11.172 -0.3060  0.1725 -0.0063
  274TMC3     H 4197   3.507   3.248  10.791 -1.9539  0.0166  0.4187
  274TMC3    H1 4198   3.617   3.521  11.104 -0.7494  2.2361  0.1595
  274TMC3    H2 4199   3.517   3.668  10.720  0.2539  0.1289  0.0096
  274TMC3    C7 4200   3.539   3.727  10.980  0.4032 -0.5819 -0.5542
  274TMC3    C8 4201   3.414   3.438  10.650 -0.8992  0.0641  0.1757
  274TMC3    O1 4202   3.423   3.761  10.960 -0.3818 -0.0220  0.4440
  274TMC3    O2 4203   3.310   3.395  10.694 -0.8662  0.4573  0.2022
  275MPD2     C 4204   3.049   1.434  14.409  0.2884  0.2174 -0.3221
  275MPD2    C1 4205   2.937   1.513  14.421 -0.4177  0.0535  0.5339
  275MPD2    C2 4206   2.809   1.462  14.415 -0.1076  0.5796 -0.2384
  275MPD2    C3 4207   2.797   1.329  14.394  0.3372  0.4817  0.9823
  275MPD2    C4 4208   2.903   1.246  14.394 -0.5136  0.6864  0.1844
  275MPD2    C5 4209   3.025   1.297  14.408  0.1514  0.3560 -0.2035
  275MPD2     H 4210   2.726   1.533  14.413 -0.7884 -0.2417 -1.2442
  275MPD2    H1 4211   2.892   1.139  14.382 -2.6907  1.0573 -1.0278
  275MPD2    H2 4212   3.152   1.468  14.413  0.8672 -1.2609 -2.5928
  275MPD2    H3 4213   3.109   1.232  14.426  0.0291 -0.3083 -2.0499
  275MPD2     N 4214   2.672   1.262  14.377 -0.0609 -1.2403 -0.5292
  275MPD2    H5 4215   2.674   1.161  14.384 -2.9629 -1.0854  2.3591
  275MPD2    N1 4216   2.951   1.643  14.458 -0.6091 -0.4859  0.6578
  275MPD2    H7 4217   2.878   1.689  14.513  1.1584  1.6881  1.1840
  276TMC3    C1 4218   3.061   1.828  14.527  0.9414 -0.0168  0.8266
  276TMC3    C2 4219   2.936   1.848  14.588 -0.0055  0.0688  0.3507
  276TMC3    C3 4220   2.935   1.846  14.723  0.1775 -0.2122  0.3787
  276TMC3    C4 4221   3.176   1.848  14.599  0.2022  0.2351  0.2808
  276TMC3    C5 4222   3.165   1.867  14.733 -0.4591  0.5071  0.0646
  276TMC3    C6 4223   3.051   1.847  14.807 -0.3288  0.1575 -0.2603
  276TMC3     C 4224   3.065   1.715  14.441  0.8089 -0.2988 -0.5989
  276TMC3     O 4225   3.171   1.699  14.382 -0.0616 -0.6404 -0.2797
  276TMC3     H 4226   2.845   1.844  14.530  0.0912 -1.5486  0.3020
  276TMC3    H1 4227   3.272   1.837  14.550  0.2556  2.5219 -0.1538
  276TMC3    H2 4228   3.054   1.860  14.915 -0.5147  1.6931 -0.4407
  276TMC3    C7 4229   3.287   1.866  14.811  0.2301 -0.0945 -1.1034
  276TMC3    C8 4230   2.815   1.784  14.772 -0.2122 -0.1812 -0.2130
  276TMC3    O1 4231   3.291   1.795  14.909 -0.4568 -0.5482  0.1135
  276TMC3    O2 4232   2.717   1.767  14.704  0.2828 -0.3258  0.3096
  277MPD2     C 4233   0.355   0.303  13.432  0.1932 -1.2115 -0.0487
  277MPD2    C1 4234   0.225   0.294  13.389 -0.4201  0.4794 -0.6972
  277MPD2    C2 4235   0.129   0.273  13.478  0.1377 -0.3138 -0.0119
  277MPD2    C3 4236   0.155   0.270  13.609 -0.1908 -0.5175 -0.5384
  277MPD2    C4 4237   0.283   0.278  13.653 -0.0063  1.0382 -0.2441
  277MPD2    C5 4238   0.383   0.296  13.565  0.4617 -0.4024 -0.0077
  277MPD2     H 4239   0.024   0.285  13.453  0.2734  2.5869  0.7801
  277MPD2    H1 4240   0.313   0.280  13.757  0.4065 -1.5421 -0.3139
  277MPD2    H2 4241   0.435   0.326  13.363 -0.7066  1.3948 -0.2090
  277MPD2    H3 4242   0.486   0.295  13.600 -0.4834 -1.1969  2.7158
  277MPD2     N 4243   0.047   0.270  13.700  0.2140 -0.4365  0.6054
  277MPD2    H5 4244   4.688   0.288  13.668  0.2875  0.5500  0.9268
  277MPD2    N1 4245   0.205   0.314  13.251  0.2371  0.1481 -0.0109
  277MPD2    H7 4246   0.288   0.339  13.198  0.0593 -0.5670 -0.6281
  278TMC3    C1 4247   4.679   0.264  13.913  0.1769  0.1443 -0.0547
  278TMC3    C2 4248   4.673   0.209  14.041  0.2748 -0.4001 -0.5667
  278TMC3    C3 4249   4.551   0.190  14.102 -0.4781 -0.5175 -0.3773
  278TMC3    C4 4250   4.562   0.300  13.851  0.7671 -0.0591 -0.6526
  278TMC3    C5 4251   4.439   0.287  13.919 -0.1406  0.1311 -0.1089
  278TMC3    C6 4252   4.435   0.226  14.043 -0.7184  0.5690 -0.1039
  278TMC3     C 4253   0.061   0.244  13.835  0.0470  0.9612  0.4516
  278TMC3     O 4254   0.150   0.180  13.888  0.0450 -0.2756 -0.1592
  278TMC3     H 4255   0.026   0.181  14.093 -0.8715 -1.1983  0.9610
  278TMC3    H1 4256   4.560   0.366  13.766 -1.0793  0.0809 -0.4968
  278TMC3    H2 4257   4.340   0.221  14.094 -0.7819  1.2494 -0.1533
  278TMC3    C7 4258   4.318   0.345  13.861 -0.0989  0.5066  0.2359
  278TMC3    C8 4259   4.542   0.095  14.213  0.3045 -0.1190 -0.1747
  278TMC3    O1 4260   4.338   0.417  13.759 -0.5644 -0.4937 -0.4752
  278TMC3    O2 4261   4.648   0.096  14.278  0.0230 -0.6641  0.8729
  279MPD2     C 4262   0.001   0.497  17.696  0.5154 -0.5367 -0.1413
  279MPD2    C1 4263   4.620   0.563  17.716 -0.1434 -0.2420  0.9939
  279MPD2    C2 4264   4.561   0.623  17.606  0.0455 -0.1188 -0.7461
  279MPD2    C3 4265   4.605   0.611  17.480 -0.1056  0.6784  0.0814
  279MPD2    C4 4266   4.717   0.530  17.462 -0.3513 -0.1612  0.1497
  279MPD2    C5 4267   0.052   0.484  17.568  0.3314 -0.3414  0.2442
  279MPD2     H 4268   4.467   0.673  17.624 -0.0762 -0.8919  0.7379
  279MPD2    H1 4269   0.030   0.520  17.366 -3.9135  2.2380 -1.9533
  279MPD2    H2 4270   0.050   0.461   0.041 -1.7207  1.5209  1.9186
  279MPD2    H3 4271   0.146   0.431  17.562 -0.7298 -2.4367  2.2158
  279MPD2     N 4272   4.536   0.660  17.373  0.0551 -0.1275  0.0350
  279MPD2    H5 4273   4.532   0.600  17.291 -0.5412  0.7178 -0.5532
  279MPD2    N1 4274   4.581   0.571   0.104  0.4369 -0.4291 -0.0770
  279MPD2    H7 4275   4.626   0.517   0.177  0.2252  0.0765  0.4315
  280TMC3    C1 4276   4.439   0.639   0.279  0.0682 -0.7364 -0.4997
  280TMC3    C2 4277   4.366   0.533   0.270  0.0901  0.6422  0.2991
  280TMC3    C3 4278   4.234   0.539   0.299  0.2247  0.0447  0.9526
  280TMC3    C4 4279   4.391   0.758   0.329 -0.3663  0.1029  0.1880
  280TMC3    C5 4280   4.259   0.769   0.361 -0.0322 -0.9568 -0.3745
  280TMC3    C6 4281   4.179   0.658   0.345  0.8554 -0.3494  0.4982
  280TMC3     C 4282   4.497   0.664   0.150  0.4698  0.3114  0.4186
  280TMC3     O 4283   4.456   0.769   0.096  0.0144 -0.6191 -0.4607
  280TMC3     H 4284   4.403   0.438   0.232 -1.1510  0.6292 -0.8787
  280TMC3    H1 4285   4.451   0.846   0.350  0.1941 -0.0708 -0.6535
  280TMC3    H2 4286   4.079   0.660   0.387  0.9950 -1.1209  0.8699
  280TMC3    C7 4287   4.205   0.888   0.422 -0.0986  0.5626 -0.5535
  280TMC3    C8 4288   4.147   0.421   0.315  0.7935  0.6365  0.5278
  280TMC3    O1 4289   4.272   0.964   0.492 -0.0787  0.3750  0.7680
  280TMC3    O2 4290   4.050   0.430   0.387 -0.0416  0.6475 -0.2637
  281TMC3    C1 4291   3.172   0.264  13.684  0.0699  0.7450 -0.4335
  281TMC3    C2 4292   3.255   0.345  13.611  0.0083 -0.0736  0.0589
  281TMC3    C3 4293   3.279   0.311  13.479  0.2544 -0.8571  0.7377
  281TMC3    C4 4294   3.118   0.157  13.623  0.8601  0.0951  0.1701
  281TMC3    C5 4295   3.147   0.121  13.495  0.6130 -0.0035  0.6028
  281TMC3    C6 4296   3.235   0.195  13.422 -0.3328  0.6402  0.2191
  281TMC3     C 4297   3.118   0.327  13.799 -0.2271 -0.5027 -0.3394
  281TMC3     O 4298   3.121   0.275  13.909 -0.3064 -0.7866 -0.0395
  281TMC3     H 4299   3.306   0.429  13.658 -1.0070 -0.4937  1.9206
  281TMC3    H1 4300   3.056   0.089  13.681  1.5918  0.1085  0.9633
  281TMC3    H2 4301   3.246   0.180  13.316 -0.1046 -1.3695  0.5418
  281TMC3    C7 4302   3.053   0.043  13.421 -0.1198 -0.0783  0.1582
  281TMC3    C8 4303   3.390   0.372  13.418 -1.0641 -0.4477 -0.5800
  281TMC3    O1 4304   3.099   0.011  13.312 -0.0640  0.6068  0.0576
  281TMC3    O2 4305   3.461   0.295  13.358 -0.6776  0.2526  0.1909
  282MPD2     C 4306   4.712   2.125  15.219  0.3960 -0.0229  0.0566
  282MPD2    C1 4307   4.574   2.146  15.191 -0.3713  0.1425 -0.3975
  282MPD2    C2 4308   4.535   2.136  15.065 -0.2935 -0.3121  0.3966
  282MPD2    C3 4309   4.616   2.097  14.959 -0.4720  0.6653 -0.5194
  282MPD2    C4 4310   0.008   2.051  14.992  0.4661 -0.6834  0.5177
  282MPD2    C5 4311   0.055   2.083  15.117 -0.4127  0.3247 -0.3417
  282MPD2     H 4312   4.430   2.157  15.049 -0.3760 -0.9277  0.1407
  282MPD2    H1 4313   0.070   2.014  14.911 -2.2925 -0.8908 -1.5188
  282MPD2    H2 4314   0.018   2.114  15.318  0.3545  1.6851  0.2644
  282MPD2    H3 4315   0.159   2.075  15.147 -0.5149  1.0993  0.2307
  282MPD2     N 4316   4.552   2.078  14.838  0.2496 -0.0035 -0.2027
  282MPD2    H5 4317   4.469   2.133  14.817  1.5580  1.9012 -0.3479
  282MPD2    N1 4318   4.483   2.175  15.295 -0.1757 -0.2508 -0.8781
  282MPD2    H7 4319   4.520   2.177  15.389 -2.0888 -0.9761 -0.1041
  283TMC3    C1 4320   4.298   2.188  15.422 -0.1366  0.3078 -0.2742
  283TMC3    C2 4321   4.347   2.286  15.497 -1.0194  0.0295  0.1157
  283TMC3    C3 4322   4.305   2.297  15.626  0.4090 -0.8760  0.0001
  283TMC3    C4 4323   4.219   2.091  15.471  0.1598  0.6063  0.3955
  283TMC3    C5 4324   4.186   2.098  15.602  0.5526  0.3743  0.2346
  283TMC3    C6 4325   4.220   2.202  15.683  0.0284  0.1969 -0.1691
  283TMC3     C 4326   4.350   2.166  15.286 -0.5518 -0.1264 -0.4997
  283TMC3     O 4327   4.278   2.121  15.199  0.4477 -0.3764 -0.0508
  283TMC3     H 4328   4.427   2.348  15.459 -1.1569  0.2103  0.1172
  283TMC3    H1 4329   4.180   2.025  15.394  2.1459  0.1701 -0.2471
  283TMC3    H2 4330   4.196   2.207  15.789 -2.2217 -0.1936 -0.6509
  283TMC3    C7 4331   4.102   1.990  15.661 -0.1618  0.0126 -0.0099
  283TMC3    C8 4332   4.325   2.418  15.705  0.4379 -0.1698  0.6126
  283TMC3    O1 4333   4.029   2.018  15.758  0.0338 -0.2639 -0.0480
  283TMC3    O2 4334   4.304   2.413  15.825 -0.1618 -0.6228  0.3044
  284MPD2     C 4335   2.600   1.167  11.798 -0.4055 -0.2587  0.8004
  284MPD2    C1 4336   2.704   1.186  11.717  0.1238 -0.8932 -0.3301
  284MPD2    C2 4337   2.759   1.078  11.659 -0.2429 -0.4604 -0.3637
  284MPD2    C3 4338   2.728   0.949  11.692  0.1303 -0.6053  0.3301
  284MPD2    C4 4339   2.618   0.928  11.775  0.3530 -0.7510  1.2820
  284MPD2    C5 4340   2.552   1.042  11.823 -0.6167 -1.2140 -0.2195
  284MPD2     H 4341   2.837   1.100  11.587  0.8694  2.4204  1.7396
  284MPD2    H1 4342   2.573   0.831  11.795  2.5087 -1.2845  3.5641
  284MPD2    H2 4343   2.542   1.251  11.834  0.8940  0.4569  1.2097
  284MPD2    H3 4344   2.464   1.021  11.882 -1.2880 -1.1806 -1.2106
  284MPD2     N 4345   2.782   0.832  11.628 -0.5370  0.6662  0.1432
  284MPD2    H5 4346   2.731   0.746  11.643 -1.5244  1.1433 -0.4999
  284MPD2    N1 4347   2.744   1.314  11.671 -0.7068  0.2211  0.5417
  284MPD2    H7 4348   2.801   1.319  11.587 -0.8197  1.6417  0.5493
  285TMC3    C1 4349   2.760   1.543  11.653 -0.2253  0.3137 -0.3430
  285TMC3    C2 4350   2.770   1.525  11.515 -0.1571  0.0989  0.4728
  285TMC3    C3 4351   2.846   1.608  11.443 -0.2584  0.2783 -0.4693
  285TMC3    C4 4352   2.823   1.648  11.711 -0.3288 -0.6166 -0.2487
  285TMC3    C5 4353   2.897   1.735  11.635 -0.5708  0.2457 -0.0188
  285TMC3    C6 4354   2.921   1.704  11.505  0.3630 -0.5271  0.7433
  285TMC3     C 4355   2.709   1.435  11.731  0.5164  0.3665  0.2682
  285TMC3     O 4356   2.667   1.459  11.845  0.0345 -0.1752  0.1330
  285TMC3     H 4357   2.712   1.447  11.467 -0.1278  0.5497 -0.2998
  285TMC3    H1 4358   2.804   1.679  11.814 -1.4569  1.4688 -1.0734
  285TMC3    H2 4359   2.989   1.757  11.439 -0.8654  2.4284  1.8508
  285TMC3    C7 4360   2.969   1.837  11.698 -0.3644  0.6731 -0.7502
  285TMC3    C8 4361   2.885   1.557  11.314  0.6381 -0.2430 -0.3009
  285TMC3    O1 4362   2.973   1.944  11.640 -0.4174  0.8513  0.2543
  285TMC3    O2 4363   2.866   1.439  11.297 -0.2457 -0.1169 -0.7866
  286MPD2     C 4364   3.504   0.474   1.189  0.8768 -0.0156 -0.2936
  286MPD2    C1 4365   3.417   0.446   1.079  0.3558 -0.1921 -0.2212
  286MPD2    C2 4366   3.445   0.347   0.991 -1.1078 -0.3088 -0.2480
  286MPD2    C3 4367   3.558   0.271   1.015  0.2901 -0.2821 -0.7143
  286MPD2    C4 4368   3.644   0.302   1.127  0.4908  0.3753  0.4297
  286MPD2    C5 4369   3.615   0.399   1.214 -0.0821  0.3325  0.1277
  286MPD2     H 4370   3.385   0.312   0.908 -0.7377  0.5684 -0.8895
  286MPD2    H1 4371   3.733   0.246   1.155 -0.2359 -1.4430 -0.8827
  286MPD2    H2 4372   3.499   0.556   1.259  1.8294  1.1266 -1.5543
  286MPD2    H3 4373   3.696   0.430   1.280 -0.4082 -2.1088  1.6688
  286MPD2     N 4374   3.599   0.166   0.929  0.1799 -0.1867  0.1771
  286MPD2    H5 4375   3.689   0.127   0.955  0.2703 -0.5435 -0.6646
  286MPD2    N1 4376   3.298   0.522   1.063 -0.6412 -0.3345 -0.6541
  286MPD2    H7 4377   3.242   0.503   0.981  1.3157  1.1177 -2.3134
  287TMC3    C1 4378   3.590   0.000   0.758  0.6121  1.0569  0.3357
  287TMC3    C2 4379   3.526   4.684   0.648  0.2044 -0.4321 -0.1939
  287TMC3    C3 4380   3.549   4.546   0.628  0.0606 -0.0118 -0.7843
  287TMC3    C4 4381   3.678   4.662   0.837 -0.9775  0.4809 -0.1356
  287TMC3    C5 4382   3.706   4.536   0.807 -0.1960  0.0484 -0.1060
  287TMC3    C6 4383   3.638   4.471   0.703 -0.2423  0.1229  0.7471
  287TMC3     C 4384   3.543   0.130   0.811  0.0401  0.1217 -0.5953
  287TMC3     O 4385   3.450   0.185   0.751 -0.4367 -0.1811 -0.0313
  287TMC3     H 4386   3.473   0.013   0.580  0.7149 -0.1066 -0.2752
  287TMC3    H1 4387   3.723   4.702   0.927  2.1384 -2.6365 -0.2864
  287TMC3    H2 4388   3.656   4.366   0.682 -2.7861 -0.2838  0.6161
  287TMC3    C7 4389   3.794   4.466   0.897 -0.1916 -0.2652  0.0315
  287TMC3    C8 4390   3.448   4.460   0.563  0.0102  0.6308  0.0517
  287TMC3    O1 4391   3.852   4.533   0.983 -0.3698 -0.2650  0.3889
  287TMC3    O2 4392   3.472   4.340   0.545  0.2289 -0.5304  0.2411
  288TMC3    C1 4393   0.391   4.591  14.507  0.0897  0.6792  0.2973
  288TMC3    C2 4394   0.278   4.584  14.578 -0.0469  0.1827 -0.1972
  288TMC3    C3 4395   0.183   4.678  14.554 -0.2409  0.2295  0.2171
  288TMC3    C4 4396   0.417   4.692  14.410  0.4232  0.6135 -0.1124
  288TMC3    C5 4397   0.313   0.052  14.394  0.2574  0.4151 -0.4473
  288TMC3    C6 4398   0.191   0.035  14.454  0.3143  0.6739  0.0879
  288TMC3     C 4399   0.505   4.520  14.558  0.2412  0.2495  0.8251
  288TMC3     O 4400   0.520   4.494  14.676 -0.7504 -0.8725  0.5356
  288TMC3     H 4401   0.271   4.505  14.653  1.0237  1.4033  1.1928
  288TMC3    H1 4402   0.516   4.707  14.370  0.0231  1.0497 -0.9353
  288TMC3    H2 4403   0.103   0.098  14.443  1.9084  2.7785 -0.3888
  288TMC3    C7 4404   0.330   0.150  14.285 -0.0518  0.4720 -0.2554
  288TMC3    C8 4405   0.078   4.705  14.655 -0.6037  0.0963  0.1508
  288TMC3    O1 4406   0.434   0.135  14.220  0.7103 -0.4338  0.1482
  288TMC3    O2 4407   0.016   0.075  14.654  0.2252 -0.3482 -0.9051
  289MPD2     C 4408   0.048   3.553  14.400 -0.6083 -0.1545 -0.1885
  289MPD2    C1 4409   4.736   3.652  14.476  0.1352  0.6992  0.2935
  289MPD2    C2 4410   4.600   3.663  14.502  0.9168  0.5220 -0.1712
  289MPD2    C3 4411   4.511   3.574  14.442  0.2838  0.2532  0.0370
  289MPD2    C4 4412   4.561   3.474  14.363  0.7641 -0.2139 -0.3564
  289MPD2    C5 4413   4.692   3.462  14.342 -0.2907  0.3661 -0.1199
  289MPD2     H 4414   4.570   3.751  14.559  2.3277  1.4632 -0.8735
  289MPD2    H1 4415   4.494   3.402  14.317  0.9165 -1.3977  1.3087
  289MPD2    H2 4416   0.152   3.540  14.372 -1.7197 -2.2808 -3.2022
  289MPD2    H3 4417   4.731   3.385  14.276  0.5401  0.5153  0.1907
  289MPD2     N 4418   4.366   3.582  14.456 -0.3181 -0.0025 -0.3240
  289MPD2    H5 4419   4.334   3.500  14.405 -2.5127  0.9908 -0.5246
  289MPD2    N1 4420   0.075   3.755  14.537 -0.5656  0.2548  0.3309
  289MPD2    H7 4421   0.031   3.837  14.577 -1.3346 -0.4831  1.0096
  290TMC3    C1 4422   4.155   3.683  14.478 -0.5415  0.2159 -0.2911
  290TMC3    C2 4423   4.089   3.793  14.436  0.6423 -0.2721 -0.4809
  290TMC3    C3 4424   3.967   3.771  14.372 -0.2589  0.0165 -0.0494
  290TMC3    C4 4425   4.103   3.559  14.472  0.3878  0.0603  0.5307
  290TMC3    C5 4426   3.973   3.537  14.416 -0.4001 -0.5636  0.4176
  290TMC3    C6 4427   3.906   3.647  14.360  0.1000 -0.0580  0.2026
  290TMC3     C 4428   4.297   3.693  14.490  0.0072  0.1059 -0.2712
  290TMC3     O 4429   4.340   3.804  14.531 -0.0545  0.7492  0.2896
  290TMC3     H 4430   4.133   3.891  14.425  0.4551  0.0547  1.7282
  290TMC3    H1 4431   4.157   3.477  14.516 -0.8605 -0.1872  1.5694
  290TMC3    H2 4432   3.811   3.636  14.309  0.9364 -3.5419 -0.5966
  290TMC3    C7 4433   3.907   3.409  14.390  0.7543 -0.5815 -0.1381
  290TMC3    C8 4434   3.913   3.878  14.294  0.3696 -0.9735 -0.6434
  290TMC3    O1 4435   3.783   3.411  14.372  0.0352  0.9599 -0.5497
  290TMC3    O2 4436   3.834   3.840  14.212 -0.0199 -0.5605  0.0756
  291MPD2     C 4437   4.319   4.287   0.308 -0.3715 -0.5184 -0.6692
  291MPD2    C1 4438   4.454   4.246   0.312 -0.2435 -0.0689  0.4321
  291MPD2    C2 4439   4.555   4.345   0.315 -0.2122 -0.6682 -0.8025
  291MPD2    C3 4440   4.525   4.482   0.318  0.0170  1.1520  0.3093
  291MPD2    C4 4441   4.392   4.516   0.314 -0.3106  0.7161  0.6813
  291MPD2    C5 4442   4.290   4.421   0.302 -0.3729  0.1137  0.4282
  291MPD2     H 4443   4.660   4.316   0.315  0.5576  2.1723  0.9106
  291MPD2    H1 4444   4.361   4.619   0.306 -1.7575  0.0908 -1.9987
  291MPD2    H2 4445   4.236   4.218   0.307 -0.8727  0.0397  1.9923
  291MPD2    H3 4446   4.186   4.450   0.302 -1.4181 -3.6335  0.6642
  291MPD2     N 4447   4.622   4.586   0.311  0.8284 -0.3522 -0.3189
  291MPD2    H5 4448   4.591   4.676   0.275  0.5917  0.2057  1.3040
  291MPD2    N1 4449   4.489   4.107   0.302  0.0977 -0.4677 -0.6334
  291MPD2    H7 4450   4.581   4.085   0.264  0.3297 -1.5433  0.5344
  292TMC3    C1 4451   4.465   3.875   0.283  0.4197  0.5644  0.3006
  292TMC3    C2 4452   4.588   3.859   0.340  0.2941  0.1723  0.3424
  292TMC3    C3 4453   4.667   3.751   0.304  0.6381 -0.2840  0.3241
  292TMC3    C4 4454   4.402   3.778   0.213  0.5061 -0.1231  0.0355
  292TMC3    C5 4455   4.475   3.661   0.187 -0.1019 -0.4324 -0.6126
  292TMC3    C6 4456   4.604   3.653   0.229 -0.2925 -0.3447 -0.8646
  292TMC3     C 4457   4.400   3.998   0.313  0.1167  0.0133  0.0065
  292TMC3     O 4458   4.276   4.000   0.323  0.4716  0.2071 -0.1511
  292TMC3     H 4459   4.634   3.943   0.390 -2.8859  2.3363 -0.3760
  292TMC3    H1 4460   4.300   3.797   0.184  1.0017 -0.8272 -2.1977
  292TMC3    H2 4461   4.650   3.554   0.226  1.0893  0.2438  0.5210
  292TMC3    C7 4462   4.401   3.537   0.179  0.6555  0.7645 -0.3743
  292TMC3    C8 4463   0.009   3.694   0.406  0.0236  0.6284  0.7348
  292TMC3    O1 4464   4.467   3.433   0.171 -0.5618 -0.4560 -0.0045
  292TMC3    O2 4465   0.128   3.666   0.378  0.5529 -0.2346 -0.2469
  293MPD2     C 4466   0.803   4.272  12.981  0.1395 -0.3391  0.3645
  293MPD2    C1 4467   0.804   4.408  12.935 -0.2674  0.2274 -0.0637
  293MPD2    C2 4468   0.853   4.510  13.018  0.7849  0.4901  0.0307
  293MPD2    C3 4469   0.888   4.477  13.150 -0.1140 -0.9337 -0.1521
  293MPD2    C4 4470   0.868   4.354  13.206 -0.1636  0.4604 -0.8408
  293MPD2    C5 4471   0.831   4.250  13.120  0.4197  0.3585 -0.7644
  293MPD2     H 4472   0.875   4.608  12.977 -1.4478  0.2061 -1.8832
  293MPD2    H1 4473   0.895   4.330  13.308  0.3916  2.5577 -0.4869
  293MPD2    H2 4474   0.793   4.186  12.916  2.3059  0.7935 -1.4645
  293MPD2    H3 4475   0.842   4.146  13.148  0.5068  0.1964 -1.3977
  293MPD2     N 4476   0.930   4.586  13.230 -0.2640  0.3541  0.4848
  293MPD2    H5 4477   0.957   4.673  13.185  0.4477 -0.6923 -1.1119
  293MPD2    N1 4478   0.762   4.438  12.803  0.1631  0.4296 -0.2664
  293MPD2    H7 4479   0.743   4.363  12.738 -1.3693  0.8609 -0.3373
  294TMC3    C1 4480   0.718   4.549  12.600 -0.5042 -0.0077 -0.2080
  294TMC3    C2 4481   0.608   4.474  12.582 -0.1383  0.5804  0.3383
  294TMC3    C3 4482   0.576   4.457  12.451 -0.1115 -0.7334 -0.0663
  294TMC3    C4 4483   0.788   4.622  12.514  0.2232  0.0851  0.9449
  294TMC3    C5 4484   0.747   4.610  12.377  0.4063 -0.0740 -0.1816
  294TMC3    C6 4485   0.639   4.526  12.349  0.5758 -0.2982 -0.2752
  294TMC3     C 4486   0.751   4.565  12.741 -0.0858 -0.5155 -0.0272
  294TMC3     O 4487   0.776   4.680  12.780  0.5212  0.5295 -0.0350
  294TMC3     H 4488   0.562   4.420  12.664 -0.0390  0.5216  0.3551
  294TMC3    H1 4489   0.868   4.688  12.545 -0.0300  0.4989  0.7180
  294TMC3    H2 4490   0.608   4.518  12.245 -2.2512 -0.7138  0.5882
  294TMC3    C7 4491   0.810   4.682  12.271  0.0449 -0.6581 -0.5582
  294TMC3    C8 4492   0.470   4.364  12.414  0.3291  0.4832  0.3013
  294TMC3    O1 4493   0.741   4.712  12.176 -0.4045 -0.1246 -0.4458
  294TMC3    O2 4494   0.387   4.344  12.502 -0.0143  0.6683  0.0839
  295MPD2     C 4495   2.568   4.285   1.031  0.0368  0.2973 -0.4873
  295MPD2    C1 4496   2.487   4.184   0.982  0.4163  0.6423  0.8559
  295MPD2    C2 4497   2.523   4.053   1.009  0.7196  0.0712  0.6294
  295MPD2    C3 4498   2.637   4.023   1.078  0.6833 -0.9038 -0.2809
  295MPD2    C4 4499   2.720   4.127   1.115  0.1545 -0.5377 -0.6093
  295MPD2    C5 4500   2.679   4.256   1.105 -0.6936 -0.3316 -0.1770
  295MPD2     H 4501   2.457   3.974   0.975  1.1496 -0.1721  0.3736
  295MPD2    H1 4502   2.803   4.103   1.180 -0.3941 -0.8122 -0.0048
  295MPD2    H2 4503   2.539   4.389   1.021 -2.1964 -0.2724 -0.0869
  295MPD2    H3 4504   2.749   4.330   1.141 -0.6437  0.8795 -2.7568
  295MPD2     N 4505   2.680   3.893   1.113  0.0792 -0.5202  0.3144
  295MPD2    H5 4506   2.775   3.880   1.145 -0.1813 -3.2401 -0.0313
  295MPD2    N1 4507   2.370   4.206   0.903  0.1252  0.0831 -0.0041
  295MPD2    H7 4508   2.324   4.125   0.865 -1.5479  2.1242 -2.3481
  296TMC3    C1 4509   2.673   3.658   1.149  0.2135  0.1415 -0.1086
  296TMC3    C2 4510   2.741   3.676   1.266 -0.8307 -0.1921 -0.6019
  296TMC3    C3 4511   2.753   3.561   1.347 -0.2635 -0.4454  0.2783
  296TMC3    C4 4512   2.614   3.536   1.115  0.0559  0.6557  0.5284
  296TMC3    C5 4513   2.634   3.432   1.200 -0.6232  0.1468  0.3006
  296TMC3    C6 4514   2.699   3.440   1.318  0.5416  0.1734  0.5681
  296TMC3     C 4515   2.599   3.781   1.102 -0.0267  0.0926  0.0753
  296TMC3     O 4516   2.478   3.772   1.087 -0.0744 -0.0036 -0.4210
  296TMC3     H 4517   2.772   3.776   1.294 -3.0947  0.8333 -1.7558
  296TMC3    H1 4518   2.543   3.539   1.033  1.2366  0.7033 -0.4904
  296TMC3    H2 4519   2.721   3.348   1.370  1.4948  1.1252  1.8435
  296TMC3    C7 4520   2.547   3.312   1.177  0.3466  0.2816 -0.4375
  296TMC3    C8 4521   2.851   3.559   1.453  0.1278  0.0333 -0.1034
  296TMC3    O1 4522   2.532   3.289   1.057  1.0810  0.2483  0.3906
  296TMC3    O2 4523   2.903   3.449   1.466 -0.0746  0.1050 -0.5028
  297MPD2     C 4524   3.972   1.005  16.672 -0.4814 -0.1251 -0.4068
  297MPD2    C1 4525   3.954   0.943  16.552  0.2840  0.0316  0.3045
  297MPD2    C2 4526   3.981   1.014  16.434  0.4451  0.6108 -0.1988
  297MPD2    C3 4527   4.017   1.148  16.442  0.1345 -0.3170 -0.6529
  297MPD2    C4 4528   4.049   1.201  16.567 -0.7506 -0.0647  0.1802
  297MPD2    C5 4529   4.016   1.135  16.685  0.5661  0.6788 -0.6882
  297MPD2     H 4530   3.959   0.972  16.337  1.3055 -2.4454  0.9389
  297MPD2    H1 4531   4.081   1.303  16.584  0.8412 -0.4337 -0.6657
  297MPD2    H2 4532   3.945   0.957  16.766  2.0472 -0.2427  0.2677
  297MPD2    H3 4533   4.024   1.187  16.780  3.4799  0.7173 -0.9302
  297MPD2     N 4534   4.006   1.226  16.321 -0.4965  0.4585 -0.3620
  297MPD2    H5 4535   3.971   1.180  16.238 -2.2050  2.0656 -0.5287
  297MPD2    N1 4536   3.879   0.821  16.537  0.1516  0.1450  0.1277
  297MPD2    H7 4537   3.855   0.785  16.445  3.5928 -2.2378  0.1673
  298TMC3    C1 4538   3.695   0.669  16.580  0.3716 -0.0609 -0.8700
  298TMC3    C2 4539   3.685   0.625  16.452  0.0384 -0.0219 -0.1457
  298TMC3    C3 4540   3.567   0.571  16.417  0.2268 -0.3396  0.1908
  298TMC3    C4 4541   3.582   0.690  16.659 -0.0801 -0.2760 -0.3516
  298TMC3    C5 4542   3.461   0.650  16.609 -0.6914  0.3318  0.9819
  298TMC3    C6 4543   3.457   0.593  16.491 -0.5329  0.2004  0.1971
  298TMC3     C 4544   3.811   0.749  16.636 -0.8556  0.1372  0.1796
  298TMC3     O 4545   3.813   0.772  16.755 -0.3142 -0.1677  0.0825
  298TMC3     H 4546   3.770   0.602  16.388 -0.6040  0.2491 -1.0898
  298TMC3    H1 4547   3.593   0.746  16.751  0.3145 -2.0543  0.6749
  298TMC3    H2 4548   3.382   0.516  16.478 -0.4780 -0.1789  2.1327
  298TMC3    C7 4549   3.370   0.767  16.630 -0.2580  0.5562  0.7427
  298TMC3    C8 4550   3.540   0.604  16.278  0.7292 -0.4951  0.6044
  298TMC3    O1 4551   3.387   0.847  16.719  0.0147  0.3235  0.1653
  298TMC3    O2 4552   3.627   0.667  16.220  0.3673 -0.1213  0.2686
  299MPD2     C 4553   4.391   0.462   9.754  0.2005  0.1849  0.3381
  299MPD2    C1 4554   4.346   0.470   9.887  0.6908  0.4216  0.1557
  299MPD2    C2 4555   4.211   0.495   9.909  0.1486  0.0858 -0.2493
  299MPD2    C3 4556   4.113   0.489   9.812 -0.0800 -0.2402 -0.5897
  299MPD2    C4 4557   4.160   0.482   9.681  0.0027  0.4640 -0.2719
  299MPD2    C5 4558   4.294   0.483   9.653  0.4970  0.1081  0.0279
  299MPD2     H 4559   4.176   0.520  10.009  0.3230  2.2619 -0.7169
  299MPD2    H1 4560   4.097   0.514   9.599 -1.1090  2.1009  1.2112
  299MPD2    H2 4561   4.496   0.460   9.726  0.2078  2.0403  0.2629
  299MPD2    H3 4562   4.319   0.494   9.548  0.6890 -0.3484  0.0256
  299MPD2     N 4563   3.973   0.500   9.827 -0.6272  0.3777  0.2461
  299MPD2    H5 4564   3.913   0.471   9.750  0.4091 -0.2163 -0.3361
  299MPD2    N1 4565   4.436   0.463   9.995  0.0539  0.1328 -0.4331
  299MPD2    H7 4566   4.533   0.448   9.968 -0.0983  1.4262 -1.7187
  300TMC3    C1 4567   3.771   0.586   9.899  0.3987 -0.0858  0.1352
  300TMC3    C2 4568   3.735   0.616   9.777 -0.5314 -0.4080 -0.7796
  300TMC3    C3 4569   3.645   0.714   9.745 -0.4437  0.4664 -0.0819
  300TMC3    C4 4570   3.709   0.656   9.999 -0.0845  0.4471  0.0420
  300TMC3    C5 4571   3.597   0.730   9.973 -0.2470 -0.3313 -0.1992
  300TMC3    C6 4572   3.566   0.760   9.851 -0.1357 -0.9976  0.5737
  300TMC3     C 4573   3.909   0.558   9.930 -0.5759 -0.1709 -0.5222
  300TMC3     O 4574   3.962   0.599  10.032 -0.3129  0.0092  0.4218
  300TMC3     H 4575   3.781   0.563   9.694  3.3163  1.1986  0.3429
  300TMC3    H1 4576   3.743   0.654  10.102  0.9780  0.7526 -0.3060
  300TMC3    H2 4577   3.483   0.824   9.826 -0.1015  0.6386  4.6638
  300TMC3    C7 4578   3.595   0.857  10.045  0.3845  0.0081  0.0022
  300TMC3    C8 4579   3.712   0.814   9.667 -0.6247  0.8077 -0.4184
  300TMC3    O1 4580   3.692   0.929  10.039  0.5066  0.0504 -0.0153
  300TMC3    O2 4581   3.741   0.774   9.554 -1.2740  0.1868 -0.6373
  301MPD2     C 4582   1.700   1.734   1.553  0.0096  0.2924  0.4905
  301MPD2    C1 4583   1.653   1.780   1.431 -0.4828  0.1680  1.2797
  301MPD2    C2 4584   1.687   1.717   1.315  0.0435  0.0763  0.0559
  301MPD2    C3 4585   1.773   1.607   1.317 -0.3672  0.5092 -0.0130
  301MPD2    C4 4586   1.803   1.555   1.444 -0.4331  0.2201  0.0356
  301MPD2    C5 4587   1.771   1.617   1.558 -0.1836  0.2950 -0.6724
  301MPD2     H 4588   1.639   1.755   1.226 -1.0414  0.0463  0.6311
  301MPD2    H1 4589   1.863   1.466   1.462 -1.6097 -0.5520  0.0963
  301MPD2    H2 4590   1.663   1.779   1.644  0.6343 -0.3924  1.0834
  301MPD2    H3 4591   1.804   1.578   1.654  0.1152 -0.9566 -1.2817
  301MPD2     N 4592   1.798   1.526   1.205 -0.3862  0.4854 -0.6490
  301MPD2    H5 4593   1.848   1.439   1.220  0.5055  1.2770  0.9794
  301MPD2    N1 4594   1.555   1.882   1.417  0.1994  0.3902  0.0706
  301MPD2    H7 4595   1.535   1.898   1.319  0.2065 -1.3342 -0.2151
  302TMC3    C1 4596   1.790   1.434   0.991  0.1062 -0.1931  0.1290
  302TMC3    C2 4597   1.782   1.307   1.046 -0.3947  0.5221 -0.3980
  302TMC3    C3 4598   1.775   1.202   0.962  0.5204  0.4111  0.1735
  302TMC3    C4 4599   1.795   1.454   0.861  0.3035 -0.6646 -0.1877
  302TMC3    C5 4600   1.803   1.345   0.780 -0.2544 -0.3213  0.7254
  302TMC3    C6 4601   1.789   1.222   0.830 -0.5376 -0.2566 -0.2061
  302TMC3     C 4602   1.765   1.550   1.077  0.4218  0.1573  0.8124
  302TMC3     O 4603   1.716   1.649   1.024 -0.3547 -0.5186 -0.0267
  302TMC3     H 4604   1.759   1.299   1.151 -2.0333  2.9727 -0.5694
  302TMC3    H1 4605   1.780   1.551   0.816 -1.8057 -0.1046  1.7058
  302TMC3    H2 4606   1.788   1.138   0.762  0.5197  1.0162 -1.7773
  302TMC3    C7 4607   1.775   1.344   0.640  0.1063 -0.0179  0.3992
  302TMC3    C8 4608   1.803   1.072   1.016  0.4580  0.1252  0.9962
  302TMC3    O1 4609   1.851   1.286   0.565  1.0563  0.1868 -0.2039
  302TMC3    O2 4610   1.871   1.081   1.117 -0.2154 -0.3429 -0.7751
  303MPD2     C 4611   1.515   4.355  10.766 -0.3314  0.0457 -0.1035
  303MPD2    C1 4612   1.617   4.274  10.723  0.2374 -0.4593  0.1086
  303MPD2    C2 4613   1.716   4.317  10.637 -0.0723 -0.0579  0.1496
  303MPD2    C3 4614   1.708   4.449  10.586 -0.1104  0.6279 -0.2569
  303MPD2    C4 4615   1.617   4.531  10.644  0.4335 -0.0026 -0.3349
  303MPD2    C5 4616   1.533   4.484  10.737 -0.3523 -0.8257 -0.2174
  303MPD2     H 4617   1.798   4.254  10.607 -0.3330 -0.3187 -0.0210
  303MPD2    H1 4618   1.618   4.639  10.640  1.6483 -0.0454 -1.0842
  303MPD2    H2 4619   1.433   4.326  10.830 -0.5605 -0.9188 -0.8426
  303MPD2    H3 4620   1.470   4.560  10.784 -0.7021  0.2760 -2.4365
  303MPD2     N 4621   1.785   4.498  10.478  0.1870 -0.5649 -0.4609
  303MPD2    H5 4622   1.754   4.586  10.437  3.8292 -0.0415 -2.1252
  303MPD2    N1 4623   1.609   4.140  10.766 -0.6648 -0.5074  0.7635
  303MPD2    H7 4624   1.533   4.109  10.826  0.5362 -1.6435  1.7094
  304TMC3    C1 4625   1.637   3.907  10.749  0.3411  0.1516  0.0256
  304TMC3    C2 4626   1.497   3.892  10.764 -0.0074  0.0617  0.0671
  304TMC3    C3 4627   1.458   3.768  10.730  0.2793 -0.4189 -1.0595
  304TMC3    C4 4628   1.715   3.799  10.717 -0.2555  0.2565 -0.1649
  304TMC3    C5 4629   1.660   3.672  10.696 -0.5415  0.0023 -0.3091
  304TMC3    C6 4630   1.529   3.652  10.721 -0.1546  0.2402  0.8439
  304TMC3     C 4631   1.689   4.036  10.714  0.3983  0.0884 -0.0256
  304TMC3     O 4632   1.792   4.034  10.655  0.3337  0.3468  0.5812
  304TMC3     H 4633   1.431   3.977  10.771 -0.8092 -0.5977  0.4431
  304TMC3    H1 4634   1.820   3.817  10.697  0.1789 -0.7861  1.1557
  304TMC3    H2 4635   1.481   3.559  10.692 -0.7045  1.5136 -2.3014
  304TMC3    C7 4636   1.716   3.584  10.589  0.5718  0.7141  0.9165
  304TMC3    C8 4637   1.348   3.762  10.642 -0.2968  0.1509 -0.3697
  304TMC3    O1 4638   1.627   3.534  10.527  0.0186 -0.4552 -0.2090
  304TMC3    O2 4639   1.269   3.856  10.656 -0.0479 -0.0298  0.7228
  305MPD2     C 4640   0.025   2.334  13.730 -0.3137  0.4541 -0.0500
  305MPD2    C1 4641   0.026   2.202  13.766 -0.2428  0.6856 -0.0139
  305MPD2    C2 4642   0.063   2.113  13.670 -0.1311  0.0639 -0.6983
  305MPD2    C3 4643   0.109   2.158  13.546 -0.4746  0.8954 -1.3397
  305MPD2    C4 4644   0.123   2.291  13.519 -0.5906  0.3930 -0.6085
  305MPD2    C5 4645   0.071   2.374  13.604  0.4294 -0.3591  0.6824
  305MPD2     H 4646   0.060   2.009  13.698  2.7428  0.4541  1.0410
  305MPD2    H1 4647   0.163   2.322  13.423  3.4535  1.7646  1.5148
  305MPD2    H2 4648   0.004   2.407  13.807 -0.1560  2.0791 -1.5579
  305MPD2    H3 4649   0.073   2.477  13.570 -1.2474 -0.8298 -0.8376
  305MPD2     N 4650   0.166   2.075  13.446 -0.0856 -0.0729 -0.1034
  305MPD2    H5 4651   0.212   2.132  13.376 -0.5480  1.0554  0.5043
  305MPD2    N1 4652   4.728   2.172  13.899 -0.6882 -0.5196  0.1824
  305MPD2    H7 4653   4.706   2.251  13.958  0.2928  0.0937 -0.2663
  306TMC3    C1 4654   4.695   2.058  14.091 -0.7697 -0.2215  0.2858
  306TMC3    C2 4655   0.006   1.936  14.143 -0.2248 -0.1125  0.0231
  306TMC3    C3 4656   0.075   1.935  14.261  0.3348  0.4616  0.2700
  306TMC3    C4 4657   4.729   2.178  14.152  0.4922  0.1560 -0.5368
  306TMC3    C5 4658   0.051   2.169  14.277  0.6514 -0.0291 -0.5689
  306TMC3    C6 4659   0.102   2.050  14.328 -0.1270  0.7828  0.3893
  306TMC3     C 4660   4.696   2.051  13.955  0.0898  0.1122  0.9043
  306TMC3     O 4661   4.676   1.945  13.897 -0.2938  0.9781 -0.0680
  306TMC3     H 4662   4.700   1.846  14.100 -1.9552  0.6762  0.1006
  306TMC3    H1 4663   4.680   2.267  14.115 -0.9649  0.3039  1.7526
  306TMC3    H2 4664   0.155   2.041  14.422  3.0701 -0.3660 -1.5257
  306TMC3    C7 4665   0.004   2.274  14.376  0.8697 -0.1491 -0.6126
  306TMC3    C8 4666   0.169   1.827  14.270 -0.1713  0.5341  0.0154
  306TMC3    O1 4667   4.653   2.345  14.324  0.3939 -0.1935 -0.0074
  306TMC3    O2 4668   0.192   1.768  14.165  0.4826  0.0833  0.0716
  307MPD2     C 4669   2.857   0.419   0.322  0.3749 -0.4513  0.1399
  307MPD2    C1 4670   2.804   0.543   0.317 -0.8220  0.2754 -0.3540
  307MPD2    C2 4671   2.730   0.588   0.423 -0.4604  0.2094 -0.0664
  307MPD2    C3 4672   2.702   0.514   0.532 -0.0648 -0.0183  0.4311
  307MPD2    C4 4673   2.755   0.388   0.533  0.3094 -0.6454  0.1664
  307MPD2    C5 4674   2.822   0.340   0.428  0.4507  0.7615  0.6293
  307MPD2     H 4675   2.689   0.689   0.419  0.3768  0.5720  0.5323
  307MPD2    H1 4676   2.733   0.331   0.622  2.0626  0.6515  1.4151
  307MPD2    H2 4677   2.923   0.378   0.247  0.1099  1.6600 -1.2243
  307MPD2    H3 4678   2.856   0.237   0.433 -1.2228  0.1372 -0.7144
  307MPD2     N 4679   2.593   0.553   0.611 -0.3051  0.6566  0.1921
  307MPD2    H5 4680   2.570   0.652   0.615  2.0391  1.2119  0.3631
  307MPD2    N1 4681   2.848   0.637   0.220  0.2625  0.5215 -0.2656
  307MPD2    H7 4682   2.823   0.734   0.236 -0.2785  0.5539 -1.3012
  308TMC3    C1 4683   2.148   0.501   0.767  0.0453 -0.2912 -0.6678
  308TMC3    C2 4684   2.146   0.628   0.816  0.0753 -0.4863 -0.9535
  308TMC3    C3 4685   2.268   0.696   0.820 -0.3369 -0.4006 -0.6064
  308TMC3    C4 4686   2.270   0.436   0.735 -0.2787  0.0710 -0.1324
  308TMC3    C5 4687   2.384   0.516   0.728  0.3062  0.4938 -0.2502
  308TMC3    C6 4688   2.381   0.648   0.769 -0.0240  0.1712  0.4611
  308TMC3     C 4689   2.031   0.454   0.703  0.0172  0.8426  0.6368
  308TMC3     O 4690   1.989   0.342   0.734  0.1591 -0.2023  0.3024
  308TMC3     H 4691   2.053   0.679   0.838  0.1194 -1.4838  1.5808
  308TMC3    H1 4692   2.275   0.336   0.693 -1.3372  0.9262 -2.2913
  308TMC3    H2 4693   2.472   0.707   0.778 -0.3289  0.9121 -1.3405
  308TMC3    C7 4694   2.507   0.460   0.667  0.2017  1.1680 -0.4204
  308TMC3    C8 4695   2.252   0.821   0.884 -0.1410  0.6119 -0.3074
  308TMC3    O1 4696   2.508   0.339   0.648 -0.1663  0.0439  0.0622
  308TMC3    O2 4697   2.205   0.816   0.995 -0.0728  0.3043 -0.5204
  309MPD2     C 4698   1.650   1.244  17.388 -0.7437  0.1991 -0.2454
  309MPD2    C1 4699   1.647   1.241  17.252  0.6955 -0.0597  0.0107
  309MPD2    C2 4700   1.525   1.226  17.182 -0.1203 -0.4277 -0.0572
  309MPD2    C3 4701   1.408   1.207  17.254 -0.8734 -0.4167  0.7512
  309MPD2    C4 4702   1.413   1.212  17.391 -0.2471 -0.0815 -0.3599
  309MPD2    C5 4703   1.530   1.232  17.454  0.3868  0.1475  0.1472
  309MPD2     H 4704   1.523   1.230  17.073  0.1444 -0.9135 -0.0781
  309MPD2    H1 4705   1.316   1.216  17.440 -0.1753  1.1663 -0.3237
  309MPD2    H2 4706   1.740   1.269  17.442 -1.2234 -1.1941  1.1902
  309MPD2    H3 4707   1.534   1.235  17.562 -0.3785 -0.7435  0.2046
  309MPD2     N 4708   1.284   1.184  17.186 -0.0401  0.1043  0.1586
  309MPD2    H5 4709   1.205   1.191  17.248  1.2971  0.2807  1.8508
  309MPD2    N1 4710   1.754   1.261  17.165 -0.2865  0.9730 -0.4207
  309MPD2    H7 4711   1.728   1.270  17.068 -0.5604 -2.0141 -0.6151
  310TMC3    C1 4712   1.971   1.311  17.086 -0.0674  0.2104  0.3190
  310TMC3    C2 4713   1.906   1.358  16.970  0.5338 -0.0729 -0.5384
  310TMC3    C3 4714   1.972   1.349  16.855 -0.9905  0.2858  0.2299
  310TMC3    C4 4715   2.104   1.263  17.079 -0.4193 -0.3315 -0.0883
  310TMC3    C5 4716   2.168   1.266  16.959  0.6732 -0.5709 -1.6028
  310TMC3    C6 4717   2.100   1.301  16.841  0.1434  1.2960  0.4793
  310TMC3     C 4718   1.887   1.284  17.202 -0.6402  0.1181 -0.3957
  310TMC3     O 4719   1.937   1.268  17.313 -0.0965 -0.4032 -0.0843
  310TMC3     H 4720   1.814   1.413  16.983  1.6003  1.3213  1.0565
  310TMC3    H1 4721   2.156   1.217  17.162  0.9791 -0.2584 -0.9209
  310TMC3    H2 4722   2.149   1.296  16.744 -0.4644  1.0099  0.1822
  310TMC3    C7 4723   2.280   1.178  16.947  0.1148  0.0783 -0.6620
  310TMC3    C8 4724   1.898   1.401  16.738  0.0299 -0.7171  0.1701
  310TMC3    O1 4725   2.270   1.117  16.843  0.1900 -0.3149 -0.1688
  310TMC3    O2 4726   1.775   1.401  16.754 -0.7429  0.3146  0.4899
  311MPD2     C 4727   3.250   2.380  12.337 -0.3880  0.9787 -0.0090
  311MPD2    C1 4728   3.354   2.365  12.424 -0.8225  0.3631 -0.3279
  311MPD2    C2 4729   3.361   2.262  12.516  0.0841  0.2651  0.1323
  311MPD2    C3 4730   3.262   2.159  12.516  0.1418 -0.5620 -0.2851
  311MPD2    C4 4731   3.160   2.175  12.430 -0.2752 -0.0760 -1.0068
  311MPD2    C5 4732   3.150   2.280  12.345 -0.1674  0.4026  0.2797
  311MPD2     H 4733   3.449   2.252  12.578  0.2391  0.4472 -0.0571
  311MPD2    H1 4734   3.074   2.110  12.441 -0.0494 -0.0648  0.9227
  311MPD2    H2 4735   3.236   2.458  12.262  0.4354  0.5548 -0.6070
  311MPD2    H3 4736   3.065   2.292  12.278 -0.0338  0.6561  0.1562
  311MPD2     N 4737   3.294   2.042  12.586  0.7412  0.1326 -0.1548
  311MPD2    H5 4738   3.372   2.042  12.651  0.0359  0.4659  0.6921
  311MPD2    N1 4739   3.476   2.448  12.418 -0.7233  0.1963  0.4174
  311MPD2    H7 4740   3.556   2.421  12.475 -1.4216 -0.1733  1.2101
  312TMC3    C1 4741   3.251   1.853  12.724 -0.2200 -0.3421  0.1786
  312TMC3    C2 4742   3.168   1.744  12.761  0.0861  0.6427  0.2779
  312TMC3    C3 4743   3.176   1.695  12.889  0.3876  0.3505  0.7184
  312TMC3    C4 4744   3.344   1.898  12.816 -0.1818 -0.2278 -0.4869
  312TMC3    C5 4745   3.344   1.838  12.940 -0.6628  0.5091  0.2286
  312TMC3    C6 4746   3.262   1.737  12.981 -0.0879 -0.0116 -0.0596
  312TMC3     C 4747   3.218   1.926  12.597 -0.4068 -0.6893 -0.0754
  312TMC3     O 4748   3.113   1.886  12.543 -0.1463 -0.4973 -0.0339
  312TMC3     H 4749   3.106   1.693  12.689  1.1670  2.5623 -2.0103
  312TMC3    H1 4750   3.418   1.974  12.795  0.4652 -0.5820  0.4908
  312TMC3    H2 4751   3.285   1.675  13.066  0.0216 -0.6868 -0.5814
  312TMC3    C7 4752   3.481   1.845  12.996 -0.6356  0.0384  0.0654
  312TMC3    C8 4753   3.101   1.579  12.920 -0.2794 -1.0666  0.3584
  312TMC3    O1 4754   3.568   1.849  12.911  0.0489 -0.0565  0.6186
  312TMC3    O2 4755   3.058   1.505  12.831  0.4878 -0.5053 -0.2304
  313MPD2     C 4756   2.598   1.638  11.101  0.5619  0.3623  0.5049
  313MPD2    C1 4757   2.637   1.609  10.974  0.5070 -0.1481 -0.6472
  313MPD2    C2 4758   2.619   1.481  10.930 -0.0852  0.0594 -0.3533
  313MPD2    C3 4759   2.570   1.380  11.010  0.7736 -0.0857  0.4420
  313MPD2    C4 4760   2.532   1.412  11.141 -0.0260  0.3538  0.0809
  313MPD2    C5 4761   2.546   1.538  11.183 -0.3747  0.3030  0.6597
  313MPD2     H 4762   2.638   1.464  10.824  3.0518  3.3694 -0.3238
  313MPD2    H1 4763   2.492   1.343  11.214  2.6843  0.6304  1.8623
  313MPD2    H2 4764   2.602   1.741  11.136  2.8893  0.4614 -0.0682
  313MPD2    H3 4765   2.519   1.570  11.283  0.7966 -0.1164  1.1137
  313MPD2     N 4766   2.558   1.250  10.945  1.3427 -0.0394 -0.8670
  313MPD2    H5 4767   2.589   1.248  10.848 -1.1067  0.5935 -1.6813
  313MPD2    N1 4768   2.699   1.707  10.891 -0.6052  0.4018 -0.2635
  313MPD2    H7 4769   2.724   1.670  10.800 -0.0925  2.5010 -0.9800
  314TMC3    C1 4770   2.778   1.906  10.792 -0.8438 -0.3624  0.0333
  314TMC3    C2 4771   2.894   1.970  10.812  0.2397  0.5364  0.4300
  314TMC3    C3 4772   2.991   1.944  10.719  0.0547  0.7033  0.4896
  314TMC3    C4 4773   2.743   1.848  10.673 -0.1061 -0.2405 -0.2095
  314TMC3    C5 4774   2.840   1.818  10.587  0.4151  0.7628  0.0481
  314TMC3    C6 4775   2.969   1.866  10.611 -0.2475  0.6156  0.3354
  314TMC3     C 4776   2.721   1.843  10.911  0.2783 -0.0207 -0.4890
  314TMC3     O 4777   2.722   1.901  11.018 -0.0312 -0.1932 -0.3118
  314TMC3     H 4778   2.906   2.034  10.899  1.1373  1.0886 -0.1079
  314TMC3    H1 4779   2.642   1.818  10.649 -0.4746  0.7450  0.0941
  314TMC3    H2 4780   3.045   1.828  10.545  0.6540 -0.7199  2.1547
  314TMC3    C7 4781   2.831   1.679  10.550 -0.0852  0.1696 -0.7442
  314TMC3    C8 4782   3.127   2.002  10.732 -0.2240  0.2672  0.0244
  314TMC3    O1 4783   2.748   1.626  10.621 -0.5686  0.4406 -0.1607
  314TMC3    O2 4784   3.199   2.003  10.630 -0.4491  0.2971 -0.2905
  315MPD2     C 4785   3.325   0.446  17.646 -0.5551 -0.3602  0.1986
  315MPD2    C1 4786   3.400   0.479   0.009  0.0354  0.6297 -0.0887
  315MPD2    C2 4787   3.427   0.611   0.037  0.2768 -0.4211  0.1363
  315MPD2    C3 4788   3.381   0.706  17.695 -0.5260 -0.3613  0.4044
  315MPD2    C4 4789   3.311   0.668  17.585  0.0828 -0.9235  0.0654
  315MPD2    C5 4790   3.285   0.540  17.560 -0.2924  0.0790  0.1223
  315MPD2     H 4791   3.473   0.647   0.128 -1.7250 -1.6459  1.6459
  315MPD2    H1 4792   3.303   0.741  17.505  0.4717  1.3525  2.1137
  315MPD2    H2 4793   3.307   0.345  17.611 -2.4728  0.3284 -0.8070
  315MPD2    H3 4794   3.240   0.511  17.466  0.3845 -1.4799  0.2846
  315MPD2     N 4795   3.411   0.841  17.720  0.1823  0.6091  0.0276
  315MPD2    H5 4796   3.482   0.856   0.046  1.0375 -1.4586 -0.3914
  315MPD2    N1 4797   3.454   0.387   0.096  1.0081 -0.2029 -0.2067
  315MPD2    H7 4798   3.503   0.426   0.175 -0.9101  0.5899  0.6069
  316TMC3    C1 4799   3.416   1.074  17.725 -0.5829  0.0212  0.3550
  316TMC3    C2 4800   3.459   1.075   0.112 -0.1367 -0.0780  0.0063
  316TMC3    C3 4801   3.471   1.193   0.170 -0.1796  0.2573 -0.6358
  316TMC3    C4 4802   3.390   1.187  17.657  0.1921 -0.1158 -0.1121
  316TMC3    C5 4803   3.388   1.307  17.724  0.2728  0.2760 -0.4853
  316TMC3    C6 4804   3.433   1.307   0.108  0.2430  0.0960 -0.0080
  316TMC3     C 4805   3.364   0.955  17.662 -0.1389 -0.2456  0.5137
  316TMC3     O 4806   3.281   0.967  17.573 -0.1997 -0.1176 -0.5403
  316TMC3     H 4807   3.474   0.984   0.169 -0.4421  0.3801  0.8272
  316TMC3    H1 4808   3.360   1.183  17.553 -0.1980  2.7760 -0.1171
  316TMC3    H2 4809   3.432   1.405   0.152  1.4228  0.1351 -0.0808
  316TMC3    C7 4810   3.368   1.435  17.664  0.1104 -0.4621 -0.5108
  316TMC3    C8 4811   3.563   1.211   0.279 -0.1904  0.0651 -0.8246
  316TMC3    O1 4812   3.385   1.536  17.729  0.2706  0.1579  0.0017
  316TMC3    O2 4813   3.530   1.284   0.373 -0.3690  0.5761  0.3622
  317MPD2     C 4814   0.207   3.865  12.840 -0.2958 -0.0291 -0.8900
  317MPD2    C1 4815   0.269   3.743  12.816 -0.3030 -0.4598  0.0046
  317MPD2    C2 4816   0.316   3.673  12.924 -1.0170  0.1994 -0.2043
  317MPD2    C3 4817   0.316   3.719  13.054  0.2535  0.7968  0.5601
  317MPD2    C4 4818   0.241   3.838  13.073 -0.0079 -0.0886  0.3364
  317MPD2    C5 4819   0.189   3.902  12.969  0.1854  0.2585 -0.1590
  317MPD2     H 4820   0.371   3.582  12.901 -2.2348 -0.5821 -0.0296
  317MPD2    H1 4821   0.233   3.887  13.169 -1.1578  0.9771 -0.3043
  317MPD2    H2 4822   0.156   3.922  12.763 -3.5940 -0.0396  1.2713
  317MPD2    H3 4823   0.150   4.001  12.988 -0.2903  0.3690 -1.7315
  317MPD2     N 4824   0.365   3.629  13.150  0.0900 -0.1120  0.4188
  317MPD2    H5 4825   0.408   3.540  13.127  0.9177 -0.0267  1.6343
  317MPD2    N1 4826   0.293   3.691  12.679 -0.5087 -0.2092  0.6944
  317MPD2    H7 4827   0.318   3.593  12.673  0.9493  0.2237 -0.3283
  318TMC3    C1 4828   0.427   3.555  13.358 -0.3275  1.0251  0.1282
  318TMC3    C2 4829   0.355   3.442  13.336  0.0864  0.2968  0.2963
  318TMC3    C3 4830   0.374   3.345  13.430  0.3734 -0.2060 -0.1160
  318TMC3    C4 4831   0.498   3.586  13.469  0.0102  0.1666 -0.6859
  318TMC3    C5 4832   0.513   3.483  13.553  0.0706 -0.0021  0.2142
  318TMC3    C6 4833   0.457   3.364  13.538  0.8671 -0.1735 -1.1909
  318TMC3     C 4834   0.400   3.668  13.276 -0.1136 -0.3387 -0.2595
  318TMC3     O 4835   0.392   3.780  13.325  0.5606  0.5825 -0.1549
  318TMC3     H 4836   0.312   3.412  13.242 -1.3978  2.7808  0.1891
  318TMC3    H1 4837   0.560   3.674  13.480 -2.8713  2.1241 -0.1815
  318TMC3    H2 4838   0.448   3.289  13.616  1.8875 -0.4855 -1.3680
  318TMC3    C7 4839   0.592   3.517  13.671  0.3232  0.2581  0.6045
  318TMC3    C8 4840   0.292   3.231  13.424 -0.5072  0.6008  0.2451
  318TMC3    O1 4841   0.629   3.635  13.684  0.8398 -0.4462  0.7388
  318TMC3    O2 4842   0.336   3.137  13.488  0.0845 -0.2301  0.0325
  319MPD2     C 4843   1.121   0.721  16.608 -0.5194  0.0298  0.2745
  319MPD2    C1 4844   1.113   0.600  16.673  0.6522  0.0621 -0.2896
  319MPD2    C2 4845   1.029   0.498  16.632  1.0830 -0.2833  0.0270
  319MPD2    C3 4846   0.958   0.518  16.516 -0.0211  0.2626 -0.0576
  319MPD2    C4 4847   0.973   0.631  16.445  0.0123 -0.3068 -0.1980
  319MPD2    C5 4848   1.048   0.737  16.493 -0.5128  0.0218 -0.4271
  319MPD2     H 4849   1.013   0.411  16.694 -0.0350 -0.4172 -0.4492
  319MPD2    H1 4850   0.925   0.641  16.348 -0.2132 -2.6133 -0.3438
  319MPD2    H2 4851   1.182   0.807  16.634 -0.4421  0.7802 -2.3935
  319MPD2    H3 4852   1.035   0.838  16.456 -0.6663 -0.1904 -0.9532
  319MPD2     N 4853   0.866   0.424  16.458 -0.0369 -0.8562 -0.3629
  319MPD2    H5 4854   0.821   0.448  16.371 -1.9134  0.3851  0.9562
  319MPD2    N1 4855   1.201   0.561  16.784 -0.2194 -0.3223 -0.3263
  319MPD2    H7 4856   1.183   0.471  16.826  2.8832 -1.5561 -1.6524
  320TMC3    C1 4857   0.739   0.224  16.421 -0.4441 -0.2223 -0.7201
  320TMC3    C2 4858   0.653   0.299  16.353 -0.1274  0.0360 -0.0266
  320TMC3    C3 4859   0.552   0.234  16.291 -0.0987 -0.1339 -0.1811
  320TMC3    C4 4860   0.741   0.087  16.437 -0.1921  0.2963 -0.6785
  320TMC3    C5 4861   0.631   0.034  16.374 -0.2717 -0.3005  0.8312
  320TMC3    C6 4862   0.535   0.093  16.294  0.1371  0.4465 -0.1379
  320TMC3     C 4863   0.843   0.295  16.498  0.0282  0.0032 -0.2453
  320TMC3     O 4864   0.916   0.236  16.578  0.4029 -0.4871 -0.3453
  320TMC3     H 4865   0.657   0.407  16.345  2.0916 -0.2896 -3.3836
  320TMC3    H1 4866   0.829   0.034  16.472  0.5998  1.8488 -0.3205
  320TMC3    H2 4867   0.455   0.041  16.243 -0.1437 -0.6441  1.4306
  320TMC3    C7 4868   0.621   4.629  16.384  0.4536  0.2158  0.5583
  320TMC3    C8 4869   0.482   0.318  16.207 -0.5978 -0.0188 -0.2037
  320TMC3    O1 4870   0.571   4.572  16.284 -0.1671 -0.2604  0.0334
  320TMC3    O2 4871   0.476   0.436  16.238 -0.3030  0.0835 -0.3016
  321TMC3    C1 4872   1.404   0.559  16.904 -0.3546  0.0713 -0.4008
  321TMC3    C2 4873   1.383   0.422  16.910 -0.1123 -0.2438  0.2919
  321TMC3    C3 4874   1.487   0.335  16.927  0.0989  0.3948  0.4043
  321TMC3    C4 4875   1.524   0.616  16.922  0.4393  0.1584  0.4393
  321TMC3    C5 4876   1.627   0.535  16.936 -0.1494 -0.7157  0.4039
  321TMC3    C6 4877   1.609   0.400  16.930 -0.1927 -0.1285 -0.2783
  321TMC3     C 4878   1.302   0.637  16.832  0.7662 -0.5227  0.4779
  321TMC3     O 4879   1.333   0.751  16.804 -0.2368  0.2864 -0.2992
  321TMC3     H 4880   1.285   0.375  16.916 -0.7064  0.9917  0.4405
  321TMC3    H1 4881   1.545   0.722  16.915  1.2034 -0.0625 -0.7192
  321TMC3    H2 4882   1.701   0.341  16.932  0.2715  0.5928 -0.3781
  321TMC3    C7 4883   1.732   0.573  17.032  0.7631 -0.3739 -0.2668
  321TMC3    C8 4884   1.469   0.247  17.038 -0.0300  0.2171  0.1929
  321TMC3    O1 4885   1.765   0.474  17.094 -0.1715  0.2254 -0.1124
  321TMC3    O2 4886   1.359   0.188  17.051 -0.1613  0.4284 -0.0401
  322MPD2     C 4887   4.372   1.333  13.407 -0.4704 -0.2348  0.2757
  322MPD2    C1 4888   4.423   1.275  13.519 -0.0212 -0.2131 -0.1335
  322MPD2    C2 4889   4.471   1.148  13.511 -0.6817  0.8472  0.5827
  322MPD2    C3 4890   4.469   1.078  13.392  0.4667 -1.2040 -0.3637
  322MPD2    C4 4891   4.411   1.127  13.283 -0.5306  1.0410 -1.3997
  322MPD2    C5 4892   4.357   1.255  13.292  0.6100  0.3122 -0.3927
  322MPD2     H 4893   4.528   1.106  13.593 -1.1327 -0.3433  0.2841
  322MPD2    H1 4894   4.409   1.077  13.186  2.1965 -0.2357 -0.8067
  322MPD2    H2 4895   4.342   1.436  13.389 -2.2622 -0.6260  1.0006
  322MPD2    H3 4896   4.328   1.298  13.196 -0.1134 -0.8985 -0.7223
  322MPD2     N 4897   4.527   0.951  13.401 -0.0117  0.0682  0.2952
  322MPD2    H5 4898   4.577   0.932  13.488 -0.0169  1.4173  0.5813
  322MPD2    N1 4899   4.438   1.358  13.631 -0.3142  0.3127  0.8182
  322MPD2    H7 4900   4.429   1.456  13.605 -1.7104 -0.3001 -1.0119
  323TMC3    C1 4901   4.536   1.430  13.829  0.6790  0.1530  0.2387
  323TMC3    C2 4902   4.626   1.513  13.760 -0.4881 -0.1208 -0.1415
  323TMC3    C3 4903   4.707   1.594  13.831  0.2720 -0.4011  0.2705
  323TMC3    C4 4904   4.541   1.419  13.964 -0.3658 -0.5749 -1.1462
  323TMC3    C5 4905   4.633   1.484  14.029  0.3951  0.6920  0.6046
  323TMC3    C6 4906   4.717   1.576  13.972  0.1064 -0.2600  0.4927
  323TMC3     C 4907   4.486   1.320  13.758 -0.1501 -0.2152  0.4094
  323TMC3     O 4908   4.494   1.206  13.803  0.1995  0.3656  0.0549
  323TMC3     H 4909   4.621   1.523  13.652  2.6491 -0.7636 -0.3391
  323TMC3    H1 4910   4.488   1.340  14.017 -1.4980  1.1643  0.3085
  323TMC3    H2 4911   0.052   1.629  14.034 -2.3473 -0.8087  3.7736
  323TMC3    C7 4912   4.671   1.424  14.154  0.0422  0.8813 -0.2364
  323TMC3    C8 4913   0.085   1.645  13.751 -0.6753  0.7284 -0.7708
  323TMC3    O1 4914   4.674   1.302  14.158  0.0175 -0.0049  0.2349
  323TMC3    O2 4915   0.118   1.575  13.659  0.4591  0.2266  0.2267
  324MPD2     C 4916   1.423   2.410  14.823 -0.0849 -0.1483  0.7829
  324MPD2    C1 4917   1.457   2.409  14.689  0.2190 -0.1005  0.1103
  324MPD2    C2 4918   1.355   2.418  14.596  0.4811  0.2124  0.1549
  324MPD2    C3 4919   1.227   2.449  14.641  0.4926 -0.5978 -0.7568
  324MPD2    C4 4920   1.196   2.450  14.778 -0.1336 -0.0804 -0.4635
  324MPD2    C5 4921   1.298   2.423  14.875  0.3717  0.0745  0.0638
  324MPD2     H 4922   1.373   2.395  14.492  1.1033 -1.1101  0.5592
  324MPD2    H1 4923   1.097   2.470  14.817  0.2419 -1.4839  1.2156
  324MPD2    H2 4924   1.501   2.377  14.892  0.9270  0.1623 -0.2132
  324MPD2    H3 4925   1.271   2.413  14.980 -1.5499  2.7962 -0.1819
  324MPD2     N 4926   1.123   2.495  14.551  0.6152  0.4856 -0.6380
  324MPD2    H5 4927   1.044   2.537  14.598  1.7688  2.1895 -0.2331
  324MPD2    N1 4928   1.591   2.403  14.645  0.6145  0.1932  0.0707
  324MPD2    H7 4929   1.600   2.385  14.546  1.0505  0.6967  0.0221
  325TMC3    C1 4930   0.991   2.520  14.364 -0.0324 -1.1200  0.2248
  325TMC3    C2 4931   0.937   2.445  14.268  0.5373 -0.0552  0.1225
  325TMC3    C3 4932   0.821   2.488  14.214 -0.4836  0.8331  0.2357
  325TMC3    C4 4933   0.933   2.638  14.416  0.1697  0.5874 -0.5211
  325TMC3    C5 4934   0.823   2.681  14.354  0.3796  0.3310 -0.4496
  325TMC3    C6 4935   0.767   2.610  14.250 -0.1334  0.0977 -0.3987
  325TMC3     C 4936   1.118   2.475  14.417 -0.4288 -0.1058  0.5032
  325TMC3     O 4937   1.192   2.405  14.351 -0.2353  0.9481  0.2497
  325TMC3     H 4938   0.988   2.360  14.224  0.9316 -0.7326  1.9045
  325TMC3    H1 4939   0.976   2.698  14.495 -0.1306 -1.1723  0.9889
  325TMC3    H2 4940   0.702   2.654  14.176 -1.8276 -0.5226  0.7097
  325TMC3    C7 4941   0.798   2.827  14.361 -0.6231  0.1296  0.0098
  325TMC3    C8 4942   0.770   2.424  14.096 -0.2910 -0.1320 -0.2579
  325TMC3    O1 4943   0.887   2.882  14.424  0.1630 -0.0887 -0.0251
  325TMC3    O2 4944   0.839   2.346  14.031 -0.1750  0.3741 -0.1364
  326MPD2     C 4945   2.877   3.980  10.871 -0.5043 -0.2564 -0.4627
  326MPD2    C1 4946   2.896   3.970  10.730 -0.0018 -0.0611  0.4247
  326MPD2    C2 4947   3.013   4.024  10.686 -0.2083  1.0012 -0.0109
  326MPD2    C3 4948   3.102   4.096  10.766 -0.2505 -0.6204  0.0133
  326MPD2    C4 4949   3.068   4.118  10.897  0.3088  0.4503 -0.0477
  326MPD2    C5 4950   2.966   4.050  10.950 -0.2502 -0.3710 -0.1452
  326MPD2     H 4951   3.037   4.012  10.582  0.7306 -1.8016  0.5474
  326MPD2    H1 4952   3.137   4.170  10.963 -0.4285 -0.5008  1.4855
  326MPD2    H2 4953   2.793   3.932  10.921  0.8658 -2.4744 -0.2525
  326MPD2    H3 4954   2.954   4.040  11.057 -1.0486 -0.3469 -0.2361
  326MPD2     N 4955   3.213   4.166  10.723 -0.9330  0.5094  0.1821
  326MPD2    H5 4956   3.257   4.218  10.798  0.4704 -1.7233  0.8974
  326MPD2    N1 4957   2.813   3.903  10.640  0.1558  0.1360  0.0355
  326MPD2    H7 4958   2.838   3.894  10.542 -0.8433  0.5697 -0.2591
  327TMC3    C1 4959   2.683   3.724  10.569 -0.0091  0.5675  1.1251
  327TMC3    C2 4960   2.564   3.728  10.501 -0.9507  0.5313  0.3181
  327TMC3    C3 4961   2.559   3.676  10.380 -0.1991  0.6204  0.3932
  327TMC3    C4 4962   2.789   3.689  10.494 -0.4996 -0.3767 -0.0647
  327TMC3    C5 4963   2.775   3.626  10.374  0.2027 -0.2756  0.1462
  327TMC3    C6 4964   2.658   3.615  10.316  0.1516  0.0969  0.1601
  327TMC3     C 4965   2.701   3.828  10.669 -0.2871  0.5718  0.8280
  327TMC3     O 4966   2.618   3.832  10.762  0.5630  0.7611 -0.4696
  327TMC3     H 4967   2.474   3.772  10.544 -2.6945 -3.0435  0.3185
  327TMC3    H1 4968   2.886   3.715  10.534 -0.7749 -0.4965  0.6673
  327TMC3    H2 4969   2.662   3.578  10.214  0.2229  1.4270 -0.3119
  327TMC3    C7 4970   2.892   3.606  10.291  0.3262  0.2960  0.1303
  327TMC3    C8 4971   2.454   3.730  10.295  0.5214  0.1924 -0.4905
  327TMC3    O1 4972   2.891   3.661  10.180 -0.2350 -0.0366  0.8001
  327TMC3    O2 4973   2.398   3.828  10.342  0.1547  0.1544  0.2202
  328MPD2     C 4974   0.703   4.271  17.113  0.3303 -0.0128  0.0815
  328MPD2    C1 4975   0.653   4.153  17.167 -0.2929  0.4401  0.1976
  328MPD2    C2 4976   0.532   4.104  17.108 -0.4042 -0.3888  0.0851
  328MPD2    C3 4977   0.472   4.179  17.008  0.6168 -0.6906 -0.7318
  328MPD2    C4 4978   0.529   4.288  16.952 -0.5580  0.3025 -0.2418
  328MPD2    C5 4979   0.644   4.334  17.007 -0.2225  0.0389 -0.1803
  328MPD2     H 4980   0.493   4.005  17.130 -0.8009 -0.2968 -0.2043
  328MPD2    H1 4981   0.485   4.342  16.869 -0.1740 -3.6948 -3.0713
  328MPD2    H2 4982   0.792   4.314  17.157  0.7197 -1.1270  0.3814
  328MPD2    H3 4983   0.695   4.422  16.969  1.4914 -0.1739  1.6076
  328MPD2     N 4984   0.350   4.147  16.937 -0.0126 -0.8462 -0.3563
  328MPD2    H5 4985   0.327   4.194  16.851  1.5804 -0.3680 -0.5212
  328MPD2    N1 4986   0.718   4.086  17.274  0.9407  0.2361  1.2483
  328MPD2    H7 4987   0.804   4.131  17.303  1.0111  2.9295 -3.1492
  329TMC3    C1 4988   0.773   3.919  17.436 -0.4819  0.1493 -0.9978
  329TMC3    C2 4989   0.786   4.009  17.543 -0.2914 -0.0594 -0.0249
  329TMC3    C3 4990   0.822   3.960  17.663 -0.6760  0.0899 -0.1021
  329TMC3    C4 4991   0.775   3.784  17.457  0.0086  0.2126 -0.5296
  329TMC3    C5 4992   0.806   3.739  17.580  0.1070 -0.2457 -0.5021
  329TMC3    C6 4993   0.831   3.826  17.684 -0.8311 -0.1511 -0.7432
  329TMC3     C 4994   0.688   3.961  17.322 -0.8113  0.4862 -0.1862
  329TMC3     O 4995   0.605   3.884  17.275  0.4409  0.3080 -0.4542
  329TMC3     H 4996   0.785   4.117  17.533 -0.7192 -0.2204 -1.5610
  329TMC3    H1 4997   0.775   3.716  17.373  0.9006  0.9271 -1.1158
  329TMC3    H2 4998   0.838   3.779   0.037 -2.8913 -0.8119 -0.9294
  329TMC3    C7 4999   0.756   3.605  17.617 -0.0408 -0.0745 -0.4689
  329TMC3    C8 5000   0.837   4.041   0.038  0.6483 -0.6997  0.7607
  329TMC3    O1 5001   0.820   3.543  17.699 -0.3089  0.5905 -0.3093
  329TMC3    O2 5002   0.897   3.988   0.131 -0.0731 -0.2502  0.2190
  330TMC3    C1 5003   3.853   2.940   9.368 -0.0996 -0.8802 -0.0074
  330TMC3    C2 5004   3.729   2.905   9.321  0.4121 -0.9538  0.1123
  330TMC3    C3 5005   3.675   2.782   9.344 -0.4783 -0.3162 -0.1675
  330TMC3    C4 5006   3.923   2.856   9.457 -0.5934 -0.4634 -0.4988
  330TMC3    C5 5007   3.863   2.739   9.491  0.6322 -0.4545 -0.6162
  330TMC3    C6 5008   3.743   2.702   9.434 -0.0735 -0.4400  0.7280
  330TMC3     C 5009   3.906   3.077   9.354  0.8892  0.5312  0.3084
  330TMC3     O 5010   4.002   3.112   9.423 -0.2848  0.1108 -0.0530
  330TMC3     H 5011   3.669   2.982   9.273  0.4174  0.1893  1.9505
  330TMC3    H1 5012   4.018   2.894   9.493 -1.1042 -0.0707  0.4217
  330TMC3    H2 5013   3.706   2.603   9.460 -1.3577 -0.3153 -0.6096
  330TMC3    C7 5014   3.921   2.655   9.594 -0.1614  0.0715  0.6769
  330TMC3    C8 5015   3.535   2.753   9.299  0.0320 -0.2696  0.3199
  330TMC3    O1 5016   3.871   2.549   9.618  0.1689  0.2210 -0.4589
  330TMC3    O2 5017   3.480   2.848   9.242 -0.0637 -0.2595 -0.8653
  331MPD2     C 5018   1.454   1.700  12.683 -0.0623  0.0136  0.0550
  331MPD2    C1 5019   1.337   1.637  12.637 -0.0400 -0.1203  0.3955
  331MPD2    C2 5020   1.326   1.500  12.652 -0.3324 -0.2682  0.4435
  331MPD2    C3 5021   1.426   1.417  12.710 -0.5444  0.5597  0.3160
  331MPD2    C4 5022   1.537   1.481  12.752 -0.0534  0.3802 -0.1611
  331MPD2    C5 5023   1.538   1.616  12.751 -0.3947  0.4626  0.4531
  331MPD2     H 5024   1.235   1.451  12.619 -0.3665  1.2702 -1.7520
  331MPD2    H1 5025   1.619   1.430  12.802 -0.1084 -0.5332 -1.0154
  331MPD2    H2 5026   1.472   1.807  12.679  1.2587 -0.2016  0.1365
  331MPD2    H3 5027   1.624   1.666  12.796  0.2278  1.6653 -2.0325
  331MPD2     N 5028   1.408   1.277  12.714  0.1021  0.3029  0.1501
  331MPD2    H5 5029   1.324   1.242  12.669  0.6250 -1.3493  0.4775
  331MPD2    N1 5030   1.231   1.708  12.580 -0.2532 -0.4237  0.4847
  331MPD2    H7 5031   1.268   1.801  12.562  1.1961 -0.6836  2.0963
  332TMC3    C1 5032   1.464   1.052  12.783  0.3400  0.1071 -0.5160
  332TMC3    C2 5033   1.339   1.009  12.754  0.7358 -0.3158  0.2289
  332TMC3    C3 5034   1.315   0.876  12.763 -0.0571 -0.2165  1.1285
  332TMC3    C4 5035   1.574   0.967  12.822  0.2069  0.1052 -0.2478
  332TMC3    C5 5036   1.542   0.834  12.819  0.7208  0.2890  0.6741
  332TMC3    C6 5037   1.416   0.788  12.788 -0.3397 -0.2314 -0.5217
  332TMC3     C 5038   1.487   1.192  12.784 -0.0283 -0.2549  0.1885
  332TMC3     O 5039   1.570   1.217  12.866 -0.0476 -0.7238  0.5623
  332TMC3     H 5040   1.264   1.079  12.720  0.3710  0.3504  2.4517
  332TMC3    H1 5041   1.671   1.000  12.856  0.4483 -0.4227 -0.4233
  332TMC3    H2 5042   1.385   0.685  12.801  0.0358 -0.3278 -0.4018
  332TMC3    C7 5043   1.624   0.734  12.883 -0.1048 -0.4499 -0.2616
  332TMC3    C8 5044   1.182   0.838  12.715 -0.3354 -0.8209  0.0549
  332TMC3    O1 5045   1.570   0.630  12.908  0.0078  0.2250 -0.2049
  332TMC3    O2 5046   1.114   0.919  12.654  0.0905 -0.4602  0.5862
  333MPD2     C 5047   1.837   2.141  10.895  0.3520  0.2703 -0.2645
  333MPD2    C1 5048   1.887   2.023  10.844 -0.3418 -0.5048  0.1574
  333MPD2    C2 5049   1.834   1.896  10.887 -0.4861  0.6132  0.1060
  333MPD2    C3 5050   1.737   1.882  10.982 -0.2905  0.1249  0.1546
  333MPD2    C4 5051   1.683   2.002  11.023 -0.0214 -0.5138 -0.5018
  333MPD2    C5 5052   1.736   2.127  10.980  0.4679  0.4056  1.0787
  333MPD2     H 5053   1.871   1.809  10.834 -1.2496  1.4530 -1.8099
  333MPD2    H1 5054   1.601   1.999  11.094  0.5801 -1.9695  0.1350
  333MPD2    H2 5055   1.877   2.236  10.864 -0.7447  0.2360 -1.7750
  333MPD2    H3 5056   1.684   2.217  11.008 -0.7848 -0.4250  1.4314
  333MPD2     N 5057   1.685   1.753  11.010  0.1517  0.0223 -0.7521
  333MPD2    H5 5058   1.724   1.674  10.960 -0.8001 -0.7085 -0.3344
  333MPD2    N1 5059   1.991   2.037  10.746  0.9276  0.6775  0.2712
  333MPD2    H7 5060   2.005   2.132  10.715 -0.3645  0.3506 -1.3171
  334TMC3    C1 5061   2.146   1.966  10.580 -0.3067 -0.1076 -0.8579
  334TMC3    C2 5062   2.261   1.891  10.569  0.3599  1.1010 -0.0929
  334TMC3    C3 5063   2.348   1.941  10.472  0.4701 -1.1090 -0.2118
  334TMC3    C4 5064   2.118   2.076  10.510 -0.2675 -0.1752 -0.3496
  334TMC3    C5 5065   2.199   2.125  10.416 -0.4724 -0.2707 -0.0034
  334TMC3    C6 5066   2.317   2.055  10.395  0.1889 -0.0196  0.4736
  334TMC3     C 5067   2.060   1.927  10.695 -0.3657  0.1693 -0.0090
  334TMC3     O 5068   2.075   1.817  10.750  0.0130  0.5045  0.1720
  334TMC3     H 5069   2.278   1.794  10.614 -3.2599  0.2827 -0.4737
  334TMC3    H1 5070   2.026   2.131  10.525  0.0378  0.0435  0.7396
  334TMC3    H2 5071   2.391   2.097  10.327  0.5558  0.9026  1.4541
  334TMC3    C7 5072   2.184   2.260  10.369  0.3506  0.3797  0.2447
  334TMC3    C8 5073   2.450   1.852  10.423 -1.1199  0.0826 -0.0594
  334TMC3    O1 5074   2.268   2.342  10.387  0.2086  0.3562  0.5326
  334TMC3    O2 5075   2.457   1.750  10.489  0.4454 -0.5287 -0.1944
  335TMC3    C1 5076   1.633   4.002   0.040 -0.3846  0.2573 -0.1567
  335TMC3    C2 5077   1.509   3.992  17.733 -0.0006  0.1931  0.5334
  335TMC3    C3 5078   1.475   3.874  17.678  0.5173 -0.4523 -0.0193
  335TMC3    C4 5079   1.723   3.900   0.045 -0.5953 -0.9740  0.2188
  335TMC3    C5 5080   1.681   3.782  17.738  0.2085 -0.1477  0.7258
  335TMC3    C6 5081   1.556   3.766  17.683  0.0047 -0.5543  0.7644
  335TMC3     C 5082   1.691   4.133   0.056  0.4238  0.3384 -0.0927
  335TMC3     O 5083   1.803   4.142   0.109  0.1555  0.4329 -0.9199
  335TMC3     H 5084   1.435   4.069   0.008  0.2839  0.4986  0.3975
  335TMC3    H1 5085   1.829   3.910   0.067 -0.3004  1.6600 -2.4495
  335TMC3    H2 5086   1.526   3.670  17.642 -2.6905  0.3044  0.7739
  335TMC3    C7 5087   1.782   3.680  17.711  0.6712  0.1406  0.0257
  335TMC3    C8 5088   1.376   3.882  17.575  0.4256  0.9779  0.2760
  335TMC3    O1 5089   1.899   3.719  17.699  0.3396 -0.3934  0.5171
  335TMC3    O2 5090   1.356   3.991  17.527 -0.5052 -0.6515  0.0958
  336MPD2     C 5091   0.786   1.814  16.097  0.5225  0.7928 -0.5055
  336MPD2    C1 5092   0.754   1.746  15.990 -0.1963  0.1531 -0.2787
  336MPD2    C2 5093   0.777   1.606  15.986 -0.2956  0.0118  0.0748
  336MPD2    C3 5094   0.820   1.536  16.100  0.2674 -0.5987  0.0061
  336MPD2    C4 5095   0.855   1.609  16.213 -0.5031 -0.7906 -0.6467
  336MPD2    C5 5096   0.840   1.743  16.206 -0.1148 -0.4887  0.1246
  336MPD2     H 5097   0.764   1.556  15.891 -0.2810 -0.1101  0.1380
  336MPD2    H1 5098   0.876   1.558  16.306 -2.5216  1.5077  1.0524
  336MPD2    H2 5099   0.771   1.920  16.114 -0.4424  0.5453  0.2158
  336MPD2    H3 5100   0.860   1.796  16.298 -0.3055  1.0907 -0.7420
  336MPD2     N 5101   0.820   1.394  16.105  0.0924  0.4733 -0.5247
  336MPD2    H5 5102   0.862   1.361  16.191  1.0508  0.4775 -0.9831
  336MPD2    N1 5103   0.694   1.808  15.875 -0.1045 -0.3138 -0.3137
  336MPD2    H7 5104   0.676   1.744  15.798 -0.9789 -0.6762  0.1818
  337TMC3    C1 5105   0.589   1.982  15.743  0.2969 -0.3264  0.2148
  337TMC3    C2 5106   0.482   2.072  15.766 -0.4165 -0.2984  0.3265
  337TMC3    C3 5107   0.409   2.118  15.659 -0.1423 -0.6131 -0.2567
  337TMC3    C4 5108   0.629   1.945  15.618 -0.1102 -0.2975  0.1449
  337TMC3    C5 5109   0.557   2.000  15.513  0.2912 -1.1046 -0.7475
  337TMC3    C6 5110   0.450   2.083  15.531  0.3137  0.4404  0.3493
  337TMC3     C 5111   0.652   1.938  15.866  0.0447  0.7437 -0.3853
  337TMC3     O 5112   0.663   2.025  15.951 -0.0785  0.1141  0.3870
  337TMC3     H 5113   0.444   2.099  15.864  0.9976  3.3219 -0.1227
  337TMC3    H1 5114   0.710   1.875  15.606 -1.0363 -1.2234 -0.6166
  337TMC3    H2 5115   0.397   2.125  15.446  0.7726  0.8174  0.2479
  337TMC3    C7 5116   0.573   1.960  15.372 -0.6178 -0.3043 -0.5515
  337TMC3    C8 5117   0.270   2.114  15.681 -0.6705 -0.0544  0.0318
  337TMC3    O1 5118   0.518   2.030  15.291  0.3746  0.3233  0.0794
  337TMC3    O2 5119   0.241   2.182  15.776  1.0364  0.1371  0.2680
  338MPD2     C 5120   1.172   1.261   0.743 -0.6050  0.5235  0.8237
  338MPD2    C1 5121   1.111   1.229   0.623  0.2410 -0.5183  0.1641
  338MPD2    C2 5122   0.977   1.266   0.609 -0.4848 -0.2852  0.2336
  338MPD2    C3 5123   0.905   1.314   0.714 -0.1103 -0.8278  0.4619
  338MPD2    C4 5124   0.971   1.345   0.835  0.3354  0.4694  0.6593
  338MPD2    C5 5125   1.105   1.332   0.844 -0.3388 -0.5011 -0.6346
  338MPD2     H 5126   0.939   1.264   0.507 -0.4820 -0.7562  0.2395
  338MPD2    H1 5127   0.918   1.388   0.919 -1.1655  2.1050 -1.1172
  338MPD2    H2 5128   1.279   1.250   0.754 -0.6268  1.3997  1.9606
  338MPD2    H3 5129   1.162   1.359   0.932 -1.5810  0.0311  0.0013
  338MPD2     N 5130   0.766   1.334   0.703  0.1841 -0.6331  0.1532
  338MPD2    H5 5131   0.736   1.311   0.608 -1.4643 -1.1252  0.7995
  338MPD2    N1 5132   1.178   1.182   0.513  0.8100  0.2201 -0.1732
  338MPD2    H7 5133   1.123   1.155   0.432  0.0485  1.1857  0.0238
  339TMC3    C1 5134   0.545   1.330   0.729 -0.1231 -0.4862 -0.9837
  339TMC3    C2 5135   0.465   1.227   0.766  0.1565 -0.2157 -0.0387
  339TMC3    C3 5136   0.366   1.181   0.683 -0.1589 -0.7304  0.1921
  339TMC3    C4 5137   0.516   1.412   0.627 -0.3729 -0.1079 -0.1758
  339TMC3    C5 5138   0.431   1.356   0.532  0.1611 -0.8779 -0.2312
  339TMC3    C6 5139   0.352   1.246   0.565 -0.1915  0.2234 -0.6804
  339TMC3     C 5140   0.670   1.344   0.799 -0.5118 -0.4512  0.4257
  339TMC3     O 5141   0.682   1.343   0.926 -0.0001 -0.1974  0.9337
  339TMC3     H 5142   0.496   1.177   0.857 -1.0272 -1.0687 -0.0963
  339TMC3    H1 5143   0.580   1.497   0.607  1.4992 -0.8959  2.4334
  339TMC3    H2 5144   0.311   1.197   0.478  0.0703 -1.4987  0.1660
  339TMC3    C7 5145   0.436   1.407   0.395 -0.0113 -0.3272 -0.6907
  339TMC3    C8 5146   0.353   1.037   0.680  0.2162  0.0836  0.7708
  339TMC3    O1 5147   0.509   1.504   0.375  0.1845  0.1496  0.8536
  339TMC3    O2 5148   0.347   0.990   0.569 -0.2216 -0.1941 -0.6410
  340MPD2     C 5149   2.337   3.256  10.108  0.2865  1.1636 -0.8496
  340MPD2    C1 5150   2.392   3.297   9.990  0.3147 -0.3316  0.1393
  340MPD2    C2 5151   2.528   3.326   9.988 -0.0325 -0.6939  0.4891
  340MPD2    C3 5152   2.607   3.316  10.096  0.6828  0.2505 -0.7264
  340MPD2    C4 5153   2.550   3.286  10.219 -0.1919 -0.5425  0.2593
  340MPD2    C5 5154   2.417   3.256  10.217 -0.8063  0.5955 -0.0557
  340MPD2     H 5155   2.565   3.350   9.888  0.5647  1.0434  1.1286
  340MPD2    H1 5156   2.598   3.268  10.314 -0.1081  0.6289  0.4415
  340MPD2    H2 5157   2.231   3.236  10.117  0.9811 -0.4530  4.0283
  340MPD2    H3 5158   2.370   3.235  10.313  1.0196  1.9880  1.1456
  340MPD2     N 5159   2.750   3.342  10.089  0.2769  0.2018 -0.2002
  340MPD2    H5 5160   2.812   3.321  10.167 -1.3369 -0.0297  1.0358
  340MPD2    N1 5161   2.298   3.313   9.878  0.4226  0.2551  0.2642
  340MPD2    H7 5162   2.200   3.293   9.894  0.3037  0.7528  0.1440
  341TMC3    C1 5163   2.216   3.368   9.667 -0.5977 -0.2491  0.3791
  341TMC3    C2 5164   2.125   3.265   9.661  0.3613 -0.4925 -0.2976
  341TMC3    C3 5165   2.024   3.273   9.568 -0.1027 -0.2963  0.5153
  341TMC3    C4 5166   2.206   3.475   9.584 -0.1156  0.1870  0.1673
  341TMC3    C5 5167   2.104   3.484   9.492 -0.6465  0.1739  0.4300
  341TMC3    C6 5168   2.014   3.381   9.483 -0.3284  0.4584 -0.3169
  341TMC3     C 5169   2.329   3.361   9.752 -0.0752 -0.0950 -0.4233
  341TMC3     O 5170   2.436   3.398   9.709  0.2118  0.3236 -0.3049
  341TMC3     H 5171   2.141   3.176   9.720  0.2099  0.4098  1.1200
  341TMC3    H1 5172   2.285   3.549   9.586 -0.5055  0.6100 -0.0190
  341TMC3    H2 5173   1.924   3.394   9.424 -0.3570  0.9730 -0.1650
  341TMC3    C7 5174   2.105   3.577   9.387  0.0742 -0.0044  0.1770
  341TMC3    C8 5175   1.929   3.170   9.561 -0.4288 -0.7018 -0.4934
  341TMC3    O1 5176   2.014   3.566   9.305  0.4007 -0.2742 -0.0605
  341TMC3    O2 5177   1.877   3.142   9.665  0.2398  0.5299 -0.2706
  342MPD2     C 5178   3.775   2.099   0.007 -0.1788 -0.0610  0.1366
  342MPD2    C1 5179   3.879   2.124  17.667  0.1366 -0.1247 -0.0071
  342MPD2    C2 5180   3.927   2.251  17.665 -0.5422  0.1212  0.7292
  342MPD2    C3 5181   3.882   2.360  17.743  0.4266 -0.1135 -0.1595
  342MPD2    C4 5182   3.775   2.332   0.075  0.0614  0.0843 -0.7178
  342MPD2    C5 5183   3.722   2.201   0.080 -0.1020 -0.0771 -0.1986
  342MPD2     H 5184   4.008   2.265  17.595  0.6642  4.0393  2.8727
  342MPD2    H1 5185   3.739   2.417   0.132 -0.0845 -0.6968  0.3650
  342MPD2    H2 5186   3.727   2.004   0.026 -1.3260  0.0236 -2.3753
  342MPD2    H3 5187   3.643   2.184   0.153 -0.3878 -0.6840 -0.6492
  342MPD2     N 5188   3.948   2.488   0.001 -0.3175 -0.9591  0.3379
  342MPD2    H5 5189   3.932   2.543   0.085 -1.3479  1.6574 -1.5434
  342MPD2    N1 5190   3.922   2.036  17.564 -0.6947  0.0071  0.5647
  342MPD2    H7 5191   4.000   2.063  17.503 -1.2768  0.5881  0.0761
  343TMC3    C1 5192   3.946   1.857  17.421  0.7465 -0.1357 -0.0654
  343TMC3    C2 5193   3.966   1.928  17.309  0.0596 -0.5243 -0.0052
  343TMC3    C3 5194   3.993   1.865  17.190 -0.5578  0.2889  0.1947
  343TMC3    C4 5195   3.944   1.720  17.415  0.4040  0.0595  0.0097
  343TMC3    C5 5196   3.961   1.653  17.295 -0.2025  0.1052  0.3663
  343TMC3    C6 5197   4.000   1.728  17.185  0.3559 -0.3015  0.5919
  343TMC3     C 5198   3.880   1.912  17.536 -0.2852  0.0199  0.0411
  343TMC3     O 5199   3.820   1.835  17.608  0.6001 -0.0397 -0.0794
  343TMC3     H 5200   3.967   2.036  17.304  2.9789 -0.5524 -0.0031
  343TMC3    H1 5201   3.932   1.674  17.513 -0.0176  0.3077  0.0736
  343TMC3    H2 5202   4.003   1.674  17.091  1.5134  1.1235 -0.1875
  343TMC3    C7 5203   3.955   1.506  17.298  0.4362 -0.7497 -0.2758
  343TMC3    C8 5204   4.066   1.949  17.094 -0.3320 -0.1061 -0.2185
  343TMC3    O1 5205   3.942   1.456  17.189 -0.6091  0.0007  1.0446
  343TMC3    O2 5206   4.083   2.071  17.109  0.6343 -0.0703 -0.1726
  344MPD2     C 5207   0.427   0.485  10.171 -0.0987  1.2246  0.3654
  344MPD2    C1 5208   0.321   0.573  10.159 -0.2650  0.1878 -0.1024
  344MPD2    C2 5209   0.340   0.703  10.136  0.3340 -0.7961 -0.6194
  344MPD2    C3 5210   0.469   0.756  10.130 -0.2088  0.3915 -0.9655
  344MPD2    C4 5211   0.577   0.671  10.158 -0.2232 -0.3983  0.1610
  344MPD2    C5 5212   0.557   0.537  10.167  0.2627  0.2534 -0.2641
  344MPD2     H 5213   0.251   0.766  10.130  0.9695 -0.0558 -2.2809
  344MPD2    H1 5214   0.675   0.715  10.145 -0.2952 -0.3684 -0.2902
  344MPD2    H2 5215   0.418   0.378  10.187  1.6829  0.4747 -3.6994
  344MPD2    H3 5216   0.641   0.469  10.167 -1.8102 -2.2840 -0.5723
  344MPD2     N 5217   0.487   0.895  10.129 -0.3303 -0.0154 -0.5426
  344MPD2    H5 5218   0.581   0.922  10.156 -0.2691  0.5965 -1.3755
  344MPD2    N1 5219   0.186   0.539  10.182  0.5508 -0.2964  0.9100
  344MPD2    H7 5220   0.107   0.602  10.180  1.6174  0.9730 -1.2537
  345TMC3    C1 5221   0.438   1.131  10.088 -0.0166  0.4527  0.2787
  345TMC3    C2 5222   0.513   1.183  10.186 -0.6149  0.0222  0.1085
  345TMC3    C3 5223   0.552   1.316  10.183  0.1934  0.4674 -0.4897
  345TMC3    C4 5224   0.396   1.209   9.983  0.4119 -0.5479 -0.5804
  345TMC3    C5 5225   0.436   1.341   9.984 -0.1331 -0.0635  1.0200
  345TMC3    C6 5226   0.516   1.397  10.081 -0.1318  0.1956  0.1558
  345TMC3     C 5227   0.397   0.991  10.088 -0.0204 -0.6440  0.2277
  345TMC3     O 5228   0.284   0.978  10.037 -0.0947  0.6296  0.7456
  345TMC3     H 5229   0.542   1.118  10.268 -1.2434 -2.0367 -1.2975
  345TMC3    H1 5230   0.345   1.162   9.900  0.8350 -2.2325  0.1040
  345TMC3    H2 5231   0.545   1.501  10.083  3.2266 -0.7186 -2.3591
  345TMC3    C7 5232   0.431   1.422   9.855  0.0984  0.1500 -0.5131
  345TMC3    C8 5233   0.609   1.366  10.304  0.4776  0.4503 -0.5655
  345TMC3    O1 5234   0.478   1.533   9.864  0.5275 -0.4937 -0.2249
  345TMC3    O2 5235   0.637   1.283  10.386  0.1629  0.5680  0.1495
  346MPD2     C 5236   4.237   2.756  13.884 -0.0676  0.6162 -0.1029
  346MPD2    C1 5237   4.370   2.749  13.854  0.4418 -0.2687  0.1129
  346MPD2    C2 5238   4.459   2.829  13.933  0.0392 -0.9790 -0.0756
  346MPD2    C3 5239   4.410   2.914  14.028 -0.0844 -0.2166  0.4034
  346MPD2    C4 5240   4.274   2.919  14.056  1.0391 -0.2730  1.1084
  346MPD2    C5 5241   4.193   2.841  13.978  0.2053  0.1903  0.1594
  346MPD2     H 5242   4.566   2.829  13.915 -0.3597  3.2281 -2.6270
  346MPD2    H1 5243   4.223   2.976  14.133  0.2334  0.5982 -0.0582
  346MPD2    H2 5244   4.166   2.702  13.822  0.2270  1.6047 -1.2761
  346MPD2    H3 5245   4.089   2.862  13.999 -0.0536 -1.0160  0.0810
  346MPD2     N 5246   4.511   2.986  14.101 -0.1840  0.7317  0.1609
  346MPD2    H5 5247   4.607   2.960  14.082  0.2301  1.6933  0.9486
  346MPD2    N1 5248   4.412   2.659  13.757  0.6137 -0.4472 -0.6797
  346MPD2    H7 5249   4.349   2.586  13.726 -0.6468 -0.3278  1.6487
  347TMC3    C1 5250   4.587   3.114  14.296 -0.3144 -0.2692 -0.3087
  347TMC3    C2 5251   4.717   3.089  14.264  0.2909 -0.3197 -0.6927
  347TMC3    C3 5252   0.070   3.123  14.359 -0.1998  0.6856 -0.9909
  347TMC3    C4 5253   4.544   3.138  14.424  0.1501  0.0955  0.3584
  347TMC3    C5 5254   4.640   3.156  14.515 -0.2364 -0.1698  0.2707
  347TMC3    C6 5255   0.038   3.157  14.490  0.2351  0.0108  0.1748
  347TMC3     C 5256   4.478   3.064  14.206 -1.0260  0.3803  0.5457
  347TMC3     O 5257   4.368   3.095  14.238  0.3367 -0.1326 -0.1439
  347TMC3     H 5258   0.007   3.082  14.159 -1.5723  0.3840 -1.2156
  347TMC3    H1 5259   4.440   3.159  14.448  0.6320  1.5943  1.1611
  347TMC3    H2 5260   0.114   3.146  14.567  2.2558  0.3906 -1.7627
  347TMC3    C7 5261   4.598   3.223  14.645  0.2571 -0.3955 -0.2831
  347TMC3    C8 5262   0.204   3.072  14.341 -0.2433 -0.4170  0.2314
  347TMC3    O1 5263   4.481   3.210  14.676 -0.5444  0.2255  0.6444
  347TMC3    O2 5264   0.216   2.993  14.248 -0.4414 -0.1413 -0.1581
  348MPD2     C 5265   4.308   2.425  11.087 -1.0453 -0.1882 -0.1096
  348MPD2    C1 5266   4.173   2.439  11.121  0.6099  0.4490  0.1537
  348MPD2    C2 5267   4.096   2.536  11.065 -0.3350 -0.1020 -0.5893
  348MPD2    C3 5268   4.141   2.580  10.941  0.1234 -0.7042  0.5291
  348MPD2    C4 5269   4.265   2.550  10.889 -0.1217 -0.5054  0.6547
  348MPD2    C5 5270   4.352   2.485  10.969 -0.3582  0.6242 -0.3515
  348MPD2     H 5271   4.006   2.563  11.119 -1.1110  1.0861 -2.4429
  348MPD2    H1 5272   4.302   2.583  10.793 -1.9823  1.8062  0.7488
  348MPD2    H2 5273   4.383   2.364  11.135 -0.4478  0.3570 -0.3587
  348MPD2    H3 5274   4.449   2.454  10.932 -1.0516 -1.1779 -0.6850
  348MPD2     N 5275   4.067   2.681  10.879  0.0398  0.5721 -0.2801
  348MPD2    H5 5276   4.004   2.731  10.941 -0.1919 -0.1557  0.0764
  348MPD2    N1 5277   4.121   2.367  11.230 -0.5870 -0.2429 -0.3921
  348MPD2    H7 5278   4.030   2.395  11.265 -0.4268  0.3208 -0.4298
  349TMC3    C1 5279   4.074   2.177  11.365  0.1041  0.4042 -0.0237
  349TMC3    C2 5280   4.085   2.037  11.388  0.1264 -0.2604 -0.3418
  349TMC3    C3 5281   4.056   1.986  11.510  0.1829 -0.0247 -0.3787
  349TMC3    C4 5282   4.024   2.255  11.463  0.0780  0.0291 -0.2228
  349TMC3    C5 5283   4.002   2.202  11.588  0.4404 -0.2821 -0.1906
  349TMC3    C6 5284   4.005   2.067  11.610 -0.4478  0.9464  0.0789
  349TMC3     C 5285   4.155   2.233  11.257  0.5321  0.4821 -0.3385
  349TMC3     O 5286   4.240   2.161  11.209  0.1010  0.0009 -0.5479
  349TMC3     H 5287   4.115   1.959  11.319  0.5632 -1.0777  0.7884
  349TMC3    H1 5288   4.008   2.360  11.444  2.9102  0.2386 -1.5869
  349TMC3    H2 5289   3.975   2.019  11.702  1.9191 -0.7105 -0.0132
  349TMC3    C7 5290   3.926   2.278  11.685 -0.1392  0.0958 -0.5615
  349TMC3    C8 5291   4.093   1.846  11.543 -0.3373 -0.2599  0.6550
  349TMC3    O1 5292   3.840   2.206  11.737  0.7317 -0.2294 -0.5522
  349TMC3    O2 5293   4.113   1.776  11.447  0.9177 -0.3797  0.0521
  350MPD2     C 5294   2.951   0.831  10.161  0.5588 -0.2186 -0.2020
  350MPD2    C1 5295   2.863   0.724  10.185  0.4844 -0.1250 -0.2026
  350MPD2    C2 5296   2.779   0.739  10.297  0.2284 -0.7972 -0.5161
  350MPD2    C3 5297   2.776   0.853  10.374  0.1251  0.3380  0.4021
  350MPD2    C4 5298   2.867   0.949  10.350 -0.6543  0.0851  0.5486
  350MPD2    C5 5299   2.952   0.942  10.238 -0.0528 -0.6980 -0.2178
  350MPD2     H 5300   2.705   0.662  10.316 -1.0222  0.5149 -0.0574
  350MPD2    H1 5301   2.886   1.030  10.421 -2.0346  0.4587  0.5014
  350MPD2    H2 5302   3.032   0.820  10.091 -0.5097  0.9242 -1.6164
  350MPD2    H3 5303   3.022   1.024  10.232 -1.4312  0.4956 -0.2192
  350MPD2     N 5304   2.701   0.853  10.491 -0.2369 -0.1609 -0.1872
  350MPD2    H5 5305   2.656   0.765  10.515  1.8756 -1.2222 -0.1620
  350MPD2    N1 5306   2.858   0.599  10.108 -0.5302  0.0369 -0.3194
  350MPD2    H7 5307   2.773   0.548  10.127 -0.3131 -0.6889 -1.3307
  351TMC3    C1 5308   2.931   0.435   9.952 -0.2280 -0.5338 -0.1827
  351TMC3    C2 5309   3.044   0.372   9.898  0.5257  0.0376 -0.5617
  351TMC3    C3 5310   3.028   0.297   9.784  0.4707 -0.2645  0.7071
  351TMC3    C4 5311   2.804   0.413   9.906  0.1963  0.3513  0.1417
  351TMC3    C5 5312   2.790   0.326   9.800 -0.4211  0.0260  0.3978
  351TMC3    C6 5313   2.904   0.280   9.732  0.6263 -0.3155 -0.1806
  351TMC3     C 5314   2.957   0.551  10.028  0.4628  0.1368  0.1097
  351TMC3     O 5315   3.062   0.605   9.994  0.7751 -0.1746  0.0944
  351TMC3     H 5316   3.138   0.384   9.950  1.4183  5.3478 -3.4034
  351TMC3    H1 5317   2.721   0.471   9.943  0.9070  2.1598 -1.0732
  351TMC3    H2 5318   2.893   0.241   9.631  0.4853 -0.9206  0.0649
  351TMC3    C7 5319   2.653   0.303   9.752  0.1212  0.4081  0.3774
  351TMC3    C8 5320   3.137   0.267   9.698  0.2303 -0.3270  0.7015
  351TMC3    O1 5321   2.563   0.347   9.828  0.0808  0.4825  0.3963
  351TMC3    O2 5322   3.108   0.177   9.616 -0.2608  0.5806 -0.0013
  352MPD2     C 5323   1.273   2.820   1.555  0.1718  0.3543 -0.2450
  352MPD2    C1 5324   1.189   2.754   1.468 -0.5992  0.3477 -0.2547
  352MPD2    C2 5325   1.219   2.626   1.422 -0.8240  0.1543 -0.1253
  352MPD2    C3 5326   1.339   2.568   1.465 -0.0411 -0.8834  0.4890
  352MPD2    C4 5327   1.423   2.634   1.549  0.0952  0.2272 -0.9759
  352MPD2    C5 5328   1.387   2.754   1.593  0.4219  0.2746  0.2078
  352MPD2     H 5329   1.148   2.571   1.362 -0.7783  0.3226 -0.3365
  352MPD2    H1 5330   1.513   2.579   1.577  0.1937  1.6118  1.4849
  352MPD2    H2 5331   1.247   2.913   1.603 -0.6826  1.0220 -2.0219
  352MPD2    H3 5332   1.451   2.809   1.662  1.0089 -0.5230  0.2938
  352MPD2     N 5333   1.375   2.438   1.432  0.3825 -0.6095 -0.5040
  352MPD2    H5 5334   1.459   2.395   1.471 -1.2323 -0.6872  2.8654
  352MPD2    N1 5335   1.082   2.832   1.421  0.3818  0.4336 -0.2135
  352MPD2    H7 5336   1.058   2.908   1.484 -0.7873  0.6254 -0.9050
  353TMC3    C1 5337   1.348   2.222   1.327 -0.5445 -0.1867  0.5184
  353TMC3    C2 5338   1.385   2.159   1.446  0.2881  0.8112  0.0555
  353TMC3    C3 5339   1.380   2.022   1.442  0.4132  0.0619  0.3963
  353TMC3    C4 5340   1.293   2.161   1.220  0.0635  0.4183  0.5185
  353TMC3    C5 5341   1.286   2.028   1.227 -0.0745 -0.2571  0.1254
  353TMC3    C6 5342   1.329   1.955   1.337 -0.6859 -0.4263  0.2609
  353TMC3     C 5343   1.301   2.359   1.345 -0.8557  0.3138 -0.6405
  353TMC3     O 5344   1.223   2.397   1.253 -0.1052 -0.1433 -0.3916
  353TMC3     H 5345   1.399   2.220   1.535  1.1263 -4.2067  3.3863
  353TMC3    H1 5346   1.283   2.215   1.126  3.0874 -1.3513 -0.8199
  353TMC3    H2 5347   1.342   1.848   1.330  2.6772  0.1025 -1.2256
  353TMC3    C7 5348   1.215   1.954   1.124 -0.2006 -0.1379 -0.0106
  353TMC3    C8 5349   1.485   1.951   1.507 -0.0532  0.2762 -0.4254
  353TMC3    O1 5350   1.227   1.992   1.009  0.2728 -0.6562 -0.0344
  353TMC3    O2 5351   1.529   1.980   1.617  0.1462 -0.2400  0.6132
  354TMC3    C1 5352   2.602   3.769  13.494 -0.2107 -0.0327 -0.3701
  354TMC3    C2 5353   2.671   3.883  13.452  0.2596 -0.4967 -0.3081
  354TMC3    C3 5354   2.710   3.900  13.323 -0.1226 -0.3084 -0.6416
  354TMC3    C4 5355   2.575   3.673  13.405  0.3291 -0.3863  0.5361
  354TMC3    C5 5356   2.627   3.684  13.284 -0.3381 -0.4111  0.0076
  354TMC3    C6 5357   2.683   3.799  13.231  0.2945 -0.3693 -0.2190
  354TMC3     C 5358   2.575   3.742  13.637  0.0660 -0.0835  0.0655
  354TMC3     O 5359   2.558   3.627  13.672  0.6142  0.8898  0.6870
  354TMC3     H 5360   2.699   3.958  13.525 -0.5580 -2.1819  1.7748
  354TMC3    H1 5361   2.545   3.576  13.441 -2.7331  1.1683  2.1593
  354TMC3    H2 5362   2.723   3.818  13.132 -1.3592  0.1587 -0.7928
  354TMC3    C7 5363   2.623   3.566  13.202  0.4503  0.0739  0.5462
  354TMC3    C8 5364   2.782   4.023  13.300 -0.6550  0.4597 -1.1159
  354TMC3    O1 5365   2.541   3.478  13.223 -0.1582 -0.5536  0.2765
  354TMC3    O2 5366   2.824   4.090  13.392  0.2186  0.1788  0.7241
  355MPD2     C 5367   3.338   4.599  11.261  0.5567  0.8846 -0.4209
  355MPD2    C1 5368   3.333   4.685  11.368 -0.2016  0.1348  0.4254
  355MPD2    C2 5369   3.362   4.644  11.497  0.4016 -0.7130  0.1093
  355MPD2    C3 5370   3.407   4.507  11.513  0.1169 -0.6241 -0.1214
  355MPD2    C4 5371   3.377   4.420  11.412  0.5364  0.3445 -0.7398
  355MPD2    C5 5372   3.356   4.467  11.288  0.0179  0.0256 -0.3345
  355MPD2     H 5373   3.350   4.703  11.586  4.9666 -1.5350  1.2641
  355MPD2    H1 5374   3.386   4.313  11.421  0.1402  0.1572 -2.4834
  355MPD2    H2 5375   3.335   4.635  11.159 -0.3641  1.1590 -0.2946
  355MPD2    H3 5376   3.370   4.398  11.206  1.9704 -0.5944  0.5115
  355MPD2     N 5377   3.441   4.441  11.636 -0.3877  0.4399 -0.3265
  355MPD2    H5 5378   3.427   4.341  11.631  3.7923 -0.2714  2.4034
  355MPD2    N1 5379   3.320   0.084  11.330 -0.0857 -0.4717  0.0102
  355MPD2    H7 5380   3.296   0.095  11.232 -1.3568 -0.0485  0.3610
  356TMC3    C1 5381   3.527   4.625  11.766  0.7400  0.6660  0.5391
  356TMC3    C2 5382   3.604   4.677  11.672  0.0943  0.7705 -0.3330
  356TMC3    C3 5383   3.651   0.073  11.687  0.3787  1.0160  0.0741
  356TMC3    C4 5384   3.492   4.696  11.869  0.1564 -0.2261  0.2582
  356TMC3    C5 5385   3.528   0.088  11.889 -0.1556 -0.3913  0.2134
  356TMC3    C6 5386   3.610   0.150  11.797  0.5640 -0.0921  0.0422
  356TMC3     C 5387   3.459   4.497  11.755  0.4311  0.7516 -0.4027
  356TMC3     O 5388   3.443   4.445  11.865 -0.5600 -0.0928  0.0720
  356TMC3     H 5389   3.627   4.611  11.589  2.0469 -0.4222  1.1420
  356TMC3    H1 5390   3.409   4.660  11.930 -0.1681 -0.0441 -0.0774
  356TMC3    H2 5391   3.641   0.253  11.813  0.8256 -0.0498 -0.7526
  356TMC3    C7 5392   3.495   0.155  12.012  0.0681 -0.0272 -0.0532
  356TMC3    C8 5393   3.694   0.132  11.564 -0.3864 -0.0819  0.7183
  356TMC3    O1 5394   3.443   0.076  12.093  0.0917  0.2828 -0.5438
  356TMC3    O2 5395   3.724   0.057  11.474  0.3265 -0.2015 -0.3029
  357MPD2     C 5396   2.485   0.120   0.943 -0.0916  0.3270 -0.6384
  357MPD2    C1 5397   2.591   0.031   0.971  0.4212 -0.1191 -0.9232
  357MPD2    C2 5398   2.646   0.032   1.105  1.0557 -0.5933  0.4506
  357MPD2    C3 5399   2.598   0.131   1.193 -0.0267 -0.9778  0.4195
  357MPD2    C4 5400   2.496   0.215   1.160  0.0245 -0.3537 -0.0700
  357MPD2    C5 5401   2.446   0.216   1.032 -0.2058 -0.1625  0.1520
  357MPD2     H 5402   2.722   4.699   1.137  0.7933 -1.2924 -0.4437
  357MPD2    H1 5403   2.445   0.276   1.233  1.3402 -0.1845  0.7122
  357MPD2    H2 5404   2.438   0.122   0.845 -0.7572  0.5435 -0.3071
  357MPD2    H3 5405   2.358   0.279   1.020  0.5531  1.2331  1.8109
  357MPD2     N 5406   2.657   0.158   1.315 -0.5751 -0.1434 -0.1980
  357MPD2    H5 5407   2.627   0.241   1.365 -0.1755 -0.5205  0.6733
  357MPD2    N1 5408   2.636   4.682   0.875  0.5204  0.8674  0.5114
  357MPD2    H7 5409   2.602   4.679   0.779 -0.8547 -1.7222  1.0884
  358TMC3    C1 5410   2.789   4.518   0.800 -0.5560 -0.4389  1.3523
  358TMC3    C2 5411   2.695   4.455   0.725  0.6104 -0.0791  0.6704
  358TMC3    C3 5412   2.720   4.332   0.681 -0.8106  0.8985  0.5310
  358TMC3    C4 5413   2.908   4.457   0.819  0.3103  0.8730 -0.2810
  358TMC3    C5 5414   2.927   4.328   0.777  0.2272  0.7609 -0.5400
  358TMC3    C6 5415   2.830   4.262   0.712  0.2097 -0.2591  0.2357
  358TMC3     C 5416   2.757   4.617   0.893 -0.2070  0.0315 -0.3673
  358TMC3     O 5417   2.841   4.619   0.984  0.6213  0.3432  0.3374
  358TMC3     H 5418   2.595   4.496   0.721  1.6118  2.0363 -3.5062
  358TMC3    H1 5419   2.995   4.499   0.869  2.2904 -3.0160 -0.4410
  358TMC3    H2 5420   2.859   4.169   0.666  2.3629  0.8824 -0.7209
  358TMC3    C7 5421   3.063   4.278   0.813  0.1058 -0.0510  0.1133
  358TMC3    C8 5422   2.622   4.255   0.607  0.2593 -0.4744  0.5418
  358TMC3    O1 5423   3.150   4.362   0.851  0.1502  0.2181  0.5659
  358TMC3    O2 5424   2.561   4.316   0.520  0.2376 -0.4146 -0.2330
  359MPD2     C 5425   3.371   3.339  12.116 -0.7139  0.0048  0.6937
  359MPD2    C1 5426   3.341   3.242  12.026  0.3901  0.5156  0.0990
  359MPD2    C2 5427   3.209   3.192  12.018 -0.0159 -0.6869 -0.7170
  359MPD2    C3 5428   3.106   3.231  12.097 -0.0601  0.1709  0.0279
  359MPD2    C4 5429   3.140   3.337  12.186  0.4844 -0.6185 -0.1486
  359MPD2    C5 5430   3.267   3.394  12.192 -0.9890  0.1543  0.2134
  359MPD2     H 5431   3.186   3.114  11.947  2.9544 -1.4124 -0.8751
  359MPD2    H1 5432   3.067   3.370  12.259  1.2850 -1.7556  1.1681
  359MPD2    H2 5433   3.474   3.368  12.130 -0.9870 -0.2911  3.2780
  359MPD2    H3 5434   3.287   3.476  12.260  1.0033 -1.7648  1.9139
  359MPD2     N 5435   2.992   3.156  12.088  0.5814  0.2802 -0.5315
  359MPD2    H5 5436   2.992   3.079  12.022  0.3587 -1.9055  2.0261
  359MPD2    N1 5437   3.437   3.164  11.948 -0.3002 -0.3709 -0.1970
  359MPD2    H7 5438   3.401   3.102  11.876 -2.1581 -1.2987  1.5300
  360TMC3    C1 5439   3.637   3.099  11.849  0.7242 -0.8548 -0.2451
  360TMC3    C2 5440   3.758   3.146  11.803 -0.6383  0.4323  0.0535
  360TMC3    C3 5441   3.811   3.091  11.695 -0.2684 -0.1138  0.6222
  360TMC3    C4 5442   3.563   3.015  11.774  0.5300  0.3178 -0.2588
  360TMC3    C5 5443   3.618   2.962  11.661  0.3509  0.3412  0.0584
  360TMC3    C6 5444   3.745   2.998  11.621  0.0739 -0.1234 -0.9466
  360TMC3     C 5445   3.570   3.190  11.944  0.6024  0.3716  0.1134
  360TMC3     O 5446   3.634   3.278  12.000  0.1926 -0.2266 -0.3741
  360TMC3     H 5447   3.812   3.221  11.861  0.5314  0.9189 -1.6764
  360TMC3    H1 5448   3.474   2.962  11.809  0.0103  1.4053  0.0541
  360TMC3    H2 5449   3.796   2.956  11.534 -1.3015 -0.9480 -1.3525
  360TMC3    C7 5450   3.526   2.911  11.563  1.1089  0.3448 -0.1848
  360TMC3    C8 5451   3.908   3.183  11.630  0.1348 -0.0140  0.4632
  360TMC3    O1 5452   3.430   2.849  11.601 -0.0881 -0.3334  0.5332
  360TMC3    O2 5453   3.913   3.299  11.664 -0.1148  0.9788 -0.5846
  361MPD2     C 5454   0.249   2.902  17.100  1.0502  0.7448  0.2548
  361MPD2    C1 5455   0.187   2.794  17.043  0.4675 -0.4552  0.0718
  361MPD2    C2 5456   0.252   2.678  17.030 -0.1003 -0.7077  0.3242
  361MPD2    C3 5457   0.388   2.679  17.053  0.6356  0.2799 -0.6795
  361MPD2    C4 5458   0.449   2.793  17.108  0.0440 -0.1825  0.3563
  361MPD2    C5 5459   0.382   2.903  17.136  0.0365  0.0642  0.2026
  361MPD2     H 5460   0.202   2.594  16.983  0.8514 -0.2573 -1.4854
  361MPD2    H1 5461   0.558   2.789  17.107  0.0440 -0.0483 -0.6615
  361MPD2    H2 5462   0.210   3.003  17.099 -0.0212  0.3230 -1.5561
  361MPD2    H3 5463   0.431   2.991  17.175  4.4348 -2.9765  1.5945
  361MPD2     N 5464   0.468   2.563  17.031 -0.6091 -0.4258 -0.5264
  361MPD2    H5 5465   0.563   2.568  17.065 -1.9838  2.3946  2.9325
  361MPD2    N1 5466   0.054   2.797  16.998 -0.7206  0.2259 -0.4636
  361MPD2    H7 5467   0.015   2.714  16.956 -2.2600  1.4364 -1.4000
  362TMC3    C1 5468   4.574   2.867  16.993  0.1505  0.3194 -0.2453
  362TMC3    C2 5469   4.481   2.842  17.089  0.0553  0.1009  0.2459
  362TMC3    C3 5470   4.369   2.782  17.042  0.2639  0.1130 -0.5234
  362TMC3    C4 5471   4.565   2.818  16.862 -0.4530 -0.5455 -0.2788
  362TMC3    C5 5472   4.442   2.770  16.822 -0.4392 -0.4133 -0.3512
  362TMC3    C6 5473   4.340   2.758  16.910  0.1250 -0.6226  0.2168
  362TMC3     C 5474   4.703   2.898  17.035 -0.3022  0.1291 -0.2445
  362TMC3     O 5475   4.714   2.999  17.103  0.6409  0.6487 -0.2445
  362TMC3     H 5476   4.494   2.862  17.195  2.5781  1.9462 -0.3955
  362TMC3    H1 5477   4.642   2.858  16.798  0.4365 -0.5746  0.7706
  362TMC3    H2 5478   4.245   2.716  16.878 -0.0589 -0.4465  0.5280
  362TMC3    C7 5479   4.394   2.816  16.688 -1.0911 -1.0062 -0.9662
  362TMC3    C8 5480   4.254   2.758  17.129 -0.2119 -0.7144 -0.0919
  362TMC3    O1 5481   4.459   2.911  16.638 -0.3032 -0.0679  0.8061
  362TMC3    O2 5482   4.174   2.677  17.083  0.3692  0.3042  0.1011
  363TMC3    C1 5483   3.978   0.331   8.821 -0.2792 -0.2451  0.1072
  363TMC3    C2 5484   3.962   0.245   8.918 -0.4485 -0.0352 -0.6463
  363TMC3    C3 5485   3.912   0.290   9.033 -0.1820 -0.1487  0.0279
  363TMC3    C4 5486   3.936   0.464   8.831 -0.3464 -0.2907 -0.4989
  363TMC3    C5 5487   3.890   0.515   8.952 -0.1518 -0.3095  0.5369
  363TMC3    C6 5488   3.872   0.423   9.052  0.4149  0.4808 -0.1605
  363TMC3     C 5489   4.058   0.291   8.701 -0.1426 -0.4046  0.3190
  363TMC3     O 5490   4.068   0.383   8.619  0.1689 -0.0228 -0.0360
  363TMC3     H 5491   3.963   0.142   8.886 -0.7763 -0.2584  0.0623
  363TMC3    H1 5492   3.967   0.537   8.756  0.2541  1.5263  1.5252
  363TMC3    H2 5493   3.827   0.451   9.146  2.4363  2.1143  0.2890
  363TMC3    C7 5494   3.851   0.652   8.971  0.6450  0.1328  1.0837
  363TMC3    C8 5495   3.886   0.200   9.148  0.2723 -0.1841 -0.2267
  363TMC3    O1 5496   3.852   0.686   9.087 -0.5732  0.2103  0.2552
  363TMC3    O2 5497   3.798   0.237   9.226 -0.0445 -0.5362 -0.5922
  364MPD2     C 5498   2.353   3.843   9.802 -0.1142 -0.2555 -0.0461
  364MPD2    C1 5499   2.344   3.924   9.914 -0.8371  0.0171  0.3329
  364MPD2    C2 5500   2.352   3.867  10.041 -0.2060  0.1247 -0.2652
  364MPD2    C3 5501   2.392   3.732  10.051  0.0528  0.3034 -0.0905
  364MPD2    C4 5502   2.409   3.660   9.932  0.3509  0.3234  0.0271
  364MPD2    C5 5503   2.393   3.724   9.810 -0.6147  0.2720  0.9575
  364MPD2     H 5504   2.351   3.923  10.134 -0.7415 -0.7304  0.2427
  364MPD2    H1 5505   2.450   3.560   9.937  0.5968  0.4211 -0.0235
  364MPD2    H2 5506   2.350   3.895   9.706 -3.2287 -0.7676 -0.2196
  364MPD2    H3 5507   2.394   3.662   9.722 -0.8902 -0.9200  1.7976
  364MPD2     N 5508   2.444   3.672  10.172 -0.3711  0.0734  0.0247
  364MPD2    H5 5509   2.484   3.578  10.166  1.6427  0.9799 -0.8880
  364MPD2    N1 5510   2.322   4.063   9.887 -0.2608  0.5218  0.2999
  364MPD2    H7 5511   2.341   4.089   9.791 -0.3757  1.4866  0.5351
  365TMC3    C1 5512   2.385   4.276   9.964  0.3770  0.1568  0.4413
  365TMC3    C2 5513   2.512   4.257   9.910 -0.9213 -0.0111 -0.3927
  365TMC3    C3 5514   2.606   4.350   9.924 -0.3368  0.5225 -0.3437
  365TMC3    C4 5515   2.363   4.373  10.056  0.1053 -0.9802 -0.0109
  365TMC3    C5 5516   2.454   4.469  10.068 -0.1197 -0.1497 -0.5185
  365TMC3    C6 5517   2.572   4.462  10.000 -0.0821  0.0712 -0.2637
  365TMC3     C 5518   2.311   4.153   9.989 -0.2972  0.7605  0.1654
  365TMC3     O 5519   2.262   4.136  10.097 -0.6804  0.2176 -0.6328
  365TMC3     H 5520   2.545   4.172   9.851  0.7697 -0.6201  1.4062
  365TMC3    H1 5521   2.261   4.383  10.091  0.1164 -1.4373  0.1503
  365TMC3    H2 5522   2.642   4.546  10.001  3.0412 -2.5431  1.8794
  365TMC3    C7 5523   2.427   4.592  10.151  0.7871  0.3640  0.4096
  365TMC3    C8 5524   2.745   4.325   9.900  0.2734  0.2031  0.4501
  365TMC3    O1 5525   2.477   4.699  10.123  0.2228 -0.5915  0.2752
  365TMC3    O2 5526   2.771   4.245   9.810 -0.2651  0.2915 -0.2092
  366MPD2     C 5527   0.543   0.436  15.616  0.1651  0.6413 -0.6214
  366MPD2    C1 5528   0.649   0.529  15.628  0.0538  0.5081 -0.0905
  366MPD2    C2 5529   0.772   0.495  15.580  0.4720 -0.2179  0.2300
  366MPD2    C3 5530   0.784   0.378  15.512 -0.0450  0.7427 -0.2548
  366MPD2    C4 5531   0.683   0.289  15.511  0.2258 -0.1847 -0.0599
  366MPD2    C5 5532   0.558   0.311  15.563 -0.6584  0.1673  0.3681
  366MPD2     H 5533   0.849   0.571  15.576 -1.1320  1.4868  1.7981
  366MPD2    H1 5534   0.692   0.195  15.458 -0.4944  0.7648 -1.8866
  366MPD2    H2 5535   0.444   0.463  15.648 -0.7106 -0.9420 -1.9801
  366MPD2    H3 5536   0.486   0.230  15.572  0.3412 -0.5839  1.7030
  366MPD2     N 5537   0.904   0.353  15.452  0.5419  0.6703 -0.3893
  366MPD2    H5 5538   0.979   0.418  15.474  0.7509  0.1543  0.4106
  366MPD2    N1 5539   0.640   0.661  15.670 -0.2711  0.4189  0.2667
  366MPD2    H7 5540   0.723   0.712  15.640  1.0605 -0.3304  2.6469
  367TMC3    C1 5541   0.540   0.865  15.725  0.3721 -0.1961  0.3794
  367TMC3    C2 5542   0.663   0.926  15.715 -0.7008 -0.4789 -0.1115
  367TMC3    C3 5543   0.674   1.042  15.639 -0.6356  0.5808  0.0855
  367TMC3    C4 5544   0.436   0.917  15.657 -0.2346  0.1339 -0.0053
  367TMC3    C5 5545   0.455   1.030  15.581  0.6631 -0.1769 -0.0645
  367TMC3    C6 5546   0.570   1.100  15.572  0.4744 -0.4327  0.3679
  367TMC3     C 5547   0.530   0.720  15.726 -0.1500 -0.1487 -0.1467
  367TMC3     O 5548   0.425   0.669  15.745 -0.1232 -0.2538  0.3761
  367TMC3     H 5549   0.749   0.865  15.741  0.2587  0.6644 -0.6021
  367TMC3    H1 5550   0.338   0.874  15.670  0.2160 -0.4422  1.4688
  367TMC3    H2 5551   0.587   1.191  15.516 -0.8451  0.7016  1.8111
  367TMC3    C7 5552   0.346   1.072  15.489  0.5178  0.3091  0.2949
  367TMC3    C8 5553   0.797   1.116  15.657  0.1956 -0.8185 -0.8007
  367TMC3    O1 5554   0.352   1.188  15.447 -0.1381  0.0546 -0.4425
  367TMC3    O2 5555   0.875   1.063  15.739  0.0209 -0.1270  0.0424
  368MPD2     C 5556   1.701   2.044  12.724  1.0107 -0.1315 -0.6648
  368MPD2    C1 5557   1.712   2.126  12.615  1.3251  0.5504 -0.2463
  368MPD2    C2 5558   1.821   2.118  12.528 -0.8658 -0.3565 -0.2187
  368MPD2    C3 5559   1.922   2.030  12.560 -0.6726 -0.3402  0.4340
  368MPD2    C4 5560   1.911   1.948  12.671 -0.1560 -0.3728  0.4942
  368MPD2    C5 5561   1.794   1.946  12.747 -0.1431 -0.2794  0.5520
  368MPD2     H 5562   1.831   2.185  12.444 -1.7046 -0.2204 -0.2112
  368MPD2    H1 5563   2.002   1.892  12.688 -0.2284 -0.8450 -0.6976
  368MPD2    H2 5564   1.624   2.066  12.797 -0.2808 -1.5457 -1.6042
  368MPD2    H3 5565   1.773   1.879  12.830  1.1042 -0.1413  0.9818
  368MPD2     N 5566   2.044   2.023  12.485 -0.2624 -0.7025  0.3027
  368MPD2    H5 5567   2.120   1.977  12.534  0.1040 -1.1609 -0.6957
  368MPD2    N1 5568   1.622   2.230  12.600  0.2885 -0.2246  0.1090
  368MPD2    H7 5569   1.550   2.223  12.671  0.4986  1.3592  0.4917
  369TMC3    C1 5570   1.540   2.449  12.556 -0.0580 -0.4523 -0.5213
  369TMC3    C2 5571   1.565   2.565  12.487  0.0072 -0.2274 -0.0619
  369TMC3    C3 5572   1.473   2.662  12.498  0.3886 -0.1598 -0.1259
  369TMC3    C4 5573   1.426   2.426  12.628 -0.3689 -0.8869 -0.5213
  369TMC3    C5 5574   1.338   2.527  12.633 -0.5755  0.6331 -0.7013
  369TMC3    C6 5575   1.360   2.645  12.572 -0.1788 -0.5561  0.7087
  369TMC3     C 5576   1.640   2.345  12.529  0.3426  0.0769  0.5337
  369TMC3     O 5577   1.742   2.382  12.477  0.3628  0.4907 -0.0899
  369TMC3     H 5578   1.660   2.589  12.439 -0.6242 -1.2934 -1.8555
  369TMC3    H1 5579   1.402   2.332  12.678 -1.4095  0.9904  2.5107
  369TMC3    H2 5580   1.308   2.740  12.585 -0.7405 -0.8609  0.6889
  369TMC3    C7 5581   1.218   2.514  12.703  0.1225  0.6862 -0.0090
  369TMC3    C8 5582   1.498   2.778  12.421 -0.7968  0.2899  0.5049
  369TMC3    O1 5583   1.212   2.411  12.770  0.2847  0.4213  0.3462
  369TMC3    O2 5584   1.613   2.814  12.415 -0.0431  0.0433 -0.0979
  370TMC3    C1 5585   1.413   3.388  16.425  0.4999 -0.2407  0.3995
  370TMC3    C2 5586   1.295   3.339  16.470  0.4187 -0.4359  0.6234
  370TMC3    C3 5587   1.273   3.204  16.454  0.1436  1.0336 -0.0734
  370TMC3    C4 5588   1.494   3.310  16.341 -0.0838 -0.0879  0.0352
  370TMC3    C5 5589   1.474   3.185  16.323  0.3349  0.2648 -0.2959
  370TMC3    C6 5590   1.366   3.129  16.386  0.5997 -0.4739 -1.5018
  370TMC3     C 5591   1.476   3.459  16.536  0.9584  0.1642  0.1293
  370TMC3     O 5592   1.415   3.441  16.640  0.6908  0.2505  0.4184
  370TMC3     H 5593   1.222   3.409  16.509  0.0180  1.5594 -3.7843
  370TMC3    H1 5594   1.574   3.354  16.283  0.4314  0.9514  1.5268
  370TMC3    H2 5595   1.354   3.023  16.372 -1.3085 -0.9061  3.4006
  370TMC3    C7 5596   1.500   3.140  16.193 -1.3556 -0.2077  0.3204
  370TMC3    C8 5597   1.224   3.137  16.580  0.1923 -0.2500 -0.0522
  370TMC3    O1 5598   1.494   3.226  16.103 -0.3278  0.1142 -0.0681
  370TMC3    O2 5599   1.223   3.014  16.574 -0.5871 -0.0119  0.2612
  371TMC3    C1 5600   2.409   1.557  15.473 -0.0983 -0.3927  0.0844
  371TMC3    C2 5601   2.285   1.577  15.424 -0.0824  0.3863  0.6277
  371TMC3    C3 5602   2.269   1.653  15.308  0.0450 -0.2689 -0.8305
  371TMC3    C4 5603   2.521   1.622  15.423  0.0794  0.0372 -0.1274
  371TMC3    C5 5604   2.503   1.705  15.313 -0.5316 -0.2703  0.1430
  371TMC3    C6 5605   2.377   1.708  15.247 -0.1454  0.6817 -0.0268
  371TMC3     C 5606   2.443   1.452  15.573  0.8816  0.7321  0.1111
  371TMC3     O 5607   2.554   1.465  15.622 -0.2060 -0.1632  0.3321
  371TMC3     H 5608   2.201   1.535  15.479 -1.7703  2.5045 -0.3064
  371TMC3    H1 5609   2.617   1.620  15.473 -0.3206 -0.6529  0.6056
  371TMC3    H2 5610   2.370   1.781  15.167 -2.8148 -1.4158 -1.6855
  371TMC3    C7 5611   2.602   1.808  15.276  0.1628  0.3185 -0.4679
  371TMC3    C8 5612   2.149   1.727  15.282  0.3725  0.4222 -0.7238
  371TMC3    O1 5613   2.569   1.884  15.184 -0.0442 -0.0771 -0.0149
  371TMC3    O2 5614   2.124   1.747  15.164 -0.4734  0.1200 -0.2163
  372MPD2     C 5615   2.507   2.140  12.928  0.2922 -0.2898 -0.2080
  372MPD2    C1 5616   2.522   2.197  13.056  0.3670  0.1079  0.6472
  372MPD2    C2 5617   2.437   2.149  13.154  0.0582  0.6415 -0.2334
  372MPD2    C3 5618   2.328   2.066  13.120  0.5097  0.2851  0.1766
  372MPD2    C4 5619   2.319   2.004  12.994 -0.0213 -1.1336  0.5357
  372MPD2    C5 5620   2.398   2.051  12.897  0.5286  1.0837  0.0558
  372MPD2     H 5621   2.443   2.186  13.256  0.7401 -3.1139  1.0651
  372MPD2    H1 5622   2.242   1.932  12.966 -1.8102  0.7549  0.5591
  372MPD2    H2 5623   2.573   2.171  12.849  0.3208  1.0600  0.3371
  372MPD2    H3 5624   2.394   2.011  12.796 -0.2689 -0.4780  0.6956
  372MPD2     N 5625   2.237   2.022  13.222  1.0397  0.0645 -0.1205
  372MPD2    H5 5626   2.178   1.942  13.202 -1.1852  1.0524  2.4993
  372MPD2    N1 5627   2.619   2.296  13.100 -0.1955 -0.1896 -0.4009
  372MPD2    H7 5628   2.598   2.336  13.191  0.4163  1.1842 -0.8655
  373TMC3    C1 5629   2.138   1.979  13.430  0.7788  0.6004  0.0652
  373TMC3    C2 5630   2.077   2.025  13.545 -0.0156 -0.4861 -0.6669
  373TMC3    C3 5631   2.064   1.934  13.649  0.5178 -0.0382 -0.3260
  373TMC3    C4 5632   2.163   1.848  13.412 -0.1831  0.0959 -0.0955
  373TMC3    C5 5633   2.129   1.759  13.511 -0.0936 -0.5605 -0.4243
  373TMC3    C6 5634   2.078   1.802  13.630 -0.6584 -0.3507 -0.7440
  373TMC3     C 5635   2.225   2.068  13.351  0.1397  0.9012  0.1046
  373TMC3     O 5636   2.270   2.168  13.408 -0.2726 -0.2504  0.2093
  373TMC3     H 5637   2.065   2.132  13.562  0.4620 -0.6913  0.9827
  373TMC3    H1 5638   2.212   1.805  13.326  3.3290  2.9235  0.4980
  373TMC3    H2 5639   2.094   1.737  13.716  0.8198 -0.7014 -1.2828
  373TMC3    C7 5640   2.192   1.626  13.508 -0.6126 -0.4939 -0.6807
  373TMC3    C8 5641   2.108   1.986  13.783  0.4036 -0.0508  0.9149
  373TMC3    O1 5642   2.286   1.613  13.432  0.5065  0.3977 -0.0890
  373TMC3    O2 5643   2.144   2.101  13.774 -0.6722  0.3567  0.0387
  374TMC3    C1 5644   3.410   3.394   8.757 -0.4335 -0.1758  0.4876
  374TMC3    C2 5645   3.475   3.479   8.848 -0.2510  0.3393 -0.3981
  374TMC3    C3 5646   3.485   3.605   8.812 -0.4500  0.3322  0.0686
  374TMC3    C4 5647   3.364   3.429   8.632  0.2348  0.0455 -0.2889
  374TMC3    C5 5648   3.367   3.561   8.610  0.3029  0.7511 -0.6975
  374TMC3    C6 5649   3.430   3.652   8.700  0.0414  0.1181 -0.7379
  374TMC3     C 5650   3.400   3.249   8.796  0.0055 -0.0717  1.0004
  374TMC3     O 5651   3.496   3.208   8.864  0.0174  0.8253  0.7041
  374TMC3     H 5652   3.519   3.439   8.939  0.1462 -2.0118 -1.6085
  374TMC3    H1 5653   3.328   3.352   8.565 -0.9515  1.0595 -0.8244
  374TMC3    H2 5654   3.409   3.757   8.685  0.0293  0.1930 -0.2113
  374TMC3    C7 5655   3.285   3.616   8.510  0.1127 -0.0492  0.2708
  374TMC3    C8 5656   3.527   3.716   8.906 -0.5908  0.0968 -0.0949
  374TMC3    O1 5657   3.248   3.731   8.534  0.3318 -0.0695  0.0429
  374TMC3    O2 5658   3.557   3.822   8.851 -0.1333 -0.0890  0.2952
  375MPD2     C 5659   2.927   3.175  17.338  0.0385 -0.5328  0.7098
  375MPD2    C1 5660   2.851   3.233  17.239  0.6046 -0.3019  0.4921
  375MPD2    C2 5661   2.897   3.229  17.105 -0.0769 -0.2616  0.0744
  375MPD2    C3 5662   3.017   3.156  17.069  0.3995 -0.6003 -0.3486
  375MPD2    C4 5663   3.091   3.110  17.172  0.0376  0.7192 -0.1768
  375MPD2    C5 5664   3.053   3.120  17.301 -0.2751  0.8841 -0.8029
  375MPD2     H 5665   2.831   3.266  17.027 -2.4992  3.3924  3.8355
  375MPD2    H1 5666   3.191   3.071  17.152 -0.5774 -0.3212 -1.2746
  375MPD2    H2 5667   2.890   3.180  17.440  0.0085 -2.3560  0.7845
  375MPD2    H3 5668   3.119   3.088  17.380 -0.7499  0.8906 -0.3997
  375MPD2     N 5669   3.074   3.166  16.940  0.3098  0.2298 -0.7129
  375MPD2    H5 5670   3.176   3.165  16.934  0.2771 -1.9038 -0.8487
  375MPD2    N1 5671   2.719   3.269  17.261 -0.5251  0.2107 -0.5965
  375MPD2    H7 5672   2.675   3.317  17.184 -0.4106  1.3679  0.0541
  376TMC3    C1 5673   3.080   3.210  16.710  0.6970 -0.1662 -0.5322
  376TMC3    C2 5674   3.219   3.199  16.706  0.4370  0.0964  0.5055
  376TMC3    C3 5675   3.287   3.202  16.587 -0.3579 -0.4049 -0.1014
  376TMC3    C4 5676   3.014   3.222  16.590 -0.0719  0.3984  0.3314
  376TMC3    C5 5677   3.085   3.218  16.474 -0.1531 -0.4496  0.3616
  376TMC3    C6 5678   3.220   3.199  16.466 -0.5169  0.0921  0.0895
  376TMC3     C 5679   2.997   3.198  16.829  0.3774  0.0305 -0.2706
  376TMC3     O 5680   2.878   3.200  16.818  0.4685  0.2264  0.0701
  376TMC3     H 5681   3.278   3.216  16.795  1.8499  0.2437 -0.4545
  376TMC3    H1 5682   2.916   3.267  16.589  0.5826  1.8194 -0.0621
  376TMC3    H2 5683   3.280   3.195  16.376 -0.4549  0.5218  0.1083
  376TMC3    C7 5684   3.012   3.250  16.348  0.0575 -0.2430 -0.1989
  376TMC3    C8 5685   3.432   3.202  16.573  0.0958  0.4366 -0.2868
  376TMC3    O1 5686   2.924   3.334  16.333  0.2550  0.2366 -0.1272
  376TMC3    O2 5687   3.480   3.192  16.463  0.2288 -0.1271 -0.0672
  377MPD2     C 5688   1.537   2.365  12.188 -0.0911 -0.7035  0.5358
  377MPD2    C1 5689   1.444   2.462  12.175  0.2086  0.5554  0.1670
  377MPD2    C2 5690   1.324   2.436  12.228 -0.3619 -0.1093 -0.2037
  377MPD2    C3 5691   1.283   2.322  12.292  0.0204 -0.1793  0.1297
  377MPD2    C4 5692   1.388   2.238  12.318 -0.1647  0.3850 -0.6599
  377MPD2    C5 5693   1.509   2.253  12.263  0.0554  0.4231 -0.7804
  377MPD2     H 5694   1.245   2.506  12.203 -1.6284 -1.2655  0.5549
  377MPD2    H1 5695   1.376   2.157  12.388  1.4276  0.0052 -0.8319
  377MPD2    H2 5696   1.633   2.396  12.147  0.1512 -0.0443  1.5965
  377MPD2    H3 5697   1.587   2.183  12.288 -1.0608 -0.6386 -0.2607
  377MPD2     N 5698   1.153   2.306  12.337 -0.1260 -0.3103  0.1412
  377MPD2    H5 5699   1.137   2.243  12.415 -0.9123 -1.1937 -0.7352
  377MPD2    N1 5700   1.481   2.583  12.104 -0.0984  0.2914  0.0412
  377MPD2    H7 5701   1.577   2.583  12.072 -0.5599 -2.2005 -1.2995
  378TMC3    C1 5702   1.411   2.987  11.875  0.4741  0.1641  0.3485
  378TMC3    C2 5703   1.379   2.903  11.978  0.0581  0.1659 -0.2326
  378TMC3    C3 5704   1.462   2.798  12.009  0.1451  0.2573 -0.9257
  378TMC3    C4 5705   1.524   2.979  11.796  0.2443 -0.1896  0.5989
  378TMC3    C5 5706   1.603   2.865  11.831 -0.1384 -0.5327  0.3856
  378TMC3    C6 5707   1.572   2.778  11.934 -0.1394 -0.0265 -0.6956
  378TMC3     C 5708   1.307   3.078  11.827  0.4254 -1.0145  0.2899
  378TMC3     O 5709   1.196   3.049  11.855 -0.0775  0.3459 -0.4739
  378TMC3     H 5710   1.279   2.904  12.018 -0.8833  1.5771 -2.6081
  378TMC3    H1 5711   1.545   3.040  11.709 -3.0514  1.7361  1.1302
  378TMC3    H2 5712   1.631   2.687  11.947 -2.6823 -1.4956  0.6018
  378TMC3    C7 5713   1.715   2.829  11.736 -0.0304 -0.1195 -0.1608
  378TMC3    C8 5714   1.403   2.693  12.087  0.1175 -0.0037 -0.4218
  378TMC3    O1 5715   1.793   2.739  11.761 -0.0023 -0.5822  0.4863
  378TMC3    O2 5716   1.289   2.707  12.125 -0.1463 -0.7925  0.6195
  379MPD2     C 5717   1.849   1.487  16.237 -0.2549  0.0719  0.2716
  379MPD2    C1 5718   1.752   1.478  16.330 -0.8749 -0.2065 -0.2839
  379MPD2    C2 5719   1.795   1.458  16.460 -0.3267  0.2676  0.2841
  379MPD2    C3 5720   1.928   1.453  16.493 -0.0260 -0.7896 -0.9173
  379MPD2    C4 5721   2.020   1.472  16.398  0.1120 -1.0479 -0.1827
  379MPD2    C5 5722   1.979   1.493  16.272  0.2083 -0.3698 -0.4309
  379MPD2     H 5723   1.708   1.450  16.525 -0.5401  1.0329  0.0966
  379MPD2    H1 5724   2.126   1.467  16.421  0.3006  0.3885 -0.7454
  379MPD2    H2 5725   1.820   1.523  16.139 -0.9629  2.4934  1.3543
  379MPD2    H3 5726   2.055   1.511  16.197  1.4660  0.3042  1.0151
  379MPD2     N 5727   1.976   1.417  16.627 -0.1527  0.7912 -0.2265
  379MPD2    H5 5728   2.074   1.394  16.637 -0.6823 -0.3801  2.1625
  379MPD2    N1 5729   1.614   1.487  16.292 -0.0407 -0.3734  0.4082
  379MPD2    H7 5730   1.595   1.516  16.197  1.8750 -2.8676 -0.7228
  380TMC3    C1 5731   1.372   1.469  16.301  0.3332  0.3690  0.1606
  380TMC3    C2 5732   1.277   1.390  16.361 -0.3904  0.3298 -0.4587
  380TMC3    C3 5733   1.172   1.340  16.282 -0.7018 -0.6614  0.1961
  380TMC3    C4 5734   1.353   1.511  16.170  0.0449  0.5331 -0.6940
  380TMC3    C5 5735   1.248   1.465  16.101  0.2900  0.4339  0.3184
  380TMC3    C6 5736   1.154   1.384  16.155 -0.0887 -0.1772 -0.7016
  380TMC3     C 5737   1.506   1.445  16.363 -0.0847 -0.3829  0.0482
  380TMC3     O 5738   1.507   1.395  16.474 -0.1688 -0.6144  0.3536
  380TMC3     H 5739   1.293   1.356  16.462 -1.1694  1.6054  0.0805
  380TMC3    H1 5740   1.425   1.575  16.121  2.4657 -1.9019 -0.3081
  380TMC3    H2 5741   1.069   1.359  16.094 -0.1111  0.1503 -0.8005
  380TMC3    C7 5742   1.215   1.523  15.967  0.3545  0.2040  0.1447
  380TMC3    C8 5743   1.065   1.259  16.343 -0.4654 -0.1591 -0.0306
  380TMC3    O1 5744   1.252   1.632  15.932 -0.2110 -0.2783  0.0039
  380TMC3    O2 5745   0.951   1.305  16.332  0.2033  0.6058  0.0731
  381TMC3    C1 5746   1.171   2.379  16.523 -0.1493  0.0669 -0.0781
  381TMC3    C2 5747   1.293   2.442  16.515  0.0990 -0.6778 -0.4604
  381TMC3    C3 5748   1.301   2.573  16.550  0.6480 -0.2866 -0.5878
  381TMC3    C4 5749   1.051   2.450  16.552  0.2825 -0.3835  0.3186
  381TMC3    C5 5750   1.071   2.578  16.595 -0.8954  0.2852  0.3093
  381TMC3    C6 5751   1.189   2.641  16.597 -0.0933  0.1019 -0.2766
  381TMC3     C 5752   1.151   2.262  16.442 -0.3929 -0.1741 -0.6281
  381TMC3     O 5753   1.040   2.247  16.391 -0.4915  0.5884  0.4879
  381TMC3     H 5754   1.381   2.382  16.492  1.8710  1.3636  1.0209
  381TMC3    H1 5755   0.960   2.393  16.565  0.9783 -1.3627  0.9553
  381TMC3    H2 5756   1.185   2.749  16.607 -1.2861  0.2185 -1.9772
  381TMC3    C7 5757   0.955   2.662  16.603 -0.3339  0.3535  0.0365
  381TMC3    C8 5758   1.423   2.649  16.528 -0.5448 -0.1520  0.1690
  381TMC3    O1 5759   0.851   2.625  16.545  0.4126  0.0487  0.1286
  381TMC3    O2 5760   1.518   2.580  16.497 -0.3115  0.6358  0.1160
  382MPD2     C 5761   0.435   0.387  16.615  0.4865 -0.5703 -0.1195
  382MPD2    C1 5762   0.517   0.388  16.723  1.1247 -0.0918 -0.1101
  382MPD2    C2 5763   0.537   0.269  16.790 -0.3584 -0.4243 -0.0566
  382MPD2    C3 5764   0.466   0.156  16.757 -0.4405  0.3260  0.0782
  382MPD2    C4 5765   0.384   0.156  16.640  0.0200  0.2707 -0.4205
  382MPD2    C5 5766   0.365   0.278  16.581  0.0315  0.2822  0.3417
  382MPD2     H 5767   0.610   0.276  16.870  0.4126 -0.1699 -0.7807
  382MPD2    H1 5768   0.324   0.069  16.618 -0.6578  0.5550  0.2872
  382MPD2    H2 5769   0.425   0.477  16.555 -1.2265 -1.0152 -0.5081
  382MPD2    H3 5770   0.302   0.282  16.493  1.0306 -0.7043 -0.4275
  382MPD2     N 5771   0.465   0.046  16.843 -0.0163 -0.2533  0.8106
  382MPD2    H5 5772   0.416   4.700  16.810 -0.8791  0.9867 -0.9884
  382MPD2    N1 5773   0.605   0.494  16.761  0.3182 -0.1261 -0.2264
  382MPD2    H7 5774   0.669   0.476  16.838 -0.9236  1.3447  1.1449
  383TMC3    C1 5775   0.504   4.650  17.030  0.5798  0.7086  0.0511
  383TMC3    C2 5776   0.384   4.585  17.012  0.6301 -0.8075  0.3811
  383TMC3    C3 5777   0.346   4.502  17.111 -0.5922 -0.0726  0.0768
  383TMC3    C4 5778   0.577   4.645  17.143 -0.3663 -0.1999  0.7256
  383TMC3    C5 5779   0.518   4.575  17.245 -0.8795  0.0449 -0.9070
  383TMC3    C6 5780   0.405   4.501  17.235 -0.4496  0.1886  0.1650
  383TMC3     C 5781   0.529   0.040  16.965 -0.2089 -0.8200 -0.2174
  383TMC3     O 5782   0.607   0.122  17.013 -0.3256  0.0039  0.5706
  383TMC3     H 5783   0.336   4.579  16.915  0.1793 -0.4091  0.5771
  383TMC3    H1 5784   0.675   4.688  17.155 -0.5168  0.4574 -0.3823
  383TMC3    H2 5785   0.367   4.450  17.322 -0.3946 -0.5256 -0.2325
  383TMC3    C7 5786   0.565   4.611  17.385 -0.5715 -0.1095 -0.0140
  383TMC3    C8 5787   0.221   4.422  17.090 -0.4963  0.0833  0.5800
  383TMC3    O1 5788   0.563   4.523  17.470 -0.0206  0.2467 -0.0888
  383TMC3    O2 5789   0.157   4.443  16.989  0.2000 -0.3185 -0.1982
  384MPD2     C 5790   1.365   0.845  11.773  0.1064 -0.2367  0.5241
  384MPD2    C1 5791   1.484   0.915  11.794  0.4929 -0.1409 -0.1741
  384MPD2    C2 5792   1.598   0.878  11.719  0.0505 -0.0434  0.1190
  384MPD2    C3 5793   1.597   0.797  11.608  0.4100  0.3955  0.4032
  384MPD2    C4 5794   1.475   0.747  11.577 -0.6970 -0.0358  0.0748
  384MPD2    C5 5795   1.365   0.762  11.662  0.7461  0.1009  0.1392
  384MPD2     H 5796   1.693   0.912  11.757  0.3825 -1.6414  0.7320
  384MPD2    H1 5797   1.458   0.679  11.494 -0.3820  2.0717 -1.7360
  384MPD2    H2 5798   1.287   0.866  11.845 -0.9593 -0.4141 -0.5513
  384MPD2    H3 5799   1.271   0.712  11.642 -0.2178  2.6480 -1.6014
  384MPD2     N 5800   1.713   0.738  11.548  0.4608 -0.0864 -0.4190
  384MPD2    H5 5801   1.707   0.648  11.502 -0.4419 -1.3396  2.1515
  384MPD2    N1 5802   1.492   0.988  11.910 -0.7277  0.2190  0.1571
  384MPD2    H7 5803   1.429   0.962  11.985  0.4504  0.6776  1.3187
  385TMC3    C1 5804   1.959   0.723  11.528  0.9819 -0.1547  0.0651
  385TMC3    C2 5805   1.954   0.586  11.542 -0.6041 -0.1645  0.0459
  385TMC3    C3 5806   2.041   0.527  11.631  0.8735  0.2507 -0.2653
  385TMC3    C4 5807   2.065   0.793  11.581  0.7465 -0.6022  0.3560
  385TMC3    C5 5808   2.151   0.729  11.669  0.3006 -0.1988 -0.0354
  385TMC3    C6 5809   2.139   0.601  11.696 -0.2970  0.8979 -0.0471
  385TMC3     C 5810   1.839   0.802  11.550 -0.2257 -0.1342 -0.4917
  385TMC3     O 5811   1.866   0.921  11.583 -0.0037 -0.0626 -0.3313
  385TMC3     H 5812   1.871   0.524  11.509 -2.1581  2.0086 -0.1439
  385TMC3    H1 5813   2.085   0.896  11.554  0.2644 -0.4352  0.6366
  385TMC3    H2 5814   2.205   0.545  11.762 -3.1583 -1.9772  0.3461
  385TMC3    C7 5815   2.197   0.819  11.777 -0.2181  0.8532 -0.3508
  385TMC3    C8 5816   2.047   0.383  11.640  0.0437 -0.2764  0.0088
  385TMC3    O1 5817   2.163   0.938  11.772 -0.4991 -0.1730  0.4785
  385TMC3    O2 5818   2.071   0.337  11.751  0.9135  0.0334 -0.2922
  386TMC3    C1 5819   2.808   3.033  11.455  0.2985  0.1337  0.3324
  386TMC3    C2 5820   2.764   3.026  11.326  0.0739 -0.1605  0.1668
  386TMC3    C3 5821   2.656   3.106  11.302 -0.1528 -0.1364 -0.1532
  386TMC3    C4 5822   2.752   3.107  11.552 -0.5112  0.1165  0.0744
  386TMC3    C5 5823   2.639   3.179  11.522  0.1023 -0.3841 -0.2926
  386TMC3    C6 5824   2.589   3.173  11.398 -0.2938 -0.9895  0.6005
  386TMC3     C 5825   2.917   2.952  11.499 -0.3872  0.1459 -0.2935
  386TMC3     O 5826   3.016   3.007  11.552 -0.5742  0.5011 -0.3971
  386TMC3     H 5827   2.818   2.967  11.253 -0.6887 -1.0821  0.3407
  386TMC3    H1 5828   2.786   3.102  11.654  2.5169  1.3566 -0.8570
  386TMC3    H2 5829   2.500   3.230  11.373  0.7847  0.2986 -0.3017
  386TMC3    C7 5830   2.556   3.233  11.631 -0.6264 -0.0992 -0.1063
  386TMC3    C8 5831   2.589   3.086  11.174  0.0591 -0.2867 -0.4858
  386TMC3    O1 5832   2.437   3.236  11.605  0.5973 -0.3794 -0.2897
  386TMC3    O2 5833   2.469   3.111  11.159 -0.6076 -0.2179  0.1783
  387MPD2     C 5834   0.827   2.619   9.664  0.0905  0.6531 -0.9404
  387MPD2    C1 5835   0.833   2.612   9.524 -0.2318 -0.0495 -0.6757
  387MPD2    C2 5836   0.778   2.498   9.469 -0.8836  0.5644  0.4191
  387MPD2    C3 5837   0.726   2.392   9.542 -0.3032  0.0780  0.0477
  387MPD2    C4 5838   0.736   2.399   9.682  0.2218  0.4462 -0.3249
  387MPD2    C5 5839   0.777   2.516   9.740 -0.4994  0.3771  0.7063
  387MPD2     H 5840   0.792   2.486   9.362 -3.0822 -2.7811  0.5043
  387MPD2    H1 5841   0.732   2.322   9.759 -0.5272  0.9494  0.1362
  387MPD2    H2 5842   0.863   2.701   9.725  1.0580 -0.6810  0.2780
  387MPD2    H3 5843   0.776   2.520   9.848 -0.7797  0.0028  0.7174
  387MPD2     N 5844   0.706   2.265   9.476 -0.2964  0.5399 -1.1067
  387MPD2    H5 5845   0.716   2.272   9.375  0.4313 -0.2253 -1.0851
  387MPD2    N1 5846   0.892   2.702   9.439 -0.4266 -0.0727 -0.1481
  387MPD2    H7 5847   0.873   2.680   9.342  0.2412  1.2376 -0.5858
  388TMC3    C1 5848   1.045   2.859   9.353 -0.1315 -0.3130  0.6300
  388TMC3    C2 5849   1.104   2.982   9.351  0.2885  0.3862 -0.6334
  388TMC3    C3 5850   1.177   3.003   9.236 -0.0715  0.1098  0.5642
  388TMC3    C4 5851   1.055   2.775   9.251  0.1598 -0.2001  0.4198
  388TMC3    C5 5852   1.123   2.802   9.137  0.7274 -0.3585  0.8408
  388TMC3    C6 5853   1.186   2.923   9.127 -0.0115 -0.6673  0.4465
  388TMC3     C 5854   0.971   2.807   9.471 -0.1811  0.4855  0.1154
  388TMC3     O 5855   0.980   2.857   9.581  0.6228 -0.2425  0.0617
  388TMC3     H 5856   1.093   3.058   9.428  0.0961  0.3626 -0.6365
  388TMC3    H1 5857   1.039   2.670   9.272  0.4266 -0.5749 -1.2625
  388TMC3    H2 5858   1.230   2.970   9.040 -0.6673 -0.6813  0.1025
  388TMC3    C7 5859   1.157   2.691   9.044 -0.3320  0.3773  0.1438
  388TMC3    C8 5860   1.272   3.109   9.239  0.4844  0.3614  0.4386
  388TMC3    O1 5861   1.251   2.695   8.968  0.6340 -0.1282  0.2778
  388TMC3    O2 5862   1.307   3.162   9.134  0.4211 -0.5039  0.6853
  389MPD2     C 5863   4.370   1.482  10.656  0.6007 -0.0955 -0.0833
  389MPD2    C1 5864   4.270   1.456  10.567  1.2499  0.1576  0.3244
  389MPD2    C2 5865   4.154   1.404  10.618  0.5392  0.5921  0.3117
  389MPD2    C3 5866   4.142   1.390  10.758  0.7912  0.2001  0.1363
  389MPD2    C4 5867   4.246   1.410  10.848 -0.0368  0.0825 -0.4676
  389MPD2    C5 5868   4.365   1.463  10.795 -0.5439 -0.0213  0.1159
  389MPD2     H 5869   4.077   1.384  10.545 -1.4144 -0.2159  2.5950
  389MPD2    H1 5870   4.238   1.384  10.953  0.2491 -1.1764 -0.7679
  389MPD2    H2 5871   4.468   1.512  10.623  0.3211 -0.0482 -0.8542
  389MPD2    H3 5872   4.463   1.470  10.843 -0.6834 -0.7843  0.5198
  389MPD2     N 5873   4.024   1.341  10.811  0.1934  0.5295  0.1058
  389MPD2    H5 5874   4.026   1.327  10.911 -1.5001 -1.4450 -0.1315
  389MPD2    N1 5875   4.291   1.478  10.429  0.2797  0.4583  0.4792
  389MPD2    H7 5876   4.377   1.527  10.408 -0.1368  0.7807 -0.5335
  390TMC3    C1 5877   3.797   1.269  10.827 -0.0554  0.3459 -0.6248
  390TMC3    C2 5878   3.802   1.270  10.965 -0.7087  0.9100 -1.2372
  390TMC3    C3 5879   3.688   1.277  11.042 -0.0331 -0.3112  0.0593
  390TMC3    C4 5880   3.676   1.233  10.765  0.1624 -0.0583 -0.3781
  390TMC3    C5 5881   3.570   1.218  10.845 -0.7132  0.4435  0.2720
  390TMC3    C6 5882   3.568   1.250  10.983  0.4280  0.1353  0.1739
  390TMC3     C 5883   3.900   1.332  10.744 -0.1864  0.0957  0.1205
  390TMC3     O 5884   3.866   1.366  10.628  0.2520  0.0136  0.5935
  390TMC3     H 5885   3.894   1.296  11.017  0.2627 -0.2893 -2.3509
  390TMC3    H1 5886   3.678   1.206  10.660 -0.5126 -2.5852  0.2859
  390TMC3    H2 5887   3.474   1.267  11.035  0.0459 -0.2016 -0.4002
  390TMC3    C7 5888   3.504   1.097  10.812  0.5912  0.0754 -0.1155
  390TMC3    C8 5889   3.694   1.179  11.146  0.9476 -0.4447  0.2635
  390TMC3    O1 5890   3.533   1.038  10.712 -0.2632 -0.2777 -0.0073
  390TMC3    O2 5891   3.764   1.080  11.118  0.0991  0.7976 -0.1809
  391MPD2     C 5892   3.754   2.728  10.117 -0.7075  0.3734 -0.5331
  391MPD2    C1 5893   3.793   2.844  10.186  0.2913 -0.1356  0.4755
  391MPD2    C2 5894   3.810   2.958  10.111 -0.6336 -0.3416 -0.1624
  391MPD2    C3 5895   3.783   2.964   9.978  0.3611 -0.0226 -0.3980
  391MPD2    C4 5896   3.739   2.854   9.917 -0.5801 -0.5842  0.8680
  391MPD2    C5 5897   3.727   2.738   9.986  0.0294  1.2473  0.3122
  391MPD2     H 5898   3.844   3.047  10.163  1.6877 -1.3418  0.0405
  391MPD2    H1 5899   3.701   2.852   9.815 -0.2455  1.3192  0.6981
  391MPD2    H2 5900   3.740   2.635  10.171 -0.9750  2.2327  2.6002
  391MPD2    H3 5901   3.698   2.648   9.933  0.5319  0.0662  2.0272
  391MPD2     N 5902   3.803   3.086   9.909 -0.5424  0.1129  0.6692
  391MPD2    H5 5903   3.832   3.167   9.963 -0.1907 -0.5086  1.4072
  391MPD2    N1 5904   3.823   2.832  10.329  0.2111 -0.1662 -0.2589
  391MPD2    H7 5905   3.829   2.742  10.375  0.6713 -0.2587 -0.4974
  392TMC3    C1 5906   3.807   3.253   9.742  0.5879 -0.0132 -0.9541
  392TMC3    C2 5907   3.748   3.315   9.634 -0.4267 -0.2245  0.2855
  392TMC3    C3 5908   3.778   3.448   9.613  1.2090 -0.0953 -0.2318
  392TMC3    C4 5909   3.905   3.311   9.813  0.2861 -0.5643 -0.6668
  392TMC3    C5 5910   3.934   3.440   9.781 -0.2213  0.1796  0.2805
  392TMC3    C6 5911   3.864   3.515   9.690  0.1591 -0.8812  0.0959
  392TMC3     C 5912   3.775   3.113   9.777 -0.0349  0.4925  0.5406
  392TMC3     O 5913   3.691   3.055   9.707  0.3003  0.3739 -0.3654
  392TMC3     H 5914   3.672   3.258   9.583 -2.5530  1.8611  1.1064
  392TMC3    H1 5915   3.951   3.262   9.898 -1.1084 -1.0435 -0.1768
  392TMC3    H2 5916   3.883   3.621   9.677  1.4542 -1.2447 -1.0281
  392TMC3    C7 5917   4.005   3.515   9.884 -0.3473  0.9090 -0.3259
  392TMC3    C8 5918   3.711   3.514   9.503 -0.7338 -0.0982  0.0215
  392TMC3    O1 5919   4.007   3.471   9.996  0.3491 -0.3089 -0.1081
  392TMC3    O2 5920   3.635   3.433   9.453 -0.2813  0.2347  0.3471
  393TMC3    C1 5921   1.959   0.543  10.201 -0.0833  0.0275  0.8930
  393TMC3    C2 5922   1.828   0.542  10.166  0.4509 -0.1736 -0.4708
  393TMC3    C3 5923   1.750   0.457  10.236  0.5431 -0.4497 -0.2564
  393TMC3    C4 5924   2.016   0.461  10.288  0.5879  0.2947 -0.4964
  393TMC3    C5 5925   1.935   0.370  10.347 -0.0383  0.2457 -0.1843
  393TMC3    C6 5926   1.800   0.369  10.323 -0.0104 -0.2879  0.4458
  393TMC3     C 5927   2.043   0.642  10.135  0.0553 -0.0124 -0.4188
  393TMC3     O 5928   1.970   0.717  10.070 -0.4483  0.1186 -0.4483
  393TMC3     H 5929   1.788   0.620  10.102 -1.1888 -0.4516  0.2139
  393TMC3    H1 5930   2.120   0.468  10.319  1.2417 -0.7083 -2.4758
  393TMC3    H2 5931   1.738   0.297  10.375 -1.7889 -0.5245 -2.0354
  393TMC3    C7 5932   1.955   0.342  10.490 -0.0338 -0.1146  0.2831
  393TMC3    C8 5933   1.606   0.459  10.198  0.0765  0.5356  0.2780
  393TMC3    O1 5934   1.906   0.237  10.531  0.4515  0.2927 -0.4810
  393TMC3    O2 5935   1.574   0.549  10.126  0.6485  0.3082 -0.3476
  394TMC3    C1 5936   4.271   1.454  10.192 -0.3112  0.1103  0.1490
  394TMC3    C2 5937   4.201   1.393  10.092 -0.1855  1.0431 -1.1631
  394TMC3    C3 5938   4.254   1.403   9.966 -0.1386  0.5047  0.1686
  394TMC3    C4 5939   4.372   1.549  10.170 -0.1024  0.3589 -0.9047
  394TMC3    C5 5940   4.410   1.561  10.041 -0.2938  0.2533  1.2210
  394TMC3    C6 5941   4.357   1.493   9.940 -0.0805 -0.0881  0.1792
  394TMC3     C 5942   4.213   1.433  10.325 -0.1403  0.3430  0.5908
  394TMC3     O 5943   4.122   1.350  10.326  0.0110 -0.0842  0.2844
  394TMC3     H 5944   4.122   1.321  10.111  0.8999  0.4223  1.0597
  394TMC3    H1 5945   4.427   1.603  10.246 -2.9657  0.4607  1.0742
  394TMC3    H2 5946   4.372   1.508   9.833 -1.0574 -0.4625 -0.0149
  394TMC3    C7 5947   4.538   1.620  10.012  0.2607  0.8442 -0.3887
  394TMC3    C8 5948   4.219   1.313   9.857  0.5451  0.0432 -0.7292
  394TMC3    O1 5949   4.560   1.736  10.049 -0.0371 -0.2267  0.3735
  394TMC3    O2 5950   4.301   1.313   9.769 -0.2169  0.2318  0.4722
  395TMC3    C1 5951   3.645   3.095  15.017  0.6064  0.0408  0.0416
  395TMC3    C2 5952   3.608   3.029  14.894  0.4300 -0.4820  0.2781
  395TMC3    C3 5953   3.648   3.092  14.782 -0.0161  0.2809  0.5966
  395TMC3    C4 5954   3.708   3.216  15.021  0.4687 -0.8325 -0.2388
  395TMC3    C5 5955   3.741   3.276  14.902  0.4604  0.6417  0.4200
  395TMC3    C6 5956   3.709   3.212  14.782 -0.4274 -0.2324  0.1420
  395TMC3     C 5957   3.651   3.018  15.140  0.5836 -0.7833  0.4659
  395TMC3     O 5958   3.687   2.899  15.136 -0.2079 -0.0429 -0.0693
  395TMC3     H 5959   3.550   2.938  14.901  2.9920 -2.5289 -5.2034
  395TMC3    H1 5960   3.750   3.255  15.113  0.2535 -2.1579  0.4201
  395TMC3    H2 5961   3.761   3.243  14.692  0.7295 -0.7232  0.6380
  395TMC3    C7 5962   3.833   3.391  14.903  0.4784  0.6956  0.1326
  395TMC3    C8 5963   3.545   3.100  14.684  0.2220  0.3561  0.6419
  395TMC3    O1 5964   3.808   3.486  14.976 -0.1292 -0.8229  0.3300
  395TMC3    O2 5965   3.501   3.212  14.655 -0.1243 -0.0673 -0.1204
  396MPD2     C 5966   3.431   4.283  17.165  0.5031  0.8426  0.4917
  396MPD2    C1 5967   3.515   4.378  17.217 -0.1870  0.4138 -0.1457
  396MPD2    C2 5968   3.536   4.495  17.143 -0.7666 -0.8481  0.3275
  396MPD2    C3 5969   3.497   4.504  17.013 -0.3339  0.0328  0.7241
  396MPD2    C4 5970   3.409   4.409  16.961 -0.1264 -0.3394 -0.3965
  396MPD2    C5 5971   3.377   4.303  17.041  0.7833 -0.3838  0.6329
  396MPD2     H 5972   3.604   4.574  17.176 -0.8123  0.8364 -3.6354
  396MPD2    H1 5973   3.376   4.411  16.858 -0.8804  0.5886 -0.1324
  396MPD2    H2 5974   3.414   4.188  17.215  0.8585 -1.1821 -3.2836
  396MPD2    H3 5975   3.328   4.212  17.006 -0.4135  0.6657 -0.4108
  396MPD2     N 5976   3.552   4.616  16.937  0.0530  0.2697  0.2356
  396MPD2    H5 5977   3.616   4.679  16.983 -0.3102 -0.0956  1.2437
  396MPD2    N1 5978   3.563   4.349  17.343 -0.4963  0.8078  0.0290
  396MPD2    H7 5979   3.546   4.253  17.373  1.9537 -0.1254 -1.5152
  397TMC3    C1 5980   3.723   4.349  17.514  0.8173 -0.1005 -0.2450
  397TMC3    C2 5981   3.851   4.359  17.478 -0.3319 -0.9828 -0.6473
  397TMC3    C3 5982   3.912   4.249  17.425  0.9426  0.0770 -0.2803
  397TMC3    C4 5983   3.673   4.219  17.529 -0.5869 -0.7723 -0.3529
  397TMC3    C5 5984   3.746   4.106  17.486 -0.2755  0.4674  0.3652
  397TMC3    C6 5985   3.864   4.121  17.430 -0.2913 -0.1942 -0.0038
  397TMC3     C 5986   3.647   4.421  17.415 -0.1636  0.5775 -0.1036
  397TMC3     O 5987   3.678   4.535  17.394  0.0919 -0.3969 -0.4308
  397TMC3     H 5988   3.891   4.453  17.443 -0.4104  0.0408  1.9884
  397TMC3    H1 5989   3.567   4.206  17.550 -1.0219  1.0827 -1.4410
  397TMC3    H2 5990   3.913   4.036  17.383  0.1650  0.2531 -0.3472
  397TMC3    C7 5991   3.696   3.974  17.513 -0.0514 -0.4638 -0.3293
  397TMC3    C8 5992   3.950   4.270  17.284  0.2639  0.0420  0.2907
  397TMC3    O1 5993   3.743   3.880  17.449 -0.4840 -0.2307  0.3423
  397TMC3    O2 5994   3.906   4.189  17.204 -0.3567 -0.8881 -0.1861
  398MPD2     C 5995   1.872   1.481   0.081  0.2285 -0.2662 -0.1285
  398MPD2    C1 5996   1.966   1.392   0.119 -0.1823  0.2164  0.3052
  398MPD2    C2 5997   2.075   1.439   0.190 -0.0641  0.3764 -0.1344
  398MPD2    C3 5998   2.088   1.569   0.239  0.1872  0.6907 -0.4290
  398MPD2    C4 5999   1.981   1.655   0.214  0.9559  0.2136  0.2823
  398MPD2    C5 6000   1.882   1.607   0.132 -0.2582  0.2924 -0.7206
  398MPD2     H 6001   2.156   1.375   0.225  1.6960  2.9081  0.4041
  398MPD2    H1 6002   1.965   1.748   0.267 -1.3258  1.1413 -2.0032
  398MPD2    H2 6003   1.787   1.463   0.016 -0.4363 -0.8083  0.8912
  398MPD2    H3 6004   1.792   1.665   0.114  0.8299  1.8003 -1.3184
  398MPD2     N 6005   2.200   1.605   0.317 -0.0882  0.5561  0.1882
  398MPD2    H5 6006   2.263   1.532   0.347  0.4613  0.3819 -1.3671
  398MPD2    N1 6007   1.951   1.255   0.094 -0.1837 -0.4626 -0.2584
  398MPD2    H7 6008   2.036   1.204   0.117 -0.9002 -1.3736  0.3414
  399TMC3    C1 6009   1.866   1.058   0.019  0.4547 -0.4871 -0.5243
  399TMC3    C2 6010   1.955   0.995   0.105 -0.7794  0.5982 -0.5228
  399TMC3    C3 6011   1.946   0.858   0.106  0.1661  0.1570  1.1181
  399TMC3    C4 6012   1.786   0.995  17.672 -0.1420  0.5721  0.0766
  399TMC3    C5 6013   1.784   0.859  17.675  0.3872  0.3780  0.4185
  399TMC3    C6 6014   1.859   0.784   0.026 -0.1123  0.0251  0.7384
  399TMC3     C 6015   1.852   1.200   0.014  0.2249 -0.1942  0.5775
  399TMC3     O 6016   1.779   1.256  17.674 -0.0277  0.0836 -0.2296
  399TMC3     H 6017   2.034   1.038   0.165 -1.4762 -0.5212  1.2238
  399TMC3    H1 6018   1.720   1.055  17.610 -1.1426 -0.7654 -0.1396
  399TMC3    H2 6019   1.856   0.675   0.024  0.1410  0.0256  0.2089
  399TMC3    C7 6020   1.704   0.784  17.582  1.0265  0.0771 -0.4019
  399TMC3    C8 6021   2.032   0.782   0.195 -0.5094  0.2300  0.1731
  399TMC3    O1 6022   1.709   0.664  17.604  0.5980 -0.3820  0.2363
  399TMC3    O2 6023   2.127   0.843   0.237  0.0359  0.5026  0.0550
  400TMC3    C1 6024   0.128   4.071  16.908  0.2253 -0.2037  0.5791
  400TMC3    C2 6025   0.032   3.972  16.937 -0.4144 -0.1206 -0.1429
  400TMC3    C3 6026   4.655   3.993  16.862 -0.3331 -0.5562 -0.6703
  400TMC3    C4 6027   0.105   4.182  16.830  0.6198 -0.3652 -0.1517
  400TMC3    C5 6028   4.732   4.180  16.752  0.6591 -0.4339  0.1688
  400TMC3    C6 6029   4.637   4.093  16.776 -0.1694  0.3987 -0.7743
  400TMC3     C 6030   0.252   4.060  16.982  0.2213  0.0128 -0.5937
  400TMC3     O 6031   0.256   3.974  17.071 -0.2880  0.6766 -0.2381
  400TMC3     H 6032   0.046   3.891  17.008 -0.7672  0.2921  0.4010
  400TMC3    H1 6033   0.180   4.255  16.806 -0.7965  0.8985 -0.7340
  400TMC3    H2 6034   4.550   4.097  16.712  0.6888 -2.4494 -2.1274
  400TMC3    C7 6035   4.685   4.298  16.679 -0.8758 -0.2171 -0.2191
  400TMC3    C8 6036   4.545   3.910  16.904 -0.1228 -0.2539 -0.0715
  400TMC3    O1 6037   4.593   4.285  16.596 -0.3994  0.5309 -0.6975
  400TMC3    O2 6038   4.551   3.869  17.020  0.2105  0.6472 -0.5349
  401MPD2     C 6039   3.701   3.257   0.864 -0.5110  0.5133  0.2560
  401MPD2    C1 6040   3.768   3.168   0.945 -0.9264 -0.0721 -0.3927
  401MPD2    C2 6041   3.710   3.045   0.965  0.6666 -0.3108  0.1498
  401MPD2    C3 6042   3.593   3.009   0.905 -0.3004  0.1439  0.3794
  401MPD2    C4 6043   3.525   3.098   0.818  0.1176 -1.1205  0.0004
  401MPD2    C5 6044   3.579   3.222   0.807  0.0158  0.0407 -0.0442
  401MPD2     H 6045   3.752   2.970   1.032 -0.0420  2.2613  3.5035
  401MPD2    H1 6046   3.424   3.080   0.782 -0.4640 -2.2103  2.1313
  401MPD2    H2 6047   3.742   3.356   0.847 -3.1882  1.7445  0.9767
  401MPD2    H3 6048   3.529   3.297   0.747  1.5218 -0.6998 -2.2237
  401MPD2     N 6049   3.538   2.881   0.925  0.1960 -0.1116 -0.5062
  401MPD2    H5 6050   3.575   2.819   0.997 -1.7304 -0.9841 -0.2591
  401MPD2    N1 6051   3.902   3.188   0.992  0.1168  0.4144 -0.0941
  401MPD2    H7 6052   3.941   3.108   1.041  2.7342  1.4476 -0.5235
  402TMC3    C1 6053   3.411   2.685   0.875 -0.1852 -0.2567 -0.1037
  402TMC3    C2 6054   3.444   2.629   1.000  0.0516 -0.1795  0.2477
  402TMC3    C3 6055   3.453   2.491   1.001  0.2758 -0.5627  0.3068
  402TMC3    C4 6056   3.379   2.601   0.771 -0.2492  0.0993 -0.5343
  402TMC3    C5 6057   3.392   2.468   0.782  0.0606  0.5611 -0.0317
  402TMC3    C6 6058   3.433   2.407   0.894 -1.1074 -0.5588 -0.3048
  402TMC3     C 6059   3.437   2.822   0.844  0.2916 -0.5497  0.3707
  402TMC3     O 6060   3.392   2.871   0.739 -0.3283  0.1656  0.1167
  402TMC3     H 6061   3.436   2.694   1.087 -1.9728 -2.3455  1.6891
  402TMC3    H1 6062   3.365   2.637   0.670 -0.7458 -0.5661 -0.7050
  402TMC3    H2 6063   3.439   2.299   0.902 -0.8925 -0.4836  0.5190
  402TMC3    C7 6064   3.406   2.392   0.655  0.1490  0.3765 -0.0460
  402TMC3    C8 6065   3.460   2.412   1.128 -0.5607  0.2807 -0.8000
  402TMC3    O1 6066   3.365   2.433   0.548  0.3928  0.2931 -0.5098
  402TMC3    O2 6067   3.452   2.290   1.124  0.3176  0.0934 -0.6959
  403MPD2     C 6068   1.575   4.731  13.127 -0.1002  0.6286  0.5550
  403MPD2    C1 6069   1.506   0.094  13.196  1.3655  0.5154  0.4712
  403MPD2    C2 6070   1.584   0.190  13.258  0.2825  0.2497  0.6970
  403MPD2    C3 6071   1.723   0.176  13.275  0.4094 -0.0296 -0.5284
  403MPD2    C4 6072   1.789   0.080  13.207  0.1568 -0.0687 -0.5314
  403MPD2    C5 6073   1.714   4.734  13.127  0.5098  0.7594 -0.4834
  403MPD2     H 6074   1.538   0.258  13.329  2.0211  0.9259  1.1708
  403MPD2    H1 6075   1.896   0.060  13.211 -0.1731 -1.9521 -1.3140
  403MPD2    H2 6076   1.528   4.654  13.067  0.3224  0.1187  0.8816
  403MPD2    H3 6077   1.760   4.651  13.075 -3.3747 -1.7220  0.0927
  403MPD2     N 6078   1.785   0.261  13.367 -0.1454  0.0537  0.1541
  403MPD2    H5 6079   1.726   0.335  13.406  0.0780  0.0738  0.4549
  403MPD2    N1 6080   1.366   0.086  13.197 -0.6646 -0.4228  0.0374
  403MPD2    H7 6081   1.327   4.730  13.181 -1.3928 -0.5688  2.6665
  404TMC3    C1 6082   1.182   0.132  13.329  0.6743  0.3364  0.5465
  404TMC3    C2 6083   1.173   0.198  13.449  0.1270  0.5755 -0.2323
  404TMC3    C3 6084   1.104   0.137  13.545 -0.3965 -0.6553 -0.5780
  404TMC3    C4 6085   1.125   0.014  13.297  0.3519 -0.4833 -0.4123
  404TMC3    C5 6086   1.038   4.702  13.395 -1.0408 -0.2076  0.0386
  404TMC3    C6 6087   1.021   0.027  13.518 -0.4038  0.2077 -0.0432
  404TMC3     C 6088   1.289   0.186  13.250  0.3310  0.2029  0.4135
  404TMC3     O 6089   1.320   0.302  13.266  0.0994  0.0491 -0.2958
  404TMC3     H 6090   1.212   0.298  13.467  0.2966  0.6657 -1.0792
  404TMC3    H1 6091   1.147   4.696  13.206 -1.6892  0.4459 -1.4758
  404TMC3    H2 6092   0.959   4.715  13.593 -1.1389 -0.8405 -1.3213
  404TMC3    C7 6093   0.969   4.585  13.363  0.1237 -0.0534 -0.4829
  404TMC3    C8 6094   1.117   0.196  13.682  0.6159 -0.6066  0.0741
  404TMC3    O1 6095   0.926   4.506  13.445 -0.3184  0.4323  0.0897
  404TMC3    O2 6096   1.165   0.308  13.704 -0.1308 -0.5142  0.0686
  405MPD2     C 6097   1.790   1.459  15.544 -0.8566  0.6223  0.1472
  405MPD2    C1 6098   1.748   1.343  15.472 -0.1194  0.1328  0.2806
  405MPD2    C2 6099   1.667   1.367  15.367 -0.6055  0.0570 -0.3057
  405MPD2    C3 6100   1.632   1.491  15.322 -0.6988 -0.3831  0.5464
  405MPD2    C4 6101   1.678   1.610  15.389 -0.3970 -0.1954  0.3414
  405MPD2    C5 6102   1.752   1.588  15.501 -0.0658  0.3805 -0.5676
  405MPD2     H 6103   1.635   1.286  15.302  0.5945  1.8974 -3.2089
  405MPD2    H1 6104   1.651   1.710  15.356 -0.9433 -0.8916 -1.3294
  405MPD2    H2 6105   1.853   1.457  15.632 -1.4156  2.6951  0.5903
  405MPD2    H3 6106   1.787   1.679  15.548  0.9767 -0.3245  0.0299
  405MPD2     N 6107   1.550   1.480  15.210  0.2227  0.5370  0.0121
  405MPD2    H5 6108   1.540   1.388  15.168  3.2336 -0.1995  0.9069
  405MPD2    N1 6109   1.782   1.216  15.522  0.1754 -0.3205  0.7077
  405MPD2    H7 6110   1.823   1.215  15.614 -1.1476 -2.2140  1.2921
  406TMC3    C1 6111   1.328   1.570  14.822 -1.0178  0.0319  0.1586
  406TMC3    C2 6112   1.280   1.446  14.826  1.3137  0.1793 -0.3832
  406TMC3    C3 6113   1.298   1.370  14.931  0.3178  0.0333 -0.2862
  406TMC3    C4 6114   1.398   1.617  14.932  0.1534  0.1169 -1.1009
  406TMC3    C5 6115   1.417   1.532  15.036 -0.3912  0.0432 -0.3637
  406TMC3    C6 6116   1.364   1.408  15.039  0.0786  0.0502  0.3215
  406TMC3     C 6117   1.263   1.684  14.751 -0.1658 -0.4539  0.8443
  406TMC3     O 6118   1.270   1.801  14.793  0.7349 -0.0741  0.0366
  406TMC3     H 6119   1.226   1.397  14.746  0.3923 -2.3806  1.8097
  406TMC3    H1 6120   1.442   1.716  14.938 -0.0383  0.1225  0.1000
  406TMC3    H2 6121   1.360   1.351  15.132  2.9485 -0.4922  0.1015
  406TMC3    C7 6122   1.502   1.582  15.138 -0.7395  0.0244  0.3785
  406TMC3    C8 6123   1.276   1.228  14.913 -0.1897  0.2136  0.1103
  406TMC3    O1 6124   1.532   1.700  15.137  0.5152  0.3808 -0.1450
  406TMC3    O2 6125   1.170   1.192  14.864 -0.1268  0.0203 -0.0711
  407MPD2     C 6126   4.417   3.018   9.831  0.3846  0.0486  0.7631
  407MPD2    C1 6127   4.501   3.101   9.908  0.0417 -0.0152  0.4347
  407MPD2    C2 6128   4.441   3.177  10.007 -0.2004  0.5325  0.0722
  407MPD2    C3 6129   4.305   3.176  10.022  0.3026  0.2302 -0.5602
  407MPD2    C4 6130   4.227   3.111   9.932  0.5718  0.3150  0.3244
  407MPD2    C5 6131   4.277   3.031   9.839  0.8990  0.9809 -0.7793
  407MPD2     H 6132   4.505   3.238  10.069 -1.9280  0.4387  1.9448
  407MPD2    H1 6133   4.120   3.107   9.946  0.3841 -0.8706 -1.4243
  407MPD2    H2 6134   4.458   2.950   9.757 -0.3353  0.4185  0.0143
  407MPD2    H3 6135   4.209   2.975   9.777 -1.7351  2.2749  0.9357
  407MPD2     N 6136   4.248   3.248  10.127  0.3305  0.1582  0.6007
  407MPD2    H5 6137   4.152   3.282  10.123  0.6684  1.1065  0.3816
  407MPD2    N1 6138   4.638   3.084   9.926 -0.1281 -0.3204 -0.1000
  407MPD2    H7 6139   4.676   3.115  10.015 -2.3065  1.1269  0.3015
  408TMC3    C1 6140   0.114   2.996   9.876  0.6021 -0.4227 -0.2068
  408TMC3    C2 6141   0.185   2.944   9.770 -0.8951  0.5707 -0.3463
  408TMC3    C3 6142   0.309   2.991   9.754 -0.1120 -0.4445  0.4429
  408TMC3    C4 6143   0.177   3.081   9.971 -0.4245 -0.1549  0.4987
  408TMC3    C5 6144   0.303   3.121   9.943 -0.9009 -0.7723 -0.1927
  408TMC3    C6 6145   0.369   3.083   9.839 -0.2582 -0.2891 -0.0975
  408TMC3     C 6146   4.714   3.016   9.833 -0.4188  0.2791 -0.4217
  408TMC3     O 6147   4.677   2.976   9.720  0.0859  0.1882 -0.0204
  408TMC3     H 6148   0.146   2.875   9.695 -0.6159 -0.8140  0.7772
  408TMC3    H1 6149   0.123   3.118  10.057  3.0582  2.0698  1.7246
  408TMC3    H2 6150   0.469   3.118   9.816 -1.3501  1.3586 -2.4694
  408TMC3    C7 6151   0.335   3.254   9.996  0.1365 -0.4061  0.1368
  408TMC3    C8 6152   0.368   2.978   9.617 -0.2256 -0.0386 -0.3702
  408TMC3    O1 6153   0.401   3.326   9.928  0.3658  0.2588 -0.2078
  408TMC3    O2 6154   0.327   2.886   9.544  0.1996  0.1389  0.7588
  409MPD2     C 6155   3.634   3.664  17.105  0.5732  0.1699 -0.3334
  409MPD2    C1 6156   3.748   3.693  17.177 -0.8615 -0.5420  0.2011
  409MPD2    C2 6157   3.847   3.785  17.136  0.2266  0.7125  0.1798
  409MPD2    C3 6158   3.835   3.834  17.010 -0.0344  0.6564 -0.5403
  409MPD2    C4 6159   3.732   3.807  16.936 -0.9378 -0.2107  0.6618
  409MPD2    C5 6160   3.624   3.728  16.986 -0.8572  0.3037 -0.4432
  409MPD2     H 6161   3.922   3.818  17.207  0.5966 -1.1820  0.6785
  409MPD2    H1 6162   3.711   3.843  16.836 -0.0919 -1.8014 -0.0892
  409MPD2    H2 6163   3.557   3.601  17.149 -0.5578  1.6941 -0.1503
  409MPD2    H3 6164   3.533   3.715  16.929 -1.0732  2.0704 -0.5000
  409MPD2     N 6165   3.939   3.919  16.951  0.2104  0.5483  0.1263
  409MPD2    H5 6166   3.919   3.952  16.857  1.4416 -1.2235 -0.7331
  409MPD2    N1 6167   3.780   3.637  17.300  0.7583 -0.1343 -0.3019
  409MPD2    H7 6168   3.869   3.677  17.330  1.2668 -1.2039 -0.3865
  410TMC3    C1 6169   4.122   4.060  16.943  0.2156  0.5675  0.1400
  410TMC3    C2 6170   4.222   4.126  17.008  0.3138 -0.2848 -0.8852
  410TMC3    C3 6171   4.295   4.218  16.933 -0.0710 -0.3234 -0.1844
  410TMC3    C4 6172   4.102   4.081  16.808 -0.4281  0.3223  0.5097
  410TMC3    C5 6173   4.178   4.166  16.732  0.7511  0.3243  0.0634
  410TMC3    C6 6174   4.278   4.238  16.797  0.4314 -1.0850 -1.5926
  410TMC3     C 6175   4.058   3.952  17.010  0.5643 -0.0009  0.2337
  410TMC3     O 6176   4.117   3.913  17.111  0.2147 -0.6294 -0.3478
  410TMC3     H 6177   4.228   4.125  17.116  5.0922  2.0485 -1.1244
  410TMC3    H1 6178   4.022   4.029  16.758  0.9531 -2.2357  0.9479
  410TMC3    H2 6179   4.360   4.280  16.741  1.5760 -0.6318  0.4213
  410TMC3    C7 6180   4.156   4.168  16.587  0.5755  0.3268  0.5675
  410TMC3    C8 6181   4.421   4.276  16.991 -0.0600  0.2466  0.1148
  410TMC3    O1 6182   4.124   4.066  16.530  0.3335 -0.1125 -0.0687
  410TMC3    O2 6183   4.469   4.377  16.938 -0.2900  0.3612  0.2404
  411MPD2     C 6184   3.786   3.811  14.689  0.3929  0.1692 -0.3198
  411MPD2    C1 6185   3.694   3.869  14.598  0.5370 -0.6763  0.2885
  411MPD2    C2 6186   3.612   3.790  14.526  0.1907 -0.2172  0.4177
  411MPD2    C3 6187   3.613   3.650  14.546 -0.0402  0.3091 -0.1203
  411MPD2    C4 6188   3.704   3.595  14.628  0.1131  0.3562  0.7414
  411MPD2    C5 6189   3.783   3.676  14.702 -0.6958  0.3021  0.7348
  411MPD2     H 6190   3.548   3.823  14.445  0.2474 -0.4094  0.2933
  411MPD2    H1 6191   3.690   3.490  14.653 -2.6784  0.9034  1.5013
  411MPD2    H2 6192   3.859   3.865  14.748 -0.1299 -0.9322  1.3205
  411MPD2    H3 6193   3.839   3.638  14.787  0.1951 -0.2773 -0.1036
  411MPD2     N 6194   3.538   3.555  14.475 -0.0439 -0.1045 -0.1773
  411MPD2    H5 6195   3.559   3.458  14.497 -0.2826  0.3892  2.1742
  411MPD2    N1 6196   3.696   4.010  14.571 -0.5578 -0.4797  0.3684
  411MPD2    H7 6197   3.625   4.049  14.510 -0.6668 -0.6645  0.3794
  412TMC3    C1 6198   3.372   3.459  14.348  0.3872 -0.3433  1.3038
  412TMC3    C2 6199   3.279   3.475  14.250 -0.3516  0.5559  1.2987
  412TMC3    C3 6200   3.291   3.393  14.138 -1.2619 -0.3016 -0.4096
  412TMC3    C4 6201   3.452   3.346  14.343 -0.5029 -0.3596 -0.2776
  412TMC3    C5 6202   3.445   3.255  14.242 -1.1955 -0.0669 -0.0302
  412TMC3    C6 6203   3.373   3.288  14.133  0.8094 -0.1421 -0.1230
  412TMC3     C 6204   3.419   3.584  14.409 -0.0005  0.2904 -1.2828
  412TMC3     O 6205   3.352   3.683  14.390  0.1824  0.3169  0.3182
  412TMC3     H 6206   3.224   3.569  14.248  0.0180  0.7241 -0.3338
  412TMC3    H1 6207   3.533   3.339  14.414 -0.0503  1.4320 -0.6315
  412TMC3    H2 6208   3.397   3.240  14.039  2.3784  0.4405 -0.0196
  412TMC3    C7 6209   3.570   3.193  14.212 -0.0397  0.3608  0.6821
  412TMC3    C8 6210   3.330   3.471  14.020 -0.3674  1.5065 -0.4972
  412TMC3    O1 6211   3.607   3.082  14.247  0.0283 -0.4569 -0.0709
  412TMC3    O2 6212   3.446   3.459  13.987 -0.2907  0.3526 -0.0825
  413MPD2     C 6213   0.725   2.477  15.631  0.7461  0.0083 -0.2225
  413MPD2    C1 6214   0.712   2.422  15.501  0.1418  0.2042 -0.0594
  413MPD2    C2 6215   0.829   2.381  15.440 -0.5284  0.0017 -0.3931
  413MPD2    C3 6216   0.954   2.404  15.503  1.0960 -0.2453  0.1046
  413MPD2    C4 6217   0.959   2.464  15.629  0.3798  0.0747  0.1103
  413MPD2    C5 6218   0.846   2.514  15.686  0.6996  0.1416  0.2076
  413MPD2     H 6219   0.831   2.334  15.342 -0.0443 -0.9644  0.0778
  413MPD2    H1 6220   1.050   2.488  15.682 -0.1843 -0.3545  1.2639
  413MPD2    H2 6221   0.644   2.502  15.699  0.9622 -1.3932  0.5438
  413MPD2    H3 6222   0.850   2.548  15.789 -3.3893 -1.5329  0.9303
  413MPD2     N 6223   1.075   2.359  15.439 -0.2958 -0.4303  0.3023
  413MPD2    H5 6224   1.072   2.314  15.348 -1.4280 -1.5429  0.8796
  413MPD2    N1 6225   0.585   2.406  15.449  0.0705  0.3642  0.2282
  413MPD2    H7 6226   0.508   2.453  15.497 -0.8743  0.2047 -1.1363
  414TMC3    C1 6227   1.288   2.271  15.430  0.3274  0.2871 -0.2287
  414TMC3    C2 6228   1.325   2.167  15.502  0.1393  0.5506 -0.0414
  414TMC3    C3 6229   1.353   2.056  15.431 -0.8557  0.6634  0.1335
  414TMC3    C4 6230   1.274   2.274  15.295 -0.3005  0.5342 -0.3223
  414TMC3    C5 6231   1.305   2.161  15.221  0.1763 -0.3352 -0.2750
  414TMC3    C6 6232   1.345   2.050  15.291 -0.9256 -0.3677  0.1021
  414TMC3     C 6233   1.199   2.360  15.496  0.7922 -1.3544 -0.1301
  414TMC3     O 6234   1.238   2.427  15.592  0.3093  0.3944  0.6692
  414TMC3     H 6235   1.317   2.171  15.610  1.8091  0.6837  0.0807
  414TMC3    H1 6236   1.238   2.362  15.244 -3.8754 -0.2578  0.7804
  414TMC3    H2 6237   1.394   1.965  15.244 -0.1351 -1.0368  2.1512
  414TMC3    C7 6238   1.415   2.194  15.132  0.1474  0.1269  0.2188
  414TMC3    C8 6239   1.434   1.949  15.492 -0.1882  0.0187 -0.2516
  414TMC3    O1 6240   1.470   2.299  15.155 -0.0135  0.2516 -0.0730
  414TMC3    O2 6241   1.407   1.836  15.450  0.1541  0.1062  0.1416
  415TMC3    C1 6242   1.915   4.480  10.282  0.9105  0.7234 -0.1094
  415TMC3    C2 6243   1.931   4.622  10.286  0.3633  0.0058  0.1833
  415TMC3    C3 6244   1.982   4.672  10.168  0.3364 -0.1770  0.2907
  415TMC3    C4 6245   1.951   4.401  10.171  0.3603 -0.5234  0.0503
  415TMC3    C5 6246   2.002   4.463  10.064  0.6934 -0.0994 -0.9088
  415TMC3    C6 6247   2.017   4.602  10.058 -1.3253 -0.1865 -0.6704
  415TMC3     C 6248   1.878   4.424  10.407  0.3408 -0.2896 -0.6999
  415TMC3     O 6249   1.907   4.303  10.410 -0.1802  0.1285 -0.2444
  415TMC3     H 6250   1.906   4.684  10.371 -1.1578 -0.7258  0.2737
  415TMC3    H1 6251   1.946   4.293  10.175 -1.8110 -0.3851  1.1923
  415TMC3    H2 6252   2.046   4.653   9.967  2.7744 -2.1743 -0.4612
  415TMC3    C7 6253   2.028   4.385   9.938 -0.4211  0.0113  0.2160
  415TMC3    C8 6254   1.903   0.051  10.129  0.6203 -0.0120 -0.1734
  415TMC3    O1 6255   2.091   4.438   9.854 -0.4707 -0.4164 -0.0325
  415TMC3    O2 6256   1.799   0.079  10.191  0.3612 -0.1003 -0.3639
  416MPD2     C 6257   3.579   3.981  11.415  0.1333  0.0200  0.1216
  416MPD2    C1 6258   3.464   3.974  11.331  0.2066 -0.5097  0.3485
  416MPD2    C2 6259   3.479   3.900  11.211  0.2158  0.4755 -0.1891
  416MPD2    C3 6260   3.610   3.846  11.180 -0.3908  0.3190 -0.3578
  416MPD2    C4 6261   3.716   3.863  11.261 -0.1570 -0.8134  0.3139
  416MPD2    C5 6262   3.697   3.926  11.377 -0.5109  0.4593 -0.3152
  416MPD2     H 6263   3.392   3.890  11.147  0.1459 -0.7960  0.1109
  416MPD2    H1 6264   3.812   3.812  11.259  0.4812  0.3308  1.7934
  416MPD2    H2 6265   3.573   4.027  11.512 -1.6067  0.4326 -0.1872
  416MPD2    H3 6266   3.780   3.941  11.445 -1.2047  0.3462  0.5519
  416MPD2     N 6267   3.631   3.763  11.069 -0.7894 -0.6498 -0.1273
  416MPD2    H5 6268   3.721   3.716  11.061 -0.5619 -0.4542  1.3407
  416MPD2    N1 6269   3.351   4.043  11.375  0.8165 -0.5028 -0.0438
  416MPD2    H7 6270   3.361   4.070  11.472  0.4716 -0.8605  0.0946
  417TMC3    C1 6271   3.128   4.134  11.373 -0.1462  0.0983 -0.1856
  417TMC3    C2 6272   3.087   4.057  11.482 -0.3193  0.1610 -0.2385
  417TMC3    C3 6273   2.953   4.055  11.522 -0.0234  1.1560 -0.5187
  417TMC3    C4 6274   3.029   4.206  11.304 -0.5482 -0.3795  0.5672
  417TMC3    C5 6275   2.896   4.202  11.346  0.3142  0.0266 -0.6901
  417TMC3    C6 6276   2.856   4.127  11.453 -0.5501 -0.2646  0.3999
  417TMC3     C 6277   3.238   4.077  11.300  0.1789  0.2614  0.7358
  417TMC3     O 6278   3.220   4.073  11.177  0.5122 -0.0319  0.1161
  417TMC3     H 6279   3.168   3.999  11.525  0.0592  0.2119 -0.8850
  417TMC3    H1 6280   3.056   4.270  11.221  0.2615 -0.0782  1.0755
  417TMC3    H2 6281   2.753   4.131  11.486 -0.5986 -3.1036  0.5872
  417TMC3    C7 6282   2.808   4.292  11.275  0.0679  0.1063 -0.3401
  417TMC3    C8 6283   2.925   4.024  11.661 -0.2083 -0.9129 -0.0174
  417TMC3    O1 6284   2.839   4.337  11.165 -0.3045 -0.0528  0.4129
  417TMC3    O2 6285   2.832   4.084  11.714 -0.1181 -0.3566 -0.1999
  418TMC3    C1 6286   2.582   1.660   0.381 -0.1078 -0.8876 -1.2756
  418TMC3    C2 6287   2.479   1.751   0.370  0.0704 -0.1730  0.4510
  418TMC3    C3 6288   2.364   1.711   0.437 -0.4651 -0.3091 -0.3878
  418TMC3    C4 6289   2.578   1.551   0.465 -0.0503 -0.4711 -0.8154
  418TMC3    C5 6290   2.465   1.517   0.530  1.2178  0.1887  0.2098
  418TMC3    C6 6291   2.358   1.601   0.522 -0.3278 -0.1261  0.4723
  418TMC3     C 6292   2.688   1.669   0.282  0.1604  0.1685  0.8264
  418TMC3     O 6293   2.705   1.778   0.228  0.1310  0.2971 -0.1873
  418TMC3     H 6294   2.486   1.847   0.321  0.6530  0.4621  1.7649
  418TMC3    H1 6295   2.667   1.490   0.471  0.3041 -0.0081 -1.3695
  418TMC3    H2 6296   2.256   1.587   0.556 -0.4077  3.7969  1.8066
  418TMC3    C7 6297   2.455   1.394   0.604 -0.8383 -0.3894  0.0555
  418TMC3    C8 6298   2.242   1.726   0.353 -0.3619 -0.3655 -0.4826
  418TMC3    O1 6299   2.524   1.300   0.568  0.0979 -0.1170 -0.0780
  418TMC3    O2 6300   2.203   1.837   0.321  0.7089  0.2653  0.3872
  419MPD2     C 6301   0.709   3.609  12.383 -0.3321  0.2024  0.8167
  419MPD2    C1 6302   0.650   3.709  12.318 -0.1303  0.6485 -0.7288
  419MPD2    C2 6303   0.599   3.815  12.393 -0.0108  0.0771  0.7870
  419MPD2    C3 6304   0.605   3.816  12.528 -0.3537  0.3366 -0.2390
  419MPD2    C4 6305   0.668   3.720  12.598  0.0456 -0.1273  0.0048
  419MPD2    C5 6306   0.719   3.615  12.520  0.4743 -0.3678 -0.1506
  419MPD2     H 6307   0.551   3.892  12.333 -1.5281 -0.9343  0.7164
  419MPD2    H1 6308   0.661   3.704  12.705  0.2195 -0.3114 -0.0100
  419MPD2    H2 6309   0.751   3.521  12.336  1.2418  0.4327  1.7948
  419MPD2    H3 6310   0.774   3.538  12.572 -0.9417 -1.5469 -0.4041
  419MPD2     N 6311   0.541   3.925  12.598 -0.0415  0.7618 -0.0073
  419MPD2    H5 6312   0.484   3.983  12.538  0.2545 -0.7664 -1.7425
  419MPD2    N1 6313   0.633   3.725  12.178 -0.9213  0.4948 -0.5411
  419MPD2    H7 6314   0.598   3.814  12.143  0.5362  0.3577 -2.3566
  420TMC3    C1 6315   0.460   4.070  12.769  0.1724 -0.3259  0.2400
  420TMC3    C2 6316   0.352   4.104  12.694 -0.5361  0.1218 -0.9892
  420TMC3    C3 6317   0.276   4.210  12.745  0.2299  0.7765 -0.3827
  420TMC3    C4 6318   0.494   4.126  12.885  0.8927 -0.1852 -0.1831
  420TMC3    C5 6319   0.407   4.219  12.943  0.2875  0.2108  0.5260
  420TMC3    C6 6320   0.302   4.269  12.871 -1.3683 -0.0582  0.5745
  420TMC3     C 6321   0.552   3.955  12.730 -0.4227  0.5781  0.7230
  420TMC3     O 6322   0.628   3.912  12.815 -0.4168 -0.3459 -0.7295
  420TMC3     H 6323   0.336   4.062  12.596  1.3086 -0.3225 -1.1011
  420TMC3    H1 6324   0.573   4.078  12.941  1.0278  1.1379  0.7701
  420TMC3    H2 6325   0.274   4.371  12.893 -0.0244  0.1798  1.1638
  420TMC3    C7 6326   0.398   4.221  13.085  0.6196 -0.5826 -0.6774
  420TMC3    C8 6327   0.152   4.237  12.681  0.2431 -0.3121  0.6916
  420TMC3    O1 6328   0.494   4.179  13.154 -0.3033 -0.4792  0.4211
  420TMC3    O2 6329   0.093   4.338  12.709  0.4287 -0.0691  0.1574
  421TMC3    C1 6330   1.912   0.309  13.568  0.2999 -0.1405 -0.2513
  421TMC3    C2 6331   1.847   0.432  13.574 -0.1277  0.2676  0.7658
  421TMC3    C3 6332   1.882   0.520  13.677 -0.4622 -0.0048  0.5193
  421TMC3    C4 6333   2.011   0.271  13.657  0.0426 -0.2354 -0.1586
  421TMC3    C5 6334   2.034   0.351  13.769  0.8027 -0.5409  0.1159
  421TMC3    C6 6335   1.967   0.471  13.777  0.4328  0.5783 -0.6674
  421TMC3     C 6336   1.907   0.243  13.432 -0.7091  0.6042 -0.1832
  421TMC3     O 6337   1.995   0.164  13.402  0.3835  0.1734  0.6107
  421TMC3     H 6338   1.787   0.465  13.490  0.8421 -0.7075 -0.3198
  421TMC3    H1 6339   2.058   0.173  13.653 -0.5648 -0.4636 -1.5761
  421TMC3    H2 6340   1.988   0.542  13.856 -0.4988  0.9746 -0.7783
  421TMC3    C7 6341   2.149   0.341  13.857  0.2754 -0.1333  0.1496
  421TMC3    C8 6342   1.819   0.648  13.701 -0.3145 -0.8752  0.0249
  421TMC3    O1 6343   2.207   0.441  13.887  0.2125 -0.2906  0.1464
  421TMC3    O2 6344   1.862   0.710  13.797 -0.2978 -0.3995 -0.1080
  422TMC3    C1 6345   3.820   2.715  12.288  0.4904  0.0484 -0.7494
  422TMC3    C2 6346   3.828   2.780  12.406 -0.3202 -0.3672 -0.0774
  422TMC3    C3 6347   3.731   2.769  12.502 -0.3593  0.2458  0.5586
  422TMC3    C4 6348   3.713   2.637  12.259  0.0818 -0.6109  0.1803
  422TMC3    C5 6349   3.622   2.625  12.358 -0.7786  0.0150  0.3740
  422TMC3    C6 6350   3.621   2.688  12.479 -0.0194 -0.6264 -0.7207
  422TMC3     C 6351   3.950   2.692  12.213 -0.2279  0.6782  0.1129
  422TMC3     O 6352   4.034   2.783  12.225  0.4344 -0.1217  1.1570
  422TMC3     H 6353   3.917   2.839  12.426 -1.0740  0.8821 -0.3820
  422TMC3    H1 6354   3.686   2.596  12.163  1.4790  0.2301 -0.5603
  422TMC3    H2 6355   3.548   2.662  12.555 -1.0365  2.8118 -0.5108
  422TMC3    C7 6356   3.499   2.549  12.325 -0.1259 -0.3615  0.3548
  422TMC3    C8 6357   3.770   2.801  12.640 -0.2177 -0.3988 -0.1157
  422TMC3    O1 6358   3.421   2.601  12.243  0.2370  0.0876 -0.2593
  422TMC3    O2 6359   3.891   2.787  12.669  0.6279 -0.3370 -0.1393
  423MPD2     C 6360   0.985   3.311   0.736  0.5639  0.4985 -0.0819
  423MPD2    C1 6361   0.972   3.175   0.750  0.8236 -0.0090 -0.6829
  423MPD2    C2 6362   1.003   3.096   0.643 -0.1111 -0.0548  0.0188
  423MPD2    C3 6363   1.042   3.151   0.520 -0.2972  0.2633 -0.0704
  423MPD2    C4 6364   1.060   3.286   0.514  0.4884  0.1208 -0.4590
  423MPD2    C5 6365   1.035   3.361   0.624 -0.4769 -0.6024 -0.5019
  423MPD2     H 6366   0.996   2.988   0.650 -0.7212 -0.0653 -0.7030
  423MPD2    H1 6367   1.094   3.328   0.420  0.1323  2.7668  0.6025
  423MPD2    H2 6368   0.973   3.386   0.813  1.3486 -1.8140  2.2734
  423MPD2    H3 6369   1.064   3.465   0.621  0.0198 -0.7820 -2.0240
  423MPD2     N 6370   1.085   3.071   0.407  0.0434  0.1198  0.8709
  423MPD2    H5 6371   1.120   3.131   0.333  0.5015 -1.8265 -0.4956
  423MPD2    N1 6372   0.933   3.117   0.873 -0.2855  0.5776 -0.0895
  423MPD2    H7 6373   0.930   3.016   0.876 -4.0321  0.6991 -0.0985
  424TMC3    C1 6374   0.857   3.094   1.104 -0.0877  0.0604  0.3652
  424TMC3    C2 6375   0.934   2.984   1.125  0.1977 -0.5976  0.1085
  424TMC3    C3 6376   0.930   2.921   1.252 -0.4319 -0.0958 -0.0113
  424TMC3    C4 6377   0.786   3.147   1.211  0.2410  0.2567  0.5568
  424TMC3    C5 6378   0.781   3.079   1.331  0.1470 -0.3205  0.3181
  424TMC3    C6 6379   0.844   2.961   1.352 -0.2644  0.0207  0.4751
  424TMC3     C 6380   0.903   3.184   0.994  0.9117 -0.5145 -0.1727
  424TMC3     O 6381   0.888   3.301   1.015  0.1389 -0.0968  0.2749
  424TMC3     H 6382   1.006   2.957   1.049 -1.2834 -0.0509 -1.4790
  424TMC3    H1 6383   0.730   3.239   1.203 -1.4929 -0.9642 -1.1324
  424TMC3    H2 6384   0.830   2.911   1.446  4.1334  0.7673  1.5149
  424TMC3    C7 6385   0.713   3.136   1.446 -0.3544 -0.7318  0.3326
  424TMC3    C8 6386   1.034   2.821   1.290  0.7011  0.2891 -0.2585
  424TMC3    O1 6387   0.773   3.132   1.554 -0.1514  0.4678 -0.0165
  424TMC3    O2 6388   1.090   2.762   1.195 -0.2708 -0.3243 -0.3033
  425MPD2     C 6389   0.136   2.619  17.344  0.4576  0.5557 -0.3329
  425MPD2    C1 6390   0.034   2.538  17.320 -0.2991 -0.4996  0.0802
  425MPD2    C2 6391   4.641   2.560  17.375 -0.0874  0.0468  0.3646
  425MPD2    C3 6392   4.614   2.678  17.448 -0.2075 -0.2954  0.4518
  425MPD2    C4 6393   4.718   2.768  17.461  0.2324 -0.6020  0.5014
  425MPD2    C5 6394   0.111   2.742  17.403 -0.1539 -0.8199 -0.2326
  425MPD2     H 6395   4.559   2.491  17.363 -0.2949  0.4932 -0.8292
  425MPD2    H1 6396   4.706   2.856  17.523 -2.6129 -1.1613  0.7416
  425MPD2    H2 6397   0.235   2.606  17.301  0.5767 -1.0875  0.4630
  425MPD2    H3 6398   0.196   2.808  17.413 -0.5839 -0.0480 -1.6914
  425MPD2     N 6399   4.485   2.697  17.504  0.2075  0.2334 -0.2315
  425MPD2    H5 6400   4.417   2.622  17.498 -0.2708  0.9120 -3.4577
  425MPD2    N1 6401   0.065   2.413  17.250  0.4878  0.5464  0.3609
  425MPD2    H7 6402   0.149   2.402  17.194 -0.0807 -1.4332 -0.1156
  426TMC3    C1 6403   0.052   2.199  17.166  0.6848  0.1486 -0.2461
  426TMC3    C2 6404   0.091   2.234  17.031  0.0144  0.0236 -0.0789
  426TMC3    C3 6405   0.087   2.131  16.942  0.0864  0.6573 -0.6269
  426TMC3    C4 6406   0.010   2.075  17.208  0.5422 -0.4026 -0.2548
  426TMC3    C5 6407   4.730   1.984  17.110 -0.0392  0.1661 -0.0074
  426TMC3    C6 6408   0.036   2.012  16.983 -0.1227  0.6586  0.2335
  426TMC3     C 6409   4.720   2.303  17.237  0.2123  0.7343  0.3064
  426TMC3     O 6410   4.624   2.271  17.302 -0.2928  0.3368 -0.4434
  426TMC3     H 6411   0.115   2.336  17.004  0.3669 -0.1511 -0.4366
  426TMC3    H1 6412   4.730   2.073  17.315 -2.4620 -2.3324 -0.7575
  426TMC3    H2 6413   0.034   1.932  16.909 -0.7584  0.1230  0.8334
  426TMC3    C7 6414   4.654   1.869  17.128 -0.7148  0.5671 -0.5785
  426TMC3    C8 6415   0.067   2.156  16.796  0.3311  0.5551  0.2858
  426TMC3    O1 6416   4.625   1.807  17.024 -0.2401 -0.6875  0.1049
  426TMC3    O2 6417   4.709   2.101  16.746  0.0083  0.7446  0.5994
  427MPD2     C 6418   3.044   4.722  15.191  0.3578 -0.0136  0.2761
  427MPD2    C1 6419   3.006   4.615  15.267 -0.4041  0.2844  0.0790
  427MPD2    C2 6420   2.871   4.590  15.275  0.2783  0.6726  0.9034
  427MPD2    C3 6421   2.776   4.684  15.242 -0.4680 -0.4970 -0.1232
  427MPD2    C4 6422   2.824   0.066  15.181  0.7479  0.5474 -0.4119
  427MPD2    C5 6423   2.957   0.079  15.149  0.2056 -0.2204  0.1065
  427MPD2     H 6424   2.847   4.494  15.320 -1.1212  0.3156 -0.6072
  427MPD2    H1 6425   2.759   0.150  15.156 -1.1511 -0.6417  0.4817
  427MPD2    H2 6426   3.150   0.002  15.176  0.1972  0.8674  0.1203
  427MPD2    H3 6427   2.979   0.173  15.099 -0.0528 -0.2602 -0.0831
  427MPD2     N 6428   2.640   4.666  15.257  0.1156  0.4513  0.2357
  427MPD2    H5 6429   2.581   0.007  15.230 -2.0017 -1.7049 -1.2663
  427MPD2    N1 6430   3.097   4.520  15.314  0.6218 -0.0976  0.0628
  427MPD2    H7 6431   3.067   4.424  15.328  0.4349  0.1095  1.0987
  428TMC3    C1 6432   3.309   4.427  15.379 -0.0942  0.6023  0.5507
  428TMC3    C2 6433   3.250   4.334  15.469 -0.4333  1.2134  0.3348
  428TMC3    C3 6434   3.335   4.262  15.550 -0.6100 -0.5467 -0.3754
  428TMC3    C4 6435   3.447   4.440  15.365 -0.2696 -0.3364  0.2485
  428TMC3    C5 6436   3.529   4.362  15.456  1.0199  0.4362 -0.6954
  428TMC3    C6 6437   3.470   4.270  15.544 -0.1811  0.3377  0.2599
  428TMC3     C 6438   3.235   4.543  15.335 -0.0146 -0.0275 -0.7186
  428TMC3     O 6439   3.296   4.648  15.335 -0.6048 -0.1087  0.7953
  428TMC3     H 6440   3.143   4.338  15.483 -0.5820 -0.6478 -0.2428
  428TMC3    H1 6441   3.486   4.511  15.293 -0.3815 -1.8640 -1.3115
  428TMC3    H2 6442   3.527   4.213  15.616 -1.2237 -0.1566  0.6836
  428TMC3    C7 6443   3.674   4.368  15.444 -0.4992  0.1005 -0.1404
  428TMC3    C8 6444   3.286   4.136  15.606 -0.0852 -0.3672 -0.6733
  428TMC3    O1 6445   3.739   4.376  15.548  0.1888  0.5912 -0.2328
  428TMC3    O2 6446   3.349   4.091  15.701  0.3311 -0.3720 -0.0653
  429MPD2     C 6447   4.353   0.103  17.477 -0.2594  0.6966 -0.8653
  429MPD2    C1 6448   4.481   0.052  17.472  0.6259  0.0489 -0.3798
  429MPD2    C2 6449   4.579   0.109  17.399  0.3752 -0.3547 -1.4129
  429MPD2    C3 6450   4.550   0.223  17.325  0.0066 -0.4144 -0.2238
  429MPD2    C4 6451   4.421   0.280  17.329 -0.1974  0.1133 -0.7700
  429MPD2    C5 6452   4.326   0.219  17.405 -0.3831 -0.2765  0.0752
  429MPD2     H 6453   4.674   0.057  17.393 -0.3138 -1.6841 -0.8359
  429MPD2    H1 6454   4.384   0.348  17.253  2.5175  0.5343 -1.7173
  429MPD2    H2 6455   4.277   0.062  17.542 -0.3825  0.3455 -1.2341
  429MPD2    H3 6456   4.232   0.268  17.429 -0.7276 -0.4104 -1.0052
  429MPD2     N 6457   4.658   0.278  17.252  0.2197  0.9122 -0.1009
  429MPD2    H5 6458   0.008   0.226  17.263 -0.3556  0.0811  0.4891
  429MPD2    N1 6459   4.525   4.671  17.546  0.4758  0.2310 -0.2711
  429MPD2    H7 6460   4.620   4.637  17.531 -1.0663 -3.5094 -1.5811
  430TMC3    C1 6461   0.031   0.402  17.086 -0.4200  0.5174 -0.5457
  430TMC3    C2 6462   0.022   0.510  17.006 -0.4285  0.2915 -0.2614
  430TMC3    C3 6463   0.071   0.499  16.877 -0.2330  0.3181 -0.3955
  430TMC3    C4 6464   0.100   0.295  17.049  0.4096 -0.0370 -1.0616
  430TMC3    C5 6465   0.155   0.290  16.927 -0.3630  0.5258 -0.4052
  430TMC3    C6 6466   0.144   0.387  16.842 -0.7726  0.1892  0.0844
  430TMC3     C 6467   4.647   0.376  17.161 -1.4066  0.0325  0.3895
  430TMC3     O 6468   4.563   0.462  17.151 -0.1368  0.3854 -0.3984
  430TMC3     H 6469   4.697   0.598  17.023  0.7035  1.1759 -0.7685
  430TMC3    H1 6470   0.117   0.204  17.106  0.3399  0.8389  0.3588
  430TMC3    H2 6471   0.186   0.369  16.744  0.5159  3.5538  0.0174
  430TMC3    C7 6472   0.148   0.157  16.871  0.0818 -0.6416 -0.2382
  430TMC3    C8 6473   4.727   0.532  16.763 -0.5385  0.5925  0.5073
  430TMC3    O1 6474   0.180   0.059  16.944 -0.5082  0.3638 -0.4081
  430TMC3    O2 6475   0.009   0.460  16.666 -0.0824  0.0388  0.0214
  431MPD2     C 6476   0.251   4.201  12.285  0.1756 -0.3028  0.2537
  431MPD2    C1 6477   0.380   4.215  12.240  0.1261 -0.4386  0.0400
  431MPD2    C2 6478   0.422   4.151  12.126  0.1801  0.4856 -0.3527
  431MPD2    C3 6479   0.343   4.055  12.069  0.4629 -0.0866 -0.2221
  431MPD2    C4 6480   0.218   4.033  12.117 -0.6202 -0.4872  0.4658
  431MPD2    C5 6481   0.165   4.106  12.224  0.3333 -0.1585  0.8504
  431MPD2     H 6482   0.523   4.168  12.089  0.4534  2.6165  1.3675
  431MPD2    H1 6483   0.156   3.965  12.061 -1.5910  0.7069  0.0867
  431MPD2    H2 6484   0.216   4.250  12.376  0.0460  1.5520 -0.7798
  431MPD2    H3 6485   0.066   4.106  12.268  1.1415  1.8482  2.7138
  431MPD2     N 6486   0.379   3.982  11.957  0.4824 -0.4889 -0.1397
  431MPD2    H5 6487   0.305   3.925  11.919  1.7958 -1.3723 -1.3423
  431MPD2    N1 6488   0.476   4.307  12.293 -0.6871 -0.3820 -0.1992
  431MPD2    H7 6489   0.561   4.322  12.239 -2.0759  0.3668 -2.1776
  432TMC3    C1 6490   0.534   3.842  11.836 -0.7541  0.3444  0.0264
  432TMC3    C2 6491   0.635   3.841  11.742 -0.0153 -0.5658 -0.0055
  432TMC3    C3 6492   0.730   3.744  11.760 -0.0889  0.0284 -0.0131
  432TMC3    C4 6493   0.527   3.748  11.937  0.6738 -0.5240 -0.5703
  432TMC3    C5 6494   0.627   3.661  11.954  1.1534 -0.5710  0.1389
  432TMC3    C6 6495   0.726   3.651  11.862  0.2333 -0.5396  0.0353
  432TMC3     C 6496   0.505   3.978  11.889  0.0881  0.1913  0.0876
  432TMC3     O 6497   0.605   4.042  11.909 -0.1150  0.2868  0.0504
  432TMC3     H 6498   0.627   3.900  11.652  1.3574  1.7251  1.3683
  432TMC3    H1 6499   0.453   3.768  12.013  1.0581  1.0621 -0.5956
  432TMC3    H2 6500   0.816   3.591  11.873  0.6638  0.0927 -0.0292
  432TMC3    C7 6501   0.657   3.621  12.090  0.2536  0.4530  0.1045
  432TMC3    C8 6502   0.855   3.742  11.684 -0.1061 -0.0265  0.5395
  432TMC3    O1 6503   0.721   3.518  12.097 -0.1176 -0.0690  0.1369
  432TMC3    O2 6504   0.956   3.702  11.736  0.4619 -0.2221 -0.3848
  433MPD2     C 6505   4.322   2.854  10.154  0.0536 -0.0139  0.3572
  433MPD2    C1 6506   4.454   2.866  10.200 -0.2145 -0.3529  0.1331
  433MPD2    C2 6507   4.470   2.908  10.329  0.4186 -0.3354  0.0677
  433MPD2    C3 6508   4.362   2.937  10.410 -0.1871  0.0583  0.4382
  433MPD2    C4 6509   4.236   2.927  10.360  0.3785  0.6467  0.5839
  433MPD2    C5 6510   4.214   2.885  10.232  0.0715  0.0030 -0.2379
  433MPD2     H 6511   4.571   2.912  10.369 -0.3849  2.8279  1.8543
  433MPD2    H1 6512   4.147   2.944  10.420 -0.8183 -1.1003 -0.6863
  433MPD2    H2 6513   4.298   2.820  10.054 -0.6893  0.7013  0.2944
  433MPD2    H3 6514   4.113   2.870  10.196 -0.3687 -0.9252  1.3608
  433MPD2     N 6515   4.385   2.944  10.549 -0.0352  0.0458 -0.2990
  433MPD2    H5 6516   4.480   2.928  10.582  0.1151 -2.4206 -1.8814
  433MPD2    N1 6517   4.563   2.816  10.128  0.4364  0.6931 -0.3083
  433MPD2    H7 6518   4.536   2.749  10.057  2.9641  1.1813 -1.7240
  434TMC3    C1 6519   0.038   2.718  10.117 -0.5220  0.8283  0.1609
  434TMC3    C2 6520   0.105   2.650  10.210  0.6505 -0.5697  0.6057
  434TMC3    C3 6521   0.175   2.542  10.163  0.0130 -0.9559  0.4794
  434TMC3    C4 6522   0.021   2.686   9.990  0.5048  0.1121  0.0993
  434TMC3    C5 6523   0.078   2.571   9.951  0.1613  0.0931  0.6222
  434TMC3    C6 6524   0.163   2.497  10.029  0.5004  0.1032 -0.1227
  434TMC3     C 6525   4.696   2.818  10.173  0.5861  0.2120  0.2387
  434TMC3     O 6526   0.014   2.880  10.261  0.0585  0.2010 -0.9711
  434TMC3     H 6527   0.102   2.681  10.314  1.0302 -2.6737  1.2361
  434TMC3    H1 6528   4.710   2.758   9.925  1.4771  1.2118  0.6078
  434TMC3    H2 6529   0.219   2.417   9.983 -1.5351 -1.2662 -0.1853
  434TMC3    C7 6530   0.054   2.536   9.809 -0.8188  0.3992  0.3282
  434TMC3    C8 6531   0.271   2.479  10.250  1.1114  0.7960  0.3976
  434TMC3    O1 6532   0.024   2.629   9.730  0.6991 -0.0795 -0.6570
  434TMC3    O2 6533   0.341   2.557  10.314 -0.8002  0.1876  0.0122
  435MPD2     C 6534   1.714   3.301  15.649 -0.2566  0.1626  0.0643
  435MPD2    C1 6535   1.670   3.296  15.779 -0.3883 -0.1729  0.1262
  435MPD2    C2 6536   1.744   3.216  15.864  0.2717 -0.7081 -0.2990
  435MPD2    C3 6537   1.838   3.133  15.821  0.1022  0.0986 -0.3019
  435MPD2    C4 6538   1.870   3.124  15.685 -0.6318  0.0249 -0.6423
  435MPD2    C5 6539   1.807   3.212  15.601  0.9591 -0.2829  0.2866
  435MPD2     H 6540   1.730   3.222  15.972  1.7501  1.7896 -0.2293
  435MPD2    H1 6541   1.932   3.050  15.637 -1.9064 -1.1727 -0.4519
  435MPD2    H2 6542   1.674   3.372  15.578 -1.5082 -0.0074  0.5862
  435MPD2    H3 6543   1.826   3.210  15.494  0.1364 -1.3313  0.1632
  435MPD2     N 6544   1.898   3.049  15.918 -0.4714  0.1226 -0.4818
  435MPD2    H5 6545   1.883   3.066  16.017 -0.9276 -1.7582 -0.2289
  435MPD2    N1 6546   1.569   3.381  15.832  0.3194 -0.1124 -0.0327
  435MPD2    H7 6547   1.548   3.360  15.929 -0.1311 -0.8963 -0.3046
  436TMC3    C1 6548   1.312   3.600  16.055  0.1768  0.3499  0.4303
  436TMC3    C2 6549   1.416   3.561  15.972  0.0205  0.1831  0.3471
  436TMC3    C3 6550   1.384   3.522  15.846  0.6279  0.2991  1.0007
  436TMC3    C4 6551   1.179   3.609  16.012  0.5971  0.4577  0.0913
  436TMC3    C5 6552   1.156   3.584  15.881 -0.3144 -0.5800  0.4703
  436TMC3    C6 6553   1.257   3.542  15.795 -0.2177 -0.0467  0.7958
  436TMC3     C 6554   1.337   3.625  16.195  0.3443 -0.2186  0.1005
  436TMC3     O 6555   1.458   3.650  16.220 -0.1305 -0.7863  0.4337
  436TMC3     H 6556   1.518   3.555  16.009  0.3030 -0.3108 -0.5070
  436TMC3    H1 6557   1.097   3.627  16.081 -0.0241 -0.4130 -0.4239
  436TMC3    H2 6558   1.235   3.503  15.696  0.7885  1.4812 -0.0312
  436TMC3    C7 6559   1.041   3.643  15.835 -0.0904  0.6825  0.9471
  436TMC3    C8 6560   1.482   3.458  15.760  0.0588  0.2421  0.1546
  436TMC3    O1 6561   0.960   3.667  15.925  0.0758 -0.7268 -0.4034
  436TMC3    O2 6562   1.473   3.472  15.638 -0.1052 -0.4175 -0.5261
  437TMC3    C1 6563   0.078   0.227  12.436 -0.2208  0.2126  0.2342
  437TMC3    C2 6564   4.700   0.293  12.411  1.1297 -0.0114  0.0331
  437TMC3    C3 6565   4.696   0.348  12.287  0.0807 -0.1229  0.3617
  437TMC3    C4 6566   0.189   0.224  12.352 -0.4238  0.1393 -0.2387
  437TMC3    C5 6567   0.167   0.279  12.224 -0.1120  0.6398 -0.1637
  437TMC3    C6 6568   0.057   0.345  12.191  0.4614 -0.1587  0.5908
  437TMC3     C 6569   0.116   0.213  12.580 -1.0495  0.2536  0.0703
  437TMC3     O 6570   0.226   0.268  12.606  1.0462  0.2334 -0.3503
  437TMC3     H 6571   4.615   0.301  12.477  0.0161  0.3217 -1.4332
  437TMC3    H1 6572   0.274   0.158  12.369  1.0429  1.6936 -1.4700
  437TMC3    H2 6573   0.040   0.366  12.086 -0.2631 -2.8965  0.1549
  437TMC3    C7 6574   0.281   0.332  12.159 -0.5514  0.3888 -0.3650
  437TMC3    C8 6575   4.575   0.417  12.257  0.3607  0.4845 -0.5202
  437TMC3    O1 6576   0.263   0.387  12.050  0.2198 -1.2160 -0.0454
  437TMC3    O2 6577   4.479   0.391  12.325  0.1662  0.1977  0.4799
  438MPD2     C 6578   2.613   1.293  16.845 -0.4627  0.5041  0.2921
  438MPD2    C1 6579   2.722   1.232  16.902  0.2820  0.2384  0.1325
  438MPD2    C2 6580   2.785   1.282  17.013 -0.8488  0.0795  0.1626
  438MPD2    C3 6581   2.738   1.398  17.079 -0.7281 -0.8992 -0.5502
  438MPD2    C4 6582   2.635   1.460  17.016  0.4036 -0.0222 -0.1670
  438MPD2    C5 6583   2.574   1.415  16.899 -0.1163  0.2560  0.0572
  438MPD2     H 6584   2.873   1.233  17.054 -0.0423  1.5091  0.1531
  438MPD2    H1 6585   2.589   1.546  17.064  3.3916  0.3291  2.1064
  438MPD2    H2 6586   2.548   1.252  16.769  0.0513 -3.2545  1.8780
  438MPD2    H3 6587   2.485   1.467  16.866 -0.0476  1.7076  2.1642
  438MPD2     N 6588   2.769   1.433  17.214  0.1498 -0.3530 -0.0776
  438MPD2    H5 6589   2.699   1.496  17.253  0.3718 -0.0403 -0.1816
  438MPD2    N1 6590   2.770   1.107  16.844 -0.0994 -0.4552 -0.1021
  438MPD2    H7 6591   2.827   1.051  16.907 -0.0396 -0.1197  0.1445
  439TMC3    C1 6592   2.799   0.919  16.714 -0.3531  0.2101 -0.1437
  439TMC3    C2 6593   2.753   0.834  16.618 -0.9121 -0.0983 -0.3244
  439TMC3    C3 6594   2.819   0.720  16.592 -0.4152  0.1096  0.0879
  439TMC3    C4 6595   2.922   0.892  16.774  0.4928  0.3448 -0.1089
  439TMC3    C5 6596   2.982   0.771  16.748 -0.2054 -0.2818  0.3728
  439TMC3    C6 6597   2.935   0.688  16.657  0.3612  0.2060  1.2202
  439TMC3     C 6598   2.739   1.054  16.725 -0.1008 -0.0184 -0.7756
  439TMC3     O 6599   2.668   1.094  16.634 -0.5508  0.0011  0.1266
  439TMC3     H 6600   2.659   0.863  16.571 -0.3984  1.7197 -0.2390
  439TMC3    H1 6601   2.974   0.962  16.838  0.4847 -0.1864  0.4752
  439TMC3    H2 6602   2.992   0.602  16.628 -0.2310 -0.5039  2.1412
  439TMC3    C7 6603   3.097   0.723  16.835 -0.2290 -0.1288 -0.1181
  439TMC3    C8 6604   2.793   0.645  16.469  0.2904 -0.1572 -0.5501
  439TMC3    O1 6605   3.167   0.802  16.891 -0.2383 -0.7549 -0.0442
  439TMC3    O2 6606   2.872   0.554  16.447 -0.2024 -0.1088 -0.3650
  440MPD2     C 6607   1.001   1.236  15.144  0.1834 -0.2475  0.4425
  440MPD2    C1 6608   1.069   1.343  15.195  0.0560 -0.4680  0.4325
  440MPD2    C2 6609   1.152   1.337  15.305 -0.2608 -0.1111  0.1533
  440MPD2    C3 6610   1.163   1.220  15.383 -0.2627  0.0085 -0.5193
  440MPD2    C4 6611   1.084   1.116  15.335 -0.1185 -0.2849  0.3891
  440MPD2    C5 6612   1.019   1.119  15.215  0.3635  0.3651  0.2024
  440MPD2     H 6613   1.221   1.416  15.334 -0.2631 -0.1359  0.2252
  440MPD2    H1 6614   1.087   1.023  15.391 -2.7833 -1.6490 -1.7169
  440MPD2    H2 6615   0.953   1.238  15.047 -1.1341 -1.9220  1.0612
  440MPD2    H3 6616   0.974   1.029  15.175 -0.4063  1.1701 -0.7179
  440MPD2     N 6617   1.258   1.201  15.482  0.0086  0.5103  0.2882
  440MPD2    H5 6618   1.265   1.108  15.522 -2.7164 -0.6133 -1.7801
  440MPD2    N1 6619   1.070   1.473  15.137 -0.1635  0.1748 -0.2314
  440MPD2    H7 6620   1.115   1.549  15.187 -0.2216  1.5692 -2.3226
  441TMC3    C1 6621   1.420   1.245  15.642 -0.3592  0.2760  0.2944
  441TMC3    C2 6622   1.521   1.324  15.683  0.1793 -0.2331  0.5275
  441TMC3    C3 6623   1.567   1.329  15.810  0.1171  0.5438 -0.2484
  441TMC3    C4 6624   1.361   1.167  15.733 -0.4855 -0.0533  0.8146
  441TMC3    C5 6625   1.419   1.155  15.858  0.5885 -0.0577 -0.6309
  441TMC3    C6 6626   1.517   1.237  15.899 -0.8591 -0.2354  0.3801
  441TMC3     C 6627   1.339   1.300  15.537 -0.1233  0.4912  0.1675
  441TMC3     O 6628   1.352   1.420  15.515  0.3527  0.0243 -0.0727
  441TMC3     H 6629   1.563   1.387  15.605  0.4823 -0.8258  0.2120
  441TMC3    H1 6630   1.268   1.119  15.706  0.4483 -1.1826 -0.4314
  441TMC3    H2 6631   1.534   1.246  16.006  1.7025  3.8454 -0.3564
  441TMC3    C7 6632   1.328   1.107  15.952  0.2333  0.4250  0.2851
  441TMC3    C8 6633   1.590   1.456  15.874 -0.2302  0.1118  0.1763
  441TMC3    O1 6634   1.217   1.162  15.950 -0.4796 -0.9198  0.0921
  441TMC3    O2 6635   1.621   1.467  15.992 -0.3980 -0.2062 -0.1279
  442MPD2     C 6636   4.084   2.233  16.239  0.1750 -0.1260 -0.7022
  442MPD2    C1 6637   4.013   2.133  16.303  0.1528 -0.6054  0.3103
  442MPD2    C2 6638   4.004   2.008  16.247  0.2218  0.0551  0.2552
  442MPD2    C3 6639   4.054   1.984  16.122 -0.4426  0.6584 -0.3770
  442MPD2    C4 6640   4.149   2.076  16.070  0.2566  0.6068 -0.1694
  442MPD2    C5 6641   4.171   2.187  16.139 -0.1046 -0.4660 -0.0016
  442MPD2     H 6642   3.956   1.932  16.308 -0.5729 -1.1119 -1.8040
  442MPD2    H1 6643   4.209   2.048  15.984  1.9001  0.1658  1.1397
  442MPD2    H2 6644   4.095   2.332  16.283  3.3960 -0.2667 -1.2149
  442MPD2    H3 6645   4.245   2.256  16.099  0.5884 -0.7494  0.7959
  442MPD2     N 6646   4.040   1.859  16.059 -0.2569 -0.5388 -0.0916
  442MPD2    H5 6647   4.106   1.828  15.988 -2.4722 -1.6577 -1.6377
  442MPD2    N1 6648   3.942   2.149  16.422  0.0967 -0.1760  0.7527
  442MPD2    H7 6649   3.901   2.062  16.454 -1.0772  0.1909  0.2433
  443TMC3    C1 6650   3.818   2.258  16.570 -0.2023 -0.0886  0.7189
  443TMC3    C2 6651   3.698   2.304  16.539  0.0129 -0.7109 -0.5971
  443TMC3    C3 6652   3.589   2.279  16.622 -0.5892 -0.4010 -0.0068
  443TMC3    C4 6653   3.847   2.198  16.686 -0.1887  0.2946  0.0620
  443TMC3    C5 6654   3.740   2.174  16.772  0.0038  0.6874  0.4140
  443TMC3    C6 6655   3.612   2.212  16.743 -0.5061 -0.0718  0.7338
  443TMC3     C 6656   3.912   2.267  16.471 -0.4724  0.3599  0.0376
  443TMC3     O 6657   3.928   2.377  16.427  0.1315  0.6784 -0.0599
  443TMC3     H 6658   3.686   2.356  16.444  2.7284 -0.3218 -0.7337
  443TMC3    H1 6659   3.944   2.149  16.694 -0.3176  0.3802  2.1145
  443TMC3    H2 6660   3.529   2.188  16.808 -1.1899  0.0075 -0.1109
  443TMC3    C7 6661   3.751   2.084  16.891 -0.0471 -0.8367 -0.3137
  443TMC3    C8 6662   3.486   2.227  16.540  0.0175  0.8166 -0.1467
  443TMC3    O1 6663   3.828   1.990  16.882  0.1103 -0.0752 -0.0515
  443TMC3    O2 6664   3.494   2.244  16.421 -0.5013 -0.0279 -0.2931
  444MPD2     C 6665   4.329   2.003  16.947  0.2461 -0.6542  0.5125
  444MPD2    C1 6666   4.236   1.895  16.933 -0.3875  0.1211  0.6498
  444MPD2    C2 6667   4.267   1.796  16.840 -0.1144  0.3023  0.7027
  444MPD2    C3 6668   4.378   1.799  16.752 -0.2651  0.3342 -0.2968
  444MPD2    C4 6669   4.461   1.909  16.763 -0.3671 -0.5937  0.6972
  444MPD2    C5 6670   4.442   1.999  16.868  0.0553 -0.2058  0.0563
  444MPD2     H 6671   4.198   1.712  16.835  1.6124 -1.1900  1.9325
  444MPD2    H1 6672   4.544   1.921  16.695  0.0004 -0.4536  1.1724
  444MPD2    H2 6673   4.337   2.078  17.025 -0.5540 -1.8172  1.7270
  444MPD2    H3 6674   4.522   2.070  16.890 -0.4966 -0.1043  1.7314
  444MPD2     N 6675   4.418   1.690  16.667 -0.1908 -0.2686 -0.0857
  444MPD2    H5 6676   4.355   1.610  16.661 -0.3272  0.0049 -2.2075
  444MPD2    N1 6677   4.132   1.865  17.013 -0.0815  0.8493 -0.3771
  444MPD2    H7 6678   4.090   1.773  17.005 -0.6510  1.0149  0.7185
  445TMC3    C1 6679   4.569   1.541  16.564 -0.3387  0.5104  0.2880
  445TMC3    C2 6680   4.459   1.475  16.503  0.2568  0.0199 -0.1993
  445TMC3    C3 6681   4.484   1.346  16.461  0.6517  1.0432  0.2906
  445TMC3    C4 6682   4.689   1.479  16.593  0.4686  0.3680  0.0505
  445TMC3    C5 6683   4.711   1.347  16.556  0.6847 -0.6004 -0.2502
  445TMC3    C6 6684   4.606   1.281  16.491  0.4964  0.6124 -0.2116
  445TMC3     C 6685   4.549   1.667  16.622 -0.1374  0.0377 -0.3581
  445TMC3     O 6686   4.651   1.729  16.652  0.0909  0.3785 -0.0424
  445TMC3     H 6687   4.364   1.520  16.479 -0.7832 -1.3803  1.3248
  445TMC3    H1 6688   0.033   1.533  16.640 -0.4241  2.0515 -0.3522
  445TMC3    H2 6689   4.624   1.186  16.441 -0.9378  0.2737 -0.0731
  445TMC3    C7 6690   0.111   1.285  16.561  0.6070  0.5148 -0.0596
  445TMC3    C8 6691   4.406   1.285  16.356  0.0347  0.0599  0.1660
  445TMC3    O1 6692   0.210   1.353  16.577 -0.5814 -0.1409  0.1534
  445TMC3    O2 6693   4.351   1.357  16.273  0.0321  0.1401  0.4535
  446MPD2     C 6694   4.407   2.135  10.810 -0.1283  0.2878 -0.1067
  446MPD2    C1 6695   4.360   2.227  10.711  0.1833  0.0126  0.2189
  446MPD2    C2 6696   4.447   2.329  10.676 -0.4660 -0.6525 -0.2125
  446MPD2    C3 6697   4.583   2.317  10.702  0.0719 -0.3718 -0.2826
  446MPD2    C4 6698   4.623   2.205  10.781 -0.4465 -0.0780  0.0976
  446MPD2    C5 6699   4.536   2.126  10.838 -0.0269 -0.0377  0.5861
  446MPD2     H 6700   4.420   2.417  10.617 -0.1301 -0.0206  0.5792
  446MPD2    H1 6701   4.726   2.201  10.815  0.3967 -0.0615 -2.4948
  446MPD2    H2 6702   4.349   2.054  10.854 -0.3947  0.5051 -0.0547
  446MPD2    H3 6703   4.573   2.049  10.904  0.0234 -0.2129  0.3530
  446MPD2     N 6704   4.668   2.421  10.666  0.2761  0.5952  1.1594
  446MPD2    H5 6705   4.627   2.501  10.618 -1.4378 -1.1679 -0.3157
  446MPD2    N1 6706   4.227   2.225  10.669 -0.1600 -0.4703  0.8088
  446MPD2    H7 6707   4.196   2.288  10.596  1.4041 -0.2785  0.3244
  447TMC3    C1 6708   0.132   2.557  10.655  0.5705 -0.4970  0.2449
  447TMC3    C2 6709   0.062   2.676  10.631  0.1133 -0.2836 -0.0970
  447TMC3    C3 6710   0.138   2.791  10.611  0.1900 -0.0434 -1.1776
  447TMC3    C4 6711   0.268   2.559  10.657  0.0309 -0.5703  0.0999
  447TMC3    C5 6712   0.335   2.678  10.636  0.3924 -0.5688  0.7880
  447TMC3    C6 6713   0.274   2.798  10.608 -0.5037  0.8174 -0.1079
  447TMC3     C 6714   0.067   2.431  10.697 -0.5031  0.8992 -0.0304
  447TMC3     O 6715   0.140   2.360  10.768 -0.1399 -0.2198 -0.8066
  447TMC3     H 6716   4.693   2.692  10.651  0.4545  1.4293  0.3166
  447TMC3    H1 6717   0.320   2.469  10.689  2.6794  0.4027 -1.5435
  447TMC3    H2 6718   0.328   2.889  10.584 -0.5318  1.7420  3.3217
  447TMC3    C7 6719   0.473   2.667  10.661 -0.7340  0.1386 -0.6769
  447TMC3    C8 6720   0.070   2.918  10.603 -0.1617  0.9829 -0.7667
  447TMC3    O1 6721   0.515   2.560  10.704  0.0210 -0.1030 -0.0886
  447TMC3    O2 6722   4.685   2.916  10.585 -0.0235 -0.4893  0.1570
  448TMC3    C1 6723   2.668   2.465  16.755 -0.1019  0.2051  0.0980
  448TMC3    C2 6724   2.570   2.363  16.762 -0.4304 -0.6024  0.7982
  448TMC3    C3 6725   2.561   2.284  16.875  0.2164  0.7591 -0.2360
  448TMC3    C4 6726   2.736   2.503  16.871  0.5637 -0.1168 -0.1743
  448TMC3    C5 6727   2.722   2.421  16.984  0.4338 -0.4235 -0.1179
  448TMC3    C6 6728   2.626   2.321  16.987 -0.2955  0.1440 -0.3421
  448TMC3     C 6729   2.634   2.560  16.654 -1.2642  1.1094 -0.0974
  448TMC3     O 6730   2.656   2.679  16.678  0.2480  0.1688 -0.0975
  448TMC3     H 6731   2.527   2.322  16.671 -1.9025  1.4066  0.5858
  448TMC3    H1 6732   2.793   2.595  16.875  1.0322 -0.4468  0.6378
  448TMC3    H2 6733   2.620   2.252  17.070  1.2053  0.3002 -0.0968
  448TMC3    C7 6734   2.800   2.440  17.097 -0.0028  0.3728 -0.6454
  448TMC3    C8 6735   2.543   2.140  16.861 -0.0458 -0.1294 -0.2110
  448TMC3    O1 6736   2.902   2.508  17.089  0.0204  0.2495 -0.0009
  448TMC3    O2 6737   2.586   2.071  16.952  0.3093 -0.2669 -0.5634
  449MPD2     C 6738   3.978   0.693  13.858 -0.6302 -0.4581 -0.6340
  449MPD2    C1 6739   3.932   0.815  13.812  0.1134 -0.3985 -0.1495
  449MPD2    C2 6740   3.813   0.869  13.849 -0.2990 -0.7346 -0.5205
  449MPD2    C3 6741   3.734   0.795  13.935  0.4464 -0.4256  0.1715
  449MPD2    C4 6742   3.780   0.673  13.985 -0.6365  0.2523  0.4384
  449MPD2    C5 6743   3.899   0.626  13.945 -0.6466 -0.4872  0.6379
  449MPD2     H 6744   3.787   0.967  13.811 -0.2930 -0.3071  0.5886
  449MPD2    H1 6745   3.718   0.615  14.052  0.1464  1.8616  2.5784
  449MPD2    H2 6746   4.072   0.648  13.829 -0.4079  1.5125 -2.9447
  449MPD2    H3 6747   3.925   0.528  13.983  0.2382 -1.1061 -1.5965
  449MPD2     N 6748   3.600   0.846  13.957 -0.0246 -0.0453 -0.2194
  449MPD2    H5 6749   3.568   0.921  13.896 -1.6770 -1.6347 -1.2810
  449MPD2    N1 6750   4.010   0.890  13.722  0.3539 -0.6391 -0.0477
  449MPD2    H7 6751   3.968   0.979  13.696  0.2184 -0.2980  1.3202
  450TMC3    C1 6752   4.146   0.958  13.546 -0.0870  0.2285  0.1787
  450TMC3    C2 6753   4.139   0.913  13.416 -0.2280 -0.1041  0.6776
  450TMC3    C3 6754   4.079   0.995  13.315 -0.7803 -0.2723 -0.2758
  450TMC3    C4 6755   4.094   1.081  13.583 -0.0387 -0.0096  0.5170
  450TMC3    C5 6756   4.026   1.153  13.484 -0.1314  0.2638  0.1716
  450TMC3    C6 6757   4.022   1.116  13.350 -0.2088 -0.4755  0.1965
  450TMC3     C 6758   4.119   0.850  13.643  0.1011  0.0293  0.2548
  450TMC3     O 6759   4.165   0.737  13.636  0.2923 -0.2186 -0.2663
  450TMC3     H 6760   4.169   0.812  13.393 -0.1910 -0.3930  2.0227
  450TMC3    H1 6761   4.104   1.114  13.686  0.8838  0.5961  0.2379
  450TMC3    H2 6762   3.974   1.165  13.266  0.4361  1.3082  0.8541
  450TMC3    C7 6763   3.888   1.175  13.533  0.2314 -0.0750 -0.1080
  450TMC3    C8 6764   4.072   0.949  13.179  0.3189 -0.1385  0.1711
  450TMC3    O1 6765   3.857   1.110  13.633  0.0995 -0.4801  0.0103
  450TMC3    O2 6766   3.981   0.985  13.110  0.1651 -1.1906 -0.8163
  451MPD2     C 6767   0.609   4.696   1.199 -0.2616  0.5188  0.0998
  451MPD2    C1 6768   0.625   0.010   1.072  0.7511  0.4866  0.2280
  451MPD2    C2 6769   0.744   0.004   1.007 -0.1913  0.1483 -0.2297
  451MPD2    C3 6770   0.855   4.684   1.063 -0.3467  0.6024  0.2543
  451MPD2    C4 6771   0.841   4.639   1.192  0.6139  0.2147 -0.8366
  451MPD2    C5 6772   0.717   4.642   1.261  1.0588 -0.7377 -0.6872
  451MPD2     H 6773   0.755   0.044   0.907 -0.1479 -0.5874 -0.5124
  451MPD2    H1 6774   0.921   4.585   1.240 -0.5044 -0.7742 -0.0912
  451MPD2    H2 6775   0.512   4.712   1.246 -0.9510  1.1760 -1.5331
  451MPD2    H3 6776   0.705   4.613   1.364 -0.0828  0.5175 -0.4628
  451MPD2     N 6777   0.975   4.648   0.994 -0.0642 -0.1366  0.0495
  451MPD2    H5 6778   1.042   4.592   1.046  1.1936  1.1793 -0.1371
  451MPD2    N1 6779   0.506   0.053   0.996 -0.2655  0.0937 -0.2992
  451MPD2    H7 6780   0.420   0.034   1.046  0.7424  0.3186  1.5231
  452TMC3    C1 6781   1.122   4.600   0.816  0.8023  0.1359  0.5150
  452TMC3    C2 6782   1.122   4.465   0.842 -0.6194  0.2720 -0.1605
  452TMC3    C3 6783   1.179   4.382   0.747  0.0683 -0.2088 -0.4395
  452TMC3    C4 6784   1.174   4.643   0.697 -0.4535 -0.0038  0.2116
  452TMC3    C5 6785   1.235   4.565   0.608  0.1597  0.1880  1.0378
  452TMC3    C6 6786   1.240   4.431   0.633 -0.0614  0.8716  0.6101
  452TMC3     C 6787   1.007   4.682   0.864 -0.3277  0.4902 -0.1277
  452TMC3     O 6788   0.964   0.041   0.799 -0.0782 -0.0865  0.1229
  452TMC3     H 6789   1.079   4.426   0.933  0.4364  1.3316  0.7858
  452TMC3    H1 6790   1.168   0.011   0.667  0.4746  1.0015  3.4731
  452TMC3    H2 6791   1.292   4.360   0.570  1.2856 -1.2971  4.1443
  452TMC3    C7 6792   1.223   4.599   0.465  0.3111  0.0653  0.6525
  452TMC3    C8 6793   1.109   4.256   0.737 -1.1498  0.0500  0.6215
  452TMC3    O1 6794   1.225   4.713   0.422  0.7631  0.0613  0.4481
  452TMC3    O2 6795   1.099   4.217   0.622  0.1717 -0.3718 -0.0605
  453TMC3    C1 6796   1.161   1.249  11.899 -0.5009 -0.5106  0.5157
  453TMC3    C2 6797   1.068   1.156  11.930  0.1364  0.2838 -0.5778
  453TMC3    C3 6798   1.038   1.061  11.838 -0.7020  0.2448  0.0970
  453TMC3    C4 6799   1.206   1.269  11.773  0.3176 -0.1447  0.3430
  453TMC3    C5 6800   1.173   1.178  11.680 -0.1065  0.0046  0.1110
  453TMC3    C6 6801   1.094   1.066  11.713 -0.4327 -0.4638 -0.8190
  453TMC3     C 6802   1.234   1.303  12.012  0.1083 -0.6823 -0.0021
  453TMC3     O 6803   1.325   1.384  11.989  0.0536 -0.5014 -0.1502
  453TMC3     H 6804   1.013   1.147  12.023  2.4296 -2.4919  0.5362
  453TMC3    H1 6805   1.278   1.346  11.750  3.0507 -2.6954  0.4547
  453TMC3    H2 6806   1.093   0.974  11.654  1.9481 -0.8744 -0.2407
  453TMC3    C7 6807   1.265   1.156  11.571 -0.0878  0.3131 -0.7060
  453TMC3    C8 6808   0.986   0.939  11.882  0.3304  0.0464 -0.6236
  453TMC3    O1 6809   1.377   1.204  11.589  0.5455 -0.4460 -0.1362
  453TMC3    O2 6810   1.017   0.917  11.995  0.6938  0.0000 -0.5803
  454MPD2     C 6811   0.437   1.320  16.094  0.4169 -0.5159  0.2231
  454MPD2    C1 6812   0.355   1.349  15.988 -1.0688  0.3397 -0.8507
  454MPD2    C2 6813   0.322   1.470  15.943 -0.2310  0.0781 -0.7389
  454MPD2    C3 6814   0.360   1.577  16.020 -0.1610  0.2699  0.0737
  454MPD2    C4 6815   0.435   1.563  16.130 -0.1497  0.4228  0.1490
  454MPD2    C5 6816   0.469   1.435  16.172 -0.4385  0.0008  0.1150
  454MPD2     H 6817   0.245   1.473  15.867 -1.2608  1.9921  0.3882
  454MPD2    H1 6818   0.472   1.650  16.182  0.4621  0.0858  0.2854
  454MPD2    H2 6819   0.470   1.223  16.131 -0.7104 -0.7633  0.5995
  454MPD2    H3 6820   0.530   1.426  16.262  0.1430  1.2234 -0.1660
  454MPD2     N 6821   0.291   1.701  16.005  0.7523 -0.5499 -0.0244
  454MPD2    H5 6822   0.299   1.760  16.087  1.0747 -0.4743 -0.1093
  454MPD2    N1 6823   0.308   1.247  15.908 -0.2984 -0.2162 -0.8439
  454MPD2    H7 6824   0.252   1.266  15.825 -1.8957  0.4810  0.3820
  455TMC3    C1 6825   0.081   1.785  15.990  0.2420 -0.4087 -0.2951
  455TMC3    C2 6826   0.107   1.883  16.089  1.1508 -0.2144  0.4456
  455TMC3    C3 6827   0.023   1.878  16.198  0.0303  0.0440 -0.3814
  455TMC3    C4 6828   4.717   1.689  16.012  0.0299 -0.3020  0.2898
  455TMC3    C5 6829   4.643   1.683  16.129  0.1622  0.3564 -0.3018
  455TMC3    C6 6830   4.661   1.782  16.222  0.2376  0.3840 -0.1147
  455TMC3     C 6831   0.187   1.726  15.918 -0.3930  0.1655  0.0092
  455TMC3     O 6832   0.169   1.670  15.818  0.2376  0.1584 -0.4217
  455TMC3     H 6833   0.188   1.955  16.085  0.2948  0.8671  2.8474
  455TMC3    H1 6834   0.001   1.600  15.953  0.8863  1.0247 -1.4262
  455TMC3    H2 6835   4.608   1.767  16.315  0.3691  0.2078 -0.0686
  455TMC3    C7 6836   4.651   1.549  16.191  0.1774  0.1205 -0.0795
  455TMC3    C8 6837   0.047   1.965  16.312 -0.5615 -0.8910  0.1349
  455TMC3    O1 6838   4.718   1.549  16.295 -0.0944  0.5378  0.3006
  455TMC3    O2 6839   4.720   1.933  16.414 -0.2777  0.5522 -0.3070
  456MPD2     C 6840   3.101   0.866  16.401 -0.3141 -0.3914 -0.4022
  456MPD2    C1 6841   3.189   0.879  16.506 -0.1546  0.0914 -0.1855
  456MPD2    C2 6842   3.176   0.989  16.589 -0.5525  0.6480 -0.0097
  456MPD2    C3 6843   3.073   1.082  16.563 -0.4646 -0.1933 -0.0624
  456MPD2    C4 6844   2.987   1.066  16.450  0.6163 -0.0466  0.7524
  456MPD2    C5 6845   3.005   0.955  16.368 -0.2094 -0.1202 -0.4669
  456MPD2     H 6846   3.247   1.005  16.669 -0.0988 -0.0877 -0.2648
  456MPD2    H1 6847   2.902   1.127  16.420  1.8423  0.2853 -2.0075
  456MPD2    H2 6848   3.121   0.785  16.332 -1.8744  1.3374 -2.8881
  456MPD2    H3 6849   2.947   0.933  16.279 -0.8286  2.5338 -0.7116
  456MPD2     N 6850   3.056   1.193  16.650 -0.2488 -0.1541 -0.1865
  456MPD2    H5 6851   3.127   1.198  16.723  1.2291 -0.0293 -1.6270
  456MPD2    N1 6852   3.285   0.773  16.522 -0.1350 -0.2922 -0.0989
  456MPD2    H7 6853   3.283   0.695  16.458 -0.7212  0.5329 -1.0827
  457TMC3    C1 6854   2.994   1.411  16.716  0.1934 -0.2109  0.1094
  457TMC3    C2 6855   2.903   1.506  16.700 -0.1450 -0.6369  0.0390
  457TMC3    C3 6856   2.894   1.593  16.800 -0.2893  0.1378 -0.2882
  457TMC3    C4 6857   3.075   1.395  16.825  0.6758  0.2048 -0.1135
  457TMC3    C5 6858   3.059   1.491  16.922  0.2264 -0.5853 -0.1611
  457TMC3    C6 6859   2.962   1.584  16.916 -0.8092  0.1867  0.2993
  457TMC3     C 6860   2.970   1.297  16.629  0.5700  0.3214  0.3593
  457TMC3     O 6861   2.886   1.304  16.542  0.6072 -0.3480 -0.1837
  457TMC3     H 6862   2.846   1.513  16.609 -0.0006 -0.9729 -0.0757
  457TMC3    H1 6863   3.152   1.319  16.827  0.6809  0.2539  1.3851
  457TMC3    H2 6864   2.935   1.648  16.999  0.8322 -0.8893  1.6616
  457TMC3    C7 6865   3.128   1.471  17.043 -0.5404 -0.1541  0.5876
  457TMC3    C8 6866   2.795   1.701  16.787  0.0788  0.3347 -0.3102
  457TMC3    O1 6867   3.162   1.355  17.069 -0.6374 -0.5491  0.2248
  457TMC3    O2 6868   2.831   1.807  16.828 -0.1721  0.2071  0.7836
  458MPD2     C 6869   0.779   0.467  12.180  0.0509 -0.0819  0.7245
  458MPD2    C1 6870   0.751   0.397  12.293  0.4648 -0.1168 -0.0551
  458MPD2    C2 6871   0.628   0.344  12.304 -0.4875 -0.3413  0.0498
  458MPD2    C3 6872   0.529   0.362  12.206  0.1239  0.0325 -0.1340
  458MPD2    C4 6873   0.562   0.432  12.097  0.3798 -0.1372  0.1766
  458MPD2    C5 6874   0.684   0.480  12.086 -0.1099  0.1542  0.4296
  458MPD2     H 6875   0.599   0.303  12.400  2.2377  2.8534  2.2311
  458MPD2    H1 6876   0.493   0.466  12.019 -0.3646  1.1730  1.3959
  458MPD2    H2 6877   0.878   0.509  12.168 -0.5593  1.5307  1.3599
  458MPD2    H3 6878   0.721   0.526  11.995 -2.5726 -1.0101 -1.1733
  458MPD2     N 6879   0.396   0.334  12.240  0.6067 -0.4256 -0.0326
  458MPD2    H5 6880   0.388   0.287  12.330  2.5910  2.1468  1.4980
  458MPD2    N1 6881   0.848   0.389  12.398  0.0834 -0.5263  0.0135
  458MPD2    H7 6882   0.915   0.462  12.374 -0.2279  0.5218  2.3709
  459TMC3    C1 6883   0.968   0.296  12.574 -0.7131 -0.8016 -0.9568
  459TMC3    C2 6884   1.077   0.373  12.538  0.6008 -0.6598  0.3003
  459TMC3    C3 6885   1.182   0.374  12.626 -0.4135 -0.0379  0.0053
  459TMC3    C4 6886   0.970   0.214  12.684  0.7068 -0.5342  0.1138
  459TMC3    C5 6887   1.078   0.226  12.773  0.4759  0.2779 -0.4427
  459TMC3    C6 6888   1.183   0.309  12.747  0.1164 -0.0268  0.7552
  459TMC3     C 6889   0.852   0.289  12.493  0.6214  1.0704 -0.1789
  459TMC3     O 6890   0.772   0.198  12.507  0.3588  0.4032  0.1254
  459TMC3     H 6891   1.084   0.432  12.448  0.6336  0.4723  1.0419
  459TMC3    H1 6892   0.880   0.160  12.710 -0.1262 -0.3569 -2.3906
  459TMC3    H2 6893   1.259   0.327  12.821  1.5830  0.3567 -0.8466
  459TMC3    C7 6894   1.044   0.216  12.915  0.3792  0.1649  0.0226
  459TMC3    C8 6895   1.293   0.464  12.592  0.1907  0.3163  0.7542
  459TMC3    O1 6896   1.110   0.284  12.988  0.1140 -0.1601  0.3763
  459TMC3    O2 6897   1.265   0.554  12.518 -0.3112  0.4103  0.5627
  460MPD2     C 6898   0.165   3.235  10.756  0.0379  0.1097 -1.0819
  460MPD2    C1 6899   0.096   3.155  10.669  0.6751  0.2667  0.0569
  460MPD2    C2 6900   4.727   3.209  10.596 -0.0633 -0.4604  0.0452
  460MPD2    C3 6901   4.685   3.340  10.611  0.3997 -0.1279 -0.2458
  460MPD2    C4 6902   0.013   3.413  10.712  0.1609 -0.0214 -0.0129
  460MPD2    C5 6903   0.121   3.360  10.775 -0.0461 -0.3431 -0.2813
  460MPD2     H 6904   4.684   3.147  10.518 -0.1224  0.2440 -0.4829
  460MPD2    H1 6905   4.716   3.513  10.735 -0.6118 -0.1622 -0.5193
  460MPD2    H2 6906   0.251   3.203  10.814 -0.3046  1.2333  0.0531
  460MPD2    H3 6907   0.168   3.424  10.850  1.3331 -2.2953  0.5366
  460MPD2     N 6908   4.585   3.393  10.526 -0.2703  0.0303  0.0147
  460MPD2    H5 6909   4.550   3.336  10.450  1.3765  0.9850 -1.4720
  460MPD2    N1 6910   0.139   3.021  10.661 -0.0478  0.9304 -0.6444
  460MPD2    H7 6911   0.218   2.995  10.719  1.2853  2.2932 -1.8330
  461TMC3    C1 6912   4.431   3.540  10.434  0.2537  0.5919  0.5655
  461TMC3    C2 6913   4.355   3.424  10.416  0.6082 -0.9813  0.1466
  461TMC3    C3 6914   4.285   3.411  10.300 -0.1030  0.4614  0.7304
  461TMC3    C4 6915   4.436   3.641  10.339  0.8081  0.0524 -0.3826
  461TMC3    C5 6916   4.377   3.619  10.218  0.9843  0.4340 -0.2914
  461TMC3    C6 6917   4.300   3.508  10.199 -0.0554 -0.9805 -0.5123
  461TMC3     C 6918   4.544   3.524  10.526  0.5863 -0.7751 -0.2193
  461TMC3     O 6919   4.609   3.627  10.549  0.5262 -0.3079  0.2169
  461TMC3     H 6920   4.347   3.347  10.492  1.3090 -0.0135  1.1937
  461TMC3    H1 6921   4.485   3.738  10.350 -1.6265  1.2256  0.1116
  461TMC3    H2 6922   4.247   3.496  10.105  1.0981 -1.4454 -1.1113
  461TMC3    C7 6923   4.435   3.684  10.103  0.1945 -0.0814 -0.3285
  461TMC3    C8 6924   4.319   3.281  10.241 -0.0706 -1.0589 -0.0668
  461TMC3    O1 6925   4.460   3.804  10.103 -0.1866 -0.0660  0.3833
  461TMC3    O2 6926   4.415   3.222  10.295 -0.0033 -0.5790  0.6309
  462TMC3    C1 6927   0.224   0.001   0.116  0.4039  0.2519 -0.6083
  462TMC3    C2 6928   0.344   4.693   0.166 -0.2456  0.4840  0.6570
  462TMC3    C3 6929   0.339   4.659   0.296 -0.6188 -0.5801  0.2036
  462TMC3    C4 6930   0.104   4.724   0.181  0.2302  0.6257  0.1209
  462TMC3    C5 6931   0.111   4.685   0.308 -0.9677  0.4092 -0.2831
  462TMC3    C6 6932   0.229   4.664   0.370  0.6307  0.7640  0.1803
  462TMC3     C 6933   0.211   0.026  17.727  1.3496 -0.3691 -1.0042
  462TMC3     O 6934   0.102   4.732  17.678 -0.1083  0.7422 -0.1652
  462TMC3     H 6935   0.442   4.693   0.118 -0.6133  1.6736 -0.1145
  462TMC3    H1 6936   0.014   0.025   0.134 -0.0928  0.8628  0.9342
  462TMC3    H2 6937   0.237   4.606   0.461 -0.2366 -0.4020 -0.4840
  462TMC3    C7 6938   0.022   4.571   0.335 -0.4418 -0.4952  0.8991
  462TMC3    C8 6939   0.454   4.590   0.347  0.2274 -0.0144  0.5598
  462TMC3    O1 6940   0.076   4.477   0.389 -0.2193 -0.0020  0.3399
  462TMC3    O2 6941   0.494   4.623   0.458  0.1929  0.3516  0.0051
  463MPD2     C 6942   1.538   2.351   1.967  0.0152  0.3694 -0.3216
  463MPD2    C1 6943   1.468   2.462   1.921  0.1305  0.1915 -0.0378
  463MPD2    C2 6944   1.534   2.580   1.912 -0.5662 -0.4905  0.4379
  463MPD2    C3 6945   1.675   2.588   1.922 -0.0977  0.0602 -0.5389
  463MPD2    C4 6946   1.742   2.471   1.961  0.4787  0.1902 -0.1008
  463MPD2    C5 6947   1.670   2.354   1.993 -0.0698 -0.2390  0.7623
  463MPD2     H 6948   1.475   2.665   1.881  0.0275 -0.2770 -0.1246
  463MPD2    H1 6949   1.847   2.473   1.988 -0.0817  1.1952  2.0016
  463MPD2    H2 6950   1.490   2.256   1.989  1.6132 -0.5622 -0.8496
  463MPD2    H3 6951   1.720   2.268   2.036 -0.1373  0.4087  2.1268
  463MPD2     N 6952   1.755   2.698   1.885 -0.3196  0.2948  0.1894
  463MPD2    H5 6953   1.854   2.687   1.904 -0.4587  0.1292  0.8550
  463MPD2    N1 6954   1.336   2.440   1.865  0.2426  0.3849 -0.6700
  463MPD2    H7 6955   1.305   2.344   1.858 -0.8987  0.6936  0.1361
  464TMC3    C1 6956   1.136   2.488   1.745  0.0513 -0.2562 -0.0705
  464TMC3    C2 6957   1.030   2.575   1.708  0.2255  0.2427  0.4173
  464TMC3    C3 6958   0.930   2.527   1.632 -0.3806  0.1087  0.2899
  464TMC3    C4 6959   1.137   2.368   1.686  0.3104  0.3479  0.0322
  464TMC3    C5 6960   1.034   2.332   1.609 -0.3487  0.0554 -0.0315
  464TMC3    C6 6961   0.930   2.411   1.574 -0.0439 -0.3013 -0.2089
  464TMC3     C 6962   1.248   2.539   1.824  0.1491 -0.1342 -0.1028
  464TMC3     O 6963   1.236   2.660   1.846  0.6357 -0.6990 -0.0118
  464TMC3     H 6964   1.036   2.682   1.728 -0.6519  0.6781 -1.5673
  464TMC3    H1 6965   1.217   2.298   1.710  0.7399  1.2300  1.2204
  464TMC3    H2 6966   0.834   2.383   1.531  1.0820 -0.4213 -2.6398
  464TMC3    C7 6967   1.035   2.196   1.564 -1.0742  0.7119 -0.9285
  464TMC3    C8 6968   0.804   2.606   1.608 -0.0779  0.5620  0.6289
  464TMC3    O1 6969   1.123   2.127   1.608 -0.0434  0.2322  0.3724
  464TMC3    O2 6970   0.733   2.576   1.511  0.5111 -0.3478 -0.4418
  465MPD2     C 6971   2.092   1.782  16.709 -0.3117  0.1346  0.0642
  465MPD2    C1 6972   2.020   1.737  16.817 -0.5204  0.2851 -0.0259
  465MPD2    C2 6973   1.881   1.724  16.805  0.4234 -0.9047 -0.3277
  465MPD2    C3 6974   1.821   1.738  16.682 -0.2006 -0.7663  0.8185
  465MPD2    C4 6975   1.903   1.783  16.575 -0.3494  0.3210  0.6079
  465MPD2    C5 6976   2.034   1.804  16.588 -0.0010 -0.3588  0.2801
  465MPD2     H 6977   1.818   1.687  16.886 -0.6195  0.4258 -0.5341
  465MPD2    H1 6978   1.859   1.809  16.479  0.9788 -1.7416 -0.5498
  465MPD2    H2 6979   2.200   1.776  16.719 -0.2932 -0.9168 -0.7398
  465MPD2    H3 6980   2.091   1.842  16.504 -1.9281  0.8715 -0.4626
  465MPD2     N 6981   1.683   1.715  16.664 -0.3009  0.0374 -0.1078
  465MPD2    H5 6982   1.636   1.694  16.751  1.5116 -2.0722  0.3538
  465MPD2    N1 6983   2.077   1.712  16.943 -0.2850  0.1777 -0.1178
  465MPD2    H7 6984   2.009   1.698  17.017 -1.1485 -1.4542 -1.2342
  466TMC3    C1 6985   1.325   1.601  16.754 -0.5584  0.5513 -0.4169
  466TMC3    C2 6986   1.226   1.683  16.698 -0.3969 -0.0422 -0.4527
  466TMC3    C3 6987   1.241   1.756  16.581  0.5458 -0.2557 -0.6884
  466TMC3    C4 6988   1.450   1.609  16.700  0.2459 -0.1753 -0.0077
  466TMC3    C5 6989   1.467   1.682  16.583 -0.4363  0.1446 -0.2876
  466TMC3    C6 6990   1.360   1.754  16.520  0.1129  0.1991  0.6371
  466TMC3     C 6991   1.321   1.571  16.899  0.6591 -0.0821  0.1657
  466TMC3     O 6992   1.426   1.544  16.949 -0.1120  0.1986  0.6776
  466TMC3     H 6993   1.127   1.674  16.741 -0.9775  0.7965 -1.6399
  466TMC3    H1 6994   1.520   1.532  16.728 -1.7999 -1.9974  0.0883
  466TMC3    H2 6995   1.373   1.812  16.429  1.8116 -0.2760  0.5727
  466TMC3    C7 6996   1.600   1.722  16.555 -0.8070  0.0578 -0.5912
  466TMC3    C8 6997   1.152   1.864  16.564 -0.3972 -0.4810 -0.5300
  466TMC3    O1 6998   1.614   1.785  16.451 -0.0838  0.2846 -0.0955
  466TMC3    O2 6999   1.081   1.854  16.469  0.3666  0.4786 -0.6788
  467TMC3    C1 7000   2.510   4.586  13.808 -0.1979 -0.0906 -0.0447
  467TMC3    C2 7001   2.458   4.703  13.765  0.6677 -0.2067  0.3610
  467TMC3    C3 7002   2.366   4.710  13.665 -0.3059 -0.4419 -0.3203
  467TMC3    C4 7003   2.445   4.473  13.783  0.2422 -0.4422 -0.4191
  467TMC3    C5 7004   2.334   4.483  13.700  0.0139 -0.1307  0.3203
  467TMC3    C6 7005   2.294   4.595  13.634  0.3232  0.6400  0.3410
  467TMC3     C 7006   2.653   4.586  13.819  0.0476  1.0300  0.5616
  467TMC3     O 7007   2.695   4.676  13.889 -0.6672  0.1764  0.0908
  467TMC3     H 7008   2.513   0.057  13.784  0.9509 -0.1330 -0.8307
  467TMC3    H1 7009   2.476   4.378  13.826 -0.0373  0.1803  1.1791
  467TMC3    H2 7010   2.216   4.588  13.559 -0.7506  0.3535  1.4907
  467TMC3    C7 7011   2.248   4.370  13.698  0.8665  0.2950  0.2166
  467TMC3    C8 7012   2.411   0.048  13.553  0.1363  0.3743 -0.4974
  467TMC3    O1 7013   2.305   4.262  13.692 -0.2018 -0.9533  0.6567
  467TMC3    O2 7014   2.458   0.158  13.570 -0.1283 -0.1394 -0.4029
  468MPD2     C 7015   1.916   2.636  10.167 -0.0348  0.6789 -0.5521
  468MPD2    C1 7016   2.010   2.644  10.267 -0.1512 -1.2166  0.4179
  468MPD2    C2 7017   2.060   2.519  10.319 -0.1344  0.3733  0.1869
  468MPD2    C3 7018   2.016   2.402  10.260  0.3347  0.5754 -0.5266
  468MPD2    C4 7019   1.921   2.405  10.156  0.2389  0.5856  0.3955
  468MPD2    C5 7020   1.871   2.520  10.109 -0.2912  0.9867 -0.6451
  468MPD2     H 7021   2.119   2.508  10.408 -1.2148 -2.8517  0.4791
  468MPD2    H1 7022   1.882   2.311  10.119 -0.1915  0.4994  1.0786
  468MPD2    H2 7023   1.871   2.731  10.139  1.0237  1.2438 -0.3436
  468MPD2    H3 7024   1.793   2.516  10.033  2.1486 -0.5940 -3.0806
  468MPD2     N 7025   2.070   2.274  10.304 -0.0046 -0.1884 -0.0377
  468MPD2    H5 7026   2.029   2.188  10.270  0.2082  0.2609 -1.4238
  468MPD2    N1 7027   2.047   2.761  10.329  0.5034  0.1489  0.1689
  468MPD2    H7 7028   2.103   2.749  10.412  0.0311 -4.4823 -0.1518
  469TMC3    C1 7029   2.040   2.973  10.418  1.1292  0.3960  0.2665
  469TMC3    C2 7030   2.174   2.963  10.447 -0.0657 -1.1442  0.6329
  469TMC3    C3 7031   2.216   3.053  10.544  0.5155  0.7755 -0.4021
  469TMC3    C4 7032   1.957   3.065  10.463 -0.0503 -0.0806 -0.4543
  469TMC3    C5 7033   2.001   3.148  10.569  0.2792  0.0412  0.0938
  469TMC3    C6 7034   2.131   3.136  10.610 -0.3025  0.2188  0.5073
  469TMC3     C 7035   1.983   2.886  10.316 -0.4611  0.0572 -0.1919
  469TMC3     O 7036   1.878   2.919  10.260 -0.2545  0.0712  0.4942
  469TMC3     H 7037   2.239   2.897  10.391 -0.7958 -1.2709 -0.0747
  469TMC3    H1 7038   1.851   3.050  10.451 -0.1610 -0.8712  1.6246
  469TMC3    H2 7039   2.181   3.206  10.677  0.0332 -0.6440  1.1626
  469TMC3    C7 7040   1.898   3.187  10.659  0.2128 -0.0555 -0.0784
  469TMC3    C8 7041   2.361   3.050  10.559  0.3870  0.6838  0.4261
  469TMC3    O1 7042   1.778   3.191  10.617  0.0253 -0.2929  0.0128
  469TMC3    O2 7043   2.430   3.050  10.455 -0.5293  0.8187  0.0101
  470TMC3    C1 7044   4.019   4.138   0.715  0.5509  0.3057  0.1872
  470TMC3    C2 7045   4.010   4.263   0.664  0.1853  0.1410  0.7078
  470TMC3    C3 7046   4.103   4.355   0.699  0.0556  0.3244  0.7684
  470TMC3    C4 7047   4.118   4.105   0.811  0.4495 -0.0795  0.1256
  470TMC3    C5 7048   4.218   4.197   0.830  0.5130 -0.7880  0.0735
  470TMC3    C6 7049   4.210   4.325   0.781 -0.3696  0.3422 -0.5369
  470TMC3     C 7050   3.924   4.048   0.667  0.2517  0.0283  0.1018
  470TMC3     O 7051   3.817   4.090   0.626 -0.0788 -0.1629  0.3087
  470TMC3     H 7052   3.923   4.292   0.606  1.1214  0.0631 -0.7380
  470TMC3    H1 7053   4.144   4.004   0.841  0.1675 -0.0927  0.3208
  470TMC3    H2 7054   4.286   4.397   0.811  0.5438 -1.2168  0.8692
  470TMC3    C7 7055   4.319   4.183   0.937  0.9454 -0.1524 -0.1523
  470TMC3    C8 7056   4.088   4.489   0.645 -0.0732 -0.3170 -0.2552
  470TMC3    O1 7057   4.414   4.260   0.935  0.6459 -0.0055 -0.5716
  470TMC3    O2 7058   3.979   4.533   0.602 -0.2649 -0.5222 -0.7967
  471MPD2     C 7059   4.267   0.648  16.573  0.1205 -0.2733  0.2117
  471MPD2    C1 7060   4.354   0.551  16.537  0.5169  0.6588  0.2266
  471MPD2    C2 7061   4.468   0.526  16.610  0.0901 -0.1468  0.1149
  471MPD2    C3 7062   4.497   0.617  16.712  0.0670  0.3456 -0.1377
  471MPD2    C4 7063   4.408   0.709  16.751 -0.0699  0.3217  0.1020
  471MPD2    C5 7064   4.290   0.728  16.685  0.0151  0.1886 -0.0678
  471MPD2     H 7065   4.532   0.442  16.588  0.6043  0.7560 -1.9026
  471MPD2    H1 7066   4.426   0.785  16.827  0.6804  2.5165 -2.2576
  471MPD2    H2 7067   4.178   0.675  16.518 -0.5908 -0.5290  1.2104
  471MPD2    H3 7068   4.230   0.812  16.718  2.0374  1.3526  0.6418
  471MPD2     N 7069   4.617   0.606  16.794  0.3564 -0.0517 -0.0968
  471MPD2    H5 7070   4.627   0.670  16.873  1.3394  1.2020 -1.2232
  471MPD2    N1 7071   4.326   0.454  16.436 -0.4417  0.1615  0.4199
  471MPD2    H7 7072   4.403   0.387  16.433  0.1904  0.9445 -0.8420
  472TMC3    C1 7073   4.227   0.335  16.257 -0.3773  0.4449 -0.2284
  472TMC3    C2 7074   4.188   0.352  16.128  0.3832  0.2821  0.1976
  472TMC3    C3 7075   4.214   0.248  16.044 -0.4736 -0.7743  0.4913
  472TMC3    C4 7076   4.284   0.223  16.311 -0.3429 -0.5707 -0.4987
  472TMC3    C5 7077   4.301   0.119  16.222 -0.1589  0.3725  0.6536
  472TMC3    C6 7078   4.263   0.133  16.091 -0.7098  0.5353 -0.1722
  472TMC3     C 7079   4.216   0.443  16.350 -0.9810  0.0988  0.8619
  472TMC3     O 7080   4.120   0.518  16.329  0.1349  0.1920  0.2865
  472TMC3     H 7081   4.143   0.446  16.098 -0.1295 -0.7795 -2.3476
  472TMC3    H1 7082   4.291   0.202  16.417  0.3065 -0.0025 -0.4271
  472TMC3    H2 7083   4.268   0.051  16.020 -0.1394  0.1160  0.3527
  472TMC3    C7 7084   4.308   4.719  16.277 -0.0914 -0.6579  0.1236
  472TMC3    C8 7085   4.095   0.236  15.966 -0.2993 -0.1645  0.2690
  472TMC3    O1 7086   4.295   4.722  16.400  0.1411  0.1195 -0.2365
  472TMC3    O2 7087   4.048   0.337  15.913 -0.4259 -0.6494 -0.3207
  473MPD2     C 7088   4.320   2.089  13.787  0.2206 -0.2935  0.0188
  473MPD2    C1 7089   4.392   2.199  13.760  0.0384  0.2256  0.0771
  473MPD2    C2 7090   4.422   2.291  13.858 -0.1352 -0.1950  0.2084
  473MPD2    C3 7091   4.370   2.275  13.989  0.1617 -0.4675 -0.2598
  473MPD2    C4 7092   4.290   2.170  14.003 -0.5808  0.6587 -0.4434
  473MPD2    C5 7093   4.272   2.072  13.913 -0.2463  0.0181 -0.0416
  473MPD2     H 7094   4.482   2.379  13.840  0.5436 -0.7844 -0.4082
  473MPD2    H1 7095   4.248   2.158  14.102 -0.1329 -1.5667 -0.5036
  473MPD2    H2 7096   4.290   2.020  13.709  2.3325  0.3204 -1.3430
  473MPD2    H3 7097   4.211   1.986  13.936 -0.1265  0.2147  1.0236
  473MPD2     N 7098   4.393   2.361  14.094  0.2640 -0.1174 -0.4039
  473MPD2    H5 7099   4.333   2.367  14.176 -2.2723  0.3948 -2.2898
  473MPD2    N1 7100   4.450   2.223  13.633 -0.8524 -0.5127  0.3423
  473MPD2    H7 7101   4.500   2.309  13.613  2.4977 -2.2962  1.0053
  474TMC3    C1 7102   4.454   2.557  14.197 -0.3273 -0.0263 -0.3998
  474TMC3    C2 7103   4.330   2.594  14.236  0.4422 -0.0570  0.2677
  474TMC3    C3 7104   4.315   2.698  14.329 -0.0673  0.0490 -0.1815
  474TMC3    C4 7105   4.564   2.616  14.248  0.2271  0.8304 -0.3668
  474TMC3    C5 7106   4.547   2.718  14.334  0.4330  0.6675  0.5224
  474TMC3    C6 7107   4.424   2.763  14.388  0.1243 -0.2779  0.1081
  474TMC3     C 7108   4.477   2.467  14.086 -0.4376  1.0607  0.2709
  474TMC3     O 7109   4.581   2.469  14.021  0.2523  0.0927 -0.3364
  474TMC3     H 7110   4.245   2.557  14.180 -0.5548 -0.0578  1.7530
  474TMC3    H1 7111   4.661   2.579  14.216 -0.0405 -0.1806 -0.0222
  474TMC3    H2 7112   4.415   2.839  14.464  2.4280 -2.1512  2.2225
  474TMC3    C7 7113   4.666   2.757  14.403 -0.6915 -0.4176  0.2206
  474TMC3    C8 7114   4.181   2.740  14.358 -0.5608 -0.0600  0.0017
  474TMC3    O1 7115   0.033   2.734  14.341 -0.4780  0.3490 -0.1440
  474TMC3    O2 7116   4.092   2.657  14.348  0.1636  0.3493 -0.0579
  475MPD2     C 7117   2.185   0.463  10.932  0.6562  0.8253 -0.6898
  475MPD2    C1 7118   2.212   0.560  10.838  0.3763  0.2835 -0.2003
  475MPD2    C2 7119   2.146   0.546  10.718 -0.4132 -0.1443 -0.2342
  475MPD2    C3 7120   2.074   0.436  10.681 -0.0801  0.3619  0.3752
  475MPD2    C4 7121   2.052   0.337  10.773 -0.2513  0.1425  0.9849
  475MPD2    C5 7122   2.106   0.352  10.901 -0.3318  1.3711 -0.1320
  475MPD2     H 7123   2.147   0.627  10.646  1.8514 -1.5746 -1.8043
  475MPD2    H1 7124   1.993   0.248  10.752  1.4335 -0.3335 -1.6968
  475MPD2    H2 7125   2.220   0.467  11.034  1.5280 -1.4333 -0.9072
  475MPD2    H3 7126   2.088   0.276  10.976 -0.3851 -0.4451 -1.9962
  475MPD2     N 7127   2.031   0.437  10.548 -0.2653  0.4854  0.4773
  475MPD2    H5 7128   2.058   0.513  10.487  2.8205 -0.6494  0.4155
  475MPD2    N1 7129   2.292   0.674  10.874 -0.7075  0.0743  0.5648
  475MPD2    H7 7130   2.335   0.669  10.966  0.9254 -0.1680 -0.2148
  476TMC3    C1 7131   2.453   0.826  10.817  0.9186  0.7359 -0.1209
  476TMC3    C2 7132   2.532   0.838  10.704  0.3513  0.5987 -0.1624
  476TMC3    C3 7133   2.625   0.936  10.703 -0.6117 -0.0619 -0.8427
  476TMC3    C4 7134   2.454   0.917  10.916 -0.4548 -0.4607 -0.3268
  476TMC3    C5 7135   2.529   1.022  10.900  0.3871  0.0694  0.4879
  476TMC3    C6 7136   2.625   1.035  10.798  0.5633 -0.0286  0.5376
  476TMC3     C 7137   2.339   0.770  10.774  0.0162 -0.1166  0.6211
  476TMC3     O 7138   2.303   0.779  10.658 -0.1758 -0.0189  0.1342
  476TMC3     H 7139   2.505   0.777  10.619  0.0589  1.9044 -0.9925
  476TMC3    H1 7140   2.382   0.909  10.997  1.9959 -0.4739  1.8530
  476TMC3    H2 7141   2.692   1.120  10.792  0.8459 -0.2576  0.4679
  476TMC3    C7 7142   2.511   1.138  10.994 -0.5426 -0.1362  0.4539
  476TMC3    C8 7143   2.694   0.963  10.578  0.4244  0.9950 -0.3457
  476TMC3    O1 7144   2.464   1.120  11.102  0.4546  0.2721  0.1386
  476TMC3    O2 7145   2.748   1.074  10.575  0.0032  0.1315  0.1693
  477MPD2     C 7146   1.074   2.400  11.328 -0.1248  0.3008 -0.3185
  477MPD2    C1 7147   0.965   2.314  11.310 -0.3427  0.0750  0.4119
  477MPD2    C2 7148   0.924   2.236  11.414 -0.3698  0.5484 -0.0587
  477MPD2    C3 7149   0.990   2.246  11.536  1.2906 -0.1677 -0.1086
  477MPD2    C4 7150   1.102   2.330  11.555  0.4669  0.2621 -0.7297
  477MPD2    C5 7151   1.144   2.402  11.447 -0.0322  0.5026 -0.0795
  477MPD2     H 7152   0.838   2.170  11.412 -0.1765  0.2816  0.7228
  477MPD2    H1 7153   1.157   2.320  11.648  1.1953 -0.3443 -1.2257
  477MPD2    H2 7154   1.110   2.470  11.253  0.7037  0.3344  0.1050
  477MPD2    H3 7155   1.231   2.466  11.439 -0.3875  1.0234  0.2543
  477MPD2     N 7156   0.939   2.163  11.645 -0.3154  0.2473  0.2936
  477MPD2    H5 7157   0.877   2.084  11.627 -1.3039  0.9521  0.6328
  477MPD2    N1 7158   0.895   2.318  11.185 -0.3056  0.6293 -0.1640
  477MPD2    H7 7159   0.897   2.403  11.130 -0.3515  0.1568 -0.8974
  478TMC3    C1 7160   0.711   2.287  11.052  0.1640  0.0134  1.3085
  478TMC3    C2 7161   0.671   2.417  11.068  0.0853  0.2771 -0.4224
  478TMC3    C3 7162   0.555   2.455  11.009 -0.6503 -0.2944  0.5943
  478TMC3    C4 7163   0.646   2.197  10.970 -0.4930 -0.2826 -0.8119
  478TMC3    C5 7164   0.539   2.244  10.899 -0.1524 -0.1651 -0.2423
  478TMC3    C6 7165   0.489   2.370  10.921  0.6731 -0.4288  0.0364
  478TMC3     C 7166   0.805   2.227  11.146  0.3013  0.6162 -0.4845
  478TMC3     O 7167   0.779   2.115  11.189  0.4904  0.4547 -0.1033
  478TMC3     H 7168   0.721   2.478  11.142  1.0415  0.0087 -0.8375
  478TMC3    H1 7169   0.678   2.094  10.961  1.3662  0.4387 -2.4263
  478TMC3    H2 7170   0.401   2.401  10.866 -0.4481 -0.7447  1.6496
  478TMC3    C7 7171   0.504   2.162  10.777 -1.0348 -0.7545 -0.0924
  478TMC3    C8 7172   0.508   2.588  11.019 -0.2159 -0.1340 -0.2666
  478TMC3    O1 7173   0.533   2.043  10.770 -0.0684 -0.0854  0.2352
  478TMC3    O2 7174   0.577   2.659  11.090 -0.1137  0.2138  0.4795
  479MPD2     C 7175   3.846   4.348  15.127  0.1301  0.1730  0.4454
  479MPD2    C1 7176   3.831   4.366  15.261  0.0320 -0.0653  0.5608
  479MPD2    C2 7177   3.953   4.388  15.329  0.7726 -0.2977 -0.1633
  479MPD2    C3 7178   4.072   4.419  15.270 -0.0019  0.1691 -0.1890
  479MPD2    C4 7179   4.077   4.403  15.133 -0.0686 -0.3742  0.2653
  479MPD2    C5 7180   3.964   4.368  15.059  0.0693 -0.4326  0.2440
  479MPD2     H 7181   3.937   4.400  15.436  1.2760  1.8111 -0.3240
  479MPD2    H1 7182   4.170   4.406  15.077 -0.2235 -1.2056 -0.0331
  479MPD2    H2 7183   3.759   4.322  15.068  2.3778 -0.2594 -2.6896
  479MPD2    H3 7184   3.971   4.351  14.952  0.3122  0.6204  0.0928
  479MPD2     N 7185   4.187   4.465  15.337 -0.5143  0.4707 -0.4101
  479MPD2    H5 7186   4.271   4.440  15.286  0.4727  1.3338  0.7772
  479MPD2    N1 7187   3.706   4.360  15.313 -0.3125  0.2370 -0.2139
  479MPD2    H7 7188   3.632   4.338  15.247 -0.3901 -0.0098 -0.0476
  480TMC3    C1 7189   3.957   4.619  15.713  0.2999  0.1126 -0.4637
  480TMC3    C2 7190   3.862   4.696  15.643  0.9757  0.3924  0.1097
  480TMC3    C3 7191   3.895   4.728  15.507 -0.4826 -0.0968 -0.2742
  480TMC3    C4 7192   4.060   4.562  15.645  0.8368 -0.7701 -0.0829
  480TMC3    C5 7193   4.083   4.584  15.517 -0.6704 -0.0860 -1.1566
  480TMC3    C6 7194   4.006   4.674  15.448  0.9410  1.0448 -0.1266
  480TMC3     C 7195   3.919   4.526  15.821  0.4931  0.0555  0.2724
  480TMC3     O 7196   3.995   4.446  15.876 -0.1301  0.0073 -0.0804
  480TMC3     H 7197   3.772   4.735  15.690 -0.6181 -2.1876 -0.8269
  480TMC3    H1 7198   4.115   4.483  15.696 -1.7627 -2.9264 -0.6288
  480TMC3    H2 7199   4.029   4.704  15.347  2.1134  0.8680  0.0902
  480TMC3    C7 7200   4.203   4.528  15.463 -0.3593  0.0156  0.2338
  480TMC3    C8 7201   3.771   0.003  15.424  0.0493 -0.0688  0.0264
  480TMC3    O1 7202   4.310   4.532  15.525  0.4377 -0.4988  0.2062
  480TMC3    O2 7203   3.669   0.037  15.482 -0.1062 -0.0502  0.4402
  481MPD2     C 7204   0.941   3.844  14.004  0.2555 -0.6928  0.5368
  481MPD2    C1 7205   0.813   3.856  14.060  0.0343 -0.0250 -0.1670
  481MPD2    C2 7206   0.787   3.857  14.195  0.1962 -0.0200  0.2355
  481MPD2    C3 7207   0.888   3.828  14.283 -0.1021 -0.0500 -0.0861
  481MPD2    C4 7208   1.017   3.806  14.234  1.0406 -0.2654  0.8605
  481MPD2    C5 7209   1.040   3.825  14.099  0.0876 -0.2560 -0.0049
  481MPD2     H 7210   0.685   3.867  14.229  0.6788  1.0252  1.3571
  481MPD2    H1 7211   1.099   3.780  14.300  1.2349  1.0254  1.1252
  481MPD2    H2 7212   0.978   3.828  13.903 -0.7088 -1.2984  0.2824
  481MPD2    H3 7213   1.139   3.813  14.058  0.4629 -2.2792  1.4444
  481MPD2     N 7214   0.859   3.815  14.423 -0.2352 -0.1555 -0.1812
  481MPD2    H5 7215   0.943   3.804  14.479 -0.3461 -0.3701 -0.0559
  481MPD2    N1 7216   0.710   3.863  13.962  0.8206 -0.5799 -0.1870
  481MPD2    H7 7217   0.744   3.877  13.868 -1.1773  0.5300 -0.7523
  482TMC3    C1 7218   0.495   3.821  13.867  0.5137 -0.7557  0.2254
  482TMC3    C2 7219   0.399   3.725  13.873 -0.0831 -0.4899  0.5276
  482TMC3    C3 7220   0.316   3.713  13.764 -0.5339  0.0647  0.3217
  482TMC3    C4 7221   0.501   3.915  13.766 -0.0321 -0.6536 -0.1131
  482TMC3    C5 7222   0.417   3.903  13.664 -0.1516 -0.7148  0.2782
  482TMC3    C6 7223   0.313   3.814  13.662 -0.4372  0.5244 -0.2570
  482TMC3     C 7224   0.579   3.829  13.990  0.1561  0.4304 -0.2650
  482TMC3     O 7225   0.524   3.815  14.100  0.4573  0.0281 -0.4508
  482TMC3     H 7226   0.394   3.656  13.956 -2.1959 -0.7254  0.2102
  482TMC3    H1 7227   0.578   3.991  13.758  1.9685 -2.6122  0.8265
  482TMC3    H2 7228   0.259   3.812  13.568 -1.2233  0.7681  0.1838
  482TMC3    C7 7229   0.401   4.008  13.566  0.1318  0.8765  0.8939
  482TMC3    C8 7230   0.234   3.597  13.748  0.3558  0.1217 -0.2982
  482TMC3    O1 7231   0.499   4.054  13.507  0.4187  0.3668  0.4063
  482TMC3    O2 7232   0.259   3.493  13.802 -0.5151 -0.2611 -0.7170
  483TMC3    C1 7233   4.125   3.264   1.000  1.0010 -0.1057  0.2236
  483TMC3    C2 7234   4.210   3.370   0.981 -0.8916  0.1597 -0.4684
  483TMC3    C3 7235   4.340   3.352   0.994 -0.5544  0.1038 -0.1487
  483TMC3    C4 7236   4.166   3.130   1.015 -0.3931  0.9177  0.0746
  483TMC3    C5 7237   4.302   3.119   1.030  0.7802 -0.8323 -0.0279
  483TMC3    C6 7238   4.390   3.229   1.033 -0.9072 -0.2986  0.2970
  483TMC3     C 7239   3.981   3.293   0.956 -0.6040  0.3825 -0.3666
  483TMC3     O 7240   3.957   3.401   0.903  0.6397  0.1832 -0.4786
  483TMC3     H 7241   4.170   3.467   0.953  0.1285  0.9212  0.7455
  483TMC3    H1 7242   4.098   3.046   1.025  1.0879 -0.1085  1.5749
  483TMC3    H2 7243   4.495   3.206   1.018 -0.5562  2.5407 -1.6142
  483TMC3    C7 7244   4.352   2.994   1.085  0.1318  0.4260 -0.0196
  483TMC3    C8 7245   4.418   3.440   0.909 -0.3417  0.4516  0.1252
  483TMC3    O1 7246   4.304   2.891   1.045 -0.1364  0.0503  0.3991
  483TMC3    O2 7247   4.358   3.533   0.850 -0.0819 -0.0528 -0.6145
  484MPD2     C 7248   1.640   0.421  12.691 -0.1346  0.9485  0.7409
  484MPD2    C1 7249   1.538   0.473  12.620 -0.5559 -0.9052 -0.9156
  484MPD2    C2 7250   1.563   0.582  12.536 -0.2354 -0.0179  0.0661
  484MPD2    C3 7251   1.692   0.628  12.517  0.1412  0.2300 -0.1923
  484MPD2    C4 7252   1.795   0.575  12.597  0.2061  0.1588  1.1700
  484MPD2    C5 7253   1.767   0.470  12.675  0.0428 -0.0185  0.0460
  484MPD2     H 7254   1.485   0.622  12.472  1.2867  2.3334 -0.2811
  484MPD2    H1 7255   1.897   0.611  12.594  0.1017  0.1276 -2.8017
  484MPD2    H2 7256   1.632   0.338  12.760  3.4450 -0.3712 -0.4124
  484MPD2    H3 7257   1.852   0.428  12.729  1.5299  1.1979 -1.3523
  484MPD2     N 7258   1.725   0.732  12.427  0.0954  0.1584  0.2278
  484MPD2    H5 7259   1.821   0.765  12.430 -0.5426  1.9825  0.5476
  484MPD2    N1 7260   1.410   0.426  12.649 -0.3046 -0.1746 -0.0871
  484MPD2    H7 7261   1.410   0.349  12.715  0.4494  0.7742  1.0363
  485TMC3    C1 7262   1.691   0.896  12.255 -0.3776  0.6518  0.1057
  485TMC3    C2 7263   1.801   0.973  12.286 -0.4168  0.4303 -0.3845
  485TMC3    C3 7264   1.832   1.079  12.211  0.6908 -0.2750 -0.0177
  485TMC3    C4 7265   1.606   0.933  12.157 -0.5909  0.2284  0.7595
  485TMC3    C5 7266   1.629   1.055  12.090 -0.1763 -0.6759 -0.7820
  485TMC3    C6 7267   1.742   1.125  12.119 -0.1641 -0.3460 -0.1256
  485TMC3     C 7268   1.637   0.792  12.343 -0.1588  0.3270 -1.0221
  485TMC3     O 7269   1.516   0.779  12.336 -0.3665  0.2139 -0.8198
  485TMC3     H 7270   1.861   0.951  12.374  0.0147 -1.2059 -1.1025
  485TMC3    H1 7271   1.527   0.872  12.115 -1.2909  1.8722 -0.2913
  485TMC3    H2 7272   1.761   1.215  12.062 -0.3604  0.5367  1.2193
  485TMC3    C7 7273   1.604   1.060  11.944 -0.3590 -0.5617 -0.6493
  485TMC3    C8 7274   1.967   1.086  12.158 -0.4744 -0.2854  0.5312
  485TMC3    O1 7275   1.689   1.115  11.873  0.2735 -0.1334  0.4123
  485TMC3    O2 7276   2.000   1.134  12.049  0.2132  0.0787 -0.9232
  486MPD2     C 7277   3.288   4.154  12.762  0.1684 -1.0248  0.2617
  486MPD2    C1 7278   3.268   4.116  12.630 -0.7288 -0.3342  0.1765
  486MPD2    C2 7279   3.241   4.222  12.542  0.1806  0.8202 -0.0712
  486MPD2    C3 7280   3.235   4.349  12.583  0.6199  0.4580  0.6288
  486MPD2    C4 7281   3.268   4.388  12.710  0.3037  0.2064  0.1224
  486MPD2    C5 7282   3.300   4.290  12.801 -1.0594 -0.3123 -0.4495
  486MPD2     H 7283   3.226   4.201  12.437 -2.0920  0.1626  0.3763
  486MPD2    H1 7284   3.249   4.480  12.765 -0.9485  0.8997 -1.4694
  486MPD2    H2 7285   3.295   4.080  12.841 -1.7786 -1.1818  0.2746
  486MPD2    H3 7286   3.306   4.319  12.905  1.2752 -0.5778 -0.5025
  486MPD2     N 7287   3.199   4.448  12.491 -0.2961 -0.2974 -1.0546
  486MPD2    H5 7288   3.201   4.425  12.393 -0.1678 -0.3011 -1.0500
  486MPD2    N1 7289   3.257   3.983  12.594 -0.3667  0.1124  0.2085
  486MPD2    H7 7290   3.284   3.911  12.660 -0.5780 -1.0342 -0.9600
  487TMC3    C1 7291   3.206   3.795  12.469 -0.2706  0.3865  0.4152
  487TMC3    C2 7292   3.084   3.737  12.481  0.3824 -0.1409 -0.0811
  487TMC3    C3 7293   3.074   3.619  12.550 -0.2377 -0.4812 -0.3592
  487TMC3    C4 7294   3.318   3.744  12.525  0.1770 -0.5152 -0.3770
  487TMC3    C5 7295   3.314   3.614  12.571 -0.3061 -0.3453 -0.9453
  487TMC3    C6 7296   3.193   3.553  12.582 -0.6563 -0.6512 -0.2140
  487TMC3     C 7297   3.205   3.939  12.475 -0.1276 -1.0282  0.2587
  487TMC3     O 7298   3.118   3.993  12.409  0.5429 -0.0127 -0.3803
  487TMC3     H 7299   2.998   3.789  12.442 -1.5079 -2.9891  0.2728
  487TMC3    H1 7300   3.413   3.794  12.515  0.4784 -1.2496 -1.2052
  487TMC3    H2 7301   3.188   3.469  12.651  2.7878 -0.6422  0.0602
  487TMC3    C7 7302   3.430   3.582  12.658  0.7912 -0.5540 -0.0350
  487TMC3    C8 7303   2.958   3.603  12.644 -0.5965 -0.2077 -0.6265
  487TMC3    O1 7304   3.489   3.679  12.701  0.4340 -0.4426  0.2391
  487TMC3    O2 7305   2.887   3.700  12.666 -0.2467  0.3415  0.0802
  488MPD2     C 7306   3.585   1.149  16.394  0.0261  0.0784  0.4870
  488MPD2    C1 7307   3.597   1.279  16.424  0.4166  0.2616  0.2700
  488MPD2    C2 7308   3.613   1.310  16.554 -0.9601 -0.2974 -0.2317
  488MPD2    C3 7309   3.604   1.212  16.658 -0.3718  0.9295  0.4930
  488MPD2    C4 7310   3.588   1.088  16.616 -0.1422 -0.5619 -0.8867
  488MPD2    C5 7311   3.586   1.052  16.490 -0.3572  0.1010  0.1175
  488MPD2     H 7312   3.637   1.413  16.580 -0.6828 -0.6368  0.8762
  488MPD2    H1 7313   3.580   1.015  16.696  1.5796 -1.5093 -1.5881
  488MPD2    H2 7314   3.577   1.122  16.290 -2.4232  0.3568  0.5993
  488MPD2    H3 7315   3.586   0.946  16.465 -1.7485  0.1905 -0.2501
  488MPD2     N 7316   3.588   1.258  16.791 -0.1605 -0.1723 -0.0356
  488MPD2    H5 7317   3.602   1.359  16.796  1.0264 -0.2333 -2.0793
  488MPD2    N1 7318   3.599   1.382  16.324 -0.3055 -0.1810  0.0819
  488MPD2    H7 7319   3.588   1.472  16.370 -0.7258  0.5070 -1.3787
  489TMC3    C1 7320   3.536   1.266  17.021  0.1733 -0.4801  0.4552
  489TMC3    C2 7321   3.521   1.402  17.006 -0.6801 -0.2731  0.2417
  489TMC3    C3 7322   3.554   1.477  17.120 -0.1834 -0.0933 -0.4552
  489TMC3    C4 7323   3.554   1.204  17.140 -0.3316  0.0608  0.5717
  489TMC3    C5 7324   3.587   1.282  17.240  0.5510  0.3244 -0.5231
  489TMC3    C6 7325   3.585   1.418  17.238 -0.5625 -0.3827 -1.2628
  489TMC3     C 7326   3.556   1.184  16.900 -0.2693 -0.7848  0.6380
  489TMC3     O 7327   3.526   1.063  16.908 -0.3399 -0.3079 -0.1494
  489TMC3     H 7328   3.488   1.449  16.914 -1.5758 -2.4712 -0.5691
  489TMC3    H1 7329   3.549   1.096  17.141  0.0485  0.0534  1.1866
  489TMC3    H2 7330   3.634   1.468  17.321  0.2026  0.7955 -2.4239
  489TMC3    C7 7331   3.621   1.222  17.372 -0.4948 -0.4134 -0.7112
  489TMC3    C8 7332   3.582   1.617  17.099 -0.3255 -1.2706 -0.4175
  489TMC3    O1 7333   3.649   1.299  17.466  0.2686  0.5630  0.6563
  489TMC3    O2 7334   3.594   1.655  16.986  0.3394 -0.1937 -0.7793
  490MPD2     C 7335   4.264   1.292  16.978  0.5932 -0.1969  0.3778
  490MPD2    C1 7336   4.379   1.217  17.003  0.2843 -0.4276 -0.0182
  490MPD2    C2 7337   4.503   1.284  16.996  0.5789  0.3999  0.0741
  490MPD2    C3 7338   4.504   1.417  16.961 -0.2850  0.0603 -0.6070
  490MPD2    C4 7339   4.390   1.484  16.941  0.4374 -0.5711  0.4640
  490MPD2    C5 7340   4.271   1.425  16.954  0.0042 -0.1035  0.3685
  490MPD2     H 7341   4.596   1.233  17.016 -0.1974 -1.3253 -0.7548
  490MPD2    H1 7342   4.395   1.591  16.927 -0.2058 -0.5373  0.4613
  490MPD2    H2 7343   4.166   1.245  16.978  0.6596 -0.2917  3.6877
  490MPD2    H3 7344   4.183   1.487  16.940  1.6471  1.6062 -2.4149
  490MPD2     N 7345   4.625   1.494  16.966 -0.4073 -0.3652  0.1647
  490MPD2    H5 7346   4.627   1.595  16.957  1.7375 -0.4152  0.0720
  490MPD2    N1 7347   4.371   1.080  17.028 -0.1901 -0.2764 -0.2353
  490MPD2    H7 7348   4.449   1.043  17.082 -0.7993 -1.7257 -0.3744
  491TMC3    C1 7349   4.261   0.878  17.088 -0.1301  0.0319 -0.4422
  491TMC3    C2 7350   4.335   0.880  17.203  0.0074 -0.0779  0.0805
  491TMC3    C3 7351   4.369   0.758  17.254  0.4885  0.0083  0.5463
  491TMC3    C4 7352   4.231   0.769  17.019  0.0620 -0.0063  0.3122
  491TMC3    C5 7353   4.272   0.653  17.069 -0.0386 -0.5910  0.8506
  491TMC3    C6 7354   4.342   0.640  17.190  0.2813 -0.5776 -0.0278
  491TMC3     C 7355   4.260   1.002  17.016 -0.3897 -0.0282  0.3155
  491TMC3     O 7356   4.169   1.020  16.938 -0.0665 -0.9121 -0.1815
  491TMC3     H 7357   4.344   0.971  17.261  0.6463  0.5726 -1.0633
  491TMC3    H1 7358   4.174   0.786  16.928  0.3434  1.4990  0.4158
  491TMC3    H2 7359   4.359   0.548  17.244  2.3145 -0.1743 -0.0010
  491TMC3    C7 7360   4.225   0.533  17.008 -0.6571 -0.5716  0.5757
  491TMC3    C8 7361   4.444   0.757  17.375 -0.5011 -0.0218  0.1778
  491TMC3    O1 7362   4.109   0.530  16.971  0.0493 -0.0837 -0.2405
  491TMC3    O2 7363   4.431   0.851  17.449  0.4855  0.4825  0.3832
  492MPD2     C 7364   4.733   0.393  10.888  0.2386 -0.3594  0.5977
  492MPD2    C1 7365   4.620   0.375  10.810 -0.0608  0.6952  0.1577
  492MPD2    C2 7366   4.499   0.365  10.880 -0.1066  0.1110  0.1679
  492MPD2    C3 7367   4.492   0.374  11.016 -0.7315 -0.3620 -0.4655
  492MPD2    C4 7368   4.611   0.382  11.086  0.6439 -0.2139  0.1817
  492MPD2    C5 7369   4.728   0.403  11.025 -0.1274 -0.0448 -0.3291
  492MPD2     H 7370   4.408   0.366  10.820  0.5212 -2.2306 -0.8450
  492MPD2    H1 7371   4.609   0.381  11.194 -2.3531 -4.1606  0.1043
  492MPD2    H2 7372   0.085   0.413  10.830 -0.1603  0.1360  0.1600
  492MPD2    H3 7373   0.074   0.411  11.095 -0.2500  0.5558 -0.2530
  492MPD2     N 7374   4.370   0.367  11.095 -0.1743  0.2770 -0.0443
  492MPD2    H5 7375   4.381   0.376  11.195  1.2927 -2.2875  0.0153
  492MPD2    N1 7376   4.639   0.385  10.669  0.6832  0.3107  0.4123
  492MPD2    H7 7377   4.732   0.408  10.635 -0.4580  2.5707 -1.2096
  493TMC3    C1 7378   4.582   0.404  10.445 -0.0324 -0.1827 -0.2544
  493TMC3    C2 7379   4.709   0.387  10.414  0.1074  0.6835  0.5927
  493TMC3    C3 7380   0.012   0.420  10.288  0.0279 -0.1102 -0.1787
  493TMC3    C4 7381   4.489   0.436  10.360 -0.0608 -1.0032  0.7297
  493TMC3    C5 7382   4.523   0.466  10.231 -0.1225 -0.2596 -1.3442
  493TMC3    C6 7383   4.655   0.460  10.195 -0.3733 -0.0343 -0.1112
  493TMC3     C 7384   4.536   0.380  10.577  0.4613  0.2252 -0.1912
  493TMC3     O 7385   4.419   0.352  10.596 -0.6151 -0.3455 -0.2802
  493TMC3     H 7386   0.043   0.335  10.477 -1.1143  0.9884  2.1882
  493TMC3    H1 7387   4.383   0.443  10.381 -0.1618 -0.2306 -0.0526
  493TMC3    H2 7388   4.678   0.517  10.106 -1.7083  1.7430  0.6968
  493TMC3    C7 7389   4.408   0.478  10.133 -0.3328 -0.4924  0.2211
  493TMC3    C8 7390   0.160   0.429  10.260 -0.3006  0.1197  0.3814
  493TMC3    O1 7391   4.294   0.482  10.182  0.5204  0.0782  0.4989
  493TMC3    O2 7392   0.232   0.348  10.322 -0.0015  0.3204  0.1704
  494TMC3    C1 7393   0.380   2.622   0.495  0.1920 -0.5083  0.1738
  494TMC3    C2 7394   0.358   2.493   0.456 -0.3363  0.0005  0.1513
  494TMC3    C3 7395   0.432   2.453   0.347  0.3340  0.0995  0.5164
  494TMC3    C4 7396   0.453   2.714   0.422 -0.1378  0.2170  0.9170
  494TMC3    C5 7397   0.524   2.663   0.310 -0.1828 -0.3944 -0.1586
  494TMC3    C6 7398   0.513   2.534   0.265 -0.4199  0.2516 -0.1914
  494TMC3     C 7399   0.349   2.644   0.638  0.8548 -0.8745 -0.1201
  494TMC3     O 7400   0.336   2.761   0.676 -0.0822  0.2086 -0.4892
  494TMC3     H 7401   0.300   2.423   0.514 -0.5980  0.0791 -0.0170
  494TMC3    H1 7402   0.456   2.815   0.460 -0.3486  0.3585  0.5575
  494TMC3    H2 7403   0.582   2.504   0.187 -0.4294 -0.8351  0.2202
  494TMC3    C7 7404   0.612   2.755   0.233 -0.1378 -0.3223  0.1148
  494TMC3    C8 7405   0.446   2.314   0.331 -0.2119  0.4278 -0.9519
  494TMC3    O1 7406   0.655   2.721   0.125  0.8058  0.2240 -0.3662
  494TMC3    O2 7407   0.465   2.242   0.429 -0.0059 -0.0041  0.0685
  495TMC3    C1 7408   3.748   4.242  14.599  0.3911 -0.4164 -0.0829
  495TMC3    C2 7409   3.651   4.279  14.506  0.3837 -0.5463 -0.0182
  495TMC3    C3 7410   3.613   4.413  14.500 -0.6556 -0.0220 -0.2989
  495TMC3    C4 7411   3.808   4.337  14.682 -0.4942 -0.0182  0.3587
  495TMC3    C5 7412   3.765   4.464  14.676  0.3993  0.0292 -0.1808
  495TMC3    C6 7413   3.659   4.499  14.593 -0.4307  0.0549 -1.0414
  495TMC3     C 7414   3.776   4.102  14.637  0.4167  0.7448  0.1742
  495TMC3     O 7415   3.870   4.095  14.710 -0.7076  0.4002 -0.2227
  495TMC3     H 7416   3.610   4.205  14.438 -0.5408 -0.9015  0.9202
  495TMC3    H1 7417   3.879   4.308  14.759  1.1905  0.1396 -1.1356
  495TMC3    H2 7418   3.628   4.602  14.582 -2.6133 -0.5217 -0.3621
  495TMC3    C7 7419   3.773   4.550  14.797 -0.2517 -0.7310  0.5744
  495TMC3    C8 7420   3.506   4.446  14.414  0.3114  0.3591 -0.4606
  495TMC3    O1 7421   3.884   4.565  14.846  0.1034 -0.1265  0.5099
  495TMC3    O2 7422   3.392   4.411  14.448  0.0182 -0.0169 -0.2700
  496MPD2     C 7423   1.381   0.186  15.381 -0.0400  0.3629  0.3017
  496MPD2    C1 7424   1.271   0.107  15.389 -0.2450 -0.1149 -0.7421
  496MPD2    C2 7425   1.190   0.102  15.505  0.6191  0.2662 -0.0640
  496MPD2    C3 7426   1.216   0.182  15.611 -0.7257  0.6696  0.0241
  496MPD2    C4 7427   1.333   0.255  15.605  0.4427 -0.4723  0.0322
  496MPD2    C5 7428   1.410   0.258  15.493 -0.6724 -0.6330  0.1395
  496MPD2     H 7429   1.108   0.031  15.510  0.5502  0.6299  4.2082
  496MPD2    H1 7430   1.359   0.319  15.689  0.4205 -0.6470  0.1719
  496MPD2    H2 7431   1.445   0.178  15.294  1.4177 -1.8152  1.5824
  496MPD2    H3 7432   1.488   0.332  15.497 -2.0327  0.7581  0.7712
  496MPD2     N 7433   1.144   0.179  15.732  0.4731 -0.8880  0.4393
  496MPD2    H5 7434   1.184   0.235  15.806 -0.9221  0.3016  0.2948
  496MPD2    N1 7435   1.257   0.007  15.288  0.0541 -0.6848 -0.0419
  496MPD2    H7 7436   1.321   0.006  15.209  0.2611 -0.3004  0.1198
  497TMC3    C1 7437   0.969   0.141  15.874  0.2633  0.2161 -0.2254
  497TMC3    C2 7438   0.837   0.143  15.860 -0.0467 -0.0865  0.3217
  497TMC3    C3 7439   0.746   0.090  15.947  0.0234  0.8733 -0.1634
  497TMC3    C4 7440   1.018   0.070  15.976  0.1591  0.9106  0.7413
  497TMC3    C5 7441   0.932   0.021  16.070 -1.0607  0.2554  0.1567
  497TMC3    C6 7442   0.795   0.030  16.060 -0.3380  0.3865 -0.6574
  497TMC3     C 7443   1.024   0.117  15.747 -0.3366 -0.6654  0.3296
  497TMC3     O 7444   0.963   0.042  15.669 -0.6931  0.2843 -0.4609
  497TMC3     H 7445   0.803   0.187  15.767 -0.3520 -0.9764  0.0107
  497TMC3    H1 7446   1.123   0.046  15.984  0.2188  0.2461 -2.1349
  497TMC3    H2 7447   0.722   4.729  16.129 -0.3208  1.1939 -0.1991
  497TMC3    C7 7448   0.974   4.646  16.146  0.1812 -0.4814  1.0195
  497TMC3    C8 7449   0.630   0.033  15.891  0.1828 -1.0848  0.8187
  497TMC3    O1 7450   0.892   4.558  16.166  0.1490  0.4728 -0.7346
  497TMC3    O2 7451   0.538   0.009  15.969  0.0042  0.2981  0.1317
  498MPD2     C 7452   1.830   0.430   9.788 -0.3102 -0.1777  0.3939
  498MPD2    C1 7453   1.966   0.400   9.802 -0.3071  0.5104  0.7766
  498MPD2    C2 7454   2.009   0.299   9.885  0.3043 -0.1291  0.2152
  498MPD2    C3 7455   1.916   0.227   9.952  0.4357  0.0537  0.6685
  498MPD2    C4 7456   1.779   0.256   9.953 -0.0489 -0.5589  0.0417
  498MPD2    C5 7457   1.743   0.351   9.860 -0.0907  0.7181 -0.7205
  498MPD2     H 7458   2.113   0.272   9.900  1.0147  2.4738  0.0466
  498MPD2    H1 7459   1.706   0.203  10.013 -0.5102 -0.9583 -0.8757
  498MPD2    H2 7460   1.786   0.504   9.722  0.0092 -0.1602  0.2021
  498MPD2    H3 7461   1.638   0.375   9.858 -0.4413 -0.7228  1.1015
  498MPD2     N 7462   1.975   0.130  10.039  0.2228  0.0994  0.2405
  498MPD2    H5 7463   2.076   0.118  10.035  0.5092  2.6282  0.0592
  498MPD2    N1 7464   2.061   0.491   9.751 -0.3011 -0.0958 -0.5859
  498MPD2    H7 7465   2.155   0.475   9.786 -0.5252 -0.5294 -0.1832
  499TMC3    C1 7466   2.145   0.696   9.657 -0.0884 -0.0752  0.3547
  499TMC3    C2 7467   2.268   0.642   9.648  0.2455  0.0368 -0.0540
  499TMC3    C3 7468   2.375   0.728   9.652 -0.4390 -0.0702 -0.5821
  499TMC3    C4 7469   2.115   0.826   9.648 -0.3218 -0.4073 -0.3630
  499TMC3    C5 7470   2.226   0.906   9.636  0.4188  0.5761 -0.5192
  499TMC3    C6 7471   2.357   0.858   9.634 -0.1374  0.0506 -0.2204
  499TMC3     C 7472   2.037   0.603   9.675  0.1569  0.4201 -1.3403
  499TMC3     O 7473   1.932   0.655   9.640 -0.1454  0.1884 -0.0057
  499TMC3     H 7474   2.288   0.536   9.666 -0.6468 -0.4407 -1.9245
  499TMC3    H1 7475   2.019   0.865   9.617 -0.6198 -0.1996  0.8259
  499TMC3    H2 7476   2.446   0.918   9.620 -0.2119  0.1951 -0.0693
  499TMC3    C7 7477   2.213   1.049   9.597  0.1831  0.4236  0.6585
  499TMC3    C8 7478   2.511   0.679   9.621 -0.2149  0.0354 -0.0317
  499TMC3    O1 7479   2.319   1.110   9.585 -0.1724 -0.3709 -0.0279
  499TMC3    O2 7480   2.594   0.758   9.658  0.7198 -0.3222  0.1438
  500MPD2     C 7481   3.763   1.793   9.475 -0.6289 -0.4080  0.5190
  500MPD2    C1 7482   3.773   1.758   9.607  0.3619  0.3718  0.4276
  500MPD2    C2 7483   3.664   1.702   9.664  0.2389  0.5892 -0.6823
  500MPD2    C3 7484   3.548   1.664   9.584 -0.3266 -0.7492  0.0309
  500MPD2    C4 7485   3.551   1.687   9.449 -0.0116  0.5543 -0.3427
  500MPD2    C5 7486   3.653   1.758   9.397  0.9453 -0.2408  0.4727
  500MPD2     H 7487   3.656   1.689   9.772 -0.8933  0.4620 -0.7863
  500MPD2    H1 7488   3.479   1.647   9.379 -0.7954 -0.8535  1.2698
  500MPD2    H2 7489   3.844   1.833   9.414 -0.5070  0.5186  1.2892
  500MPD2    H3 7490   3.663   1.778   9.291  1.9138 -0.1295  0.5816
  500MPD2     N 7491   3.430   1.598   9.629  0.7218  0.5184 -0.4247
  500MPD2    H5 7492   3.366   1.574   9.554  0.5188  0.0365 -0.0926
  500MPD2    N1 7493   3.879   1.796   9.690 -0.7517 -0.1545 -0.1035
  500MPD2    H7 7494   3.874   1.770   9.788 -0.7685 -0.1138 -0.0936
  501TMC3    C1 7495   4.096   1.893   9.751 -0.7115  0.5446 -0.0547
  501TMC3    C2 7496   4.226   1.917   9.695 -0.7976 -0.1610  0.4072
  501TMC3    C3 7497   4.326   1.935   9.792 -0.9450  0.0850 -0.0236
  501TMC3    C4 7498   4.076   1.869   9.883 -0.1381  0.2805  0.3606
  501TMC3    C5 7499   4.184   1.872   9.966 -0.1003 -0.2558 -0.2937
  501TMC3    C6 7500   4.307   1.909   9.927  0.1238 -0.6323  0.2290
  501TMC3     C 7501   3.994   1.862   9.648 -0.3172 -0.2884  0.0480
  501TMC3     O 7502   4.028   1.902   9.538  0.3041  0.4683 -0.4762
  501TMC3     H 7503   4.253   1.940   9.593 -1.8901 -0.0423  0.1445
  501TMC3    H1 7504   3.973   1.860   9.915  0.2248 -1.1895  1.1158
  501TMC3    H2 7505   4.395   1.901   9.991  0.2323 -2.6194 -0.1622
  501TMC3    C7 7506   4.154   1.872  10.113  0.6905 -0.1717  0.3107
  501TMC3    C8 7507   4.449   2.002   9.757 -0.0944  0.4973 -0.1837
  501TMC3    O1 7508   4.036   1.866  10.148  0.4083  0.0896 -0.6706
  501TMC3    O2 7509   4.538   1.995   9.845  0.3417 -0.7748 -0.5847
  502TMC3    C1 7510   3.078   1.196  15.529  0.2034 -0.2771  0.2722
  502TMC3    C2 7511   3.046   1.286  15.436 -0.5090  0.4061  0.8571
  502TMC3    C3 7512   2.911   1.322  15.421 -1.0948  0.5420 -0.1130
  502TMC3    C4 7513   2.981   1.130  15.601 -0.4753 -0.3113  0.1733
  502TMC3    C5 7514   2.850   1.156  15.578 -0.7438 -0.1722  0.0327
  502TMC3    C6 7515   2.812   1.256  15.490  0.8636  0.1039  0.0346
  502TMC3     C 7516   3.204   1.129  15.514 -0.4468  0.5891 -0.2137
  502TMC3     O 7517   3.301   1.202  15.483  0.0587 -0.2106 -0.0576
  502TMC3     H 7518   3.117   1.329  15.366 -1.0168  0.4728  0.3762
  502TMC3    H1 7519   3.011   1.057  15.675  2.0879 -0.9497 -1.4929
  502TMC3    H2 7520   2.708   1.285  15.486  1.0920  0.8017 -0.8663
  502TMC3    C7 7521   2.757   1.063  15.633 -0.6516 -0.2603 -0.2994
  502TMC3    C8 7522   2.894   1.417  15.322  0.4325 -0.1335 -0.5356
  502TMC3    O1 7523   2.780   1.001  15.735  0.4340 -0.6345  0.0425
  502TMC3    O2 7524   2.987   1.484  15.283 -0.0861  0.0965 -0.5196
  503MPD2     C 7525   0.721   1.832  16.662 -0.8521  0.6617 -0.2386
  503MPD2    C1 7526   0.696   1.817  16.800 -0.2300  0.4812  0.1995
  503MPD2    C2 7527   0.734   1.701  16.865 -0.1302  0.1358 -0.1276
  503MPD2    C3 7528   0.809   1.606  16.802  0.3864  0.0513 -0.1499
  503MPD2    C4 7529   0.849   1.623  16.668 -0.6035  0.4596  0.1179
  503MPD2    C5 7530   0.794   1.732  16.605 -0.4452 -0.0973 -0.5969
  503MPD2     H 7531   0.702   1.695  16.968  1.6560 -0.8342  0.3603
  503MPD2    H1 7532   0.925   1.571  16.612 -0.4184 -0.2346  1.0118
  503MPD2    H2 7533   0.688   1.919  16.607 -1.1800  1.0533  0.5858
  503MPD2    H3 7534   0.835   1.763  16.509  1.3380 -0.4045  0.0769
  503MPD2     N 7535   0.840   1.488  16.874  0.0421  0.3710 -0.8149
  503MPD2    H5 7536   0.793   1.462  16.961 -2.2630  0.6588 -1.9740
  503MPD2    N1 7537   0.644   1.917  16.880 -0.0326  0.5780 -0.1998
  503MPD2    H7 7538   0.651   1.904  16.981 -0.5312 -0.1070 -0.2527
  504TMC3    C1 7539   0.944   1.284  16.922 -0.4139 -0.0581  0.1364
  504TMC3    C2 7540   0.860   1.253  17.027 -0.3066 -0.2249  0.4722
  504TMC3    C3 7541   0.907   1.175  17.130 -0.3328 -0.3698  0.4049
  504TMC3    C4 7542   1.075   1.239  16.929  0.7720 -1.3604  0.7052
  504TMC3    C5 7543   1.120   1.160  17.031  0.2908  0.3440  0.4777
  504TMC3    C6 7544   1.036   1.117  17.133  0.4022  0.9079 -0.1440
  504TMC3     C 7545   0.931   1.393  16.830 -0.4876 -0.0313  0.5018
  504TMC3     O 7546   1.024   1.418  16.751 -0.2543 -0.2959 -0.4128
  504TMC3     H 7547   0.757   1.287  17.025 -0.5594 -0.8687  2.5924
  504TMC3    H1 7548   1.146   1.271  16.854  0.1124  0.7445  0.9875
  504TMC3    H2 7549   1.055   1.028  17.191 -0.3456  0.2619 -0.8782
  504TMC3    C7 7550   1.263   1.168  17.051 -0.2933 -0.5010 -0.7503
  504TMC3    C8 7551   0.852   1.211  17.258  0.2368  1.0520  0.2604
  504TMC3    O1 7552   1.342   1.163  16.956  0.3127  0.7018  0.4281
  504TMC3    O2 7553   0.773   1.299  17.251 -0.1322 -0.2566 -0.5886
  505MPD2     C 7554   1.226   3.698  10.147  0.3564 -0.7555  0.3031
  505MPD2    C1 7555   1.345   3.642  10.170 -0.2522  0.0819 -0.5644
  505MPD2    C2 7556   1.396   3.634  10.297 -0.2625  0.1798  0.0699
  505MPD2    C3 7557   1.324   3.687  10.399 -0.4715  0.4748 -0.7552
  505MPD2    C4 7558   1.199   3.742  10.377  0.0994  0.4642 -0.2896
  505MPD2    C5 7559   1.149   3.743  10.253 -0.2123  0.5896 -0.3053
  505MPD2     H 7560   1.503   3.621  10.308 -0.0218  2.5360  0.5701
  505MPD2    H1 7561   1.150   3.789  10.462  2.6496  0.5895  1.1246
  505MPD2    H2 7562   1.183   3.685  10.048 -1.7192 -4.3084  1.6673
  505MPD2    H3 7563   1.052   3.788  10.233 -0.2565  1.6894  2.3374
  505MPD2     N 7564   1.383   3.688  10.528  0.0216  0.0785 -0.4652
  505MPD2    H5 7565   1.477   3.649  10.531  0.1535  0.4944  0.7952
  505MPD2    N1 7566   1.421   3.602  10.058  0.2469 -0.1588 -0.2781
  505MPD2    H7 7567   1.378   3.621   9.968  1.0849 -3.2386 -1.3217
  506TMC3    C1 7568   1.594   3.487   9.938  0.2420 -0.2644 -0.4741
  506TMC3    C2 7569   1.627   3.593   9.865  0.1607  0.1783 -0.2331
  506TMC3    C3 7570   1.759   3.589   9.818  0.0860  0.1590  0.1165
  506TMC3    C4 7571   1.669   3.375   9.950 -0.7168  0.6892  0.5777
  506TMC3    C5 7572   1.794   3.368   9.896 -0.0484  0.4416 -0.0848
  506TMC3    C6 7573   1.836   3.469   9.818 -0.5227 -0.4559 -0.4620
  506TMC3     C 7574   1.529   3.517  10.061 -0.0392 -0.1937  0.0233
  506TMC3     O 7575   1.584   3.463  10.157  0.5022 -0.6671  0.1155
  506TMC3     H 7576   1.564   3.681   9.854 -0.4721 -0.0370  1.6224
  506TMC3    H1 7577   1.622   3.289   9.996  0.0477 -0.1874 -0.3099
  506TMC3    H2 7578   1.926   3.470   9.758  0.2150 -2.4123  0.6134
  506TMC3    C7 7579   1.898   3.349   9.996 -0.0604 -0.0213 -0.3205
  506TMC3    C8 7580   1.822   3.704   9.751  0.0279 -0.2989 -1.0975
  506TMC3    O1 7581   2.011   3.336   9.956  0.1800  0.0625 -0.1123
  506TMC3    O2 7582   1.882   3.674   9.647 -0.2341  0.9209  0.5561
  507TMC3    C1 7583   1.632   0.877  15.699  0.0497 -0.3344  0.6399
  507TMC3    C2 7584   1.598   0.775  15.611 -0.2544 -0.1828  0.5678
  507TMC3    C3 7585   1.643   0.782  15.484 -0.7073 -0.0344 -0.3874
  507TMC3    C4 7586   1.694   0.992  15.656 -0.0478 -0.4944  0.2871
  507TMC3    C5 7587   1.758   0.981  15.532  0.5422  0.0379 -0.5062
  507TMC3    C6 7588   1.731   0.876  15.446  0.3978  0.0007  0.2104
  507TMC3     C 7589   1.654   0.840  15.841 -0.2437  0.1313  0.3297
  507TMC3     O 7590   1.661   0.931  15.922  0.0054  0.0244 -0.3449
  507TMC3     H 7591   1.532   0.693  15.637 -1.0689  0.8709  1.7800
  507TMC3    H1 7592   1.712   1.067  15.732  1.8074 -0.4934 -0.1686
  507TMC3    H2 7593   1.772   0.866  15.346  0.5274 -0.9346  0.3617
  507TMC3    C7 7594   1.751   1.100  15.457 -0.4144 -0.2332  0.5962
  507TMC3    C8 7595   1.538   0.756  15.386 -0.3192  0.5391 -0.4524
  507TMC3    O1 7596   1.697   1.089  15.350  0.5370 -0.0870 -0.0385
  507TMC3    O2 7597   1.464   0.657  15.395  0.3628 -0.5872 -0.9019
  508MPD2     C 7598   3.083   3.071  16.035  0.2217  0.2294  0.7953
  508MPD2    C1 7599   3.057   3.183  16.112  1.0453 -0.3774 -0.1700
  508MPD2    C2 7600   3.005   3.293  16.049  0.0578  0.7323  0.5520
  508MPD2    C3 7601   2.979   3.299  15.915 -0.3527 -0.2503 -0.6148
  508MPD2    C4 7602   3.006   3.181  15.844  0.2294 -0.7752 -0.1267
  508MPD2    C5 7603   3.054   3.069  15.903 -0.0947 -0.2016 -0.4173
  508MPD2     H 7604   2.987   3.385  16.104  0.1217  0.8015  0.4555
  508MPD2    H1 7605   2.981   3.179  15.738  0.6099 -0.0197 -0.2356
  508MPD2    H2 7606   3.117   2.980  16.084  2.3280 -0.9329 -2.8342
  508MPD2    H3 7607   3.066   2.981  15.841 -0.5626 -0.7722  0.3067
  508MPD2     N 7608   2.924   3.418  15.851 -0.4249  0.3516  0.6400
  508MPD2    H5 7609   2.896   3.491  15.916 -3.1251 -0.9540  0.9152
  508MPD2    N1 7610   3.067   3.167  16.252 -0.1466 -0.6786  0.4537
  508MPD2    H7 7611   3.124   3.089  16.283  0.3276  0.6105  2.8063
  509TMC3    C1 7612   2.703   3.697  15.560 -0.2966  1.0043  0.0401
  509TMC3    C2 7613   2.709   3.799  15.653  0.4246  0.2187  0.0547
  509TMC3    C3 7614   2.791   3.776  15.762 -0.0288  0.1581 -0.1811
  509TMC3    C4 7615   2.775   3.576  15.572 -0.8777 -0.0169 -0.8672
  509TMC3    C5 7616   2.848   3.560  15.688  0.2933  1.1647 -0.1333
  509TMC3    C6 7617   2.850   3.656  15.783 -0.1367  0.7860 -0.2910
  509TMC3     C 7618   2.599   3.698  15.456 -0.6762 -1.4955  0.2275
  509TMC3     O 7619   2.569   3.592  15.403 -0.1262  0.4787  0.1165
  509TMC3     H 7620   2.653   3.891  15.645 -1.0912 -0.5080  2.2823
  509TMC3    H1 7621   2.777   3.502  15.493  0.4943  0.1773 -1.0087
  509TMC3    H2 7622   2.931   3.657  15.855  1.4003  1.4206 -2.0382
  509TMC3    C7 7623   2.911   3.436  15.716  0.3353 -0.3232  0.3777
  509TMC3    C8 7624   2.861   3.888  15.820 -0.1578 -0.8362 -0.2316
  509TMC3    O1 7625   2.949   3.363  15.622 -0.3220 -0.2358  0.9011
  509TMC3    O2 7626   2.910   3.867  15.932  0.3376 -0.2732  0.1015
  510MPD2     C 7627   0.297   0.247  14.808  0.3787 -0.1882 -0.4777
  510MPD2    C1 7628   0.326   0.119  14.854  0.3073  0.3984  0.9741
  510MPD2    C2 7629   0.431   0.052  14.796  0.0686  0.5395 -0.5764
  510MPD2    C3 7630   0.510   0.109  14.703 -0.4697  0.1039 -0.1448
  510MPD2    C4 7631   0.481   0.238  14.654 -0.4257 -0.6117  0.1214
  510MPD2    C5 7632   0.378   0.308  14.713  0.9610 -0.3782  0.0669
  510MPD2     H 7633   0.469   4.695  14.835 -0.9055  1.6161  2.9294
  510MPD2    H1 7634   0.545   0.293  14.586  0.9448 -0.7169  1.3086
  510MPD2    H2 7635   0.224   0.313  14.853  1.2134 -0.0861  0.7580
  510MPD2    H3 7636   0.361   0.412  14.686  0.3483 -0.6948 -0.7798
  510MPD2     N 7637   0.632   0.039  14.668  0.0192  0.0188  0.5235
  510MPD2    H5 7638   0.639   4.683  14.708 -0.2730 -0.7641 -1.2471
  510MPD2    N1 7639   0.243   0.063  14.957  0.0001 -0.2095 -0.1359
  510MPD2    H7 7640   0.166   0.124  14.982  0.3420  1.5321 -3.2603
  511TMC3    C1 7641   0.175   4.630  15.108  0.1786 -0.0033  0.1527
  511TMC3    C2 7642   0.125   4.711  15.203  0.5581 -0.1099 -0.1297
  511TMC3    C3 7643   0.038   4.666  15.293  0.0094 -0.2149  0.9936
  511TMC3    C4 7644   0.159   4.495  15.117  0.1659 -0.1385 -0.4055
  511TMC3    C5 7645   0.071   4.450  15.210 -0.3084 -0.8284 -0.5416
  511TMC3    C6 7646   0.007   4.530  15.301  0.4056  0.6791  0.3327
  511TMC3     C 7647   0.270   4.670  15.003  0.2791  0.5708 -0.4487
  511TMC3     O 7648   0.362   4.589  14.981 -0.1817  0.3063  0.1070
  511TMC3     H 7649   0.156   0.078  15.199  1.4808 -0.3338  1.4301
  511TMC3    H1 7650   0.203   4.436  15.037  0.0407 -0.4728 -0.2297
  511TMC3    H2 7651   4.663   4.490  15.362  0.2840 -1.5086 -1.2657
  511TMC3    C7 7652   0.031   4.308  15.200  0.2210 -0.2166 -0.1314
  511TMC3    C8 7653   4.721   0.022  15.392  0.1329  0.0268 -0.0978
  511TMC3    O1 7654   0.040   4.238  15.095 -0.1517 -0.2297  0.3014
  511TMC3    O2 7655   4.706   0.138  15.354  0.3162  0.3775  0.6507
  512TMC3    C1 7656   4.075   4.020  13.962 -0.3678  0.7838 -0.5954
  512TMC3    C2 7657   4.136   4.109  14.051 -0.5178  0.5727 -0.5356
  512TMC3    C3 7658   4.228   4.056  14.142  0.6350 -0.1200 -0.3517
  512TMC3    C4 7659   4.105   3.887  13.965  0.2775 -0.3328 -0.4811
  512TMC3    C5 7660   4.191   3.835  14.064  0.2779  0.1167  0.2522
  512TMC3    C6 7661   4.253   3.922  14.152 -0.1507 -0.0792  0.2772
  512TMC3     C 7662   3.988   4.076  13.854 -0.0899 -0.3165  0.1922
  512TMC3     O 7663   3.898   4.006  13.805  0.2320  0.1013 -0.0889
  512TMC3     H 7664   4.125   4.217  14.044  0.7253  0.7527  0.2245
  512TMC3    H1 7665   4.061   3.823  13.889  3.0655 -1.2781 -1.2943
  512TMC3    H2 7666   4.325   3.876  14.219  1.0879  0.9234 -0.3857
  512TMC3    C7 7667   4.247   3.704  14.056 -0.2960  0.4138  0.3507
  512TMC3    C8 7668   4.301   4.142  14.235 -0.3625 -0.3119  0.5241
  512TMC3    O1 7669   4.315   3.673  14.149 -0.0271 -0.1938  0.1920
  512TMC3    O2 7670   4.344   4.077  14.332  0.5606 -0.0861 -0.2064
  513MPD2     C 7671   1.086   3.957  13.096  0.0495  0.0840 -0.5066
  513MPD2    C1 7672   1.165   4.059  13.055  0.2923  0.1929 -0.4366
  513MPD2    C2 7673   1.246   4.115  13.156  1.1825  0.3841  0.6930
  513MPD2    C3 7674   1.261   4.051  13.277  0.8592 -0.0929 -0.1900
  513MPD2    C4 7675   1.184   3.943  13.314  0.4078  0.0177  0.0341
  513MPD2    C5 7676   1.091   3.905  13.221  0.2944 -0.2584 -0.0512
  513MPD2     H 7677   1.308   4.203  13.142  0.9010  0.3453 -0.8700
  513MPD2    H1 7678   1.186   3.900  13.414 -0.3772  0.8675  0.4162
  513MPD2    H2 7679   1.015   3.908  13.030  0.6173  0.1224 -1.1495
  513MPD2    H3 7680   1.019   3.827  13.239 -0.9436  1.2127  1.3844
  513MPD2     N 7681   1.366   4.094  13.361 -0.5084 -0.1619 -0.2177
  513MPD2    H5 7682   1.423   4.170  13.326  2.2608 -1.6890  0.9064
  513MPD2    N1 7683   1.149   4.112  12.925 -0.0651 -0.0472 -0.2868
  513MPD2    H7 7684   1.087   4.062  12.862 -0.9203 -1.8014  1.8892
  514TMC3    C1 7685   1.200   4.271  12.742  0.3310  0.1982  0.2050
  514TMC3    C2 7686   1.193   4.168  12.654 -0.1015  0.2314 -0.2681
  514TMC3    C3 7687   1.276   4.178  12.541 -0.3898  0.3643 -0.3257
  514TMC3    C4 7688   1.280   4.384  12.718 -0.6454 -0.0177  0.3757
  514TMC3    C5 7689   1.374   4.373  12.622  0.5015 -0.1201 -0.1314
  514TMC3    C6 7690   1.372   4.274  12.532 -0.7216 -0.7148 -0.0000
  514TMC3     C 7691   1.220   4.225  12.885  0.0003 -1.3264  0.1531
  514TMC3     O 7692   1.275   4.319  12.944 -0.7261  0.2508  0.6216
  514TMC3     H 7693   1.128   4.082  12.662  2.0148 -1.2059  1.3993
  514TMC3    H1 7694   1.278   4.475  12.777  1.8740 -1.2538  2.3545
  514TMC3    H2 7695   1.444   4.281  12.451  1.5934  1.5802  2.2410
  514TMC3    C7 7696   1.505   4.423  12.657  0.5635 -0.0017  0.3351
  514TMC3    C8 7697   1.284   4.056  12.467  0.2151 -0.6952 -0.6232
  514TMC3    O1 7698   1.580   4.461  12.569 -0.2579 -0.0200 -0.4080
  514TMC3    O2 7699   1.214   3.962  12.500  0.2487 -0.0998 -0.4423
  515MPD2     C 7700   3.891   1.592  14.679  0.4601 -0.8934 -0.1124
  515MPD2    C1 7701   3.970   1.482  14.691  0.1756  0.2066 -0.5460
  515MPD2    C2 7702   4.065   1.479  14.794  0.0393 -0.0434  0.2164
  515MPD2    C3 7703   4.080   1.585  14.878 -0.3541 -0.4968 -0.7399
  515MPD2    C4 7704   3.995   1.691  14.864 -0.7213  0.6387 -0.2852
  515MPD2    C5 7705   3.903   1.693  14.764 -0.6270  0.1110 -0.0242
  515MPD2     H 7706   4.122   1.387  14.792  1.3468  0.8205 -1.8397
  515MPD2    H1 7707   4.002   1.783  14.922 -0.5557  1.2784 -1.3103
  515MPD2    H2 7708   3.810   1.605  14.608  1.5388  3.0817 -0.5905
  515MPD2    H3 7709   3.835   1.778  14.763  1.3917  1.6397 -3.9829
  515MPD2     N 7710   4.184   1.604  14.975 -0.6955  1.0263 -0.4684
  515MPD2    H5 7711   4.195   1.699  15.010  0.0261  0.9786 -0.5793
  515MPD2    N1 7712   3.968   1.360  14.613  0.1717  0.3074 -0.5852
  515MPD2    H7 7713   3.998   1.275  14.658 -1.5182  1.0676  1.9669
  516TMC3    C1 7714   3.911   1.249  14.406  0.6855  0.3757 -0.1431
  516TMC3    C2 7715   3.889   1.268  14.268 -0.6218  0.4533  0.0114
  516TMC3    C3 7716   3.858   1.159  14.192 -0.1632 -0.2636  0.2915
  516TMC3    C4 7717   3.906   1.126  14.456  0.0172  0.0130 -0.5311
  516TMC3    C5 7718   3.873   1.022  14.373 -0.0768 -0.7058  0.1557
  516TMC3    C6 7719   3.844   1.036  14.242  0.0430 -0.1667  0.0872
  516TMC3     C 7720   3.921   1.369  14.486  0.2899  0.2224 -0.1531
  516TMC3     O 7721   3.886   1.468  14.425  0.0572 -0.2449  0.4158
  516TMC3     H 7722   3.892   1.364  14.216  0.7667 -1.2309 -3.0018
  516TMC3    H1 7723   3.913   1.103  14.561  1.5137  0.2007 -0.6026
  516TMC3    H2 7724   3.800   0.954  14.186 -1.3991 -0.1031  1.1221
  516TMC3    C7 7725   3.857   0.895  14.436 -0.5728  0.1470  0.4155
  516TMC3    C8 7726   3.753   1.185  14.108 -0.2032 -0.2423  0.1509
  516TMC3    O1 7727   3.823   0.888  14.553 -0.1502 -0.1904  0.0756
  516TMC3    O2 7728   3.647   1.120  14.124  0.0631 -0.2095 -0.5296
  517MPD2     C 7729   3.958   3.246   0.207 -0.3883  0.4424  0.0190
  517MPD2    C1 7730   4.081   3.225   0.138  0.6756 -0.1036 -0.2943
  517MPD2    C2 7731   4.184   3.318   0.139 -0.1323  0.6867  0.2783
  517MPD2    C3 7732   4.164   3.440   0.196 -0.3435 -0.0335 -0.5050
  517MPD2    C4 7733   4.035   3.464   0.238 -0.4941  0.2183  0.3211
  517MPD2    C5 7734   3.938   3.379   0.248 -0.0889  0.4145 -0.3276
  517MPD2     H 7735   4.277   3.278   0.099 -0.8955 -1.5100  0.6994
  517MPD2    H1 7736   4.018   3.567   0.270  0.1942  0.3567  0.2296
  517MPD2    H2 7737   3.882   3.170   0.215 -1.0577  0.9334 -1.6132
  517MPD2    H3 7738   3.844   3.424   0.277 -0.5512  1.1288 -2.9547
  517MPD2     N 7739   4.258   3.552   0.192  0.7231 -0.2386 -0.0054
  517MPD2    H5 7740   4.234   3.649   0.207 -1.3795 -0.7165 -0.3461
  517MPD2    N1 7741   4.120   3.093   0.089  0.0460 -0.5029  1.0547
  517MPD2    H7 7742   4.217   3.076   0.065 -0.1906 -0.0923 -0.1558
  518TMC3    C1 7743   4.113   2.883   0.002 -0.1756 -0.1889  0.4775
  518TMC3    C2 7744   4.051   2.761   0.004  0.8362  0.6606  0.6617
  518TMC3    C3 7745   4.107   2.654  17.683  0.1619  0.0051 -0.1690
  518TMC3    C4 7746   4.239   2.903  17.690 -0.0539  0.8250  0.5620
  518TMC3    C5 7747   4.294   2.799  17.623  0.1501 -0.3470  0.1063
  518TMC3    C6 7748   4.230   2.679  17.622 -0.1989 -0.7487 -0.5359
  518TMC3     C 7749   4.041   2.984   0.071  0.6438 -0.0904 -0.0071
  518TMC3     O 7750   3.922   2.967   0.094 -0.1789  0.7611 -0.0030
  518TMC3     H 7751   3.953   2.754   0.049  0.1292  0.1421 -0.9838
  518TMC3    H1 7752   4.277   2.998  17.654  2.4448  0.0167  1.0557
  518TMC3    H2 7753   4.269   2.601  17.556 -2.4046 -1.1418 -1.3806
  518TMC3    C7 7754   4.434   2.812  17.560 -0.3241  0.2622 -0.2474
  518TMC3    C8 7755   4.052   2.522  17.659  0.5864  0.6505  0.4789
  518TMC3    O1 7756   4.495   2.916  17.583  0.5429 -0.9360 -0.2207
  518TMC3    O2 7757   4.092   2.473  17.556 -0.2679 -0.3229 -0.4663
  519MPD2     C 7758   0.781   1.459  13.745 -0.7176 -0.2311  0.1075
  519MPD2    C1 7759   0.710   1.346  13.766  0.7165 -0.2285  0.1998
  519MPD2    C2 7760   0.768   1.227  13.730  0.0360  0.1327  0.5574
  519MPD2    C3 7761   0.901   1.218  13.700 -0.5060 -0.6145 -0.5975
  519MPD2    C4 7762   0.978   1.334  13.697  0.7591  0.2290 -0.6613
  519MPD2    C5 7763   0.913   1.455  13.699  0.1887 -0.0038  0.1842
  519MPD2     H 7764   0.708   1.137  13.730  0.7630 -0.3571 -1.0751
  519MPD2    H1 7765   1.083   1.331  13.667  0.6279 -1.9436 -0.9077
  519MPD2    H2 7766   0.732   1.556  13.748 -1.9684 -0.8101 -1.7603
  519MPD2    H3 7767   0.957   1.548  13.663 -2.9426  2.1116  1.8185
  519MPD2     N 7768   0.959   1.086  13.686 -0.7240  0.7967  0.7446
  519MPD2    H5 7769   0.895   1.007  13.686 -0.4804  0.5797 -1.9218
  519MPD2    N1 7770   0.577   1.355  13.810  0.0466 -0.2701  0.0951
  519MPD2    H7 7771   0.532   1.443  13.788  1.2224  1.1229  3.2934
  520TMC3    C1 7772   1.107   0.909  13.646  0.3457  0.8095  0.1636
  520TMC3    C2 7773   1.013   0.849  13.577  0.4514  0.3241  0.5125
  520TMC3    C3 7774   1.027   0.712  13.556  0.2519  0.1324  0.9449
  520TMC3    C4 7775   1.207   0.842  13.710 -0.0714 -0.2226 -0.9277
  520TMC3    C5 7776   1.226   0.709  13.677 -0.1792 -0.6701 -0.1106
  520TMC3    C6 7777   1.130   0.643  13.609 -0.7262  0.4393 -0.7836
  520TMC3     C 7778   1.088   1.049  13.674 -0.6089  0.3824 -0.1238
  520TMC3     O 7779   1.181   1.123  13.662  0.1582 -0.6126 -0.9875
  520TMC3     H 7780   0.959   0.916  13.512 -0.7126  0.4654  1.6287
  520TMC3    H1 7781   1.287   0.887  13.768  0.0909 -0.8175 -0.7002
  520TMC3    H2 7782   1.147   0.542  13.574  0.6777 -0.6175  3.0042
  520TMC3    C7 7783   1.340   0.645  13.737  0.3485  0.5243 -0.1313
  520TMC3    C8 7784   0.951   0.647  13.448 -0.4671 -0.2743  0.1697
  520TMC3    O1 7785   1.388   0.691  13.838 -0.8108  0.2398 -0.1211
  520TMC3    O2 7786   1.015   0.576  13.373  0.5775  0.8948 -0.6163
  521MPD2     C 7787   1.760   3.324  17.680 -0.2001 -0.1269  0.1569
  521MPD2    C1 7788   1.808   3.448  17.656 -0.9648 -0.5706  0.4230
  521MPD2    C2 7789   1.923   3.460  17.581 -0.5187  0.1922  0.2701
  521MPD2    C3 7790   1.979   3.345  17.535  1.0355 -0.5343 -0.0868
  521MPD2    C4 7791   1.930   3.218  17.556  0.1586  0.4414 -0.2633
  521MPD2    C5 7792   1.811   3.209  17.626  0.0535  0.0164 -0.2882
  521MPD2     H 7793   1.971   3.551  17.547 -0.9032  0.3576  0.1604
  521MPD2    H1 7794   1.967   3.119  17.530 -0.1898  0.9034 -2.5250
  521MPD2    H2 7795   1.674   3.306  17.743 -2.0540  1.2616 -1.9660
  521MPD2    H3 7796   1.760   3.116  17.650  2.1723 -0.3129  2.9151
  521MPD2     N 7797   2.100   3.366  17.458  0.4928 -0.1018 -0.0326
  521MPD2    H5 7798   2.133   3.459  17.437  0.2045 -0.3748 -1.6602
  521MPD2    N1 7799   1.729   3.557  17.702 -0.0858  0.3912 -0.0614
  521MPD2    H7 7800   1.650   3.536   0.017 -0.3916 -0.9809 -0.9317
  522TMC3    C1 7801   2.294   3.314  17.352 -0.3947  0.4815 -0.1858
  522TMC3    C2 7802   2.411   3.265  17.396  0.5505 -0.0405  0.9477
  522TMC3    C3 7803   2.529   3.327  17.368  0.3827 -0.3380  0.3522
  522TMC3    C4 7804   2.291   3.440  17.290 -0.1219 -0.0047 -0.0216
  522TMC3    C5 7805   2.415   3.493  17.260 -0.5388 -0.6130 -0.1463
  522TMC3    C6 7806   2.538   3.432  17.287  0.1974  0.1891 -0.0034
  522TMC3     C 7807   2.181   3.260  17.415  0.2725  0.2593 -0.2491
  522TMC3     O 7808   2.178   3.144  17.453 -0.3909  0.1859  0.3817
  522TMC3     H 7809   2.418   3.170  17.447 -1.9937 -0.5867  0.2770
  522TMC3    H1 7810   2.200   3.483  17.252  0.4662  2.5568  1.5008
  522TMC3    H2 7811   2.632   3.483  17.267 -0.5728  1.5373 -0.1921
  522TMC3    C7 7812   2.421   3.614  17.175 -0.4568  0.3975 -0.3600
  522TMC3    C8 7813   2.651   3.257  17.376  0.0714  0.5375 -0.2708
  522TMC3    O1 7814   2.534   3.644  17.143  0.2827  0.4038 -0.5593
  522TMC3    O2 7815   2.667   3.188  17.472  0.0967  0.0187 -0.0881
  523MPD2     C 7816   4.536   3.485   9.811  0.3720 -0.2237 -0.4563
  523MPD2    C1 7817   4.487   3.602   9.873  0.3023 -0.3924  0.5168
  523MPD2    C2 7818   4.476   3.720   9.805 -0.5731  0.3836 -0.8382
  523MPD2    C3 7819   4.498   3.722   9.670 -0.0606 -0.8145  0.2332
  523MPD2    C4 7820   4.546   3.611   9.610  0.8808 -0.0476 -1.2118
  523MPD2    C5 7821   4.573   3.494   9.677  0.0824  0.1506  0.0964
  523MPD2     H 7822   4.446   3.805   9.866  3.0126  1.7760 -0.9825
  523MPD2    H1 7823   4.563   3.615   9.504  1.5424 -3.4124 -1.2070
  523MPD2    H2 7824   4.568   3.399   9.868  2.6498  1.2401  0.4770
  523MPD2    H3 7825   4.623   3.411   9.628  1.8568  0.2430  1.7673
  523MPD2     N 7826   4.481   3.838   9.587  0.0572  0.0048  0.0737
  523MPD2    H5 7827   4.498   3.809   9.491 -4.0492  0.4815 -0.7999
  523MPD2    N1 7828   4.454   3.588  10.008 -0.3598 -0.6751  0.0010
  523MPD2    H7 7829   4.463   3.496  10.049  1.2523 -0.8654 -0.7740
  524TMC3    C1 7830   4.433   4.059   9.513 -0.5321  0.1211 -1.1771
  524TMC3    C2 7831   4.493   4.051   9.389  0.5554 -0.8252  0.8431
  524TMC3    C3 7832   4.475   4.157   9.300  0.8206  0.8808  0.0985
  524TMC3    C4 7833   4.362   4.170   9.546 -0.5640  0.6425  0.1128
  524TMC3    C5 7834   4.347   4.274   9.458 -0.0489 -1.0888 -0.3640
  524TMC3    C6 7835   4.400   4.264   9.326 -0.0583  0.1203  0.4925
  524TMC3     C 7836   4.446   3.965   9.625 -0.1275 -0.5890 -0.2755
  524TMC3     O 7837   4.412   4.006   9.733  0.2461 -0.5848  0.1683
  524TMC3     H 7838   4.554   3.963   9.374  2.1363  0.4077  0.0328
  524TMC3    H1 7839   4.304   4.179   9.637  0.2339 -0.0881  0.6961
  524TMC3    H2 7840   4.382   4.342   9.253  0.0173  1.1463  1.5755
  524TMC3    C7 7841   4.257   4.386   9.490 -0.1548  0.1787 -0.3617
  524TMC3    C8 7842   4.510   4.137   9.163  0.4534  0.8487 -0.4809
  524TMC3    O1 7843   4.254   4.406   9.611  0.3261 -0.3989 -0.3310
  524TMC3    O2 7844   4.507   4.236   9.090 -0.0066 -0.0976  0.0852
  525MPD2     C 7845   2.032   0.522  14.308  0.3074  0.9583  1.0103
  525MPD2    C1 7846   2.134   0.568  14.388  0.2854  0.1217 -0.3267
  525MPD2    C2 7847   2.192   0.687  14.351  0.0091  0.2776 -0.2663
  525MPD2    C3 7848   2.153   0.767  14.242  0.1616 -1.0646 -0.2174
  525MPD2    C4 7849   2.049   0.718  14.163 -0.0018 -0.7642 -0.4027
  525MPD2    C5 7850   1.981   0.600  14.200  0.4238 -0.6775  0.1648
  525MPD2     H 7851   2.259   0.733  14.424  1.4026 -0.1200 -1.2964
  525MPD2    H1 7852   2.015   0.792  14.092 -1.4294 -0.1430  0.9274
  525MPD2    H2 7853   1.970   0.434  14.322 -0.2321  0.9480 -1.5245
  525MPD2    H3 7854   1.899   0.561  14.140 -3.5053  3.6586  2.7285
  525MPD2     N 7855   2.195   0.893  14.222  0.5598  0.2851  0.4032
  525MPD2    H5 7856   2.139   0.961  14.171 -1.0807 -0.6138  1.0212
  525MPD2    N1 7857   2.177   0.502  14.509  0.0850  0.0856 -0.6429
  525MPD2    H7 7858   2.260   0.529  14.561 -0.6595 -2.0554  1.5949
  526TMC3    C1 7859   2.166   0.348  14.688  0.0136 -0.1013 -0.0164
  526TMC3    C2 7860   2.085   0.332  14.799  0.2970  0.0448  0.0520
  526TMC3    C3 7861   2.134   0.260  14.899 -0.6176  0.5213 -0.1914
  526TMC3    C4 7862   2.291   0.301  14.675  0.6674  0.7024  0.7819
  526TMC3    C5 7863   2.336   0.236  14.787 -0.1518 -0.2406 -0.9719
  526TMC3    C6 7864   2.261   0.214  14.903  0.0690 -0.0033 -0.2351
  526TMC3     C 7865   2.100   0.409  14.575  0.0601 -0.0453  0.3081
  526TMC3     O 7866   1.983   0.389  14.555 -0.4040  0.2739  0.2058
  526TMC3     H 7867   1.989   0.381  14.811  0.3479  0.2314 -0.2780
  526TMC3    H1 7868   2.338   0.323  14.579 -0.8433  0.0463 -0.1183
  526TMC3    H2 7869   2.308   0.152  14.979 -0.4677  0.6933  0.6644
  526TMC3    C7 7870   2.462   0.164  14.791 -0.1561  0.3616 -0.1202
  526TMC3    C8 7871   2.078   0.286  15.033 -0.1109  0.5889  0.0249
  526TMC3    O1 7872   2.509   0.139  14.905  0.2644 -0.2187 -0.4059
  526TMC3    O2 7873   2.150   0.260  15.127 -0.0861  0.0645  0.0501
  527MPD2     C 7874   0.333   3.442   1.624 -0.3859  0.2527 -0.5107
  527MPD2    C1 7875   0.328   3.438   1.483 -0.3312 -0.1562 -0.6002
  527MPD2    C2 7876   0.421   3.364   1.408  0.2805  0.5022  0.2225
  527MPD2    C3 7877   0.520   3.296   1.474  0.2237 -0.3121  0.3998
  527MPD2    C4 7878   0.530   3.301   1.617  0.6825 -0.5934 -0.3387
  527MPD2    C5 7879   0.434   3.367   1.683 -0.5050 -0.4385 -0.0115
  527MPD2     H 7880   0.406   3.347   1.302 -0.0707 -0.0936  0.3688
  527MPD2    H1 7881   0.600   3.239   1.673  2.1867  0.9981 -0.4684
  527MPD2    H2 7882   0.252   3.488   1.681 -0.1815 -0.3455  0.2666
  527MPD2    H3 7883   0.439   3.353   1.790 -3.0149 -1.1760  0.0028
  527MPD2     N 7884   0.603   3.207   1.405  0.0837 -0.1679  0.3126
  527MPD2    H5 7885   0.568   3.192   1.310 -2.4711  1.9718  0.9112
  527MPD2    N1 7886   0.235   3.512   1.405  0.6431 -0.2336 -0.1777
  527MPD2    H7 7887   0.248   3.505   1.305 -2.8753  0.3958 -0.6745
  528TMC3    C1 7888   0.036   3.614   1.356  0.1141 -0.0927  0.1207
  528TMC3    C2 7889   0.081   3.684   1.252 -0.0593 -0.2762  0.6270
  528TMC3    C3 7890   4.727   3.736   1.162 -0.0574  0.0913  0.4029
  528TMC3    C4 7891   4.636   3.584   1.376  0.4069  0.3439 -0.3542
  528TMC3    C5 7892   4.556   3.620   1.268 -0.2333  0.4677 -0.1129
  528TMC3    C6 7893   4.594   3.702   1.168  0.1023  0.1209  0.5439
  528TMC3     C 7894   0.121   3.555   1.452 -0.1543  0.3879  0.3011
  528TMC3     O 7895   0.063   3.537   1.556  0.5530  0.1573 -0.1181
  528TMC3     H 7896   0.188   3.688   1.235  0.0207  0.3608  1.3350
  528TMC3    H1 7897   4.599   3.529   1.462  1.2681  1.2687  0.6096
  528TMC3    H2 7898   4.524   3.724   1.088 -1.0539  1.6633  1.9566
  528TMC3    C7 7899   4.422   3.571   1.271 -1.0529  0.0231  0.5472
  528TMC3    C8 7900   0.038   3.810   1.051 -0.0294  0.4805 -1.0284
  528TMC3    O1 7901   4.340   3.628   1.196  0.6865 -0.2757  0.0338
  528TMC3    O2 7902   0.159   3.828   1.055 -0.2395 -0.2660  0.2990
  529MPD2     C 7903   2.304   1.804   0.819  0.0322  0.5139 -0.5300
  529MPD2    C1 7904   2.434   1.825   0.780 -0.5796 -0.0681  0.4299
  529MPD2    C2 7905   2.466   1.925   0.689  0.2937  0.3660  0.4229
  529MPD2    C3 7906   2.368   1.997   0.621  0.1214 -0.2972 -0.5484
  529MPD2    C4 7907   2.237   1.970   0.659 -0.2009  0.2911  0.8722
  529MPD2    C5 7908   2.207   1.872   0.749  0.5411  0.4458  0.4516
  529MPD2     H 7909   2.572   1.943   0.671  1.3601 -4.0815  2.0875
  529MPD2    H1 7910   2.151   2.007   0.605  0.7853  0.1362 -0.8004
  529MPD2    H2 7911   2.268   1.727   0.886  2.6667  0.3120  0.6680
  529MPD2    H3 7912   2.101   1.854   0.763  0.7769 -1.5600 -0.3439
  529MPD2     N 7913   2.392   2.086   0.515  0.0772 -0.1855  0.9979
  529MPD2    H5 7914   2.305   2.129   0.485  0.0563 -0.1316  1.1373
  529MPD2    N1 7915   2.536   1.745   0.830 -0.1783  0.3317 -0.4749
  529MPD2    H7 7916   2.632   1.745   0.796  0.5876 -0.9800  1.6978
  530TMC3    C1 7917   2.658   1.565   0.921  0.1389 -0.0443 -0.5252
  530TMC3    C2 7918   2.770   1.645   0.931  0.1342  0.8063  0.1176
  530TMC3    C3 7919   2.888   1.587   0.906  0.2159 -0.0601 -0.1212
  530TMC3    C4 7920   2.665   1.432   0.891 -0.4815 -0.6826 -0.1327
  530TMC3    C5 7921   2.790   1.381   0.863 -0.5436  1.0650  0.2549
  530TMC3    C6 7922   2.906   1.460   0.871 -0.7687 -0.0070  0.3051
  530TMC3     C 7923   2.525   1.630   0.902 -0.1215  0.1519 -0.4550
  530TMC3     O 7924   2.429   1.562   0.940  0.3738  1.5281 -0.3330
  530TMC3     H 7925   2.771   1.749   0.963 -1.4196  1.4777 -2.0322
  530TMC3    H1 7926   2.584   1.359   0.889 -1.1665  0.0736 -0.0189
  530TMC3    H2 7927   3.006   1.424   0.851 -0.3335  1.0595  0.5953
  530TMC3    C7 7928   2.805   1.240   0.837  0.8319  0.8359  0.2424
  530TMC3    C8 7929   2.999   1.680   0.937  0.3646 -0.2097  0.0033
  530TMC3    O1 7930   2.847   1.201   0.727  0.7522  0.0766  0.1392
  530TMC3    O2 7931   2.978   1.800   0.920 -0.7704  0.4156  0.1252
  531MPD2     C 7932   1.877   4.453  13.019  0.2143  0.8205 -0.4076
  531MPD2    C1 7933   1.756   4.412  13.081 -0.0246 -0.2812 -0.3313
  531MPD2    C2 7934   1.645   4.400  12.994  0.0012  0.4668  0.3880
  531MPD2    C3 7935   1.648   4.435  12.860 -0.0641 -0.2896  0.2890
  531MPD2    C4 7936   1.768   4.467  12.801  0.3437  0.3932 -0.0086
  531MPD2    C5 7937   1.877   4.477  12.880 -0.0784  0.0990  0.4130
  531MPD2     H 7938   1.558   4.353  13.038  1.3527 -3.1981 -0.9409
  531MPD2    H1 7939   1.778   4.490  12.696 -2.8506  0.4700 -0.3046
  531MPD2    H2 7940   1.970   4.451  13.075  0.1841 -2.2302 -0.4653
  531MPD2    H3 7941   1.971   4.503  12.834 -0.1662  0.8520  0.6631
  531MPD2     N 7942   1.524   4.421  12.793 -0.0607  0.0787  0.5455
  531MPD2    H5 7943   1.440   4.395  12.844 -1.7215  2.5543 -0.9137
  531MPD2    N1 7944   1.754   4.366  13.212  0.3311 -0.3390  0.8393
  531MPD2    H7 7945   1.843   4.373  13.259  1.4491 -0.0095 -1.3500
  532TMC3    C1 7946   1.679   4.252  13.411 -0.5963  0.2969  0.7966
  532TMC3    C2 7947   1.563   4.223  13.469 -0.1203 -0.5238  0.6664
  532TMC3    C3 7948   1.539   4.095  13.513 -0.0175  0.1637  0.0577
  532TMC3    C4 7949   1.793   4.170  13.424  0.0672 -0.5132  0.0241
  532TMC3    C5 7950   1.768   4.045  13.480  0.4832 -0.0625 -0.0974
  532TMC3    C6 7951   1.642   4.004  13.527  0.0388 -0.6612 -0.0430
  532TMC3     C 7952   1.651   4.300  13.274  0.5294  0.2160 -0.2319
  532TMC3     O 7953   1.535   4.288  13.248  0.2155 -0.3386 -0.0635
  532TMC3     H 7954   1.478   4.291  13.465  0.6730  0.3296 -2.2506
  532TMC3    H1 7955   1.884   4.189  13.368 -0.4566 -1.9775 -1.3492
  532TMC3    H2 7956   1.626   3.900  13.553 -1.1731 -0.2972  0.6520
  532TMC3    C7 7957   1.883   3.965  13.509  0.0671 -0.6522 -1.0157
  532TMC3    C8 7958   1.410   4.039  13.476  0.0902  0.2924  0.0581
  532TMC3    O1 7959   1.992   4.016  13.488 -0.1597  0.3529 -0.4419
  532TMC3    O2 7960   1.392   3.930  13.529  0.0264  0.1868 -0.0694
  533TMC3    C1 7961   2.308   1.082  14.268 -0.1046 -0.1214  0.2099
  533TMC3    C2 7962   2.434   1.127  14.303 -0.0009 -0.5319  0.7217
  533TMC3    C3 7963   2.436   1.245  14.374 -0.1566  0.4729 -0.2190
  533TMC3    C4 7964   2.192   1.140  14.319  0.0645  0.6789 -0.4512
  533TMC3    C5 7965   2.206   1.249  14.392 -0.2415 -0.1856 -0.5444
  533TMC3    C6 7966   2.324   1.312  14.409 -0.2338  0.4131 -0.3683
  533TMC3     C 7967   2.312   0.937  14.273  0.6313 -0.5895 -0.0633
  533TMC3     O 7968   2.415   0.879  14.309 -0.0750  0.0662  0.3365
  533TMC3     H 7969   2.526   1.096  14.255 -1.2421 -2.6876 -0.2539
  533TMC3    H1 7970   2.093   1.097  14.314 -0.9600  2.9322  0.4983
  533TMC3    H2 7971   2.331   1.396  14.477  0.4576 -1.5544  1.9788
  533TMC3    C7 7972   2.120   1.245  14.514  0.1756 -0.3860 -0.4049
  533TMC3    C8 7973   2.556   1.327  14.377  0.0255  0.0582  0.2210
  533TMC3    O1 7974   2.067   1.136  14.535  0.5561  0.0989  0.3438
  533TMC3    O2 7975   2.534   1.444  14.349 -0.9011  0.1151 -0.0873
  534MPD2     C 7976   0.932   1.917   1.543  0.1121  0.2166 -0.0161
  534MPD2    C1 7977   0.889   2.025   1.470  0.2963 -0.3074 -0.2243
  534MPD2    C2 7978   0.793   2.004   1.377  0.1411 -0.2387  0.3771
  534MPD2    C3 7979   0.729   1.883   1.377  0.5543 -0.0199 -1.2443
  534MPD2    C4 7980   0.762   1.779   1.458  0.2801 -0.0551  0.4567
  534MPD2    C5 7981   0.867   1.799   1.537 -0.0911 -0.9239  0.0216
  534MPD2     H 7982   0.763   2.081   1.307  1.0327  0.6169  0.9302
  534MPD2    H1 7983   0.712   1.683   1.462  1.2747 -0.5094  1.9561
  534MPD2    H2 7984   1.025   1.919   1.598 -0.1858  0.1455  0.4935
  534MPD2    H3 7985   0.899   1.718   1.601 -0.7838  0.0497  1.6165
  534MPD2     N 7986   0.615   1.859   1.286 -0.2625 -0.0140  0.1858
  534MPD2    H5 7987   0.566   1.771   1.300  0.5050 -0.4243  0.2751
  534MPD2    N1 7988   0.940   2.159   1.473  0.1419  0.4263 -0.5082
  534MPD2    H7 7989   0.876   2.222   1.426 -0.8360  0.6249  1.0581
  535TMC3    C1 7990   0.459   1.881   1.112 -0.0670 -0.6126  0.0636
  535TMC3    C2 7991   0.367   1.813   1.185  0.3114 -0.0601 -0.1906
  535TMC3    C3 7992   0.246   1.781   1.126 -0.6519  0.3701  0.0540
  535TMC3    C4 7993   0.431   1.923   0.991 -0.3659  0.4049  0.7435
  535TMC3    C5 7994   0.322   1.875   0.921  0.0229 -0.4036 -0.0263
  535TMC3    C6 7995   0.229   1.799   0.988 -0.0458  0.3601  0.7390
  535TMC3     C 7996   0.580   1.935   1.175  0.6151 -0.1561 -0.5018
  535TMC3     O 7997   0.640   2.025   1.124  0.4692 -0.0976  0.0776
  535TMC3     H 7998   0.375   1.785   1.289  2.7462 -0.8358 -0.5699
  535TMC3    H1 7999   0.504   1.971   0.927  2.7531 -2.6172  2.0282
  535TMC3    H2 8000   0.138   1.769   0.937  1.0347 -0.1813 -0.8513
  535TMC3    C7 8001   0.264   1.955   0.816 -0.4192 -0.3639  0.7264
  535TMC3    C8 8002   0.124   1.810   1.195  0.2357  0.1211  0.0969
  535TMC3    O1 8003   0.203   1.900   0.723  0.1098 -0.1159  1.1991
  535TMC3    O2 8004   0.015   1.810   1.133 -0.0070  0.1363  0.6472
  536MPD2     C 8005   3.840   0.383  16.192 -0.4856  0.3297  0.7314
  536MPD2    C1 8006   3.732   0.308  16.232  0.4477  0.0646 -0.1047
  536MPD2    C2 8007   3.617   0.304  16.150  0.5063  0.1370  0.3723
  536MPD2    C3 8008   3.606   0.371  16.029  0.1307 -0.1081  0.5274
  536MPD2    C4 8009   3.716   0.439  15.991 -0.8666 -0.1741 -0.3811
  536MPD2    C5 8010   3.825   0.451  16.074 -0.5504 -0.2966 -0.0307
  536MPD2     H 8011   3.537   0.243  16.190  0.1055  0.9514  0.8068
  536MPD2    H1 8012   3.717   0.490  15.895 -0.7548  0.8910  0.1848
  536MPD2    H2 8013   3.933   0.398  16.244  0.1295  0.9380 -0.5303
  536MPD2    H3 8014   3.907   0.513  16.040  1.0755 -0.6978  3.2092
  536MPD2     N 8015   3.487   0.363  15.953  0.3464  0.2298  0.2936
  536MPD2    H5 8016   3.487   0.424  15.872 -2.1658  1.0027  0.8722
  536MPD2    N1 8017   3.748   0.244  16.357 -0.6856 -0.2734  0.3524
  536MPD2    H7 8018   3.841   0.244  16.399 -0.8580  1.3216  0.7391
  537TMC3    C1 8019   3.697   0.123  16.550 -0.0939  0.3577  0.0680
  537TMC3    C2 8020   3.832   0.122  16.594  0.1570  0.0423  0.7334
  537TMC3    C3 8021   3.863   0.059  16.713 -0.1506  0.4609 -0.1785
  537TMC3    C4 8022   3.606   0.052  16.616 -0.2790 -0.1207 -0.2810
  537TMC3    C5 8023   3.637   4.728  16.736  0.2089  0.1160  0.4618
  537TMC3    C6 8024   3.764   4.731  16.788  0.1216  0.1190 -0.2828
  537TMC3     C 8025   3.652   0.170  16.419 -0.2000  0.2395  0.4698
  537TMC3     O 8026   3.546   0.126  16.375  0.6393  0.2085 -0.4811
  537TMC3     H 8027   3.905   0.171  16.531  0.2852  0.2029  1.0049
  537TMC3    H1 8028   3.502   0.048  16.585 -0.5579 -0.5334  0.7168
  537TMC3    H2 8029   3.803   4.679  16.875 -0.0488 -0.5824 -0.6233
  537TMC3    C7 8030   3.526   4.653  16.804 -0.4031 -0.8847 -0.5387
  537TMC3    C8 8031   3.965   0.114  16.795 -0.0710 -0.1777  0.1374
  537TMC3    O1 8032   3.433   4.612  16.731 -0.1577 -0.0790 -0.2057
  537TMC3    O2 8033   3.939   0.150  16.908  0.4081  0.1442  0.4867
  538TMC3    C1 8034   0.440   3.579  10.776 -0.7909  0.0536  0.0437
  538TMC3    C2 8035   0.525   3.597  10.671 -0.0118 -0.0580 -0.0612
  538TMC3    C3 8036   0.486   3.674  10.566 -0.0002 -0.6818 -0.5143
  538TMC3    C4 8037   0.323   3.643  10.777 -0.1563  0.0417  1.0868
  538TMC3    C5 8038   0.294   3.726  10.674 -0.4943 -0.0081  0.1601
  538TMC3    C6 8039   0.369   3.742  10.568  0.5148 -0.2413  0.2389
  538TMC3     C 8040   0.453   3.470  10.872  0.3163 -0.0950  0.7307
  538TMC3     O 8041   0.376   3.481  10.970 -0.5698 -0.3892  0.1061
  538TMC3     H 8042   0.622   3.549  10.664  0.2972  0.4174  0.9915
  538TMC3    H1 8043   0.260   3.635  10.864  0.7556 -0.7289  1.6744
  538TMC3    H2 8044   0.347   3.825  10.502  1.6830  0.1324  0.3180
  538TMC3    C7 8045   0.178   3.813  10.683  0.1526  0.1697  0.1987
  538TMC3    C8 8046   0.578   3.714  10.462 -0.4554  0.4752  0.3099
  538TMC3    O1 8047   0.127   3.833  10.573 -0.3488 -0.2311 -0.1799
  538TMC3    O2 8048   0.698   3.720  10.487  0.3660  0.0303 -0.3553
  539MPD2     C 8049   0.356   2.846  11.044 -0.3023  0.0298  0.1307
  539MPD2    C1 8050   0.299   2.730  10.998  0.4177 -0.0444  0.4115
  539MPD2    C2 8051   0.162   2.728  10.970  0.3610  0.0875 -0.8613
  539MPD2    C3 8052   0.086   2.843  10.990 -0.3868 -0.2133  0.2900
  539MPD2    C4 8053   0.149   2.954  11.024  0.4145  0.1791 -0.2293
  539MPD2    C5 8054   0.278   2.955  11.057 -0.4197  0.1165  0.9048
  539MPD2     H 8055   0.111   2.635  10.947 -1.8229  0.6932  1.5644
  539MPD2    H1 8056   0.095   3.047  11.042 -0.9781 -0.7673  0.4159
  539MPD2    H2 8057   0.462   2.856  11.064 -0.0763 -0.3029 -0.8783
  539MPD2    H3 8058   0.329   3.046  11.090  0.3145 -0.3062  0.9394
  539MPD2     N 8059   4.685   2.847  10.968 -0.2235  0.4534 -0.3747
  539MPD2    H5 8060   4.634   2.935  10.972  0.2891  0.6297  3.0230
  539MPD2    N1 8061   0.377   2.614  10.984 -0.1261  0.1886  0.4982
  539MPD2    H7 8062   0.333   2.524  10.965 -0.1040  0.6214 -1.6843
  540TMC3    C1 8063   4.467   2.795  10.917  0.6990  0.2424 -0.0618
  540TMC3    C2 8064   4.433   2.828  10.791  0.4597 -0.3658  0.7048
  540TMC3    C3 8065   4.344   2.927  10.770  0.1190  0.2528  0.0677
  540TMC3    C4 8066   4.422   2.849  11.030  0.6582  0.5935  0.9047
  540TMC3    C5 8067   4.327   2.949  11.011 -0.6556 -0.1052  0.6056
  540TMC3    C6 8068   4.292   2.988  10.885  0.1536 -0.0337  0.1663
  540TMC3     C 8069   4.606   2.740  10.931 -0.3682  1.2761 -0.0386
  540TMC3     O 8070   4.627   2.625  10.900 -0.3597  0.3559  0.1679
  540TMC3     H 8071   4.483   2.788  10.703 -1.1079  0.2845 -0.4827
  540TMC3    H1 8072   4.461   2.817  11.125 -0.0590 -0.0229  0.9910
  540TMC3    H2 8073   4.206   3.053  10.875  1.3160  1.4089 -0.3457
  540TMC3    C7 8074   4.248   2.981  11.121  0.0804  0.5368  0.2105
  540TMC3    C8 8075   4.292   2.969  10.642  0.1704 -0.0168  0.6510
  540TMC3    O1 8076   4.224   2.896  11.204  0.0078 -0.5649 -0.7328
  540TMC3    O2 8077   4.185   3.029  10.638  0.0866  0.1052 -0.6168
  541MPD2     C 8078   2.916   4.270  13.182 -0.4909  0.1837 -0.4581
  541MPD2    C1 8079   2.868   4.161  13.112 -0.3531  0.1440  0.5410
  541MPD2    C2 8080   2.874   4.172  12.973  1.6400 -1.6490  0.3191
  541MPD2    C3 8081   2.936   4.276  12.906 -0.5757  0.5783  0.3585
  541MPD2    C4 8082   2.987   4.381  12.984  0.8361 -0.0317 -0.3606
  541MPD2    C5 8083   2.980   4.376  13.121  0.0056 -0.7678 -0.8201
  541MPD2     H 8084   2.835   4.085  12.921 -0.2200 -1.2110  0.9842
  541MPD2    H1 8085   3.039   4.461  12.932  0.6652  0.6120  0.4598
  541MPD2    H2 8086   2.906   4.279  13.290 -0.3643  2.1484 -0.6262
  541MPD2    H3 8087   3.027   4.455  13.178 -2.1233  0.0594 -0.2125
  541MPD2     N 8088   2.943   4.289  12.769  0.4804 -0.2818  0.0187
  541MPD2    H5 8089   2.994   4.371  12.738 -0.0288 -0.8081 -2.2186
  541MPD2    N1 8090   2.795   4.050  13.167  0.0398  0.4610  0.1708
  541MPD2    H7 8091   2.741   3.994  13.102  1.2497 -0.0743 -0.3815
  542TMC3    C1 8092   2.880   4.264  12.548  0.2522  0.1594 -0.3646
  542TMC3    C2 8093   2.898   4.184  12.444 -0.1388 -0.4888  0.0049
  542TMC3    C3 8094   2.869   4.242  12.325  0.1314  0.3392 -0.4938
  542TMC3    C4 8095   2.829   4.394  12.551 -0.5046  0.1936  0.1694
  542TMC3    C5 8096   2.811   4.447  12.426  0.5075  0.3025 -0.1472
  542TMC3    C6 8097   2.825   4.367  12.311 -0.8730  0.0397  0.1476
  542TMC3     C 8098   2.900   4.200  12.680  0.1372  0.3468 -0.8267
  542TMC3     O 8099   2.862   4.082  12.692  0.3335 -0.2104  0.1378
  542TMC3     H 8100   2.912   4.076  12.448 -1.7262 -0.6785  0.2408
  542TMC3    H1 8101   2.828   4.459  12.638 -0.7700  0.3362  0.0599
  542TMC3    H2 8102   2.807   4.411  12.213 -0.5360  2.8646  1.3577
  542TMC3    C7 8103   2.753   4.576  12.421 -0.3988 -0.4242 -1.0189
  542TMC3    C8 8104   2.879   4.172  12.195 -0.3646 -0.2511  0.0414
  542TMC3    O1 8105   2.766   4.647  12.520  0.0637 -0.2291  0.0732
  542TMC3    O2 8106   2.834   4.226  12.094  0.6073  0.2124 -0.5324
  543TMC3    C1 8107   2.795   1.346  17.434  0.7590 -0.2049  0.1404
  543TMC3    C2 8108   2.793   1.220  17.492 -0.1445 -0.9644  0.1333
  543TMC3    C3 8109   2.719   1.191  17.601  0.1584 -0.5556  0.1329
  543TMC3    C4 8110   2.722   1.448  17.490  0.2410 -0.5896  0.2812
  543TMC3    C5 8111   2.637   1.415  17.595  0.7757  0.3078  0.1268
  543TMC3    C6 8112   2.633   1.286  17.649  1.1652 -0.1253  0.0742
  543TMC3     C 8113   2.842   1.351  17.301 -0.2443 -0.1490  0.2329
  543TMC3     O 8114   2.927   1.262  17.277  0.0439 -0.5862  0.0307
  543TMC3     H 8115   2.850   1.140  17.447 -0.0387 -0.1170 -1.2341
  543TMC3    H1 8116   2.742   1.550  17.461 -0.8026 -0.1678  1.0254
  543TMC3    H2 8117   2.550   1.267  17.715  0.7898  0.0236 -0.3574
  543TMC3    C7 8118   2.542   1.515  17.651  0.6712 -0.4478  0.2242
  543TMC3    C8 8119   2.678   1.052  17.618  0.0669 -0.3854 -0.0479
  543TMC3    O1 8120   2.504   1.492   0.021 -0.3225 -0.3017 -0.6295
  543TMC3    O2 8121   2.695   0.971  17.525 -0.5430 -0.4695  0.2742
  544MPD2     C 8122   2.515   0.623   0.109 -0.8394  0.2016 -0.3883
  544MPD2    C1 8123   2.566   0.645  17.731  0.3952 -0.6172  0.1000
  544MPD2    C2 8124   2.605   0.773  17.695  0.1389 -0.3030 -0.1851
  544MPD2    C3 8125   2.599   0.885   0.037 -0.2982  0.1059 -0.4053
  544MPD2    C4 8126   2.547   0.857   0.165  0.1976  0.3785  0.4815
  544MPD2    C5 8127   2.502   0.730   0.195 -0.3891  0.4281  0.1480
  544MPD2     H 8128   2.627   0.784  17.589 -0.5106  0.9750 -0.1971
  544MPD2    H1 8129   2.535   0.930   0.243 -0.6228  0.2299  0.4941
  544MPD2    H2 8130   2.480   0.529   0.150 -0.9569  0.7603  0.8018
  544MPD2    H3 8131   2.468   0.704   0.295 -0.1054  0.5075  0.2667
  544MPD2     N 8132   2.632   1.019  17.739  0.1057 -0.1118  0.0081
  544MPD2    H5 8133   2.635   1.094   0.063 -2.9680  0.6644 -0.6831
  544MPD2    N1 8134   2.573   0.539  17.638 -0.3000 -0.3061 -0.2478
  544MPD2    H7 8135   2.530   0.454  17.673 -1.4085  1.7342  3.3122
  545TMC3    C1 8136   2.614   0.394  17.458 -0.2958 -0.2116  0.1659
  545TMC3    C2 8137   2.721   0.309  17.422 -0.1061 -0.0514 -0.8485
  545TMC3    C3 8138   2.690   0.180  17.410  0.2942 -0.1161  0.7961
  545TMC3    C4 8139   2.484   0.362  17.462  0.6996 -0.2018  0.2349
  545TMC3    C5 8140   2.457   0.232  17.442  0.2502  0.2701  0.4587
  545TMC3    C6 8141   2.559   0.139  17.424 -0.4172 -0.4903 -0.7714
  545TMC3     C 8142   2.651   0.518  17.524 -0.1634 -0.1349  0.4107
  545TMC3     O 8143   2.744   0.587  17.482  0.1099  0.0214  0.0382
  545TMC3     H 8144   2.821   0.349  17.416  0.1490 -0.3597  1.3726
  545TMC3    H1 8145   2.411   0.440  17.478  1.3126  0.5044 -0.4464
  545TMC3    H2 8146   2.535   0.036  17.399 -1.3174  0.1522 -2.5601
  545TMC3    C7 8147   2.319   0.183  17.431  0.3658  0.6021  0.4258
  545TMC3    C8 8148   2.789   0.068  17.379 -0.1512 -0.6987  0.4223
  545TMC3    O1 8149   2.235   0.252  17.377 -0.6863  0.0934 -0.6903
  545TMC3    O2 8150   2.748   4.704  17.324  0.2344  0.5313  0.5454
  546MPD2     C 8151   4.123   1.077  17.486  0.1224  0.0454  0.8097
  546MPD2    C1 8152   4.030   1.096  17.389 -0.9326  0.1031  0.5022
  546MPD2    C2 8153   3.993   1.219  17.353 -0.9314 -0.7736  0.2896
  546MPD2    C3 8154   4.049   1.328  17.424  0.0627 -0.0349  0.4319
  546MPD2    C4 8155   4.137   1.312  17.524 -0.3682  0.3874 -0.2642
  546MPD2    C5 8156   4.182   1.185  17.553  0.2226  0.7358 -0.1558
  546MPD2     H 8157   3.915   1.239  17.280  1.0505  0.3378 -1.5083
  546MPD2    H1 8158   4.183   1.394  17.578  1.8402 -1.4153  0.5703
  546MPD2    H2 8159   4.160   0.978  17.513  2.0157  0.8807  1.3273
  546MPD2    H3 8160   4.258   1.168  17.630  0.9784  2.2854 -0.5640
  546MPD2     N 8161   4.011   1.462  17.406  0.0591 -0.0928  0.0847
  546MPD2    H5 8162   4.045   1.526  17.478 -3.7132  0.6313  1.2483
  546MPD2    N1 8163   3.970   0.987  17.326  0.4467 -0.7453 -0.6958
  546MPD2    H7 8164   3.999   0.893  17.351 -0.6395 -0.4456  1.7157
  547TMC3    C1 8165   3.889   0.859  17.152 -0.4623  0.2367 -0.5003
  547TMC3    C2 8166   3.774   0.829  17.088  0.2645  0.1132  0.0692
  547TMC3    C3 8167   3.717   0.708  17.102 -0.5050  0.5630  0.3903
  547TMC3    C4 8168   3.958   0.757  17.211 -0.2148  0.1164  0.1762
  547TMC3    C5 8169   3.902   0.632  17.205 -0.3780 -0.0413 -0.2157
  547TMC3    C6 8170   3.777   0.605  17.157 -0.3579  0.4890 -0.9139
  547TMC3     C 8171   3.905   0.993  17.204 -0.1049  0.1996  0.2921
  547TMC3     O 8172   3.837   1.082  17.154 -0.1078  0.6017  0.0422
  547TMC3     H 8173   3.723   0.901  17.025  0.8000  0.9247  0.5527
  547TMC3    H1 8174   4.051   0.771  17.266 -0.8402  0.2714  1.1965
  547TMC3    H2 8175   3.723   0.518  17.191 -1.3152  2.1350  1.7619
  547TMC3    C7 8176   3.937   0.548  17.314  0.3730 -0.2570 -0.0254
  547TMC3    C8 8177   3.588   0.695  17.036 -0.3888 -0.1473 -0.1269
  547TMC3    O1 8178   3.998   0.604  17.408 -0.5718  0.1876 -0.2212
  547TMC3    O2 8179   3.519   0.795  17.009 -0.1669  0.1072 -0.1136
  548MPD2     C 8180   3.185   1.339  12.525 -0.4780  0.0005  0.3498
  548MPD2    C1 8181   3.163   1.219  12.458  0.1026 -0.5152  0.2916
  548MPD2    C2 8182   3.265   1.152  12.393 -0.7039 -0.4372  0.6869
  548MPD2    C3 8183   3.395   1.205  12.389 -0.6204 -0.1248  0.2935
  548MPD2    C4 8184   3.413   1.325  12.452 -0.0478  0.7084 -0.5436
  548MPD2    C5 8185   3.313   1.392  12.517  0.1615  0.4989 -0.3231
  548MPD2     H 8186   3.246   1.065  12.330  0.0160 -0.9880  1.2198
  548MPD2    H1 8187   3.510   1.373  12.450 -1.0387  2.6450 -1.7046
  548MPD2    H2 8188   3.115   1.399  12.583  0.1454  0.4402  0.6570
  548MPD2    H3 8189   3.324   1.491  12.560 -0.0809 -0.4905  2.0035
  548MPD2     N 8190   3.499   1.121  12.339 -0.3261 -0.4961  0.4032
  548MPD2    H5 8191   3.480   1.031  12.297 -1.0485 -0.3258  0.3530
  548MPD2    N1 8192   3.027   1.179  12.464 -0.3215  0.4117 -0.1627
  548MPD2    H7 8193   2.959   1.240  12.508 -0.4167  0.5971 -0.5668
  549TMC3    C1 8194   2.841   1.044  12.420 -0.5299 -0.2182  0.0238
  549TMC3    C2 8195   2.761   1.154  12.405 -0.3539 -0.0233  0.5113
  549TMC3    C3 8196   2.627   1.136  12.396  0.6715 -0.2714 -0.3432
  549TMC3    C4 8197   2.794   0.916  12.427 -0.0832  0.0864  0.2861
  549TMC3    C5 8198   2.662   0.900  12.402 -0.6348 -0.1431 -0.0758
  549TMC3    C6 8199   2.578   1.006  12.389  0.5202  0.0320 -0.6432
  549TMC3     C 8200   2.982   1.054  12.418  0.1632 -0.5602 -0.9733
  549TMC3     O 8201   3.045   0.954  12.385  0.1157 -0.2955 -0.3193
  549TMC3     H 8202   2.801   1.254  12.411 -1.2864  0.2359  2.5956
  549TMC3    H1 8203   2.855   0.829  12.450  0.4085  0.3676  0.0362
  549TMC3    H2 8204   2.474   0.987  12.365  0.1408  1.9103 -0.4366
  549TMC3    C7 8205   2.607   0.794  12.478 -0.6715 -0.0804  0.4946
  549TMC3    C8 8206   2.534   1.245  12.394  0.2817 -0.4774 -1.0987
  549TMC3    O1 8207   2.496   0.795  12.527  0.3809  0.0165 -0.2032
  549TMC3    O2 8208   2.416   1.212  12.423  0.0287 -0.1693  0.7412
  550TMC3    C1 8209   2.697   3.725  11.725 -0.1555  0.7020  0.0192
  550TMC3    C2 8210   2.713   3.737  11.861  0.5226  0.1564 -0.0064
  550TMC3    C3 8211   2.641   3.835  11.925 -0.2274  0.2285 -0.3722
  550TMC3    C4 8212   2.617   3.813  11.661  0.0265  0.6445  0.2576
  550TMC3    C5 8213   2.546   3.911  11.726 -0.6494  0.6991  0.9478
  550TMC3    C6 8214   2.548   3.915  11.863 -0.1623  0.3215 -0.6170
  550TMC3     C 8215   2.771   3.626  11.647  0.1649  0.2836 -0.3657
  550TMC3     O 8216   2.882   3.592  11.687  0.1381 -0.0628 -0.3092
  550TMC3     H 8217   2.786   3.675  11.910  1.8964  2.5162  0.9349
  550TMC3    H1 8218   2.628   3.819  11.553 -0.9035 -3.0899 -0.0511
  550TMC3    H2 8219   2.493   3.991  11.918  2.4180  2.7790 -1.4159
  550TMC3    C7 8220   2.421   3.957  11.668 -0.3518 -0.4553  0.6499
  550TMC3    C8 8221   2.654   3.838  12.069  0.4486 -0.0972  0.3973
  550TMC3    O1 8222   2.333   3.995  11.744 -0.3049 -0.4847  0.4923
  550TMC3    O2 8223   2.712   3.750  12.130 -0.1888 -0.8049  0.3561
  551TMC3    C1 8224   0.325   1.756  13.175 -0.1477 -0.0793  0.3588
  551TMC3    C2 8225   0.435   1.835  13.158 -0.1665 -0.2982  0.7956
  551TMC3    C3 8226   0.455   1.947  13.230  0.3949  0.2058  0.1102
  551TMC3    C4 8227   0.242   1.784  13.282  0.5640  0.3579 -0.2150
  551TMC3    C5 8228   0.269   1.892  13.357 -0.5772 -0.4786 -0.2513
  551TMC3    C6 8229   0.374   1.978  13.328 -0.4172  0.4680 -0.1751
  551TMC3     C 8230   0.282   1.680  13.063  0.5479  0.6955  0.0056
  551TMC3     O 8231   0.164   1.648  13.060 -0.0355  0.0299  0.2059
  551TMC3     H 8232   0.496   1.819  13.070 -1.6037  0.4052 -0.3193
  551TMC3    H1 8233   0.144   1.739  13.296 -1.1586  3.7093 -1.4015
  551TMC3    H2 8234   0.404   2.050  13.402  3.5968  0.1594 -1.5078
  551TMC3    C7 8235   0.165   1.938  13.447  0.0919  0.1104 -0.4691
  551TMC3    C8 8236   0.592   1.994  13.224 -1.0083 -0.1914  0.8576
  551TMC3    O1 8237   0.077   1.870  13.496 -0.0162  0.3409 -0.6922
  551TMC3    O2 8238   0.653   1.992  13.333 -0.0705 -0.1347 -0.5088
  552MPD2     C 8239   1.762   3.930  14.196 -0.4364  0.0413  0.4662
  552MPD2    C1 8240   1.714   3.826  14.276 -0.2153 -0.2465  0.1908
  552MPD2    C2 8241   1.791   3.792  14.389  0.5681 -0.2718  0.1881
  552MPD2    C3 8242   1.918   3.838  14.411 -0.2679 -0.1112  0.0338
  552MPD2    C4 8243   1.966   3.932  14.328  0.5848  0.1715 -0.8406
  552MPD2    C5 8244   1.887   3.983  14.222 -0.1086 -0.4312  0.1274
  552MPD2     H 8245   1.752   3.720  14.460 -1.1444  1.8567  1.4177
  552MPD2    H1 8246   2.070   3.962  14.334  0.5626 -0.0355  0.6001
  552MPD2    H2 8247   1.714   3.970  14.107 -0.4144  2.0582  1.3630
  552MPD2    H3 8248   1.918   4.066  14.159 -3.7582  0.9467  0.1520
  552MPD2     N 8249   2.009   3.794  14.508  0.1638  0.1640  0.4243
  552MPD2    H5 8250   2.108   3.814  14.495 -0.4522  2.4222 -0.7066
  552MPD2    N1 8251   1.592   3.766  14.262 -0.1571 -0.4224  0.0230
  552MPD2    H7 8252   1.568   3.701  14.337 -0.6214  0.4433  0.6301
  553TMC3    C1 8253   1.395   3.698  14.176  0.3781 -0.5685 -0.2191
  553TMC3    C2 8254   1.355   3.634  14.060  0.3961 -0.4158 -0.1120
  553TMC3    C3 8255   1.306   3.502  14.076  0.1165  0.8416  0.5658
  553TMC3    C4 8256   1.399   3.632  14.300  0.8267  0.5947 -0.3453
  553TMC3    C5 8257   1.357   3.504  14.305 -0.3757 -0.5433  0.2000
  553TMC3    C6 8258   1.309   3.441  14.197 -0.3695  0.3902  0.5628
  553TMC3     C 8259   1.495   3.794  14.162  0.6023  0.9991  0.6455
  553TMC3     O 8260   1.510   3.848  14.053  0.9255 -0.2883 -0.0132
  553TMC3     H 8261   1.387   3.673  13.963  1.9019  0.0256  0.5537
  553TMC3    H1 8262   1.414   3.672  14.400  2.6266 -0.6667 -0.1097
  553TMC3    H2 8263   1.291   3.336  14.216  1.4799 -0.0097  0.1357
  553TMC3    C7 8264   1.416   3.425  14.410 -0.1804  0.7263  0.3270
  553TMC3    C8 8265   1.362   3.412  13.974  0.0198 -0.0116  0.3630
  553TMC3    O1 8266   1.342   3.381  14.495  0.0835 -0.3121 -0.0188
  553TMC3    O2 8267   1.469   3.446  13.929 -0.1398  0.4878 -0.0308
  554TMC3    C1 8268   3.970   2.808  10.706  0.6198  0.7568  0.6441
  554TMC3    C2 8269   3.926   2.806  10.574 -0.5177  0.5768 -0.2394
  554TMC3    C3 8270   3.830   2.898  10.549  0.0707  0.2514 -0.6348
  554TMC3    C4 8271   3.922   2.889  10.803  0.3389  0.3256  0.0210
  554TMC3    C5 8272   3.830   2.988  10.774 -0.3749 -0.0876  0.3507
  554TMC3    C6 8273   3.786   2.986  10.647 -0.2273  0.0956 -0.1056
  554TMC3     C 8274   4.067   2.708  10.745 -0.2875 -0.9621  0.0682
  554TMC3     O 8275   4.133   2.662  10.656  0.0328  0.4849  0.0380
  554TMC3     H 8276   3.970   2.738  10.502  0.1607  1.7332 -0.9038
  554TMC3    H1 8277   3.987   2.905  10.888  0.0163  1.5796  0.0279
  554TMC3    H2 8278   3.704   3.052  10.621 -0.5315 -0.0426  0.5068
  554TMC3    C7 8279   3.884   3.120  10.786  0.0321  0.2743  0.8133
  554TMC3    C8 8280   3.823   2.936  10.411  0.0697  0.5568  0.1630
  554TMC3    O1 8281   3.897   3.179  10.683 -0.1536 -0.5859  0.6127
  554TMC3    O2 8282   3.805   3.058  10.393 -0.5588  0.2893 -0.0758
  555TMC3    C1 8283   2.794   2.610  15.099 -0.2428 -0.4464 -0.6717
  555TMC3    C2 8284   2.905   2.654  15.155  0.2146  0.0905  0.1091
  555TMC3    C3 8285   2.967   2.599  15.266  0.4608 -0.4235  0.0761
  555TMC3    C4 8286   2.746   2.491  15.147 -0.5094  0.2513  0.8073
  555TMC3    C5 8287   2.798   2.436  15.259  0.1618 -0.2674 -0.3284
  555TMC3    C6 8288   2.908   2.487  15.325  0.1009 -0.0893  0.3212
  555TMC3     C 8289   2.770   2.634  14.958 -0.5550 -0.5393 -0.1891
  555TMC3     O 8290   2.863   2.688  14.899  0.2622 -0.0870  0.1595
  555TMC3     H 8291   2.959   2.738  15.112  0.1711 -0.7725 -1.6354
  555TMC3    H1 8292   2.671   2.434  15.094 -0.1446 -0.8532  1.4739
  555TMC3    H2 8293   2.934   2.439  15.419 -1.2011 -2.0094 -0.3097
  555TMC3    C7 8294   2.776   2.294  15.265 -0.4257  1.1095 -0.0794
  555TMC3    C8 8295   3.068   2.677  15.335  0.3981  0.1148 -0.2540
  555TMC3    O1 8296   2.662   2.259  15.236  0.5930 -0.3371  0.3875
  555TMC3    O2 8297   3.102   2.785  15.294 -0.3803  0.1955  0.0952
  556MPD2     C 8298   1.214   4.636  10.745 -0.3878  0.0020  0.1144
  556MPD2    C1 8299   1.167   4.514  10.761  0.3423  0.3196 -0.0127
  556MPD2    C2 8300   1.145   4.437  10.653 -0.2280  0.2981  0.0921
  556MPD2    C3 8301   1.180   4.476  10.525  0.1100  0.0592 -0.4275
  556MPD2    C4 8302   1.251   4.586  10.513  0.5243  0.4661  0.4989
  556MPD2    C5 8303   1.265   4.671  10.622  0.0127  0.4438  0.0186
  556MPD2     H 8304   1.107   4.335  10.661  1.5715 -0.4796 -1.2944
  556MPD2    H1 8305   1.304   4.610  10.422 -1.1682  0.2683 -0.5439
  556MPD2    H2 8306   1.231   4.709  10.823 -1.1200  0.0369  0.2443
  556MPD2    H3 8307   1.311   0.031  10.606 -1.1881  0.7710 -1.4576
  556MPD2     N 8308   1.168   4.385  10.422  0.0918 -0.0541 -0.2716
  556MPD2    H5 8309   1.113   4.301  10.438 -0.9353  0.2925 -1.9884
  556MPD2    N1 8310   1.148   4.459  10.890  0.3379  0.3381 -0.4777
  556MPD2    H7 8311   1.132   4.359  10.894  1.6038  0.0604 -2.7882
  557TMC3    C1 8312   1.179   4.281  10.215 -0.4558  0.1654  0.5179
  557TMC3    C2 8313   1.275   4.217  10.133 -0.5111 -0.2258 -0.8873
  557TMC3    C3 8314   1.233   4.110  10.059  0.0116 -0.5370 -0.9256
  557TMC3    C4 8315   1.056   4.228  10.224  0.3367  0.1560 -0.3137
  557TMC3    C5 8316   1.017   4.120  10.153  0.2277  0.1881 -0.4242
  557TMC3    C6 8317   1.112   4.058  10.069  0.5954  0.1955 -0.1956
  557TMC3     C 8318   1.220   4.391  10.295 -0.2234 -0.5462  0.1161
  557TMC3     O 8319   1.295   4.468  10.237  0.1032  0.3603  0.0479
  557TMC3     H 8320   1.375   4.257  10.132  0.0671 -1.7322 -2.5626
  557TMC3    H1 8321   0.982   4.272  10.290 -1.0605  0.5980 -2.1951
  557TMC3    H2 8322   1.092   3.956  10.038  1.2489  0.0772 -0.2340
  557TMC3    C7 8323   0.906   4.036  10.193 -0.1431 -0.6261  0.3502
  557TMC3    C8 8324   1.323   4.065   9.955  0.5147  0.5662 -0.7683
  557TMC3    O1 8325   0.877   4.045  10.312 -0.3510 -0.2492  0.2647
  557TMC3    O2 8326   1.437   4.109   9.962 -0.9761  0.2133 -0.3424
  558TMC3    C1 8327   3.303   1.448   9.748  0.2372 -0.1219 -0.2798
  558TMC3    C2 8328   3.234   1.417   9.864  0.2484 -0.4531  0.2334
  558TMC3    C3 8329   3.125   1.332   9.847  0.1137  0.1901 -0.9824
  558TMC3    C4 8330   3.279   1.374   9.634 -0.4403 -0.1907  0.0025
  558TMC3    C5 8331   3.166   1.294   9.618  0.0939  0.7219 -0.1987
  558TMC3    C6 8332   3.091   1.269   9.729  0.5288  0.0637  0.5232
  558TMC3     C 8333   3.408   1.549   9.749 -0.1595 -0.0813  0.1417
  558TMC3     O 8334   3.457   1.586   9.858 -0.1596  0.5353 -0.2737
  558TMC3     H 8335   3.263   1.462   9.958 -0.0196 -2.9249  1.5133
  558TMC3    H1 8336   3.343   1.395   9.549 -0.3413 -1.8625 -0.3382
  558TMC3    H2 8337   2.990   1.231   9.719  0.0989  1.0886  0.9647
  558TMC3    C7 8338   3.134   1.262   9.479  0.7045  0.5178  0.0083
  558TMC3    C8 8339   3.030   1.304   9.954 -0.0324  0.6973 -0.8663
  558TMC3    O1 8340   3.226   1.255   9.397  0.0735 -0.9091 -0.0967
  558TMC3    O2 8341   2.955   1.211   9.929 -0.0491  1.0414 -0.7523
  559MPD2     C 8342   3.761   2.114   9.814 -0.3256  0.0088 -0.0741
  559MPD2    C1 8343   3.679   2.042   9.895  0.1799 -0.1121 -0.2368
  559MPD2    C2 8344   3.703   2.049  10.028  0.0343 -0.3252 -0.7202
  559MPD2    C3 8345   3.813   2.122  10.078  0.3150  0.0902  0.8503
  559MPD2    C4 8346   3.890   2.203   9.995  0.3092 -0.5292 -0.6692
  559MPD2    C5 8347   3.858   2.194   9.860  0.0511  0.1191 -0.6823
  559MPD2     H 8348   3.638   2.001  10.101 -0.8068  0.2193 -1.1091
  559MPD2    H1 8349   3.967   2.271  10.028  0.5802 -0.3793 -1.6174
  559MPD2    H2 8350   3.751   2.113   9.706  0.2527 -0.5271 -0.1196
  559MPD2    H3 8351   3.921   2.248   9.790  1.4474  0.9558  1.2009
  559MPD2     N 8352   3.831   2.119  10.218 -0.5285  0.5265 -0.1217
  559MPD2    H5 8353   3.773   2.055  10.271 -0.4396  1.0539  0.6174
  559MPD2    N1 8354   3.558   1.985   9.838 -0.8522 -0.1561 -0.1185
  559MPD2    H7 8355   3.532   1.993   9.741 -0.4670  3.3176  0.0795
  560TMC3    C1 8356   3.912   2.148  10.430 -0.0367 -0.0994 -0.1818
  560TMC3    C2 8357   3.788   2.150  10.484  0.4630  0.0240 -0.0330
  560TMC3    C3 8358   3.779   2.163  10.621  0.2545 -0.3109 -0.2591
  560TMC3    C4 8359   4.020   2.148  10.508 -0.6100 -0.5513  0.0147
  560TMC3    C5 8360   4.010   2.156  10.642  0.1746  0.4959 -0.1516
  560TMC3    C6 8361   3.885   2.162  10.708 -0.9711  0.0150  0.4851
  560TMC3     C 8362   3.926   2.188  10.290 -0.3356  0.3578  0.3157
  560TMC3     O 8363   4.035   2.229  10.251 -0.1145 -0.2084 -0.0499
  560TMC3     H 8364   3.700   2.138  10.422  0.6274 -0.9241 -0.0752
  560TMC3    H1 8365   4.116   2.163  10.459 -0.4784 -0.3109  0.3481
  560TMC3    H2 8366   3.886   2.156  10.816 -2.8893 -2.8371  0.3522
  560TMC3    C7 8367   4.130   2.140  10.722 -0.5190  0.1729 -0.0778
  560TMC3    C8 8368   3.646   2.135  10.667 -0.0954 -0.6022 -0.3732
  560TMC3    O1 8369   4.124   2.072  10.828  0.4380  0.3713 -0.3756
  560TMC3    O2 8370   3.569   2.066  10.600 -0.0902  0.0017 -0.4298
  561TMC3    C1 8371   1.494   1.396  10.995 -0.4866  0.0295 -0.4007
  561TMC3    C2 8372   1.395   1.362  11.081 -0.6827  0.1950  0.1540
  561TMC3    C3 8373   1.356   1.455  11.171 -0.1084 -0.4498  0.5734
  561TMC3    C4 8374   1.562   1.512  10.998  0.0615 -0.0424  0.7738
  561TMC3    C5 8375   1.522   1.598  11.090 -0.2261 -0.7804  0.7590
  561TMC3    C6 8376   1.421   1.573  11.174 -0.4035 -0.3076 -0.1834
  561TMC3     C 8377   1.528   1.296  10.902  0.7274 -0.2736 -0.3897
  561TMC3     O 8378   1.440   1.211  10.882 -0.0436  0.2048 -0.4981
  561TMC3     H 8379   1.348   1.264  11.080  1.3276 -0.7885  0.3185
  561TMC3    H1 8380   1.636   1.540  10.924 -0.2361  0.4717  0.6675
  561TMC3    H2 8381   1.389   1.640  11.253  0.0844 -1.4587  0.9933
  561TMC3    C7 8382   1.579   1.729  11.094 -0.2688 -0.1010  0.6030
  561TMC3    C8 8383   1.228   1.443  11.234  0.7270  0.0747  0.0189
  561TMC3    O1 8384   1.535   1.797  11.188  0.4002  0.2841 -0.9415
  561TMC3    O2 8385   1.138   1.387  11.175  0.4995  0.2621 -0.1466
  562TMC3    C1 8386   2.909   2.871  16.520  0.4093 -0.9851 -0.5896
  562TMC3    C2 8387   2.816   2.968  16.552 -0.0671 -0.2363  0.3318
  562TMC3    C3 8388   2.748   3.025  16.449  0.6484 -0.9387  0.4517
  562TMC3    C4 8389   2.918   2.812  16.395  0.4884 -0.1514 -0.3748
  562TMC3    C5 8390   2.837   2.870  16.295  0.2239 -0.1005  0.1260
  562TMC3    C6 8391   2.754   2.973  16.324  0.0393 -0.2232  0.7010
  562TMC3     C 8392   3.021   2.866  16.614  1.0353 -0.4556  0.2701
  562TMC3     O 8393   2.988   2.874  16.732  0.0448 -0.8038  0.5623
  562TMC3     H 8394   2.832   3.024  16.643  1.1161  0.6399 -0.4071
  562TMC3    H1 8395   2.997   2.743  16.369  0.4154 -0.3214 -0.1447
  562TMC3    H2 8396   2.695   2.995  16.237 -2.3749 -3.6866  1.4466
  562TMC3    C7 8397   2.826   2.799  16.171  0.1659 -0.2996  0.4185
  562TMC3    C8 8398   2.656   3.135  16.469  0.7690 -0.2974 -0.4978
  562TMC3    O1 8399   2.797   2.861  16.066  0.3688 -0.0624 -0.3287
  562TMC3    O2 8400   2.644   3.162  16.588  0.6249  0.4126  0.6041
  563MPD2     C 8401   0.367   4.334  15.707  0.1563  0.2818 -0.1743
  563MPD2    C1 8402   0.373   4.264  15.827 -0.1767  0.1263 -0.1495
  563MPD2    C2 8403   0.479   4.185  15.855 -0.2317  0.4994  0.6959
  563MPD2    C3 8404   0.595   4.183  15.785  0.0066 -0.1528 -0.3673
  563MPD2    C4 8405   0.601   4.263  15.675  0.0315  0.0687  0.3310
  563MPD2    C5 8406   0.482   4.331  15.636  0.1027 -0.2236  0.1769
  563MPD2     H 8407   0.470   4.128  15.947  2.1627 -0.1597  0.5203
  563MPD2    H1 8408   0.688   4.278  15.612  0.5206  0.4025  1.0902
  563MPD2    H2 8409   0.278   4.387  15.676  0.3136  1.4417  1.3573
  563MPD2    H3 8410   0.474   4.400  15.552 -0.1187  0.7718  1.0190
  563MPD2     N 8411   0.698   4.098  15.832  0.1170  0.5774 -0.1637
  563MPD2    H5 8412   0.670   4.030  15.902 -1.9018  1.6736  0.1074
  563MPD2    N1 8413   0.268   4.250  15.918 -0.3081 -0.2907 -0.1198
  563MPD2    H7 8414   0.274   4.190  16.000  0.5079 -2.6282 -1.8701
  564TMC3    C1 8415   0.071   4.301  16.040 -0.5473  0.2129  0.0705
  564TMC3    C2 8416   4.673   4.273  16.037 -0.3249 -0.3374 -0.1209
  564TMC3    C3 8417   4.600   4.236  16.149 -0.4487  0.0859  0.1866
  564TMC3    C4 8418   0.137   4.307  16.159 -0.6094  0.7623 -0.8069
  564TMC3    C5 8419   0.065   4.274  16.269  0.1664 -0.2038 -0.7302
  564TMC3    C6 8420   4.662   4.242  16.269  0.5580 -0.0467  0.5650
  564TMC3     C 8421   0.144   4.306  15.912 -0.3034  0.4844 -0.1259
  564TMC3     O 8422   0.084   4.358  15.817  0.0792 -0.1194 -0.3098
  564TMC3     H 8423   4.630   4.266  15.938 -2.5058 -1.1175  0.8574
  564TMC3    H1 8424   0.240   4.336  16.174  0.4003 -2.7088 -0.9942
  564TMC3    H2 8425   4.613   4.217  16.363  0.5555 -0.9210  0.3323
  564TMC3    C7 8426   0.137   4.204  16.375 -0.2118 -0.0020  0.0925
  564TMC3    C8 8427   4.511   4.122  16.154 -0.2026  0.3697  0.0577
  564TMC3    O1 8428   0.246   4.244  16.419 -0.2168 -0.3678 -0.3339
  564TMC3    O2 8429   4.527   4.038  16.242 -0.0715 -0.2705  0.7231
  565TMC3    C1 8430   1.108   1.247   9.612  0.1512 -0.2687 -0.3176
  565TMC3    C2 8431   1.086   1.172   9.725  0.2981 -0.3780  0.2860
  565TMC3    C3 8432   1.042   1.045   9.702  0.6130  0.2015 -0.0005
  565TMC3    C4 8433   1.087   1.199   9.480  0.4407  0.3492  0.2704
  565TMC3    C5 8434   1.022   1.075   9.464 -0.1336 -0.1843 -0.1271
  565TMC3    C6 8435   1.006   0.999   9.578  0.2600 -0.1800  0.2410
  565TMC3     C 8436   1.141   1.385   9.624 -0.0378  0.0529  0.1385
  565TMC3     O 8437   1.139   1.452   9.523 -0.6721  0.0953  0.3967
  565TMC3     H 8438   1.102   1.219   9.822 -2.0830 -2.8086  1.8740
  565TMC3    H1 8439   1.100   1.264   9.394 -1.9436  1.2842  0.6443
  565TMC3    H2 8440   0.979   0.894   9.568 -0.4944 -0.2269  2.7144
  565TMC3    C7 8441   1.011   1.022   9.327  0.8443  0.6259 -0.0946
  565TMC3    C8 8442   1.036   0.959   9.818  0.2841  0.4506  0.2905
  565TMC3    O1 8443   1.047   1.093   9.234 -0.0004  0.4504 -0.4688
  565TMC3    O2 8444   1.097   1.006   9.911 -0.8891 -0.6467  0.5339
  566MPD2     C 8445   2.244   1.956  14.274  0.0635 -0.8753 -0.3485
  566MPD2    C1 8446   2.281   2.049  14.180 -0.3330 -0.2387  0.1327
  566MPD2    C2 8447   2.239   2.028  14.051  0.1884 -0.5292 -0.4829
  566MPD2    C3 8448   2.155   1.919  14.021 -0.3300  0.2491  0.1619
  566MPD2    C4 8449   2.124   1.820  14.119 -0.1639 -0.5457  0.3813
  566MPD2    C5 8450   2.161   1.854  14.246  0.2185 -1.2297 -0.0120
  566MPD2     H 8451   2.274   2.091  13.971  1.6045  1.1699  1.5020
  566MPD2    H1 8452   2.045   1.749  14.100 -0.0775 -0.5136 -0.0969
  566MPD2    H2 8453   2.280   1.970  14.376  1.7605 -1.3909 -0.8695
  566MPD2    H3 8454   2.126   1.792  14.327  1.0047 -2.7975 -0.8753
  566MPD2     N 8455   2.095   1.901  13.887 -0.3306  0.8794  0.4603
  566MPD2    H5 8456   2.027   1.826  13.880  3.1157 -1.9849 -2.3377
  566MPD2    N1 8457   2.366   2.150  14.234 -0.1798  0.3287 -0.2010
  566MPD2    H7 8458   2.395   2.159  14.331  0.2370  3.0810 -0.5783
  567TMC3    C1 8459   2.510   2.338  14.219 -0.0423 -0.2269  0.8891
  567TMC3    C2 8460   2.549   2.446  14.151 -0.4382 -0.8079  0.6238
  567TMC3    C3 8461   2.678   2.496  14.164  0.2521  0.5151 -0.0495
  567TMC3    C4 8462   2.596   2.281  14.306  0.0476  0.3038  0.2115
  567TMC3    C5 8463   2.718   2.342  14.337 -0.0203 -0.5859 -0.2836
  567TMC3    C6 8464   2.757   2.447  14.260 -0.1782 -0.2068 -0.3177
  567TMC3     C 8465   2.407   2.257  14.158 -0.8298  0.2320  0.0802
  567TMC3     O 8466   2.379   2.287  14.047 -0.2872  0.5257  0.5531
  567TMC3     H 8467   2.480   2.489  14.079  0.6297  0.9745  0.6612
  567TMC3    H1 8468   2.573   2.194  14.367 -3.4272 -0.2718 -1.8771
  567TMC3    H2 8469   2.859   2.482  14.271 -0.8370  1.3978  0.7014
  567TMC3    C7 8470   2.791   2.292  14.459 -0.0137  0.2270 -0.1360
  567TMC3    C8 8471   2.749   2.512  14.039 -0.8636 -0.6603  0.5506
  567TMC3    O1 8472   2.914   2.306  14.446  0.0390  0.0316 -0.3849
  567TMC3    O2 8473   2.859   2.464  14.017 -0.0660  0.1573 -0.6218
  568MPD2     C 8474   4.158   2.663  16.453 -0.5534  0.8391  0.8162
  568MPD2    C1 8475   4.236   2.763  16.513 -0.0508  0.3793 -0.3027
  568MPD2    C2 8476   4.212   2.894  16.476 -0.1974  0.8051 -0.0562
  568MPD2    C3 8477   4.130   2.929  16.368 -1.2514  0.3598 -0.3205
  568MPD2    C4 8478   4.059   2.827  16.311  0.0782  0.0122  0.1811
  568MPD2    C5 8479   4.071   2.698  16.355  0.4016 -0.4306 -0.8727
  568MPD2     H 8480   4.277   2.969  16.520 -1.1040  0.2784  2.1263
  568MPD2    H1 8481   3.991   2.850  16.229  2.0784 -0.4552 -1.6238
  568MPD2    H2 8482   4.162   2.556  16.465  1.1103  0.6191 -1.6403
  568MPD2    H3 8483   4.039   2.620  16.288 -0.9373 -1.6450  1.1815
  568MPD2     N 8484   4.114   3.065  16.340  0.2619  0.1087  0.1077
  568MPD2    H5 8485   4.160   3.130  16.402  1.4886  0.0980 -0.7729
  568MPD2    N1 8486   4.299   2.733  16.628  0.4947  0.2584  0.1019
  568MPD2    H7 8487   4.271   2.644  16.667 -0.7999  1.1506  1.2115
  569TMC3    C1 8488   4.064   3.277  16.264  0.6650  0.0262  0.0973
  569TMC3    C2 8489   4.030   3.324  16.390 -0.6139  0.8413 -0.3055
  569TMC3    C3 8490   4.057   3.457  16.413  0.6451  0.3563  0.6017
  569TMC3    C4 8491   4.108   3.359  16.168  0.0099 -0.8391  0.1702
  569TMC3    C5 8492   4.128   3.490  16.195 -0.8166 -0.4427 -0.6774
  569TMC3    C6 8493   4.109   3.541  16.320  0.4104 -0.1551  0.9783
  569TMC3     C 8494   4.052   3.130  16.237 -0.4082 -0.8544  0.0039
  569TMC3     O 8495   4.003   3.089  16.133  0.4153 -0.6299 -0.1274
  569TMC3     H 8496   3.974   3.262  16.460  1.0594 -0.6983 -0.3189
  569TMC3    H1 8497   4.115   3.322  16.066 -0.9621  1.6516 -0.8043
  569TMC3    H2 8498   4.146   3.642  16.333 -2.3339  0.8316  0.9600
  569TMC3    C7 8499   4.148   3.573  16.079 -0.3669 -0.5981  0.3409
  569TMC3    C8 8500   4.076   3.491  16.557  0.8823  0.6390  0.6511
  569TMC3    O1 8501   4.119   3.528  15.968 -0.2729 -0.5153 -0.4849
  569TMC3    O2 8502   4.065   3.399  16.640  0.1974  0.5520 -0.3585
  570TMC3    C1 8503   3.565   1.489  16.117  0.4606 -0.8276  0.6310
  570TMC3    C2 8504   3.619   1.514  15.998  0.5026  0.3940 -0.3252
  570TMC3    C3 8505   3.586   1.632  15.942 -0.0659  0.3843  0.5194
  570TMC3    C4 8506   3.474   1.570  16.181 -1.0401 -1.1435 -0.4782
  570TMC3    C5 8507   3.445   1.691  16.122 -0.2658 -0.0034  0.2947
  570TMC3    C6 8508   3.505   1.726  16.007  0.2959  0.8333 -0.0458
  570TMC3     C 8509   3.603   1.367  16.186  0.3871 -0.3813  0.4980
  570TMC3     O 8510   3.642   1.268  16.118 -0.5327  0.0056 -0.3111
  570TMC3     H 8511   3.692   1.453  15.946 -3.2794 -0.4036 -4.6907
  570TMC3    H1 8512   3.425   1.550  16.276  0.0519  1.8159  0.7113
  570TMC3    H2 8513   3.501   1.826  15.965  2.2569  0.5355 -0.9324
  570TMC3    C7 8514   3.406   1.805  16.203  0.1721  0.0363  0.0805
  570TMC3    C8 8515   3.685   1.696  15.860  0.0444  0.1059  0.0717
  570TMC3    O1 8516   3.448   1.915  16.168 -0.1174  0.2243 -0.5002
  570TMC3    O2 8517   3.706   1.817  15.869  0.1353 -0.6083  0.0648
  571MPD2     C 8518   1.425   4.209   0.432  0.5822  0.1264  0.0785
  571MPD2    C1 8519   1.466   4.157   0.555  0.7338  0.7510 -0.4472
  571MPD2    C2 8520   1.598   4.182   0.594 -0.5147  0.1400  0.3923
  571MPD2    C3 8521   1.681   4.272   0.524 -0.4901  0.1242  0.4310
  571MPD2    C4 8522   1.628   4.340   0.414  0.3023 -0.3972  0.3423
  571MPD2    C5 8523   1.500   4.312   0.372 -0.5600 -0.0066  0.6742
  571MPD2     H 8524   1.635   4.124   0.677  0.7777  1.4717  0.7480
  571MPD2    H1 8525   1.680   4.423   0.367  0.4196 -0.6654 -0.0027
  571MPD2    H2 8526   1.327   4.185   0.393 -0.0395  2.1977  0.3482
  571MPD2    H3 8527   1.457   4.361   0.285  0.8234  0.0280  0.0082
  571MPD2     N 8528   1.812   4.307   0.556 -0.3479  0.3605 -0.2265
  571MPD2    H5 8529   1.837   4.395   0.513  0.5690  0.8292  1.2659
  571MPD2    N1 8530   1.374   4.073   0.628  0.7153  0.3518  0.0913
  571MPD2    H7 8531   1.280   4.082   0.592  1.7439  3.9213 -1.6848
  572TMC3    C1 8532   2.032   4.273   0.629 -0.2303  0.0767  0.1619
  572TMC3    C2 8533   2.122   4.254   0.735 -0.6480 -0.2458 -0.1252
  572TMC3    C3 8534   2.259   4.289   0.729  0.1271 -0.4452  0.1368
  572TMC3    C4 8535   2.075   4.333   0.519 -0.6312  0.2603  0.5397
  572TMC3    C5 8536   2.197   4.391   0.527  0.2933  0.7067  0.4893
  572TMC3    C6 8537   2.285   4.378   0.631 -0.5935  0.7356 -0.0321
  572TMC3     C 8538   1.890   4.244   0.652 -0.4352 -0.0338 -0.3811
  572TMC3     O 8539   1.857   4.175   0.746  0.0506  0.1221 -0.2553
  572TMC3     H 8540   2.096   4.201   0.826  1.0630  0.9125  1.0455
  572TMC3    H1 8541   2.002   4.351   0.440 -0.7285  0.7940  0.7514
  572TMC3    H2 8542   2.382   4.427   0.634  0.6091 -1.3967 -4.1237
  572TMC3    C7 8543   2.236   4.481   0.423 -0.0691  0.1385  0.5448
  572TMC3    C8 8544   2.329   4.324   0.850  0.1822  0.3739  0.1125
  572TMC3    O1 8545   2.141   4.522   0.355 -0.0963  0.3158  0.3683
  572TMC3    O2 8546   2.375   4.435   0.868 -0.4503 -0.9990 -0.0779
  573MPD2     C 8547   2.530   3.897   0.661 -0.5422 -0.2011 -0.2177
  573MPD2    C1 8548   2.520   4.027   0.612  0.1334 -0.9625  0.3219
  573MPD2    C2 8549   2.425   4.054   0.519 -0.6581  0.1495  0.5900
  573MPD2    C3 8550   2.341   3.958   0.472 -0.2213 -0.3961 -0.4842
  573MPD2    C4 8551   2.339   3.828   0.520 -0.6617 -0.6044 -0.8439
  573MPD2    C5 8552   2.437   3.800   0.621 -0.0841 -0.3559  0.0909
  573MPD2     H 8553   2.411   4.154   0.479 -0.9494 -0.1700 -0.1128
  573MPD2    H1 8554   2.283   3.751   0.468 -0.8940 -1.1669  0.2330
  573MPD2    H2 8555   2.607   3.858   0.726  0.1734 -0.4981 -1.2444
  573MPD2    H3 8556   2.460   3.698   0.649 -0.8769 -0.9805 -1.5306
  573MPD2     N 8557   2.254   3.981   0.359  0.2753  0.7868  0.8600
  573MPD2    H5 8558   2.196   3.906   0.322  2.2721 -0.6468  0.5962
  573MPD2    N1 8559   2.610   4.125   0.657 -0.2216 -0.2460 -0.0292
  573MPD2    H7 8560   2.664   4.097   0.738 -1.2495 -2.6706 -0.2062
  574TMC3    C1 8561   2.183   4.079   0.160  0.8440  0.0483 -0.0795
  574TMC3    C2 8562   2.148   4.193   0.097  0.3456  0.2135  0.4536
  574TMC3    C3 8563   2.085   4.164  17.720 -0.1980 -0.1830  0.3926
  574TMC3    C4 8564   2.197   3.959   0.093 -0.9352  0.6864  0.7973
  574TMC3    C5 8565   2.158   3.944  17.709 -0.0609 -0.3047  0.0406
  574TMC3    C6 8566   2.076   4.045  17.657 -0.2005 -0.1017  0.1851
  574TMC3     C 8567   2.236   4.101   0.292  0.7592 -0.5753 -0.3095
  574TMC3     O 8568   2.286   4.207   0.315  0.2316  0.2803  0.0013
  574TMC3     H 8569   2.123   4.280   0.156  2.1408  1.8619 -1.2108
  574TMC3    H1 8570   2.259   3.882   0.137  1.3007  0.7666 -2.1692
  574TMC3    H2 8571   2.055   4.050  17.551  0.3139  1.1496  0.1406
  574TMC3    C7 8572   2.244   3.879  17.606  0.1611  0.3798 -0.0016
  574TMC3    C8 8573   2.039   4.279  17.642  0.4409  0.9272 -0.1639
  574TMC3    O1 8574   2.208   3.892  17.490  0.6110  0.2693  0.6360
  574TMC3    O2 8575   1.965   4.261  17.546 -0.1297  0.2363  0.4499
  575TMC3    C1 8576   1.426   0.654  10.433  0.2451 -0.0098 -0.2161
  575TMC3    C2 8577   1.441   0.580  10.550  0.6283 -0.6164 -0.1440
  575TMC3    C3 8578   1.345   0.478  10.570  0.6256 -0.0037 -0.2231
  575TMC3    C4 8579   1.329   0.624  10.340 -0.0292  0.5779  0.3225
  575TMC3    C5 8580   1.239   0.524  10.368 -0.8164 -0.4083 -0.2593
  575TMC3    C6 8581   1.243   0.451  10.483  0.0003  0.0108 -0.2681
  575TMC3     C 8582   1.534   0.740  10.386 -0.2888  0.3404  0.0978
  575TMC3     O 8583   1.644   0.730  10.439  0.2781  0.1624  0.4933
  575TMC3     H 8584   1.518   0.596  10.624  0.6681 -0.4622 -0.2177
  575TMC3    H1 8585   1.338   0.660  10.238  0.0141 -0.2103  0.0463
  575TMC3    H2 8586   1.159   0.391  10.517 -0.9098  2.7740  2.4128
  575TMC3    C7 8587   1.120   0.519  10.290  0.5972 -0.0446 -0.0786
  575TMC3    C8 8588   1.333   0.416  10.706  0.0500  0.4192  0.2298
  575TMC3    O1 8589   1.024   0.458  10.330 -0.6963  0.2392  0.2786
  575TMC3    O2 8590   1.316   0.294  10.700 -0.0184  0.2152 -0.3811
  576MPD2     C 8591   0.846   1.938  12.465  0.4922  0.1063 -0.4555
  576MPD2    C1 8592   0.751   2.009  12.392 -0.6179 -0.2982  0.2157
  576MPD2    C2 8593   0.629   2.034  12.449 -0.5377  1.1319  0.8030
  576MPD2    C3 8594   0.603   2.009  12.581 -0.0781  0.1288 -0.1052
  576MPD2    C4 8595   0.702   1.955  12.659 -1.1715  0.2553  0.6189
  576MPD2    C5 8596   0.820   1.911  12.602  0.3071  0.1179  0.2153
  576MPD2     H 8597   0.559   2.089  12.388 -0.9815 -1.2637 -0.8568
  576MPD2    H1 8598   0.680   1.936  12.763 -0.6174  0.4095  0.7628
  576MPD2    H2 8599   0.944   1.911  12.429 -0.0094 -0.4617 -1.4145
  576MPD2    H3 8600   0.891   1.854  12.661 -0.1982 -1.1147 -0.3599
  576MPD2     N 8601   0.484   2.070  12.636 -0.3204 -0.4092 -0.1646
  576MPD2    H5 8602   0.429   2.127  12.573 -2.1820 -1.4599  0.5276
  576MPD2    N1 8603   0.761   2.027  12.252  0.0533 -0.3882 -0.6833
  576MPD2    H7 8604   0.686   2.061  12.193  0.4698 -1.6249 -1.9333
  577TMC3    C1 8605   0.850   1.991  12.050  0.1411 -0.4939 -0.2105
  577TMC3    C2 8606   0.872   1.861  12.011 -0.0500 -0.3967 -0.4973
  577TMC3    C3 8607   0.932   1.842  11.892 -0.2053  0.0842  0.1525
  577TMC3    C4 8608   0.885   2.100  11.984  0.0871 -0.9413 -0.4204
  577TMC3    C5 8609   0.936   2.072  11.859 -0.1063 -0.3268  0.2540
  577TMC3    C6 8610   0.956   1.945  11.808  0.0015 -0.0121  0.0315
  577TMC3     C 8611   0.873   1.997  12.186 -1.4266 -0.7932  0.6760
  577TMC3     O 8612   0.987   1.978  12.217 -0.3084 -0.2295  0.4140
  577TMC3     H 8613   0.843   1.779  12.076 -1.6762 -0.7336 -1.6303
  577TMC3    H1 8614   0.878   2.197  12.033  0.5786 -1.8340  1.4262
  577TMC3    H2 8615   0.996   1.933  11.708 -0.5044 -1.1313 -0.0306
  577TMC3    C7 8616   0.974   2.191  11.778  0.4270 -0.1485  0.2094
  577TMC3    C8 8617   0.932   1.706  11.844 -0.1658 -0.3522  0.5072
  577TMC3    O1 8618   1.012   2.287  11.837  0.3598 -0.4355 -0.0142
  577TMC3    O2 8619   0.865   1.619  11.897 -0.2748  0.8519 -0.1008
  578MPD2     C 8620   3.505   2.520   1.472 -0.1279 -0.2162  0.1458
  578MPD2    C1 8621   3.509   2.436   1.364  0.2287  0.3582 -0.3417
  578MPD2    C2 8622   3.599   2.326   1.374  0.7880  0.2118 -0.3236
  578MPD2    C3 8623   3.669   2.295   1.493 -0.7265  0.3294 -0.0304
  578MPD2    C4 8624   3.646   2.376   1.604  0.3007 -0.0571  0.1441
  578MPD2    C5 8625   3.563   2.485   1.588  0.0836  0.5914 -0.4045
  578MPD2     H 8626   3.616   2.261   1.289 -0.0637  0.3400 -0.5993
  578MPD2    H1 8627   3.697   2.354   1.697  0.4492  1.6173  0.4574
  578MPD2    H2 8628   3.447   2.612   1.479 -0.5838 -0.3090 -2.3183
  578MPD2    H3 8629   3.563   2.553   1.672  0.8116 -0.8027  0.7440
  578MPD2     N 8630   3.775   2.188   1.489  0.1484  0.6304 -0.0164
  578MPD2    H5 8631   3.797   2.149   1.398  2.6801  1.8060  0.1058
  578MPD2    N1 8632   3.465   2.485   1.242  0.3105 -0.1151 -0.2701
  578MPD2    H7 8633   3.441   2.584   1.246 -2.6379 -0.8596  0.4030
  579TMC3    C1 8634   3.975   2.074   1.530 -0.0726  0.0005 -0.4020
  579TMC3    C2 8635   4.106   2.104   1.565  0.7010 -0.4739  0.2427
  579TMC3    C3 8636   4.205   2.014   1.534  0.3087  0.3234  0.2961
  579TMC3    C4 8637   3.940   1.959   1.466  0.1146 -0.5262 -0.1517
  579TMC3    C5 8638   4.040   1.876   1.431 -0.2299 -0.6079 -0.6610
  579TMC3    C6 8639   4.172   1.898   1.467  0.6924  0.1522 -0.5019
  579TMC3     C 8640   3.873   2.165   1.584  0.5034  0.6666  0.1117
  579TMC3     O 8641   3.905   2.236   1.680  0.0148  0.5721  0.0546
  579TMC3     H 8642   4.131   2.203   1.600 -1.3628 -0.6724  2.2784
  579TMC3    H1 8643   3.838   1.942   1.435 -0.1867 -0.2627  0.7046
  579TMC3    H2 8644   4.249   1.827   1.443 -0.1847 -1.0767  0.3409
  579TMC3    C7 8645   4.011   1.754   1.353 -0.0780  0.5069 -0.9408
  579TMC3    C8 8646   4.340   2.062   1.541  0.0297 -0.2162 -0.0632
  579TMC3    O1 8647   4.098   1.671   1.329  0.6252  0.3824 -0.3257
  579TMC3    O2 8648   4.362   2.155   1.614  0.4535 -0.4370  0.0527
  580TMC3    C1 8649   2.934   0.708  11.499 -0.2220  0.1693  0.2855
  580TMC3    C2 8650   3.015   0.708  11.390  0.2321  0.4067  0.6541
  580TMC3    C3 8651   3.056   0.596  11.331 -0.7161  0.6614 -0.1032
  580TMC3    C4 8652   2.889   0.587  11.553 -0.7504 -0.6802  0.0788
  580TMC3    C5 8653   2.940   0.472  11.500  0.3813 -0.2955  0.2751
  580TMC3    C6 8654   3.024   0.473  11.388  0.2035 -0.4561  0.7713
  580TMC3     C 8655   2.884   0.839  11.541 -0.2673  0.9510  0.2456
  580TMC3     O 8656   2.949   0.932  11.499  0.0824 -0.4037 -0.0855
  580TMC3     H 8657   3.052   0.806  11.360 -0.1838 -0.2164 -1.8962
  580TMC3    H1 8658   2.821   0.570  11.635  0.5607 -1.5214  0.9945
  580TMC3    H2 8659   3.063   0.378  11.353 -1.8144 -0.5747 -1.1472
  580TMC3    C7 8660   2.950   0.365  11.601  0.3277  0.3616  0.1123
  580TMC3    C8 8661   3.117   0.601  11.194  0.1573  0.4544  0.5548
  580TMC3    O1 8662   2.921   0.392  11.720  0.5156 -0.1054  0.8727
  580TMC3    O2 8663   3.089   0.508  11.118  0.3433  0.6676  0.3708
  581MPD2     C 8664   0.535   0.380  15.126  0.0043  0.2925 -0.3433
  581MPD2    C1 8665   0.606   0.495  15.090 -1.0046 -0.2803 -0.0646
  581MPD2    C2 8666   0.543   0.592  15.019  0.2641  0.3200 -0.1661
  581MPD2    C3 8667   0.409   0.578  14.984  0.5325  0.7001 -0.3042
  581MPD2    C4 8668   0.341   0.465  15.024  0.2648 -0.0811  1.0676
  581MPD2    C5 8669   0.404   0.368  15.098  0.1953  0.6574 -0.4026
  581MPD2     H 8670   0.601   0.676  14.983  1.8960 -0.7182  0.0851
  581MPD2    H1 8671   0.233   0.461  15.011  0.4133  0.0725 -0.1867
  581MPD2    H2 8672   0.574   0.294  15.179  1.4469  2.7527  2.5953
  581MPD2    H3 8673   0.350   0.286  15.145  1.5067 -0.0073 -0.0606
  581MPD2     N 8674   0.347   0.671  14.899 -0.7009 -0.0508 -0.3444
  581MPD2    H5 8675   0.410   0.745  14.872  1.6830 -1.9142  0.0812
  581MPD2    N1 8676   0.741   0.499  15.131 -0.1609  0.2422 -0.3182
  581MPD2    H7 8677   0.769   0.425  15.195  0.4144 -0.3842 -1.3036
  582TMC3    C1 8678   0.967   0.529  15.127 -0.0369 -0.6546 -0.3224
  582TMC3    C2 8679   1.027   0.618  15.207  0.3432 -0.3866  0.5017
  582TMC3    C3 8680   1.090   0.577  15.320  0.1496  0.2638 -0.6417
  582TMC3    C4 8681   0.970   0.391  15.155  0.5671  0.1139  0.1838
  582TMC3    C5 8682   1.025   0.349  15.274 -0.1459  0.4893  0.2424
  582TMC3    C6 8683   1.088   0.441  15.355 -0.5248 -0.7643  0.7701
  582TMC3     C 8684   0.834   0.586  15.098 -0.1661  0.2166  0.2694
  582TMC3     O 8685   0.815   0.696  15.047  0.2575  0.5713  0.7438
  582TMC3     H 8686   1.012   0.724  15.192  0.6339 -0.4247 -0.0685
  582TMC3    H1 8687   0.931   0.317  15.085 -0.4037 -0.7675  1.6457
  582TMC3    H2 8688   1.134   0.408  15.448 -0.2210 -1.7738  0.2632
  582TMC3    C7 8689   0.919   0.277  15.336 -0.8545  0.0812 -0.0426
  582TMC3    C8 8690   1.123   0.678  15.423  0.2146 -0.7597 -0.1059
  582TMC3    O1 8691   0.839   0.217  15.268 -0.4135  0.3627  0.2672
  582TMC3    O2 8692   1.065   0.789  15.425 -0.5579 -0.3210  0.1269
  583MPD2     C 8693   0.735   2.849  16.662 -0.2566  0.2965 -0.0569
  583MPD2    C1 8694   0.854   2.835  16.736 -0.4457  0.0757  0.2806
  583MPD2    C2 8695   0.858   2.904  16.854  0.3231  0.0875 -0.1776
  583MPD2    C3 8696   0.746   2.965  16.905 -0.5653  0.5118 -0.0250
  583MPD2    C4 8697   0.641   2.999  16.827 -0.1662  0.5836  0.8857
  583MPD2    C5 8698   0.632   2.926  16.705 -0.3613  0.9155  0.3157
  583MPD2     H 8699   0.943   2.900  16.921  0.7995  0.4990 -0.7614
  583MPD2    H1 8700   0.561   3.050  16.879  1.6648  0.0535  4.1788
  583MPD2    H2 8701   0.722   2.807  16.563 -0.2234  0.5552 -0.1716
  583MPD2    H3 8702   0.551   2.941  16.635 -0.1485  1.3890  0.1734
  583MPD2     N 8703   0.733   3.013  17.033 -0.2036  0.2835 -0.2233
  583MPD2    H5 8704   0.661   3.079  17.060 -1.7304 -1.6114  0.3279
  583MPD2    N1 8705   0.962   2.756  16.702 -0.3275  0.1151 -0.3209
  583MPD2    H7 8706   1.042   2.760  16.765 -0.1008 -0.4647 -0.5641
  584TMC3    C1 8707   0.820   3.061  17.244 -0.5461  0.1557  0.5159
  584TMC3    C2 8708   0.828   3.195  17.217 -0.3527  0.7345 -0.7954
  584TMC3    C3 8709   0.868   3.274  17.323  0.3130 -0.7528 -0.3632
  584TMC3    C4 8710   0.843   3.006  17.369  0.0542  0.0033 -0.3749
  584TMC3    C5 8711   0.873   3.092  17.473  0.7737  0.4112 -0.3593
  584TMC3    C6 8712   0.899   3.228  17.452  1.0565  0.1321 -0.3219
  584TMC3     C 8713   0.812   2.968  17.134 -0.0773 -0.5977 -0.1736
  584TMC3     O 8714   0.871   2.864  17.140 -1.0624  1.1368 -0.4835
  584TMC3     H 8715   0.818   3.238  17.118  0.3601 -2.2574 -2.1666
  584TMC3    H1 8716   0.824   2.900  17.377 -1.6843  0.4283  1.0985
  584TMC3    H2 8717   0.892   3.296  17.535  2.3847  1.0379 -0.9544
  584TMC3    C7 8718   0.859   3.031  17.601  0.9470 -0.4946 -0.1399
  584TMC3    C8 8719   0.913   3.405  17.286  0.0444 -0.9633  0.1925
  584TMC3    O1 8720   0.843   2.909  17.599 -0.3171  0.0751 -0.2855
  584TMC3    O2 8721   0.867   3.466  17.190  0.2300  0.4307 -0.0318
  585MPD2     C 8722   4.718   1.748  17.742  0.3611 -1.0173 -0.7190
  585MPD2    C1 8723   0.035   1.846  17.662  0.4229  0.5147  0.0198
  585MPD2    C2 8724   0.079   1.821  17.531  0.0753  0.3457 -0.0060
  585MPD2    C3 8725   0.076   1.693  17.490  0.1273  0.8260 -0.3848
  585MPD2    C4 8726   0.005   1.598  17.563 -0.5266 -0.7208  0.9651
  585MPD2    C5 8727   4.694   1.627  17.689  0.1073  0.0577  0.2471
  585MPD2     H 8728   0.128   1.898  17.474 -1.0882 -1.2245 -3.1189
  585MPD2    H1 8729   4.732   1.497  17.525  1.8083 -1.2824  1.8251
  585MPD2    H2 8730   4.678   1.758   0.097 -2.2506  0.2364 -1.8909
  585MPD2    H3 8731   4.623   1.562  17.740  0.1664 -0.7047 -0.6555
  585MPD2     N 8732   0.137   1.643  17.380  0.3300 -0.8243 -0.3246
  585MPD2    H5 8733   0.123   1.544  17.364  0.5761 -0.7102 -1.2252
  585MPD2    N1 8734   0.043   1.974  17.722 -0.4297 -0.0150 -0.5495
  585MPD2    H7 8735   0.032   1.982   0.077  2.9345  0.8056 -0.2462
  586TMC3    C1 8736   0.226   1.624  17.166  0.0176 -0.4053  0.2014
  586TMC3    C2 8737   0.336   1.638  17.087  0.9275  0.2691 -0.0003
  586TMC3    C3 8738   0.329   1.574  16.965  0.3618 -0.1064 -0.1646
  586TMC3    C4 8739   0.110   1.558  17.128 -0.7805  0.5366  0.2030
  586TMC3    C5 8740   0.110   1.525  16.999  0.3601  0.0806 -0.1487
  586TMC3    C6 8741   0.212   1.530  16.913  0.2604 -0.2480 -0.1843
  586TMC3     C 8742   0.217   1.702  17.286 -0.0756  0.0715 -0.0447
  586TMC3     O 8743   0.247   1.821  17.277 -0.0601 -0.2744 -0.6426
  586TMC3     H 8744   0.426   1.687  17.123  0.6052  2.1664 -1.7766
  586TMC3    H1 8745   0.016   1.565  17.181  0.6398  1.0248  2.6484
  586TMC3    H2 8746   0.206   1.500  16.809  0.1918 -1.8279  0.2697
  586TMC3    C7 8747   0.011   1.432  16.968  0.6513  0.9448  0.4502
  586TMC3    C8 8748   0.433   1.488  16.917  0.1364 -0.0267 -0.6795
  586TMC3    O1 8749   0.036   1.327  16.912  0.2916  0.8020  0.2886
  586TMC3    O2 8750   0.486   1.415  17.002  0.2651  0.5067 -0.1331
  587TMC3    C1 8751   2.519   0.443  16.691  0.7767 -0.0687  0.0467
  587TMC3    C2 8752   2.514   0.529  16.792 -0.1613  0.3771  0.2975
  587TMC3    C3 8753   2.635   0.540  16.856 -0.0876 -0.2564  0.0106
  587TMC3    C4 8754   2.617   0.355  16.660 -0.7970 -0.0529  0.2087
  587TMC3    C5 8755   2.723   0.363  16.745  0.2488 -0.0997  0.0486
  587TMC3    C6 8756   2.741   0.461  16.832 -0.5763  0.0338  1.0371
  587TMC3     C 8757   2.411   0.446  16.594  0.1708  0.5717  0.4426
  587TMC3     O 8758   2.369   0.557  16.564 -0.2701 -0.5541 -0.0279
  587TMC3     H 8759   2.431   0.598  16.804 -0.7521 -0.4660  0.9432
  587TMC3    H1 8760   2.630   0.295  16.571 -1.2281  2.1345 -1.3026
  587TMC3    H2 8761   2.836   0.456  16.885 -0.9427  3.5762  2.0159
  587TMC3    C7 8762   2.850   0.310  16.691 -0.1185  0.3321 -0.5430
  587TMC3    C8 8763   2.655   0.663  16.939  0.8273 -0.0507  0.5448
  587TMC3    O1 8764   2.952   0.383  16.697 -0.1175  0.1282 -0.4230
  587TMC3    O2 8765   2.768   0.669  16.985 -0.5063  0.0118  0.4284
  588TMC3    C1 8766   0.674   2.052   9.406  0.4052 -0.2847 -0.6114
  588TMC3    C2 8767   0.580   1.950   9.395  1.0873 -0.1475 -0.2831
  588TMC3    C3 8768   0.586   1.864   9.289  0.1479 -0.3998  0.2561
  588TMC3    C4 8769   0.768   2.081   9.307  0.8594  0.6229 -0.4591
  588TMC3    C5 8770   0.760   1.991   9.194 -0.0435  0.4323 -0.0164
  588TMC3    C6 8771   0.666   1.889   9.185 -0.8798  0.8285  0.0414
  588TMC3     C 8772   0.666   2.145   9.521 -0.5901 -0.5926 -0.7784
  588TMC3     O 8773   0.612   2.107   9.619 -0.1162  0.2905 -0.1029
  588TMC3     H 8774   0.490   1.945   9.455  1.1731 -2.2804 -0.3566
  588TMC3    H1 8775   0.846   2.156   9.319  0.2018  0.9837  1.5949
  588TMC3    H2 8776   0.668   1.831   9.094 -2.3105  0.9207 -0.0417
  588TMC3    C7 8777   0.838   2.033   9.078 -0.5508 -0.5609 -0.0063
  588TMC3    C8 8778   0.512   1.742   9.289 -0.3579 -0.2685  0.0159
  588TMC3    O1 8779   0.861   1.958   8.983  0.5431 -0.4470  0.5685
  588TMC3    O2 8780   0.481   1.704   9.176  0.6568 -0.2922 -0.0119
  589TMC3    C1 8781   3.804   0.530   0.944 -0.3333 -0.4616  0.1916
  589TMC3    C2 8782   3.906   0.558   1.024  0.1064 -0.0310 -0.9278
  589TMC3    C3 8783   4.012   0.474   1.028  0.0572  0.0769  0.0611
  589TMC3    C4 8784   3.803   0.425   0.861  0.1971  0.3131  0.1352
  589TMC3    C5 8785   3.912   0.344   0.860 -0.5914  0.7279 -0.3520
  589TMC3    C6 8786   4.021   0.366   0.938 -0.9419 -0.6702  0.1679
  589TMC3     C 8787   3.696   0.627   0.927 -0.4365  0.3667 -0.2251
  589TMC3     O 8788   3.617   0.610   0.838  0.0310  0.2550  0.0621
  589TMC3     H 8789   3.893   0.620   1.112  0.0718 -0.5942 -0.5406
  589TMC3    H1 8790   3.721   0.402   0.795  1.3132  0.6117 -1.3396
  589TMC3    H2 8791   4.092   0.284   0.947  0.1905  0.1773 -1.1412
  589TMC3    C7 8792   3.944   0.265   0.742 -0.0205  0.2570 -0.4128
  589TMC3    C8 8793   4.136   0.529   1.082 -0.1109 -0.5579 -0.2765
  589TMC3    O1 8794   3.860   0.191   0.697  0.6510 -0.2515 -0.5753
  589TMC3    O2 8795   4.130   0.631   1.148 -0.4059 -0.0300 -0.6671
  590MPD2     C 8796   3.666   3.338  16.823  0.3550  0.2738 -0.5843
  590MPD2    C1 8797   3.610   3.310  16.704 -0.1598 -0.5501  0.3070
  590MPD2    C2 8798   3.655   3.382  16.589 -0.2248  0.3154  0.1514
  590MPD2    C3 8799   3.739   3.484  16.603 -0.1846  0.0632  0.5320
  590MPD2    C4 8800   3.787   3.513  16.729 -0.3814  0.1310 -0.2273
  590MPD2    C5 8801   3.752   3.438  16.834  0.6853 -0.4468  0.1772
  590MPD2     H 8802   3.602   3.382  16.495 -2.3409  1.1532  1.3621
  590MPD2    H1 8803   3.851   3.597  16.752  0.0807 -0.0141 -1.0048
  590MPD2    H2 8804   3.629   3.280  16.907  1.4705  1.1065  0.4936
  590MPD2    H3 8805   3.781   3.468  16.934  4.2394 -0.9567 -0.6888
  590MPD2     N 8806   3.738   3.576  16.491 -0.0505  0.4382 -0.0924
  590MPD2    H5 8807   3.695   3.542  16.405  1.3307  1.4188 -1.1802
  590MPD2    N1 8808   3.502   3.210  16.692 -0.2766  0.1239 -0.6063
  590MPD2    H7 8809   3.463   3.178  16.781 -1.1751  0.1895 -0.9742
  591TMC3    C1 8810   3.771   3.757  16.350 -0.1835  0.2814  0.1652
  591TMC3    C2 8811   3.769   3.678  16.242 -0.2161  0.5895  0.3044
  591TMC3    C3 8812   3.745   3.729  16.120  0.0436  0.6118 -0.4558
  591TMC3    C4 8813   3.743   3.893  16.339  0.6335  0.6444 -0.3535
  591TMC3    C5 8814   3.719   3.945  16.211  0.1578 -0.1981  0.0551
  591TMC3    C6 8815   3.724   3.864  16.098 -0.0560 -0.8659  0.4468
  591TMC3     C 8816   3.787   3.702  16.484  0.4017  0.3274 -0.1653
  591TMC3     O 8817   3.811   3.785  16.575  0.5281  0.4168  0.0818
  591TMC3     H 8818   3.807   3.576  16.251 -3.0060 -0.4534  0.2669
  591TMC3    H1 8819   3.730   3.953  16.429 -3.1067 -1.8258  0.7574
  591TMC3    H2 8820   3.690   3.894  15.999 -2.2708  0.7785  1.6886
  591TMC3    C7 8821   3.661   4.070  16.218 -0.4426 -0.3414  0.5125
  591TMC3    C8 8822   3.730   3.636  16.008 -0.4718 -0.3011 -0.6889
  591TMC3    O1 8823   3.549   4.076  16.265 -0.3951  0.0016 -0.3509
  591TMC3    O2 8824   3.782   3.527  16.017  0.3909  0.1824 -0.4528
  592MPD2     C 8825   3.818   0.535  11.271  0.0225  0.3667 -0.3583
  592MPD2    C1 8826   3.800   0.582  11.396  0.7609 -0.1120 -0.2997
  592MPD2    C2 8827   3.754   0.493  11.493  0.7290  0.1092 -0.2559
  592MPD2    C3 8828   3.727   0.361  11.460 -0.2467 -0.7121  0.1819
  592MPD2    C4 8829   3.742   0.318  11.328 -0.5686  0.0539 -0.7554
  592MPD2    C5 8830   3.787   0.406  11.235  0.8501  0.0233  0.0651
  592MPD2     H 8831   3.726   0.516  11.595  0.5831  0.2320 -0.3250
  592MPD2    H1 8832   3.712   0.220  11.292 -0.0159 -0.7217  0.9225
  592MPD2    H2 8833   3.857   0.599  11.193  2.0505  1.5552  1.6298
  592MPD2    H3 8834   3.793   0.374  11.131  1.8713 -0.5644  0.3013
  592MPD2     N 8835   3.681   0.270  11.561 -0.4946 -0.3714 -0.9107
  592MPD2    H5 8836   3.651   0.307  11.651  0.7510  1.9853 -1.4550
  592MPD2    N1 8837   3.835   0.718  11.420 -0.4390  0.8407  0.2292
  592MPD2    H7 8838   3.877   0.773  11.346 -0.7116  0.6774 -0.0467
  593TMC3    C1 8839   3.884   0.905  11.560  0.5012 -0.4384  0.3353
  593TMC3    C2 8840   3.920   0.951  11.686  1.0765  0.0258  0.4284
  593TMC3    C3 8841   4.012   1.050  11.706 -0.3753  0.4202  1.0121
  593TMC3    C4 8842   3.935   0.978  11.454 -0.0072 -0.1531 -0.1512
  593TMC3    C5 8843   4.023   1.081  11.475 -0.4961 -0.1029 -0.0134
  593TMC3    C6 8844   4.066   1.115  11.598  0.0838 -0.3602 -0.0043
  593TMC3     C 8845   3.823   0.776  11.544 -0.4993 -0.2842 -0.6122
  593TMC3     O 8846   3.781   0.730  11.649  0.1076  0.0258  0.4270
  593TMC3     H 8847   3.872   0.912  11.775 -0.5566  0.2503 -0.3448
  593TMC3    H1 8848   3.908   0.950  11.354 -0.1566  1.6142 -0.6152
  593TMC3    H2 8849   4.123   1.206  11.613 -1.0466  0.5026 -0.9030
  593TMC3    C7 8850   4.040   1.175  11.370 -0.4583 -0.6008 -0.4090
  593TMC3    C8 8851   4.026   1.111  11.837  0.0139  0.0484  0.0384
  593TMC3    O1 8852   3.974   1.158  11.265 -0.5650 -0.0022  0.2896
  593TMC3    O2 8853   3.925   1.114  11.906  0.0917 -0.0251  0.0579
  594MPD2     C 8854   2.709   3.712  14.522 -0.1686 -0.6338 -0.7374
  594MPD2    C1 8855   2.594   3.785  14.513 -0.3347 -0.7484  0.2012
  594MPD2    C2 8856   2.592   3.891  14.418 -0.0456 -0.2293  0.5461
  594MPD2    C3 8857   2.700   3.924  14.339  0.0236 -0.0301 -0.4069
  594MPD2    C4 8858   2.815   3.844  14.355 -0.0005  0.6100 -0.0757
  594MPD2    C5 8859   2.817   3.741  14.447  0.2206 -0.2518 -0.5549
  594MPD2     H 8860   2.498   3.942  14.406 -0.7988 -1.9705 -0.9733
  594MPD2    H1 8861   2.909   3.865  14.305  1.8308  1.2155  3.6402
  594MPD2    H2 8862   2.729   3.638  14.599 -2.6467 -2.0186 -1.4411
  594MPD2    H3 8863   2.911   3.690  14.468 -0.8598 -2.0680 -0.1465
  594MPD2     N 8864   2.686   4.032  14.259 -0.7310  0.1162  0.3646
  594MPD2    H5 8865   2.605   4.091  14.274 -2.0505 -1.3730 -0.9958
  594MPD2    N1 8866   2.480   3.769  14.595 -0.2034 -0.1229  0.1715
  594MPD2    H7 8867   2.406   3.834  14.570 -0.0629 -0.8750 -2.1459
  595TMC3    C1 8868   2.932   4.373  14.078  0.6373 -0.4092 -0.9056
  595TMC3    C2 8869   2.895   4.244  14.067  0.2456 -0.1761 -0.0948
  595TMC3    C3 8870   2.775   4.199  14.117  0.7267  0.0649  0.4156
  595TMC3    C4 8871   2.853   4.467  14.148  0.2764 -0.2654 -0.2310
  595TMC3    C5 8872   2.731   4.423  14.193 -0.4716  0.5482 -0.5675
  595TMC3    C6 8873   2.693   4.293  14.183  0.7189  0.3237 -0.0285
  595TMC3     C 8874   3.071   4.397  14.114  0.0640 -0.6701 -0.2432
  595TMC3     O 8875   3.090   4.484  14.200  0.3516 -0.2268  0.0755
  595TMC3     H 8876   2.969   4.173  14.032  1.8352  1.8180 -0.7272
  595TMC3    H1 8877   2.882   4.571  14.162 -1.3153 -0.2127  2.7628
  595TMC3    H2 8878   2.594   4.271  14.221  1.8052 -0.9269  2.0619
  595TMC3    C7 8879   2.665   4.502  14.298  0.2036 -0.1701 -0.0373
  595TMC3    C8 8880   2.777   4.059  14.161  0.0072 -0.0754  0.2373
  595TMC3    O1 8881   2.541   4.491  14.306  0.4399 -0.2036 -0.3814
  595TMC3    O2 8882   2.866   3.985  14.114  0.0646 -0.3494  0.2343
  596MPD2     C 8883   1.739   2.245  16.743  0.3478 -0.7749  0.2716
  596MPD2    C1 8884   1.739   2.359  16.677 -0.2611  0.5074 -0.3245
  596MPD2    C2 8885   1.765   2.358  16.543 -1.0660 -0.3567  0.1979
  596MPD2    C3 8886   1.798   2.248  16.470  0.8171  0.5523  0.0801
  596MPD2    C4 8887   1.810   2.131  16.536  0.4058 -0.4014 -0.1997
  596MPD2    C5 8888   1.780   2.135  16.670  0.1963 -0.2673  0.9704
  596MPD2     H 8889   1.759   2.455  16.494 -0.5283 -1.7971 -2.7667
  596MPD2    H1 8890   1.829   2.036  16.489 -2.1937 -1.4526  0.8982
  596MPD2    H2 8891   1.727   2.239  16.851  3.1750  0.4453  0.6726
  596MPD2    H3 8892   1.784   2.042  16.726 -0.7981 -0.0002  1.4946
  596MPD2     N 8893   1.817   2.267  16.334 -0.3164  0.2351  0.1632
  596MPD2    H5 8894   1.782   2.357  16.304 -2.7492 -1.3705 -1.9698
  596MPD2    N1 8895   1.703   2.483  16.729  0.4972  0.5235  0.5306
  596MPD2    H7 8896   1.701   2.564  16.668 -2.9321 -1.4268 -1.9255
  597TMC3    C1 8897   1.650   2.660  16.859 -0.0994 -0.2403  0.6761
  597TMC3    C2 8898   1.751   2.730  16.808 -0.5196  0.8217  0.7802
  597TMC3    C3 8899   1.766   2.860  16.858  0.5844  0.1449 -0.3489
  597TMC3    C4 8900   1.563   2.717  16.945 -0.1218 -0.0511 -0.3347
  597TMC3    C5 8901   1.577   2.845  16.986 -0.5111 -0.4651 -0.4970
  597TMC3    C6 8902   1.684   2.921  16.943 -0.0187  0.2872 -0.7546
  597TMC3     C 8903   1.666   2.514  16.857  0.5249 -0.1198  0.4724
  597TMC3     O 8904   1.618   2.442  16.944 -0.4999  0.1048 -0.2358
  597TMC3     H 8905   1.821   2.691  16.735 -0.9205  2.1035 -0.2775
  597TMC3    H1 8906   1.505   2.649  17.007 -0.1790 -1.1807 -1.6260
  597TMC3    H2 8907   1.702   3.018  16.989 -1.0821  0.9551 -1.7504
  597TMC3    C7 8908   1.509   2.880  17.110 -0.2010 -0.6304 -0.1768
  597TMC3    C8 8909   1.894   2.922  16.834  0.7070 -0.0028 -0.4623
  597TMC3    O1 8910   1.467   2.792  17.181  0.4641  0.2817 -0.1931
  597TMC3    O2 8911   1.891   3.047  16.829  0.3357 -0.1302  0.1373
  598TMC3    C1 8912   0.008   3.861  16.042 -0.1887  0.7803  0.3354
  598TMC3    C2 8913   4.700   3.745  16.109  0.0205  0.2933 -1.7214
  598TMC3    C3 8914   4.618   3.663  16.038 -0.0782 -0.6916  0.0060
  598TMC3    C4 8915   4.704   3.899  15.917 -0.3883 -0.0420  0.6518
  598TMC3    C5 8916   4.610   3.816  15.859 -0.0454 -0.2890  0.5563
  598TMC3    C6 8917   4.572   3.700  15.918  0.6527  0.0012 -0.5834
  598TMC3     C 8918   0.132   3.924  16.099 -0.3149 -0.0024 -0.1781
  598TMC3     O 8919   0.177   4.023  16.041 -0.0562 -0.5345  0.2740
  598TMC3     H 8920   4.727   3.729  16.213  1.8518  0.2962 -2.1902
  598TMC3    H1 8921   0.004   3.991  15.874 -0.0805 -0.2597  0.4537
  598TMC3    H2 8922   4.491   3.643  15.873  0.2761 -0.7532  1.0611
  598TMC3    C7 8923   4.560   3.836  15.721 -0.3342 -0.0473  0.2549
  598TMC3    C8 8924   4.561   3.547  16.098  0.1931 -0.4240  0.3969
  598TMC3    O1 8925   4.474   3.754  15.682  0.1666  0.1092  0.0349
  598TMC3    O2 8926   4.568   3.549  16.221  0.2297  0.4021  0.2544
  599MPD2     C 8927   4.644   1.498  15.687 -0.4163  0.3351  0.6062
  599MPD2    C1 8928   4.572   1.380  15.709  0.5357  0.4815  0.3924
  599MPD2    C2 8929   4.444   1.379  15.753 -0.2855  0.1549  0.2444
  599MPD2    C3 8930   4.380   1.502  15.760 -1.2722  0.4519  0.6880
  599MPD2    C4 8931   4.447   1.623  15.733 -0.4051 -0.3061  0.1514
  599MPD2    C5 8932   4.577   1.618  15.696 -0.3052 -0.3743  1.0372
  599MPD2     H 8933   4.399   1.288  15.791 -0.7592  0.4168  0.3077
  599MPD2    H1 8934   4.394   1.716  15.747  1.2853  0.6433  0.2139
  599MPD2    H2 8935   0.011   1.496  15.655  0.0147 -0.8041  2.0595
  599MPD2    H3 8936   4.631   1.710  15.678  2.0320 -1.9689 -0.0773
  599MPD2     N 8937   4.253   1.520  15.822  0.2637 -0.0900  0.0180
  599MPD2    H5 8938   4.225   1.614  15.848 -2.0909 -0.7965  0.0685
  599MPD2    N1 8939   4.654   1.260  15.696  0.3668  0.1648  0.4469
  599MPD2    H7 8940   0.013   1.278  15.666  0.5333 -1.4890 -0.0123
  600TMC3    C1 8941   4.073   1.472  15.963 -0.2465  0.4031  0.0471
  600TMC3    C2 8942   4.047   1.383  16.067 -0.1152  0.0669 -0.6540
  600TMC3    C3 8943   3.991   1.430  16.183 -0.4824 -0.5525 -0.1697
  600TMC3    C4 8944   4.038   1.600  15.970 -0.2910 -0.2560  0.4360
  600TMC3    C5 8945   3.970   1.636  16.074  0.5249  0.0966 -0.5826
  600TMC3    C6 8946   3.945   1.557  16.185  0.3369  0.0585  0.3820
  600TMC3     C 8947   4.164   1.424  15.860  0.1504  1.4691 -0.7711
  600TMC3     O 8948   4.167   1.303  15.840  0.7459  0.9130 -0.1274
  600TMC3     H 8949   4.113   1.297  16.070  0.7367  0.7693  0.7229
  600TMC3    H1 8950   4.062   1.670  15.891  1.1154  0.2155  1.2805
  600TMC3    H2 8951   3.894   1.587  16.276  0.9845  1.3799  0.3174
  600TMC3    C7 8952   3.936   1.768  16.100  0.0623  0.2566 -0.4334
  600TMC3    C8 8953   4.017   1.363  16.313 -0.9595  0.2863 -0.0803
  600TMC3    O1 8954   3.831   1.785  16.161  0.4494  0.4031 -0.2108
  600TMC3    O2 8955   4.034   1.435  16.409 -0.0783  0.1246 -0.2926
  601MPD2     C 8956   2.534   0.087   0.161  0.1254 -0.3246  0.4143
  601MPD2    C1 8957   2.398   0.079   0.185  0.1079  1.1339 -0.6532
  601MPD2    C2 8958   2.346   4.721   0.266 -0.2020  0.2800  0.1794
  601MPD2    C3 8959   2.421   4.626   0.335 -0.0418  0.2624  0.6522
  601MPD2    C4 8960   2.561   4.631   0.315  0.2846  1.1347  0.7762
  601MPD2    C5 8961   2.611   4.735   0.234 -0.6057 -0.5707  0.0599
  601MPD2     H 8962   2.239   4.719   0.285 -0.3580 -0.6421 -0.8552
  601MPD2    H1 8963   2.631   4.563   0.361  0.2419  1.0660  0.7395
  601MPD2    H2 8964   2.577   0.171   0.108  0.2425 -0.4808  0.2625
  601MPD2    H3 8965   2.718   4.735   0.215 -0.9733 -0.1608 -1.9541
  601MPD2     N 8966   2.368   4.521   0.419  0.2837  0.2128 -0.4406
  601MPD2    H5 8967   2.436   4.458   0.459  0.6841 -0.1446 -1.6648
  601MPD2    N1 8968   2.307   0.175   0.139  0.5285 -0.1857 -0.3483
  601MPD2    H7 8969   2.210   0.163   0.169  1.2465  0.1496  2.1330
  602TMC3    C1 8970   2.209   0.343   0.008 -0.5299 -0.3203 -0.2664
  602TMC3    C2 8971   2.224   0.462  17.697 -0.2617  0.0396 -0.6587
  602TMC3    C3 8972   2.104   0.524  17.650 -1.2966 -0.0013  0.0721
  602TMC3    C4 8973   2.092   0.269   0.005 -0.6044  0.6929 -0.3538
  602TMC3    C5 8974   1.979   0.329  17.695 -0.3189  0.5815 -0.3374
  602TMC3    C6 8975   1.981   0.457  17.653 -0.6834  0.0974 -0.4543
  602TMC3     C 8976   2.334   0.279   0.049  0.5810  0.4890  0.5162
  602TMC3     O 8977   2.439   0.330   0.009  0.2873 -0.1272 -0.3952
  602TMC3     H 8978   2.321   0.506  17.680  0.5393 -1.8134 -0.7732
  602TMC3    H1 8979   2.083   0.162   0.021 -0.2953  0.7437  0.1542
  602TMC3    H2 8980   1.888   0.512  17.644 -0.1786  0.4671 -3.3634
  602TMC3    C7 8981   1.860   0.256  17.672  0.1278  0.6372  0.0701
  602TMC3    C8 8982   2.106   0.642  17.564 -0.4069  0.3721 -0.0116
  602TMC3    O1 8983   1.821   0.166   0.003  0.1596  0.5389  0.3249
  602TMC3    O2 8984   2.208   0.707  17.557 -0.3925 -0.2715  0.1117
  603TMC3    C1 8985   4.330   4.647  10.959  0.1885 -0.6780 -0.1538
  603TMC3    C2 8986   4.385   4.689  11.078 -0.0550  0.2241  0.0867
  603TMC3    C3 8987   4.503   0.017  11.075 -0.3821 -0.2146 -0.1674
  603TMC3    C4 8988   4.391   4.677  10.842 -0.6913  0.1363 -0.1508
  603TMC3    C5 8989   4.504   0.009  10.839  0.1366  0.4775 -0.5619
  603TMC3    C6 8990   4.567   0.047  10.957 -0.4332 -0.2839 -0.3771
  603TMC3     C 8991   4.231   4.541  10.965  0.6437  0.7918  0.1513
  603TMC3     O 8992   4.164   4.514  10.864  0.3606 -0.2709 -0.0114
  603TMC3     H 8993   4.340   4.653  11.170 -0.1036  1.3780  0.5022
  603TMC3    H1 8994   4.373   4.624  10.749 -0.7712 -0.8160  0.4021
  603TMC3    H2 8995   4.649   0.117  10.951  1.1758 -2.0796  0.3712
  603TMC3    C7 8996   4.594   0.016  10.724  0.0005  0.7267  0.0515
  603TMC3    C8 8997   4.590   0.016  11.187  0.2226  0.4203  0.2039
  603TMC3    O1 8998   4.713   0.028  10.747 -0.7135  0.1464 -0.2425
  603TMC3    O2 8999   4.530   0.001  11.295  0.0136 -0.1504  0.0260
  604MPD2     C 9000   1.204   3.800  16.660 -0.1562 -0.3919 -0.4689
  604MPD2    C1 9001   1.091   3.741  16.603  0.0297 -0.4196  0.2529
  604MPD2    C2 9002   1.098   3.694  16.471  0.2667  0.6324 -0.0261
  604MPD2    C3 9003   1.222   3.690  16.406  0.1877 -0.3959  0.6529
  604MPD2    C4 9004   1.332   3.743  16.471 -0.5980 -0.6695  0.8370
  604MPD2    C5 9005   1.320   3.799  16.594 -0.2523  0.0838 -0.2316
  604MPD2     H 9006   1.016   3.641  16.426 -0.1270  0.9746  0.2818
  604MPD2    H1 9007   1.424   3.747  16.415  1.1418 -0.6120  3.7360
  604MPD2    H2 9008   1.204   3.836  16.763  1.1184  1.0977 -0.9827
  604MPD2    H3 9009   1.411   3.846  16.628  0.4056 -0.1026 -1.7415
  604MPD2     N 9010   1.228   3.629  16.276  0.4692  0.1259  0.1555
  604MPD2    H5 9011   1.145   3.577  16.247  0.7398  0.2165 -0.7861
  604MPD2    N1 9012   0.980   3.720  16.688 -0.4636 -0.3673 -0.0112
  604MPD2    H7 9013   0.993   3.771  16.776  0.2514 -1.4367  0.5111
  605TMC3    C1 9014   0.758   3.697  16.767  0.2638  0.3329  0.4841
  605TMC3    C2 9015   0.818   3.739  16.879 -0.4588  0.3671 -0.2531
  605TMC3    C3 9016   0.793   3.871  16.917 -1.2250 -0.7197  0.5711
  605TMC3    C4 9017   0.648   3.758  16.718  0.2044 -0.1259  0.2509
  605TMC3    C5 9018   0.616   3.878  16.765 -0.1508  0.5388  0.0284
  605TMC3    C6 9019   0.697   3.946  16.848 -0.3225  0.7528 -0.3525
  605TMC3     C 9020   0.855   3.664  16.662  0.1923  0.3896 -0.1713
  605TMC3     O 9021   0.819   3.618  16.554  0.0542  0.0288 -0.0203
  605TMC3     H 9022   0.899   3.680  16.921 -1.2076 -0.3379  0.2139
  605TMC3    H1 9023   0.600   3.720  16.628  0.4623 -2.1195  0.9581
  605TMC3    H2 9024   0.677   4.050  16.873  0.3849  1.1351 -1.3441
  605TMC3    C7 9025   0.500   3.940  16.701  0.0637 -0.5431 -0.2983
  605TMC3    C8 9026   0.921   3.940  16.946 -0.4255  0.4614 -0.4657
  605TMC3    O1 9027   0.515   4.050  16.649  0.1245 -0.4175 -0.6259
  605TMC3    O2 9028   1.022   3.867  16.928 -0.7798  0.0000  0.0058
  606TMC3    C1 9029   1.828   2.853  17.300  0.3571 -0.1870 -0.8269
  606TMC3    C2 9030   1.778   2.865  17.430 -0.2560  0.5013  0.4259
  606TMC3    C3 9031   1.756   2.746  17.502 -0.3550  1.0318  0.3512
  606TMC3    C4 9032   1.839   2.739  17.235  0.0038  0.4378  0.2676
  606TMC3    C5 9033   1.800   2.624  17.301 -0.0752 -0.1880 -0.1293
  606TMC3    C6 9034   1.779   2.625  17.437  0.7771 -0.7570  0.0112
  606TMC3     C 9035   1.880   2.967  17.222  0.3521  0.5223  0.3172
  606TMC3     O 9036   1.965   2.945  17.136  0.1987 -0.5785  0.9327
  606TMC3     H 9037   1.783   2.962  17.478 -1.7090  1.2232 -0.9100
  606TMC3    H1 9038   1.874   2.725  17.133 -0.0924 -1.1715  0.4511
  606TMC3    H2 9039   1.762   2.540  17.502 -1.4450 -0.0875  0.3213
  606TMC3    C7 9040   1.833   2.502  17.224  0.1917 -0.2358  0.2695
  606TMC3    C8 9041   1.761   2.749  17.646  0.5120 -0.0554 -1.0968
  606TMC3    O1 9042   1.877   2.507  17.110  0.2473  0.2404  0.0603
  606TMC3    O2 9043   1.689   2.826  17.713  0.2054  0.1475 -0.3577
  607MPD2     C 9044   3.848   4.461  11.314  0.6194 -0.6149  0.1924
  607MPD2    C1 9045   3.916   4.543  11.401  0.3541 -0.5819 -0.2756
  607MPD2    C2 9046   3.915   4.529  11.538  0.0347  0.4494 -0.6588
  607MPD2    C3 9047   3.841   4.424  11.587 -0.3758 -0.7908  0.0534
  607MPD2    C4 9048   3.765   4.338  11.505 -0.1043 -0.2347 -0.4608
  607MPD2    C5 9049   3.773   4.357  11.365  0.4135 -0.3359 -0.6791
  607MPD2     H 9050   3.975   4.602  11.591 -0.3331 -1.2622  2.0942
  607MPD2    H1 9051   3.710   4.250  11.536 -2.3010  1.2255 -0.1982
  607MPD2    H2 9052   3.858   4.470  11.206  0.0704  0.5916  0.2346
  607MPD2    H3 9053   3.713   4.296  11.299  0.7402 -1.6391  0.2370
  607MPD2     N 9054   3.841   4.413  11.725  0.1169 -0.1716  0.2228
  607MPD2    H5 9055   3.900   4.471  11.784  1.1789 -0.7911 -0.2262
  607MPD2    N1 9056   3.980   4.659  11.346  0.3098 -0.1165  0.2063
  607MPD2    H7 9057   4.028   4.712  11.418 -1.6521  1.9807  0.0016
  608TMC3    C1 9058   4.029   0.115  11.239 -0.2834  0.9415 -0.3991
  608TMC3    C2 9059   4.034   0.164  11.360  0.4336 -1.1445  0.2483
  608TMC3    C3 9060   4.095   0.286  11.376  0.8766  0.1651  0.0898
  608TMC3    C4 9061   4.100   0.167  11.132  0.5870 -0.2235  0.7698
  608TMC3    C5 9062   4.170   0.281  11.157  0.8083  0.0431 -0.5604
  608TMC3    C6 9063   4.169   0.347  11.280  0.4786 -0.1492 -0.3982
  608TMC3     C 9064   3.978   4.716  11.217  0.6432 -0.0783  0.1907
  608TMC3     O 9065   3.956   4.678  11.105 -0.5152 -0.4489 -0.0719
  608TMC3     H 9066   3.942   0.142  11.413  0.9011  0.4169  1.6974
  608TMC3    H1 9067   4.106   0.117  11.036 -2.3445 -0.9630  0.9852
  608TMC3    H2 9068   4.216   0.444  11.296  0.1474  0.3164 -2.2461
  608TMC3    C7 9069   4.258   0.315  11.044 -0.1499  0.2966 -0.4049
  608TMC3    C8 9070   4.101   0.329  11.513  0.3298  0.2884 -0.7629
  608TMC3    O1 9071   4.224   0.283  10.931 -0.0317  0.5700  0.3894
  608TMC3    O2 9072   4.103   0.445  11.538  0.0528 -0.4304  0.1469
  609TMC3    C1 9073   3.543   4.459   8.615 -0.1739 -0.2568 -0.2520
  609TMC3    C2 9074   3.528   4.536   8.500  0.1595  0.0112 -0.2913
  609TMC3    C3 9075   3.616   4.511   8.394  0.0741  0.6386 -0.2369
  609TMC3    C4 9076   3.646   4.371   8.623 -0.0583 -0.7721  0.7926
  609TMC3    C5 9077   3.722   4.343   8.519  0.1676  0.0415 -0.3909
  609TMC3    C6 9078   3.706   4.405   8.400  0.6419  0.3605 -0.0130
  609TMC3     C 9079   3.480   4.491   8.743  0.1482 -0.0773 -0.0725
  609TMC3     O 9080   3.526   4.441   8.847 -0.0684 -0.3898  0.0534
  609TMC3     H 9081   3.436   4.589   8.478 -0.1151 -1.4063 -2.6706
  609TMC3    H1 9082   3.664   4.325   8.719 -1.0875 -1.4813  0.6487
  609TMC3    H2 9083   3.771   4.381   8.316 -0.8216  0.3287 -1.1516
  609TMC3    C7 9084   3.840   4.256   8.545 -0.8230  0.8287  0.4692
  609TMC3    C8 9085   3.585   4.568   8.266  0.3764  0.2123 -0.2491
  609TMC3    O1 9086   3.894   4.254   8.652 -0.0261  0.0602 -0.2641
  609TMC3    O2 9087   3.519   4.669   8.274 -0.2080 -0.2812  0.0758
  610TMC3    C1 9088   4.371   0.011  12.230  0.5885 -0.3344 -0.5738
  610TMC3    C2 9089   4.446   0.094  12.156 -0.2101 -0.0297  0.2722
  610TMC3    C3 9090   4.569   0.051  12.125 -0.0086  0.1983  0.4354
  610TMC3    C4 9091   4.412   4.620  12.265 -0.3072  0.4355 -0.2634
  610TMC3    C5 9092   4.542   4.594  12.231  0.2597  0.5167 -1.1028
  610TMC3    C6 9093   4.623   4.669  12.152 -0.0847  0.7422  0.2207
  610TMC3     C 9094   4.240   0.054  12.274  0.0074 -0.1578  0.4405
  610TMC3     O 9095   4.154   4.704  12.276  0.1789 -0.0665 -0.1506
  610TMC3     H 9096   4.422   0.199  12.144 -1.4497 -0.2871  0.5481
  610TMC3    H1 9097   4.347   4.550  12.318  1.1133 -1.7188 -1.3552
  610TMC3    H2 9098   4.724   4.639  12.129  0.7259  2.4206  1.5947
  610TMC3    C7 9099   4.603   4.482  12.305 -0.7489  0.5849  0.2066
  610TMC3    C8 9100   4.634   0.111  12.013 -1.1371 -0.4097  0.1830
  610TMC3    O1 9101   4.727   4.483  12.307 -0.4319  0.8375  0.0521
  610TMC3    O2 9102   0.014   0.084  11.987  0.2483  0.1865  0.6670
  611MPD2     C 9103   3.682   0.336  10.222 -0.1003  0.3024  0.1108
  611MPD2    C1 9104   3.680   0.248  10.110 -0.8787 -0.4503  0.1546
  611MPD2    C2 9105   3.797   0.210  10.040  0.5096  0.1436 -0.1183
  611MPD2    C3 9106   3.920   0.251  10.086  0.4017  0.2853  0.0491
  611MPD2    C4 9107   3.923   0.324  10.204 -0.1096 -0.4016 -0.0006
  611MPD2    C5 9108   3.808   0.376  10.262  0.2877 -0.0309 -0.0198
  611MPD2     H 9109   3.782   0.141   9.959  0.4404  1.2773 -1.0719
  611MPD2    H1 9110   4.017   0.366  10.238 -0.5058 -0.7505  1.5020
  611MPD2    H2 9111   3.584   0.357  10.263  0.3945 -0.7917  1.8625
  611MPD2    H3 9112   3.831   0.448  10.340 -1.5062 -0.7500  1.1886
  611MPD2     N 9113   4.039   0.223  10.020  0.3629 -0.5729  0.4325
  611MPD2    H5 9114   4.131   0.246  10.056  0.2310 -1.0105  1.0556
  611MPD2    N1 9115   3.544   0.199  10.092  0.7005 -0.0594  0.3412
  611MPD2    H7 9116   3.469   0.230  10.152  0.0562  1.0796 -1.0407
  612TMC3    C1 9117   4.185   0.141   9.859  0.4400 -0.3012 -0.4555
  612TMC3    C2 9118   4.286   0.127   9.952 -0.0697 -0.3471 -0.1293
  612TMC3    C3 9119   4.413   0.112   9.904  0.5610  0.5842  0.1389
  612TMC3    C4 9120   4.209   0.137   9.725 -0.4461 -0.2943  0.1310
  612TMC3    C5 9121   4.335   0.128   9.692 -0.1440  0.7578  0.0825
  612TMC3    C6 9122   4.438   0.109   9.773 -0.9173 -0.7913  0.0887
  612TMC3     C 9123   4.048   0.152   9.903  0.3656 -0.0740 -0.7536
  612TMC3     O 9124   3.961   0.125   9.818  0.0497 -0.6481  0.0008
  612TMC3     H 9125   4.268   0.107  10.057  3.6309  0.2008  0.6306
  612TMC3    H1 9126   4.130   0.116   9.653 -0.1872 -0.8596  0.0054
  612TMC3    H2 9127   4.542   0.111   9.745 -0.9420 -2.4076 -0.1329
  612TMC3    C7 9128   4.370   0.118   9.555 -0.4005  0.8022  0.3958
  612TMC3    C8 9129   4.527   0.117   9.993 -0.8965 -0.0501  0.4604
  612TMC3    O1 9130   4.478   0.068   9.516 -0.6787  0.4652 -0.0137
  612TMC3    O2 9131   4.641   0.132   9.947 -1.2626  0.0815  0.0125
  613MPD2     C 9132   3.059   2.319  16.804  0.9204  0.3622  0.5310
  613MPD2    C1 9133   3.030   2.352  16.674 -0.5904 -0.3277  0.2678
  613MPD2    C2 9134   2.923   2.289  16.611  0.5130  0.3744 -0.7131
  613MPD2    C3 9135   2.869   2.178  16.672 -0.0670 -0.5625  0.2495
  613MPD2    C4 9136   2.895   2.146  16.804  0.2744  0.2463  0.1493
  613MPD2    C5 9137   2.992   2.214  16.867  0.6315  0.2169  0.2056
  613MPD2     H 9138   2.906   2.314  16.507  1.7637  0.5116 -0.8892
  613MPD2    H1 9139   2.846   2.061  16.850 -0.5242  0.2590 -0.6805
  613MPD2    H2 9140   3.148   2.360  16.850 -0.2421  3.2989  0.1832
  613MPD2    H3 9141   3.014   2.182  16.968  0.8036 -0.6588 -0.1104
  613MPD2     N 9142   2.783   2.090  16.600  0.5303 -0.0587  0.1334
  613MPD2    H5 9143   2.762   1.996  16.632 -2.2513 -0.2853 -2.3594
  613MPD2    N1 9144   3.113   2.445  16.605  0.0542 -0.1211  0.1538
  613MPD2    H7 9145   3.206   2.460  16.641  0.6007 -1.9275 -0.5134
  614TMC3    C1 9146   3.180   2.459  16.378  0.5037 -0.9343 -0.3468
  614TMC3    C2 9147   3.168   2.326  16.352 -0.0537  0.4140 -0.1122
  614TMC3    C3 9148   3.158   2.280  16.220  0.1102 -0.5212  0.2156
  614TMC3    C4 9149   3.180   2.548  16.274  0.8227  0.1414 -0.2821
  614TMC3    C5 9150   3.179   2.504  16.145 -0.6303 -1.0579 -0.2126
  614TMC3    C6 9151   3.167   2.367  16.111 -0.3308 -0.4362 -0.1693
  614TMC3     C 9152   3.078   2.490  16.481 -0.6913  0.2154  0.8645
  614TMC3     O 9153   2.970   2.524  16.436  0.2852  0.1908 -0.3317
  614TMC3     H 9154   3.160   2.268  16.443 -0.6348 -0.3551 -0.6508
  614TMC3    H1 9155   3.191   2.653  16.299  0.0176  0.3757 -0.9393
  614TMC3    H2 9156   3.149   2.330  16.010 -0.1485  1.9127 -1.0677
  614TMC3    C7 9157   3.210   2.602  16.043  0.0007 -0.6243 -0.5091
  614TMC3    C8 9158   3.104   2.145  16.211  0.4019 -0.0123  0.3243
  614TMC3    O1 9159   3.204   2.717  16.083 -0.2961 -0.3270 -0.0083
  614TMC3    O2 9160   3.027   2.112  16.298  0.2215  0.3311 -0.2274
  615MPD2     C 9161   2.583   3.438  15.885 -0.1534  0.7304 -0.2531
  615MPD2    C1 9162   2.535   3.557  15.942 -0.4129  0.6654  0.3474
  615MPD2    C2 9163   2.429   3.626  15.878 -1.2211  0.2235  0.3003
  615MPD2    C3 9164   2.386   3.588  15.752 -0.5331  0.9781 -0.4727
  615MPD2    C4 9165   2.452   3.480  15.692 -0.4972  0.1832  0.3478
  615MPD2    C5 9166   2.543   3.396  15.761  0.1894 -0.2602  0.1734
  615MPD2     H 9167   2.402   3.722  15.919 -0.0332  0.3829  0.6962
  615MPD2    H1 9168   2.429   3.448  15.591 -1.7184  2.4219 -0.0796
  615MPD2    H2 9169   2.664   3.385  15.934  1.4020  2.9822 -0.3842
  615MPD2    H3 9170   2.586   3.307  15.717  0.4256 -0.0302 -0.0585
  615MPD2     N 9171   2.291   3.659  15.677 -0.0515  0.1679  0.0129
  615MPD2    H5 9172   2.291   3.646  15.576  2.5160 -1.0340  0.1716
  615MPD2    N1 9173   2.585   3.607  16.058  0.1671  0.2518  0.2397
  615MPD2    H7 9174   2.547   3.696  16.090  3.9094  0.6757  3.5502
  616TMC3    C1 9175   2.704   3.652  16.254 -0.0427  1.0418  0.5342
  616TMC3    C2 9176   2.738   3.777  16.218  0.0989 -0.4791  0.0720
  616TMC3    C3 9177   2.813   3.855  16.302 -0.2621  0.3612  0.6804
  616TMC3    C4 9178   2.745   3.597  16.368 -0.2330  0.0929  0.1733
  616TMC3    C5 9179   2.827   3.676  16.448 -0.6031 -0.3296  0.6661
  616TMC3    C6 9180   2.848   3.807  16.428  0.0540 -0.2424 -0.0562
  616TMC3     C 9181   2.679   3.561  16.146  0.2019 -0.3636 -0.2777
  616TMC3     O 9182   2.738   3.456  16.140  0.4256  0.5145  0.0574
  616TMC3     H 9183   2.721   3.802  16.114  0.7738  0.1518  0.1130
  616TMC3    H1 9184   2.715   3.495  16.392 -0.5490  0.4601  1.3330
  616TMC3    H2 9185   2.895   3.866  16.506  2.1536 -2.8410  0.6657
  616TMC3    C7 9186   2.892   3.609  16.563  0.2400 -0.3294  0.4161
  616TMC3    C8 9187   2.858   3.981  16.247 -0.1845 -0.1776 -0.7079
  616TMC3    O1 9188   2.811   3.574  16.650  0.0400 -0.7055  0.6771
  616TMC3    O2 9189   2.781   4.035  16.171  0.4044 -0.3584  0.5007
  617MPD2     C 9190   0.504   1.920  13.673 -0.2889  0.2721  0.0563
  617MPD2    C1 9191   0.472   1.789  13.637  0.0445  0.1546 -0.3901
  617MPD2    C2 9192   0.359   1.723  13.691 -0.5288 -0.4006 -0.4077
  617MPD2    C3 9193   0.275   1.797  13.777 -0.0423  0.7319  0.4090
  617MPD2    C4 9194   0.305   1.928  13.809  0.3676  0.0293 -0.4572
  617MPD2    C5 9195   0.424   1.981  13.763 -0.2291 -0.3755 -0.4007
  617MPD2     H 9196   0.335   1.624  13.655 -0.0718 -0.0081 -1.7836
  617MPD2    H1 9197   0.238   1.988  13.870 -0.4348 -1.8018  0.4695
  617MPD2    H2 9198   0.593   1.974  13.642  0.3734 -1.4378 -1.0338
  617MPD2    H3 9199   0.441   2.085  13.790 -0.7131 -0.8251  1.5894
  617MPD2     N 9200   0.149   1.751  13.816  0.0196  0.2060 -0.3537
  617MPD2    H5 9201   0.090   1.812  13.872 -0.5010 -0.5172 -0.1105
  617MPD2    N1 9202   0.554   1.719  13.542  0.2251  0.2826 -0.2203
  617MPD2    H7 9203   0.623   1.781  13.500 -0.7098  0.5744 -1.3405
  618TMC3    C1 9204   0.659   1.554  13.420 -0.8466 -0.2906  0.4090
  618TMC3    C2 9205   0.688   1.426  13.422  0.2444  0.4316  0.1313
  618TMC3    C3 9206   0.814   1.379  13.392  0.1423  0.1797  0.3947
  618TMC3    C4 9207   0.762   1.648  13.386  0.8459  0.0041  0.4022
  618TMC3    C5 9208   0.885   1.604  13.355  0.3027 -0.6387 -0.1248
  618TMC3    C6 9209   0.915   1.467  13.369 -0.6505 -0.5745  0.6197
  618TMC3     C 9210   0.546   1.591  13.493  0.1269 -0.0926 -0.1028
  618TMC3     O 9211   0.463   1.502  13.512  0.2923  0.2648  0.1754
  618TMC3     H 9212   0.615   1.356  13.459 -0.3441 -0.3905 -2.5982
  618TMC3    H1 9213   0.741   1.749  13.353 -0.5746  0.0712  1.5073
  618TMC3    H2 9214   1.010   1.431  13.333 -1.1254  0.7008 -1.9393
  618TMC3    C7 9215   0.987   1.710  13.326  0.2548  0.1132  0.6929
  618TMC3    C8 9216   0.811   1.246  13.338  0.0782  0.3567  0.2687
  618TMC3    O1 9217   0.956   1.822  13.358 -0.1668 -0.3987  0.1390
  618TMC3    O2 9218   0.704   1.188  13.323 -0.4216 -0.1391 -0.1195
  619MPD2     C 9219   1.810   3.085  14.210 -0.7294  0.6711  0.1411
  619MPD2    C1 9220   1.737   3.024  14.107  0.1255 -0.4271  0.3197
  619MPD2    C2 9221   1.606   2.988  14.129  0.4594 -0.2501  0.1833
  619MPD2    C3 9222   1.542   3.016  14.248 -0.3276 -0.6633  0.4247
  619MPD2    C4 9223   1.612   3.077  14.351  0.7521  0.3232  0.1266
  619MPD2    C5 9224   1.744   3.111  14.327 -0.4663  0.0744  0.5074
  619MPD2     H 9225   1.554   2.934  14.051 -1.3311  2.0479 -0.1968
  619MPD2    H1 9226   1.563   3.108  14.443  1.1414  1.4532 -0.0432
  619MPD2    H2 9227   1.910   3.125  14.197  0.9136 -2.7547  2.0040
  619MPD2    H3 9228   1.805   3.148  14.409  0.0156 -0.8627  0.5841
  619MPD2     N 9229   1.407   2.976  14.283 -0.3092  0.2955 -0.3352
  619MPD2    H5 9230   1.357   3.016  14.362 -1.1552  0.0734 -0.7665
  619MPD2    N1 9231   1.796   2.997  13.986 -0.4235  0.6130 -0.1623
  619MPD2    H7 9232   1.734   2.973  13.909 -1.0550  1.2825  0.1465
  620TMC3    C1 9233   1.953   3.006  13.818  0.4886  0.1091 -0.1790
  620TMC3    C2 9234   1.864   2.918  13.761 -0.0105  0.3096  0.4580
  620TMC3    C3 9235   1.796   2.961  13.656 -0.2767  0.5973  0.1663
  620TMC3    C4 9236   1.980   3.130  13.772 -0.2741 -0.1227 -0.2181
  620TMC3    C5 9237   1.900   3.170  13.666  0.5484 -0.1117 -0.3241
  620TMC3    C6 9238   1.817   3.082  13.597 -0.7899 -0.8626  1.2633
  620TMC3     C 9239   1.933   3.005  13.957 -0.3747  0.6378  0.1657
  620TMC3     O 9240   2.024   3.045  14.026  0.5692  0.4523 -0.1515
  620TMC3     H 9241   1.847   2.826  13.816  1.4392  0.2714  0.8366
  620TMC3    H1 9242   2.021   3.207  13.838  0.4447 -1.2092  0.6100
  620TMC3    H2 9243   1.759   3.112  13.511  3.1118  0.8021 -0.7829
  620TMC3    C7 9244   1.900   3.310  13.629  0.0121  0.3960 -0.1774
  620TMC3    C8 9245   1.657   2.919  13.664 -0.4978 -0.3328  0.1202
  620TMC3    O1 9246   1.816   3.331  13.547 -0.6892  0.2415  0.1665
  620TMC3    O2 9247   1.623   2.809  13.713 -0.2916 -0.2025 -0.0225
  621MPD2     C 9248   3.104   3.727   8.837 -0.3905  0.4892  0.0701
  621MPD2    C1 9249   3.125   3.626   8.930  0.2551  0.0910 -0.5952
  621MPD2    C2 9250   3.181   3.655   9.055 -0.5022  0.7985 -0.3539
  621MPD2    C3 9251   3.219   3.782   9.091  0.6155  0.4843 -0.5829
  621MPD2    C4 9252   3.192   3.882   8.998  0.1418  0.2344  0.8218
  621MPD2    C5 9253   3.139   3.849   8.878  0.2765 -0.2431 -0.3629
  621MPD2     H 9254   3.184   3.579   9.131 -0.1874  1.4138  0.2519
  621MPD2    H1 9255   3.219   3.986   9.012 -1.0544  0.7407 -0.5979
  621MPD2    H2 9256   3.069   3.710   8.735  0.0846  2.1792 -0.3727
  621MPD2    H3 9257   3.131   3.929   8.806 -2.4074  0.1127  0.3418
  621MPD2     N 9258   3.268   3.816   9.224  0.5779 -0.0099 -0.3631
  621MPD2    H5 9259   3.255   3.746   9.297 -0.8504 -0.9288 -1.5136
  621MPD2    N1 9260   3.085   3.496   8.896  0.5430  0.4008 -0.3592
  621MPD2    H7 9261   3.042   3.475   8.807 -0.6140 -1.4779  0.6269
  622TMC3    C1 9262   3.025   3.265   8.933  0.0061 -0.0370 -0.1242
  622TMC3    C2 9263   3.052   3.151   9.015  0.3214  0.1835 -0.1339
  622TMC3    C3 9264   2.966   3.042   9.000 -0.5783 -0.8963 -0.1297
  622TMC3    C4 9265   2.901   3.280   8.869  0.7204 -0.5945  0.2288
  622TMC3    C5 9266   2.822   3.160   8.861  0.3826 -0.3025  0.0737
  622TMC3    C6 9267   2.862   3.039   8.913  0.4778 -0.3967 -0.1806
  622TMC3     C 9268   3.105   3.382   8.968  1.1770  1.0189  0.3314
  622TMC3     O 9269   3.198   3.363   9.050 -0.6125  0.0145 -0.3170
  622TMC3     H 9270   3.137   3.140   9.081 -0.8817 -0.8009  1.2544
  622TMC3    H1 9271   2.869   3.379   8.839  0.5424 -1.0332 -1.0122
  622TMC3    H2 9272   2.806   2.948   8.893 -1.0562  0.5315 -0.0933
  622TMC3    C7 9273   2.689   3.162   8.800 -0.0639  0.1254 -0.3182
  622TMC3    C8 9274   2.958   2.953   9.110  0.4098  0.1150  0.4908
  622TMC3    O1 9275   2.630   3.055   8.780  0.0884  0.6964 -0.5009
  622TMC3    O2 9276   2.882   2.858   9.101 -0.3921 -0.2708  0.0412
  623MPD2     C 9277   1.519   3.922  16.028  0.1593 -0.0079 -0.0509
  623MPD2    C1 9278   1.427   3.962  16.119 -0.2287 -0.2291  0.6520
  623MPD2    C2 9279   1.457   3.995  16.249  0.0963  0.0610 -0.0004
  623MPD2    C3 9280   1.592   3.991  16.288 -0.2832  1.1250  0.0030
  623MPD2    C4 9281   1.691   3.963  16.193 -0.4003 -0.3674  0.3553
  623MPD2    C5 9282   1.650   3.923  16.069 -0.6772 -0.3685  0.7182
  623MPD2     H 9283   1.378   4.013  16.322  0.1623  0.5604 -0.0564
  623MPD2    H1 9284   1.796   3.945  16.212 -0.0897  0.0778 -0.9349
  623MPD2    H2 9285   1.494   3.878  15.932 -1.4012  1.0580 -0.1356
  623MPD2    H3 9286   1.720   3.868  16.007  0.0767  0.5222  0.7899
  623MPD2     N 9287   1.622   4.015  16.422 -0.3402 -0.3651 -0.2366
  623MPD2    H5 9288   1.546   4.053  16.479  1.3137  1.2688  0.8895
  623MPD2    N1 9289   1.289   3.955  16.096 -0.4313 -0.4611  0.1906
  623MPD2    H7 9290   1.232   3.999  16.168  0.1164 -0.4926  0.6349
  624TMC3    C1 9291   1.797   3.949  16.842  0.2876 -0.2476  0.1319
  624TMC3    C2 9292   1.675   3.947  16.894  0.5644 -0.8525 -0.1630
  624TMC3    C3 9293   1.572   3.996  16.817  0.2936  0.3315 -0.6651
  624TMC3    C4 9294   1.822   3.972  16.709 -0.3825 -0.3317  0.0745
  624TMC3    C5 9295   1.720   4.004  16.632  0.5324 -0.2708 -0.1337
  624TMC3    C6 9296   1.598   4.020  16.686 -0.2658 -0.3317 -0.5234
  624TMC3     C 9297   1.902   3.923  16.943  0.1140 -0.4684  0.1058
  624TMC3     O 9298   1.873   3.871  17.048  0.4321  0.3599  0.2145
  624TMC3     H 9299   1.662   3.925  16.999  0.2887 -0.2550 -0.0688
  624TMC3    H1 9300   1.919   3.945  16.669 -0.5951 -0.6600 -0.2261
  624TMC3    H2 9301   1.508   4.062  16.643 -2.5683 -2.9284  1.7580
  624TMC3    C7 9302   1.741   3.995  16.494 -0.1888  0.8123 -0.4326
  624TMC3    C8 9303   1.441   4.037  16.871  0.1978  0.0156  0.3748
  624TMC3    O1 9304   1.854   3.969  16.455  0.0231 -1.0184 -0.1207
  624TMC3    O2 9305   1.392   3.961  16.953 -0.1509  0.3131  0.1518
  625MPD2     C 9306   1.604   0.533   0.420  0.1307  0.7990  0.2750
  625MPD2    C1 9307   1.671   0.656   0.424 -0.3969  0.6221  0.0404
  625MPD2    C2 9308   1.791   0.657   0.494 -0.4946 -0.1635  0.7946
  625MPD2    C3 9309   1.848   0.544   0.554  0.0717 -0.7044 -0.4265
  625MPD2    C4 9310   1.774   0.423   0.544 -0.0273  0.5424 -0.0749
  625MPD2    C5 9311   1.654   0.421   0.476 -0.0158  0.1193  0.4067
  625MPD2     H 9312   1.840   0.754   0.497  1.0247 -0.9132  0.0628
  625MPD2    H1 9313   1.813   0.327   0.577  0.7343 -0.2949 -3.3372
  625MPD2    H2 9314   1.508   0.531   0.371  0.5727  1.8387 -0.6231
  625MPD2    H3 9315   1.590   0.335   0.466  0.4327  0.0329 -1.6328
  625MPD2     N 9316   1.966   0.554   0.634  0.3274 -0.2111  0.4549
  625MPD2    H5 9317   2.012   0.645   0.639 -0.9461  0.4234  0.5762
  625MPD2    N1 9318   1.616   0.777   0.369 -0.3970 -0.3543 -0.0953
  625MPD2    H7 9319   1.662   0.863   0.393  0.4090 -0.4328 -1.3670
  626TMC3    C1 9320   1.470   0.920   0.268 -0.0504 -0.2988 -0.2784
  626TMC3    C2 9321   1.404   0.953   0.151  0.5749 -0.4501  0.2074
  626TMC3    C3 9322   1.309   1.053   0.152  0.2392 -0.1430  0.3063
  626TMC3    C4 9323   1.451   0.997   0.381 -0.5516 -0.1226  0.2846
  626TMC3    C5 9324   1.360   1.094   0.378  0.1422  0.4215 -0.1860
  626TMC3    C6 9325   1.291   1.123   0.268  0.3099  0.0857  0.3326
  626TMC3     C 9326   1.507   0.778   0.286 -0.3153  0.2094 -0.4894
  626TMC3     O 9327   1.466   0.698   0.200 -0.2805 -0.0188  0.1241
  626TMC3     H 9328   1.398   0.894   0.060  0.6259  0.4367 -0.3726
  626TMC3    H1 9329   1.477   0.949   0.475  2.5129  1.6039  0.3000
  626TMC3    H2 9330   1.219   1.204   0.272  0.3304  0.1468 -0.5316
  626TMC3    C7 9331   1.312   1.148   0.504  0.2456 -0.3342  0.2257
  626TMC3    C8 9332   1.232   1.080   0.032  0.4981  0.7433 -0.2003
  626TMC3    O1 9333   1.390   1.136   0.594 -0.3845  0.1519 -0.2657
  626TMC3    O2 9334   1.264   1.032  17.667  0.5681  0.4534  0.0277
  627MPD2     C 9335   4.459   0.644  14.298  0.2803 -0.2926 -0.0769
  627MPD2    C1 9336   4.525   0.583  14.403 -0.2607 -0.0446 -0.4479
  627MPD2    C2 9337   4.475   0.458  14.440 -0.1353 -0.4617 -1.0074
  627MPD2    C3 9338   4.364   0.400  14.375  0.3389  0.0907 -0.1938
  627MPD2    C4 9339   4.304   0.468  14.279 -0.7280 -0.4118  0.1580
  627MPD2    C5 9340   4.350   0.592  14.240  0.1664  0.3825  0.4741
  627MPD2     H 9341   4.524   0.411  14.524  0.7122  1.2878 -0.5181
  627MPD2    H1 9342   4.209   0.433  14.240  0.0727  0.6143 -2.7398
  627MPD2    H2 9343   4.487   0.743  14.262  2.4930 -0.2571  1.6734
  627MPD2    H3 9344   4.286   0.657  14.181 -1.1988 -1.2420  0.1687
  627MPD2     N 9345   4.325   0.275  14.432 -0.0960  0.0927 -0.4863
  627MPD2    H5 9346   4.363   0.254  14.524 -0.6453 -0.0194 -0.2856
  627MPD2    N1 9347   4.635   0.638  14.470 -0.2377 -0.9561 -0.2932
  627MPD2    H7 9348   4.688   0.595  14.545  1.3174 -0.5768 -1.1576
  628TMC3    C1 9349   0.030   0.807  14.571  0.1349 -0.0934  0.0076
  628TMC3    C2 9350   0.102   0.713  14.635  0.0862 -1.0921  0.1143
  628TMC3    C3 9351   0.196   0.758  14.736 -0.3516 -0.8366 -0.2259
  628TMC3    C4 9352   0.036   0.943  14.603  0.0261  0.1324 -0.7010
  628TMC3    C5 9353   0.125   0.984  14.700 -0.2312  0.0006 -0.5706
  628TMC3    C6 9354   0.209   0.896  14.768  0.3072 -0.2389  0.4743
  628TMC3     C 9355   4.660   0.773  14.475  0.4710  0.1426 -0.2000
  628TMC3     O 9356   4.617   0.863  14.403 -0.2122  0.1558  0.0762
  628TMC3     H 9357   0.115   0.613  14.595  1.6304  0.2219 -2.6900
  628TMC3    H1 9358   4.723   1.010  14.532 -1.0225  0.1880  0.0841
  628TMC3    H2 9359   0.289   0.924  14.835  0.0480  0.6117  0.4287
  628TMC3    C7 9360   0.150   1.131  14.702  0.4785 -0.6209  0.3275
  628TMC3    C8 9361   0.224   0.655  14.834 -0.0259  0.4642 -0.5367
  628TMC3    O1 9362   0.196   1.178  14.805 -0.2129 -0.0730  0.0332
  628TMC3    O2 9363   0.143   0.564  14.837  0.5750 -0.5599 -0.1704
  629MPD2     C 9364   3.164   4.396  16.268  0.3450 -0.2604  0.0058
  629MPD2    C1 9365   3.221   4.296  16.345 -0.0395  0.7269 -0.4851
  629MPD2    C2 9366   3.155   4.173  16.362 -0.3604  0.1154  0.5818
  629MPD2    C3 9367   3.031   4.152  16.305 -0.2309 -0.3440  0.6090
  629MPD2    C4 9368   2.968   4.260  16.242 -0.2046 -0.3126 -0.0509
  629MPD2    C5 9369   3.041   4.374  16.212 -0.8277 -0.0024 -0.6039
  629MPD2     H 9370   3.199   4.086  16.409  1.8237  0.8107 -0.1428
  629MPD2    H1 9371   2.867   4.243  16.205 -1.1792  3.4624  0.8792
  629MPD2    H2 9372   3.225   4.482  16.242  0.0997  0.4321  1.7291
  629MPD2    H3 9373   2.998   4.449  16.148  0.7668  0.4566 -1.1189
  629MPD2     N 9374   2.976   4.023  16.310  0.3960  0.4049 -1.0075
  629MPD2    H5 9375   3.028   3.960  16.371 -0.3928  2.6906  2.0225
  629MPD2    N1 9376   3.345   4.337  16.403 -0.3923  0.0268 -0.3855
  629MPD2    H7 9377   3.390   4.413  16.353 -0.4856 -1.2781 -2.4918
  630TMC3    C1 9378   3.552   4.334  16.508  0.2629 -0.4578  0.0984
  630TMC3    C2 9379   3.615   4.375  16.397  0.3140  0.2082  0.0190
  630TMC3    C3 9380   3.750   4.407  16.408 -0.3943  0.6854  0.1471
  630TMC3    C4 9381   3.614   4.313  16.631  0.0498 -0.1344  0.8145
  630TMC3    C5 9382   3.741   4.360  16.639  0.3705 -0.1409 -0.0376
  630TMC3    C6 9383   3.810   4.404  16.532  0.2518 -0.2835  0.1446
  630TMC3     C 9384   3.414   4.284  16.502 -0.3375 -0.7142 -0.3495
  630TMC3     O 9385   3.376   4.201  16.586 -0.2699 -0.4210 -0.1145
  630TMC3     H 9386   3.576   4.350  16.299  2.6648  2.8808 -1.6002
  630TMC3    H1 9387   3.557   4.299  16.722 -1.6063  1.5082  0.0480
  630TMC3    H2 9388   3.918   4.400  16.531  0.3217  1.8749 -0.8786
  630TMC3    C7 9389   3.805   4.366  16.770 -0.0542 -0.5751  0.4942
  630TMC3    C8 9390   3.811   4.490  16.315 -0.1225  0.0482  0.0584
  630TMC3    O1 9391   3.735   4.333  16.863  0.0692 -0.1488  0.1946
  630TMC3    O2 9392   3.915   4.534  16.362 -0.1433  0.9537  0.0732
  631MPD2     C 9393   1.328   3.960  15.434 -0.0168  0.8367 -0.3990
  631MPD2    C1 9394   1.408   4.059  15.381 -0.3443  0.0063  0.2356
  631MPD2    C2 9395   1.544   4.046  15.397  0.6950  0.4055 -0.2606
  631MPD2    C3 9396   1.596   3.955  15.483 -0.2516 -0.0431 -0.1265
  631MPD2    C4 9397   1.511   3.861  15.539  0.0159 -0.1179  0.5260
  631MPD2    C5 9398   1.377   3.860  15.513  0.0875 -0.6655  0.4454
  631MPD2     H 9399   1.614   4.101  15.334  0.5247 -0.0658 -0.8596
  631MPD2    H1 9400   1.551   3.777  15.596 -2.5417 -1.3432  0.4965
  631MPD2    H2 9401   1.220   3.966  15.428 -0.0465  0.6542 -0.0461
  631MPD2    H3 9402   1.314   3.784  15.557  0.5950 -0.9700  0.6389
  631MPD2     N 9403   1.740   3.965  15.500  0.3097  0.2289 -1.4609
  631MPD2    H5 9404   1.779   4.052  15.466 -0.8404  1.5861  0.6920
  631MPD2    N1 9405   1.343   4.155  15.298 -0.1258 -0.0708 -0.2569
  631MPD2    H7 9406   1.245   4.143  15.273 -0.8702  0.6484  2.2764
  632TMC3    C1 9407   1.324   4.333  15.153  0.2847  0.9254  0.4311
  632TMC3    C2 9408   1.234   4.407  15.231  0.4134  0.6492  0.4385
  632TMC3    C3 9409   1.207   4.533  15.192 -0.0218  0.3662 -0.2249
  632TMC3    C4 9410   1.388   4.388  15.051  0.1084 -0.1750  0.1613
  632TMC3    C5 9411   1.342   4.504  15.005  0.4744  0.3654  0.1459
  632TMC3    C6 9412   1.250   4.580  15.074 -0.0167 -0.6782 -0.4148
  632TMC3     C 9413   1.411   4.245  15.224 -0.2165  0.0791 -0.2637
  632TMC3     O 9414   1.530   4.256  15.197 -0.7964 -0.7735  0.3237
  632TMC3     H 9415   1.196   4.369  15.326 -1.1445  3.5832  0.9649
  632TMC3    H1 9416   1.440   4.320  14.984 -2.1936 -1.5723 -0.2149
  632TMC3    H2 9417   1.212   4.674  15.037 -0.4225 -0.3021  0.9394
  632TMC3    C7 9418   1.394   4.575  14.885 -0.0129  0.1866 -0.3551
  632TMC3    C8 9419   1.180   4.625  15.298 -0.1845  0.6714  0.3743
  632TMC3    O1 9420   1.326   4.656  14.827 -0.2675  0.2800  0.1980
  632TMC3    O2 9421   1.124   4.579  15.396  0.4039 -0.3222 -0.3024
  633MPD2     C 9422   1.482   2.488  17.640 -0.0681 -0.2959  0.5030
  633MPD2    C1 9423   1.436   2.402  17.541 -0.0599 -0.7198 -0.3217
  633MPD2    C2 9424   1.449   2.264  17.566 -0.2114  0.3245  0.3838
  633MPD2    C3 9425   1.515   2.215  17.678  0.0491 -0.0163 -0.5183
  633MPD2    C4 9426   1.584   2.307   0.010  0.2897 -0.1104  0.3886
  633MPD2    C5 9427   1.549   2.437   0.002  0.0263 -0.2900 -0.3958
  633MPD2     H 9428   1.395   2.197  17.500 -1.6075  0.2130  1.6354
  633MPD2    H1 9429   1.645   2.279   0.095  1.1893 -0.1810 -0.2742
  633MPD2    H2 9430   1.468   2.596  17.639 -1.7328 -0.5144 -0.3666
  633MPD2    H3 9431   1.577   2.503   0.084  1.8298 -0.0398 -1.2067
  633MPD2     N 9432   1.533   2.076  17.710  0.0140 -0.1948 -0.3418
  633MPD2    H5 9433   1.601   2.052   0.036 -1.2459  1.1698  1.3087
  633MPD2    N1 9434   1.361   2.435  17.427  0.0107 -0.3539  0.3742
  633MPD2    H7 9435   1.340   2.360  17.363 -0.5666  0.2066 -0.0962
  634TMC3    C1 9436   1.223   2.555  17.278 -0.2079  0.4957  0.2155
  634TMC3    C2 9437   1.197   2.435  17.216  0.2829 -0.5368  0.0965
  634TMC3    C3 9438   1.141   2.444  17.083 -0.1156  0.5864 -0.0016
  634TMC3    C4 9439   1.197   2.671  17.217  0.6533  0.3391 -0.5576
  634TMC3    C5 9440   1.153   2.670  17.087 -0.4424  0.0358 -0.7687
  634TMC3    C6 9441   1.130   2.555  17.017  0.0394  0.2717  0.2224
  634TMC3     C 9442   1.309   2.558  17.395  0.6141  1.0310  0.5309
  634TMC3     O 9443   1.308   2.656  17.457 -0.3789 -0.0464  0.3521
  634TMC3     H 9444   1.214   2.340  17.265 -2.8025 -0.4869  1.2490
  634TMC3    H1 9445   1.221   2.758  17.277  0.1914 -0.0262  0.1492
  634TMC3    H2 9446   1.110   2.557  16.911 -3.9767 -3.8109  0.8972
  634TMC3    C7 9447   1.177   2.784  17.001  0.3372 -0.1346 -0.4712
  634TMC3    C8 9448   1.108   2.311  17.026 -0.1182 -0.0025 -0.7864
  634TMC3    O1 9449   1.189   2.763  16.883  0.5178  0.3133 -0.2212
  634TMC3    O2 9450   1.175   2.209  17.058 -0.9605  0.5049 -0.1949
  635TMC3    C1 9451   1.275   3.930   0.792  0.3181  0.0272  0.0107
  635TMC3    C2 9452   1.183   3.883   0.701  0.7822  0.1582  0.4835
  635TMC3    C3 9453   1.096   3.784   0.750 -0.0248  0.6242  0.3990
  635TMC3    C4 9454   1.284   3.888   0.922  0.2381  0.5064 -0.0407
  635TMC3    C5 9455   1.186   3.798   0.960 -0.4791  0.2006 -0.7501
  635TMC3    C6 9456   1.095   3.738   0.877 -0.7928 -0.2323 -0.1223
  635TMC3     C 9457   1.392   4.006   0.750 -0.1508  0.1349 -0.2275
  635TMC3     O 9458   1.496   4.001   0.817  0.8571 -0.6747  0.0590
  635TMC3     H 9459   1.178   3.917   0.598 -0.5131 -1.6581 -0.0606
  635TMC3    H1 9460   1.352   3.938   0.989  1.0183 -0.7507  0.1200
  635TMC3    H2 9461   1.024   3.664   0.913 -2.3409  1.6001  0.6153
  635TMC3    C7 9462   1.194   3.758   1.099  0.4566 -0.7655 -0.1908
  635TMC3    C8 9463   1.019   3.718   0.644  0.3120  0.4231  0.0894
  635TMC3    O1 9464   1.096   3.724   1.161 -0.2857 -0.3409  0.5018
  635TMC3    O2 9465   1.069   3.721   0.531  0.1014 -0.3539  0.1456
  636MPD2     C 9466   2.803   2.588  15.954 -0.3591  0.2691 -0.8806
  636MPD2    C1 9467   2.823   2.565  16.090  0.2465  0.1437 -0.0603
  636MPD2    C2 9468   2.797   2.442  16.136  0.1448  0.4704  0.3883
  636MPD2    C3 9469   2.769   2.331  16.057  0.5925 -0.2079  0.9360
  636MPD2    C4 9470   2.778   2.350  15.919 -0.5359 -0.1982 -0.4005
  636MPD2    C5 9471   2.791   2.480  15.875  0.6379  0.5487  0.3144
  636MPD2     H 9472   2.795   2.423  16.243 -0.9134  3.6474  0.9501
  636MPD2    H1 9473   2.770   2.276  15.839 -0.6364 -0.0110 -0.5629
  636MPD2    H2 9474   2.807   2.689  15.916 -0.3046  0.5292 -0.1927
  636MPD2    H3 9475   2.801   2.500  15.769 -0.5221 -1.5556 -0.1957
  636MPD2     N 9476   2.741   2.213  16.123  0.2548 -0.2504 -0.0332
  636MPD2    H5 9477   2.747   2.214  16.225 -0.4395 -2.3937  0.0315
  636MPD2    N1 9478   2.851   2.663  16.184  0.3583  0.4337  0.9328
  636MPD2    H7 9479   2.853   2.627  16.279 -0.7157 -3.2735 -0.4665
  637TMC3    C1 9480   2.668   1.996  16.164 -0.4640  0.6138  0.2404
  637TMC3    C2 9481   2.628   2.059  16.276  0.5856  0.5923 -0.3715
  637TMC3    C3 9482   2.679   2.022  16.400  0.3785  0.4468  0.1273
  637TMC3    C4 9483   2.745   1.890  16.172 -0.5656  0.2981  0.3761
  637TMC3    C5 9484   2.785   1.843  16.295 -0.2379  0.2967  0.1401
  637TMC3    C6 9485   2.756   1.908  16.414 -0.3841  0.2958 -0.2010
  637TMC3     C 9486   2.710   2.090  16.066  0.5030  0.2588  0.0330
  637TMC3     O 9487   2.726   2.054  15.949 -0.3995  0.2619 -0.2661
  637TMC3     H 9488   2.570   2.151  16.275 -0.6402 -0.1613  1.9091
  637TMC3    H1 9489   2.770   1.839  16.079  2.1318  0.1419  1.1888
  637TMC3    H2 9490   2.785   1.846  16.499 -0.8180 -2.1552 -1.8248
  637TMC3    C7 9491   2.838   1.707  16.310 -0.4680  0.2534  0.4705
  637TMC3    C8 9492   2.716   2.129  16.486 -0.1775  0.1618  0.5661
  637TMC3    O1 9493   2.784   1.643  16.398  0.4296 -0.0284 -0.3783
  637TMC3    O2 9494   2.691   2.245  16.447  0.2675 -0.1581  0.5589
  638MPD2     C 9495   2.152   1.464  14.799  0.1473  0.0514 -0.1435
  638MPD2    C1 9496   2.104   1.360  14.729  0.2847  0.5965  0.3052
  638MPD2    C2 9497   2.050   1.251  14.800 -0.7574 -0.0494  0.2174
  638MPD2    C3 9498   2.017   1.262  14.933 -0.8185  0.3067  0.3306
  638MPD2    C4 9499   2.058   1.375  15.001  0.0150 -0.5597  0.5689
  638MPD2    C5 9500   2.131   1.466  14.930 -0.2376 -0.4361  0.2621
  638MPD2     H 9501   2.019   1.158  14.753 -0.4643 -1.0351  1.9518
  638MPD2    H1 9502   2.047   1.389  15.108  2.8507 -0.3595  0.8122
  638MPD2    H2 9503   2.205   1.545  14.750  1.6955 -0.3084  0.9609
  638MPD2    H3 9504   2.165   1.549  14.991  0.9777 -0.9702  0.3078
  638MPD2     N 9505   1.959   1.154  15.000 -1.1434  0.1511 -0.2045
  638MPD2    H5 9506   1.952   1.070  14.944  1.9220 -1.1361  1.3421
  638MPD2    N1 9507   2.134   1.355  14.593 -0.1062 -0.1730  0.0002
  638MPD2    H7 9508   2.174   1.442  14.558 -1.6325 -0.2296 -1.8756
  639TMC3    C1 9509   1.941   0.995  15.163 -0.0148 -0.4953 -0.0839
  639TMC3    C2 9510   1.884   0.903  15.078  0.1391 -0.5315  0.4856
  639TMC3    C3 9511   1.907   0.771  15.089 -0.7071 -0.1917  0.4944
  639TMC3    C4 9512   2.028   0.943  15.259  0.8736  0.1801  0.4500
  639TMC3    C5 9513   2.060   0.808  15.259  1.0514  0.4624  0.2861
  639TMC3    C6 9514   1.992   0.714  15.185 -0.1456 -1.0321 -0.7728
  639TMC3     C 9515   1.955   1.136  15.135 -0.7848 -0.5271 -0.6430
  639TMC3     O 9516   1.993   1.209  15.224  0.0278 -0.5257 -0.4464
  639TMC3     H 9517   1.831   0.930  14.988  0.2510  0.0191  0.5852
  639TMC3    H1 9518   2.084   1.005  15.328 -1.5312 -0.1771  2.7071
  639TMC3    H2 9519   2.013   0.607  15.182 -0.2911 -1.0408 -1.5461
  639TMC3    C7 9520   2.160   0.747  15.346  0.2943  0.2843 -0.3922
  639TMC3    C8 9521   1.861   0.683  14.976 -0.7054 -0.3003 -0.1114
  639TMC3    O1 9522   2.127   0.643  15.407 -0.4474  0.0795  0.2513
  639TMC3    O2 9523   1.939   0.600  14.937 -0.4952 -0.2823  0.0578
  640MPD2     C 9524   3.558   0.369   9.424 -0.6217 -0.5281  0.1496
  640MPD2    C1 9525   3.498   0.245   9.445 -0.6131 -0.8119  0.3864
  640MPD2    C2 9526   3.388   0.227   9.524  0.3657 -0.1857  0.2317
  640MPD2    C3 9527   3.360   0.332   9.612  0.1705 -0.0795  0.4735
  640MPD2    C4 9528   3.430   0.446   9.612  0.4310  0.4855 -0.8248
  640MPD2    C5 9529   3.519   0.463   9.509  0.3331  0.0676  1.0051
  640MPD2     H 9530   3.332   0.134   9.530 -1.6020  0.9465 -0.7888
  640MPD2    H1 9531   3.397   0.535   9.665  0.8606 -0.7126  1.4271
  640MPD2    H2 9532   3.636   0.383   9.351  0.7183 -0.5620  1.5804
  640MPD2    H3 9533   3.574   0.557   9.504  1.4912 -0.7467 -2.0104
  640MPD2     N 9534   3.252   0.338   9.706 -0.4808  0.4956 -0.4848
  640MPD2    H5 9535   3.253   0.403   9.784 -1.4410 -0.6139  0.4300
  640MPD2    N1 9536   3.558   0.140   9.357 -0.6108  0.1657  0.0719
  640MPD2    H7 9537   3.630   0.165   9.289 -0.8802 -0.7305 -0.5338
  641TMC3    C1 9538   3.579   4.677   9.250 -0.3714  0.0312  0.3077
  641TMC3    C2 9539   3.650   4.561   9.281  0.2236 -0.3520 -0.2766
  641TMC3    C3 9540   3.739   4.510   9.193 -0.2086  0.0317  0.4237
  641TMC3    C4 9541   3.588   4.734   9.129  0.6165  0.0818 -0.3572
  641TMC3    C5 9542   3.667   4.680   9.035  0.6862 -0.1200  0.3415
  641TMC3    C6 9543   3.742   4.573   9.066 -0.5506  0.1709 -0.7112
  641TMC3     C 9544   3.518   0.006   9.356  0.5288 -0.3158 -0.0802
  641TMC3     O 9545   3.451   4.683   9.442  0.0518  0.0900  0.0388
  641TMC3     H 9546   3.643   4.521   9.381 -2.9346  1.4371  0.2158
  641TMC3    H1 9547   3.512   0.069   9.101  1.0629  0.5655 -0.3179
  641TMC3    H2 9548   3.788   4.516   8.986  1.8634  1.5326 -0.2904
  641TMC3    C7 9549   3.697   0.021   8.914  0.0569 -0.0195  0.1112
  641TMC3    C8 9550   3.826   4.395   9.211  0.1585 -0.1060 -0.5617
  641TMC3    O1 9551   3.770   4.702   8.829  0.2577  0.5705 -0.2061
  641TMC3    O2 9552   3.898   4.363   9.118 -0.3824  0.7628 -0.0454
  642TMC3    C1 9553   3.718   1.057  12.318 -0.2694  0.6951  0.7271
  642TMC3    C2 9554   3.849   1.077  12.343 -1.0594 -0.0780 -0.3379
  642TMC3    C3 9555   3.941   0.984  12.307  0.1808  0.3519  0.0062
  642TMC3    C4 9556   3.678   0.938  12.267  0.5341  0.4805 -0.3215
  642TMC3    C5 9557   3.767   0.840  12.246 -1.6031  0.0552  0.1071
  642TMC3    C6 9558   3.902   0.859  12.264  0.4772 -0.1509 -0.3288
  642TMC3     C 9559   3.625   1.164  12.316 -0.2321  0.4283 -0.5275
  642TMC3     O 9560   3.673   1.278  12.323 -0.0962 -0.2146  0.4722
  642TMC3     H 9561   3.883   1.174  12.376  0.3386 -0.3839 -0.8611
  642TMC3    H1 9562   3.574   0.924  12.237  0.0307  6.3253 -1.3746
  642TMC3    H2 9563   3.969   0.777  12.240  0.0142 -0.5402 -0.2801
  642TMC3    C7 9564   3.720   0.717  12.209 -0.5303 -0.1580 -0.1551
  642TMC3    C8 9565   4.071   0.988  12.375  0.3616  0.1810 -0.0950
  642TMC3    O1 9566   3.789   0.654  12.130  1.0136  0.2643  0.4776
  642TMC3    O2 9567   4.072   1.038  12.485  0.2337 -0.4213 -0.7282
  643TMC3    C1 9568   3.658   0.347   0.323  0.0144  0.5005  0.7257
  643TMC3    C2 9569   3.543   0.283   0.293  0.0512  0.2251  0.2706
  643TMC3    C3 9570   3.545   0.203   0.176 -0.4157 -0.0903 -0.0732
  643TMC3    C4 9571   3.765   0.343   0.242 -0.3244  0.4192  0.9112
  643TMC3    C5 9572   3.775   0.255   0.137  0.0320 -0.5412 -0.0832
  643TMC3    C6 9573   3.663   0.189   0.102  0.5366 -0.3983 -0.3919
  643TMC3     C 9574   3.651   0.468   0.400 -0.1671  0.1623  0.5399
  643TMC3     O 9575   3.543   0.520   0.379 -0.2851 -0.7771  0.6198
  643TMC3     H 9576   3.454   0.296   0.354 -1.7184  1.9482 -2.7046
  643TMC3    H1 9577   3.855   0.399   0.266  0.2168  0.0165 -0.1626
  643TMC3    H2 9578   3.653   0.133   0.009  1.0359 -1.8389  0.4324
  643TMC3    C7 9579   3.865   0.286   0.027 -0.4705 -0.1231 -0.0806
  643TMC3    C8 9580   3.443   0.250   0.089  0.1897  0.7492  0.0871
  643TMC3    O1 9581   3.904   0.402   0.020 -0.0732  0.1172  0.4685
  643TMC3    O2 9582   3.405   0.186  17.734  0.0489  0.0837 -0.4205
  644MPD2     C 9583   3.858   0.956   8.773 -0.2247  0.5408 -0.3238
  644MPD2    C1 9584   3.837   0.877   8.881  0.3024  0.1771 -0.5074
  644MPD2    C2 9585   3.818   0.956   8.997 -0.9770 -0.4249 -0.1405
  644MPD2    C3 9586   3.810   1.088   9.003 -0.4820 -0.3396 -0.1113
  644MPD2    C4 9587   3.825   1.158   8.885  0.1412 -0.0638 -0.4407
  644MPD2    C5 9588   3.857   1.088   8.775  0.4361 -0.2899 -0.0977
  644MPD2     H 9589   3.788   0.903   9.087  1.6733 -0.8830  0.4730
  644MPD2    H1 9590   3.822   1.266   8.872 -1.3791 -0.1020 -0.4091
  644MPD2    H2 9591   3.887   0.911   8.678  1.6970  0.2073  0.4243
  644MPD2    H3 9592   3.870   1.134   8.678  0.5785  0.1034  0.1082
  644MPD2     N 9593   3.793   1.151   9.132 -0.2407 -0.0528 -0.3757
  644MPD2    H5 9594   3.770   1.081   9.202  0.8902  1.3114  1.3574
  644MPD2    N1 9595   3.848   0.739   8.864  0.2601  0.4221 -0.2569
  644MPD2    H7 9596   3.853   0.701   8.770  1.0419  1.7103 -0.7273
  645TMC3    C1 9597   3.805   1.312   9.300  0.0101 -0.3485 -0.1235
  645TMC3    C2 9598   3.893   1.401   9.337  0.5094  0.3360 -0.4226
  645TMC3    C3 9599   3.875   1.454   9.466  0.3243 -0.1336 -1.0555
  645TMC3    C4 9600   3.704   1.265   9.379  0.1529  0.3386 -0.0693
  645TMC3    C5 9601   3.699   1.303   9.511  0.2318  0.0111 -0.3408
  645TMC3    C6 9602   3.779   1.404   9.551 -0.0398  0.3044 -0.3826
  645TMC3     C 9603   3.822   1.281   9.159 -0.4351  0.0903  0.4497
  645TMC3     O 9604   3.864   1.367   9.080 -0.4441  0.0422 -0.5140
  645TMC3     H 9605   3.970   1.441   9.272  3.5179 -0.8326  2.4722
  645TMC3    H1 9606   3.629   1.194   9.345 -0.7018  1.6826 -0.9795
  645TMC3    H2 9607   3.784   1.447   9.651  0.9465 -2.0397  0.5890
  645TMC3    C7 9608   3.615   1.233   9.601  0.2947 -0.1364  0.1467
  645TMC3    C8 9609   3.988   1.517   9.532  0.2584  0.3494  0.3770
  645TMC3    O1 9610   3.615   1.282   9.714 -0.1470 -0.0216  0.1293
  645TMC3    O2 9611   4.000   1.507   9.654  0.3729  0.1707  0.2821
  646MPD2     C 9612   2.339   4.558  14.697  0.1885 -0.1688  0.5110
  646MPD2    C1 9613   2.238   4.599  14.780 -0.0739 -0.4261 -0.9124
  646MPD2    C2 9614   2.134   4.676  14.729  0.4998  0.6457  0.5621
  646MPD2    C3 9615   2.132   4.704  14.594 -0.9870  0.0235 -0.0765
  646MPD2    C4 9616   2.232   4.658  14.511  0.0069  0.4384  0.0105
  646MPD2    C5 9617   2.333   4.578  14.560  0.4336  0.3531  0.2118
  646MPD2     H 9618   2.068   4.723  14.801  0.6717  0.4820  0.8289
  646MPD2    H1 9619   2.236   4.665  14.403  0.6682  0.9270  0.0702
  646MPD2    H2 9620   2.419   4.495  14.734 -1.3979 -2.5082  0.0147
  646MPD2    H3 9621   2.407   4.529  14.498 -0.4754  0.9512 -1.3517
  646MPD2     N 9622   2.028   0.055  14.543  0.1275  0.2874 -0.2789
  646MPD2    H5 9623   1.963   0.090  14.613 -0.6515 -1.0152 -0.3644
  646MPD2    N1 9624   2.264   4.568  14.921  0.2526 -0.1158  0.6494
  646MPD2    H7 9625   2.347   4.511  14.927  0.2650 -0.3357 -1.3181
  647TMC3    C1 9626   2.242   4.548  15.141  0.1585 -0.1076  0.1910
  647TMC3    C2 9627   2.198   4.432  15.191  0.2090 -0.3297  0.0338
  647TMC3    C3 9628   2.275   4.387  15.302 -0.0451  0.7444  0.4032
  647TMC3    C4 9629   2.364   4.605  15.175 -0.6024  0.2326 -0.0240
  647TMC3    C5 9630   2.432   4.552  15.282 -0.1887 -0.1876 -0.9215
  647TMC3    C6 9631   2.387   4.445  15.349  0.1501 -0.0910  0.3139
  647TMC3     C 9632   2.179   4.593  15.029  0.2162  0.4417 -0.1503
  647TMC3     O 9633   2.061   4.624  15.037  0.6626  0.1412  0.3267
  647TMC3     H 9634   2.113   4.378  15.150  0.6198  1.4359 -3.1698
  647TMC3    H1 9635   2.397   4.696  15.126 -1.1942  1.1504  1.2865
  647TMC3    H2 9636   2.442   4.402  15.432  0.7986  0.9455  0.4249
  647TMC3    C7 9637   2.575   4.547  15.275  0.5446 -0.2289  0.1471
  647TMC3    C8 9638   2.260   4.246  15.345 -0.1066 -0.4273 -0.3879
  647TMC3    O1 9639   2.629   4.438  15.289  0.0904  0.5070  1.0268
  647TMC3    O2 9640   2.294   4.226  15.463  0.1275  0.3514 -0.1671
  648TMC3    C1 9641   1.860   2.217  16.109  0.7068 -0.0336  0.9285
  648TMC3    C2 9642   1.884   2.121  16.014  0.1076  0.7608 -0.0536
  648TMC3    C3 9643   1.885   2.170  15.886  0.2587 -0.3113  0.9082
  648TMC3    C4 9644   1.841   2.351  16.086 -0.1047  0.5689 -0.1929
  648TMC3    C5 9645   1.833   2.388  15.957  0.2594 -0.3954  0.3317
  648TMC3    C6 9646   1.853   2.302  15.850 -1.0183 -0.6157 -0.1152
  648TMC3     C 9647   1.863   2.171  16.248 -0.6556 -0.1778  0.1090
  648TMC3     O 9648   1.907   2.059  16.272 -0.0368  0.3466  0.0278
  648TMC3     H 9649   1.889   2.014  16.033 -2.3797  1.0794  2.3734
  648TMC3    H1 9650   1.821   2.424  16.163  0.2892 -2.1481  2.5028
  648TMC3    H2 9651   1.860   2.342  15.750 -1.4783 -3.2600 -1.2037
  648TMC3    C7 9652   1.803   2.525  15.925  0.1315 -0.0477 -0.3965
  648TMC3    C8 9653   1.920   2.069  15.788 -0.2510  0.0220 -0.2063
  648TMC3    O1 9654   1.858   2.560  15.820  0.6086  0.5261 -0.5430
  648TMC3    O2 9655   1.984   1.971  15.825 -0.0216 -0.0569 -0.5312
  649TMC3    C1 9656   0.848   3.051  12.930  0.4046  0.5007 -0.7732
  649TMC3    C2 9657   0.955   2.962  12.918 -0.2369 -0.1746 -0.2479
  649TMC3    C3 9658   0.981   2.871  13.025  0.2209 -0.4503 -0.2195
  649TMC3    C4 9659   0.776   3.051  13.046 -0.1327  0.4773 -0.5822
  649TMC3    C5 9660   0.808   2.955  13.144  0.0044 -0.1807  1.3075
  649TMC3    C6 9661   0.906   2.855  13.133 -0.5930  0.1486  0.7916
  649TMC3     C 9662   0.795   3.139  12.823 -1.4002 -0.5761 -0.3876
  649TMC3     O 9663   0.695   3.210  12.856 -0.1508 -0.3429  0.4436
  649TMC3     H 9664   1.018   2.961  12.830 -1.0343 -1.0705 -0.8106
  649TMC3    H1 9665   0.691   3.115  13.066 -0.7127 -0.4698 -0.0267
  649TMC3    H2 9666   0.931   2.791  13.217 -2.3546 -1.3637  0.1642
  649TMC3    C7 9667   0.713   2.944  13.252 -0.4847 -0.2384 -0.4862
  649TMC3    C8 9668   1.110   2.802  13.025  0.0764 -0.1888  0.8465
  649TMC3    O1 9669   0.607   3.005  13.249  0.3397 -0.4287  0.3907
  649TMC3    O2 9670   1.125   2.705  13.101  0.3407 -0.0409  0.1369
  650TMC3    C1 9671   3.105   4.662  12.427  0.8245 -0.0805  0.0272
  650TMC3    C2 9672   3.031   0.030  12.460 -0.4868  1.1003  0.4134
  650TMC3    C3 9673   2.956   0.085  12.358 -0.3228 -0.0365  0.2331
  650TMC3    C4 9674   3.121   4.623  12.295 -0.1236 -0.4273  0.4460
  650TMC3    C5 9675   3.064   4.695  12.197 -0.6297 -0.1458 -0.7205
  650TMC3    C6 9676   2.979   0.056  12.227  0.0682  0.2719 -0.1802
  650TMC3     C 9677   3.136   4.568  12.536 -0.2276  0.2117  0.3660
  650TMC3     O 9678   3.074   4.591  12.640  0.2321  0.1450  0.2857
  650TMC3     H 9679   3.032   0.066  12.562 -1.9457 -0.0374  0.8372
  650TMC3    H1 9680   3.183   4.537  12.275  1.4084  0.3213  1.9679
  650TMC3    H2 9681   2.919   0.107  12.152  1.4795  0.9043 -0.8912
  650TMC3    C7 9682   3.091   4.650  12.059 -0.2691  0.3136  0.0670
  650TMC3    C8 9683   2.895   0.210  12.390 -0.3849  0.7248 -0.2055
  650TMC3    O1 9684   3.105   4.525  12.046 -0.7385  0.3258  0.3682
  650TMC3    O2 9685   2.899   0.299  12.301  0.1451  0.0483 -0.0681
  651MPD2     C 9686   2.588   1.688  10.229  0.1035 -1.2337  0.5625
  651MPD2    C1 9687   2.613   1.821  10.239 -0.3931  0.2622 -0.5469
  651MPD2    C2 9688   2.721   1.871  10.170 -0.1100  0.4097  0.5202
  651MPD2    C3 9689   2.807   1.785  10.099 -0.6198 -0.7901 -0.1295
  651MPD2    C4 9690   2.776   1.655  10.086 -0.4484  0.0616 -0.4035
  651MPD2    C5 9691   2.666   1.607  10.150 -0.2469 -0.2761 -0.1786
  651MPD2     H 9692   2.751   1.975  10.180  0.7106  0.2250  0.0265
  651MPD2    H1 9693   2.843   1.588  10.033  1.1174  1.0740  0.2857
  651MPD2    H2 9694   2.503   1.645  10.280 -1.3468 -0.3070 -1.0840
  651MPD2    H3 9695   2.641   1.502  10.141  0.5751 -0.4097 -0.9653
  651MPD2     N 9696   2.916   1.845  10.032  0.1224 -0.1470  0.7332
  651MPD2    H5 9697   2.922   1.947  10.032 -2.0125 -0.0121 -2.6351
  651MPD2    N1 9698   2.532   1.904  10.320  0.8320  0.2145 -0.5419
  651MPD2    H7 9699   2.540   2.005  10.313 -0.8925  0.3807 -0.1091
  652TMC3    C1 9700   3.333   1.928   9.856  0.6298  0.1112 -0.4534
  652TMC3    C2 9701   3.240   1.841   9.901 -0.2223  0.3222  0.2289
  652TMC3    C3 9702   3.112   1.878   9.904 -0.2453 -0.0061  0.0288
  652TMC3    C4 9703   3.294   2.054   9.812 -0.3325 -0.5139 -0.0084
  652TMC3    C5 9704   3.164   2.076   9.803  0.2868  0.0378  0.1976
  652TMC3    C6 9705   3.070   1.992   9.850  0.4066  0.6472  0.2402
  652TMC3     C 9706   3.465   1.918   9.918 -0.2325 -0.8518  0.4294
  652TMC3     O 9707   3.473   1.869  10.033  0.6440  0.0323 -0.9630
  652TMC3     H 9708   3.273   1.750   9.949 -0.4156  0.1849  0.1026
  652TMC3    H1 9709   3.370   2.125   9.780  0.5864 -1.8738 -0.8113
  652TMC3    H2 9710   2.964   2.013   9.845  0.2069 -0.9044 -1.8740
  652TMC3    C7 9711   3.122   2.210   9.763  0.5258 -0.3759  0.1127
  652TMC3    C8 9712   3.025   1.778   9.972 -0.2020 -0.4391  0.4633
  652TMC3    O1 9713   3.016   2.216   9.703  0.2128 -0.0189 -1.1580
  652TMC3    O2 9714   3.056   1.659   9.980  0.1302  0.3269 -0.0102
  653MPD2     C 9715   1.070   2.369  17.616 -0.0202 -0.5032  0.4616
  653MPD2    C1 9716   0.999   2.481  17.569 -0.0223 -0.2740 -0.1921
  653MPD2    C2 9717   0.941   2.471  17.444 -0.1896  0.2165 -0.0596
  653MPD2    C3 9718   0.938   2.355  17.370  0.0260  0.5056 -0.2866
  653MPD2    C4 9719   1.016   2.253  17.413  0.0244 -0.2125 -0.2061
  653MPD2    C5 9720   1.083   2.258  17.530  0.1069  0.1538 -0.4394
  653MPD2     H 9721   0.884   2.559  17.416 -1.4752 -0.3859  0.6731
  653MPD2    H1 9722   1.024   2.161  17.356  2.2902 -1.4933  2.1482
  653MPD2    H2 9723   1.115   2.369  17.715  1.1632  0.4956 -0.0769
  653MPD2    H3 9724   1.137   2.172  17.569  1.8550  1.3814 -0.1747
  653MPD2     N 9725   0.849   2.354  17.257  0.2946 -0.1589 -0.0354
  653MPD2    H5 9726   0.806   2.442  17.229  0.1686 -1.0559 -2.6491
  653MPD2    N1 9727   0.984   2.603  17.648 -0.6711 -0.0151 -0.0718
  653MPD2    H7 9728   0.940   2.684  17.606  1.2501  1.5458  0.9300
  654TMC3    C1 9729   0.718   2.242  17.097  0.2076 -0.4084  0.1184
  654TMC3    C2 9730   0.628   2.346  17.093  0.2797  0.0285  0.1787
  654TMC3    C3 9731   0.547   2.354  16.983  0.3560  0.0182 -0.2512
  654TMC3    C4 9732   0.709   2.136  17.015 -0.3917 -0.0287 -0.2367
  654TMC3    C5 9733   0.608   2.145  16.921 -0.3075 -0.3170 -0.1825
  654TMC3    C6 9734   0.535   2.256  16.895  0.5394  0.2499 -0.3813
  654TMC3     C 9735   0.817   2.232  17.198  0.3592 -0.0193  0.0020
  654TMC3     O 9736   0.862   2.118  17.210  0.0194  0.1268  0.2835
  654TMC3     H 9737   0.615   2.428  17.162 -2.6343 -0.7130  0.4952
  654TMC3    H1 9738   0.782   2.056  17.021  0.2219  0.6579  1.4893
  654TMC3    H2 9739   0.455   2.260  16.822 -1.3081 -0.3791  1.6133
  654TMC3    C7 9740   0.605   2.038  16.830 -0.0546  0.1148  0.5526
  654TMC3    C8 9741   0.430   2.443  16.979  0.9824 -0.7580  0.1368
  654TMC3    O1 9742   0.548   2.060  16.725  0.6411  0.1527 -0.3727
  654TMC3    O2 9743   0.325   2.404  16.930 -0.7276  0.1286  0.4117
  655MPD2     C 9744   2.229   2.247  15.919  0.5557 -0.2341  0.4648
  655MPD2    C1 9745   2.202   2.371  15.852 -0.6491 -0.2115  0.1625
  655MPD2    C2 9746   2.185   2.367  15.714 -0.5805 -0.0794  0.7503
  655MPD2    C3 9747   2.214   2.249  15.645 -0.1785 -0.0930  0.1368
  655MPD2    C4 9748   2.255   2.134  15.712 -0.1084  0.1535 -0.0447
  655MPD2    C5 9749   2.256   2.134  15.848 -0.0384 -0.3827 -0.1247
  655MPD2     H 9750   2.150   2.453  15.658 -1.4906 -2.1068 -1.7975
  655MPD2    H1 9751   2.276   2.036  15.672  0.4358 -0.3488  1.4841
  655MPD2    H2 9752   2.233   2.242  16.028  2.0782 -0.7310  0.3889
  655MPD2    H3 9753   2.269   2.041  15.902  0.0330 -0.4244 -0.2137
  655MPD2     N 9754   2.217   2.251  15.505  0.0117  0.3299 -0.3505
  655MPD2    H5 9755   2.187   2.332  15.453  1.4763 -0.6924 -2.7722
  655MPD2    N1 9756   2.168   2.495  15.915  0.5309  0.3417  0.1011
  655MPD2    H7 9757   2.161   2.573  15.850  0.4159  2.4991  2.7157
  656TMC3    C1 9758   2.106   2.657  16.071  0.8095  0.0245 -0.4405
  656TMC3    C2 9759   2.052   2.669  16.198  0.1493  0.3237 -0.7480
  656TMC3    C3 9760   1.993   2.789  16.229 -0.7953 -0.0288  0.7341
  656TMC3    C4 9761   2.100   2.747  15.976  0.3600 -0.1561  0.0150
  656TMC3    C5 9762   2.015   2.850  16.000  0.4286  0.5540  0.0120
  656TMC3    C6 9763   1.969   2.881  16.127 -0.2464  0.5656  0.9322
  656TMC3     C 9764   2.149   2.518  16.048 -0.4606  0.3384  0.2239
  656TMC3     O 9765   2.176   2.457  16.150  0.3055 -0.3829  0.2893
  656TMC3     H 9766   2.035   2.587  16.267  3.1186 -0.2062 -0.6621
  656TMC3    H1 9767   2.130   2.734  15.872 -0.9793 -0.8174 -0.2844
  656TMC3    H2 9768   1.889   2.953  16.143 -1.2466 -0.2021 -0.5823
  656TMC3    C7 9769   1.989   2.946  15.891  0.4745  0.4785 -0.1480
  656TMC3    C8 9770   1.886   2.777  16.327 -0.1330  0.6027 -0.5504
  656TMC3    O1 9771   2.059   2.940  15.790  0.0306  1.0515 -0.2811
  656TMC3    O2 9772   1.845   2.665  16.359  0.1649 -0.7741  0.1464
  657TMC3    C1 9773   0.997   1.653  15.001  0.2196 -0.1901 -0.2120
  657TMC3    C2 9774   0.977   1.726  15.120 -0.6673  0.4346 -0.1815
  657TMC3    C3 9775   0.940   1.859  15.108  0.7953 -0.0385  0.0769
  657TMC3    C4 9776   0.964   1.706  14.882 -0.0973  0.3064 -0.0036
  657TMC3    C5 9777   0.926   1.834  14.874 -0.2088 -0.3846  0.1428
  657TMC3    C6 9778   0.916   1.916  14.985 -0.0414  1.0449 -0.6220
  657TMC3     C 9779   1.000   1.511  15.021 -0.5522  0.0263  0.5260
  657TMC3     O 9780   0.950   1.446  14.930 -0.4109  0.5294  0.5394
  657TMC3     H 9781   0.974   1.673  15.215  0.1371  0.8367  0.0692
  657TMC3    H1 9782   0.966   1.644  14.794  1.1634  1.6902 -0.9395
  657TMC3    H2 9783   0.872   2.015  14.974 -2.0569  0.3177  0.7989
  657TMC3    C7 9784   0.846   1.864  14.757  0.4324 -0.1543 -0.1917
  657TMC3    C8 9785   0.930   1.944  15.225  0.7156  0.2883 -0.4077
  657TMC3    O1 9786   0.768   1.779  14.716  0.0497 -0.5027 -0.4060
  657TMC3    O2 9787   0.864   2.045  15.216 -0.0861  0.4457  0.4663
  658MPD2     C 9788   2.754   2.140  14.956  0.1631 -0.4750  0.0450
  658MPD2    C1 9789   2.632   2.153  14.909 -0.4722  0.1355  0.1974
  658MPD2    C2 9790   2.629   2.194  14.780 -0.6618  0.6539  0.6808
  658MPD2    C3 9791   2.731   2.215  14.692  0.0699  0.2745 -0.2924
  658MPD2    C4 9792   2.858   2.197  14.742 -0.5685  0.3402  0.0005
  658MPD2    C5 9793   2.869   2.142  14.870 -0.2629  0.2136 -0.7341
  658MPD2     H 9794   2.533   2.211  14.732 -1.0584 -1.5949  0.6707
  658MPD2    H1 9795   2.946   2.188  14.678  0.3987  1.1896  1.1953
  658MPD2    H2 9796   2.770   2.126  15.063 -1.4686 -2.8785 -0.0455
  658MPD2    H3 9797   2.967   2.124  14.911 -0.5229  0.7435  0.1147
  658MPD2     N 9798   2.697   2.250  14.560 -0.3656  0.0075 -0.0617
  658MPD2    H5 9799   2.599   2.269  14.543 -0.1041  1.6470  0.3046
  658MPD2    N1 9800   2.522   2.139  14.997 -0.1681 -0.2611 -0.0617
  658MPD2    H7 9801   2.528   2.105  15.092  1.8915 -0.1832 -0.1795
  659TMC3    C1 9802   2.295   2.167  15.062  1.2243  0.3821  0.1114
  659TMC3    C2 9803   2.324   2.135  15.196  0.2846 -0.1313 -0.4543
  659TMC3    C3 9804   2.230   2.178  15.290  0.1311  0.3843  0.1245
  659TMC3    C4 9805   2.179   2.226  15.029  0.3002 -0.4734 -0.0909
  659TMC3    C5 9806   2.082   2.250  15.125  0.0897  0.5515 -0.3453
  659TMC3    C6 9807   2.108   2.234  15.260  0.4710 -0.5516  0.1828
  659TMC3     C 9808   2.394   2.157  14.955  0.6091  0.4586  0.6065
  659TMC3     O 9809   2.350   2.170  14.841 -0.2476  0.5233 -0.1387
  659TMC3     H 9810   2.421   2.098  15.228  0.1262 -1.1053 -1.1258
  659TMC3    H1 9811   2.161   2.246  14.924 -0.6483 -2.3162 -0.2885
  659TMC3    H2 9812   2.025   2.241  15.330  0.9562 -0.8976  0.7965
  659TMC3    C7 9813   1.943   2.256  15.084 -0.3100 -0.5421 -0.1586
  659TMC3    C8 9814   2.269   2.152  15.426 -0.0934  0.6937  0.2551
  659TMC3    O1 9815   1.876   2.286  15.181 -0.2692 -0.4990 -0.3595
  659TMC3    O2 9816   2.352   2.060  15.445  0.4165  0.7908 -0.3194
  660MPD2     C 9817   0.523   0.953  12.723  0.9101  0.2382 -0.8164
  660MPD2    C1 9818   0.400   0.932  12.658  0.3128  0.0937  0.6604
  660MPD2    C2 9819   0.339   0.816  12.695 -0.1980 -1.1276  0.2404
  660MPD2    C3 9820   0.379   0.742  12.808  0.4749 -0.2339 -0.3377
  660MPD2    C4 9821   0.496   0.774  12.877  0.5597 -0.1073 -0.3859
  660MPD2    C5 9822   0.560   0.887  12.836  0.2280  0.2523 -0.4822
  660MPD2     H 9823   0.240   0.791  12.659  0.0812 -1.4344 -0.3184
  660MPD2    H1 9824   0.546   0.736  12.965  0.0950  0.3457  0.0743
  660MPD2    H2 9825   0.583   1.039  12.696  1.4302 -0.3610 -1.5552
  660MPD2    H3 9826   0.645   0.923  12.892  0.3595  0.6919 -0.9746
  660MPD2     N 9827   0.309   0.634  12.857  0.0674 -0.4057 -0.1129
  660MPD2    H5 9828   0.334   0.590  12.945  0.1105  0.3025  0.2306
  660MPD2    N1 9829   0.347   1.023  12.562 -0.5347 -0.5375 -0.5735
  660MPD2    H7 9830   0.409   1.096  12.529  0.2212 -0.0079  2.0791
  661TMC3    C1 9831   0.173   1.125  12.431  0.5395  0.0039  0.3840
  661TMC3    C2 9832   0.253   1.157  12.320  0.4207  0.3081  0.0020
  661TMC3    C3 9833   0.193   1.214  12.212  1.2081 -0.3083 -0.2683
  661TMC3    C4 9834   0.038   1.145  12.416 -0.4819 -0.4803 -0.0276
  661TMC3    C5 9835   4.725   1.186  12.298 -0.6005  0.4295  0.1368
  661TMC3    C6 9836   0.062   1.234  12.198  0.1841 -0.5692 -0.5880
  661TMC3     C 9837   0.216   1.017  12.515  0.9638  0.2873 -0.4410
  661TMC3     O 9838   0.129   0.938  12.548  0.8314 -0.4119  0.7208
  661TMC3     H 9839   0.360   1.141  12.322  0.1112 -1.9889 -1.0336
  661TMC3    H1 9840   4.707   1.118  12.496 -2.5833  0.3835 -1.5117
  661TMC3    H2 9841   0.015   1.268  12.106  3.3175 -0.3126 -2.0984
  661TMC3    C7 9842   4.583   1.223  12.302 -0.2051  0.0520 -0.3501
  661TMC3    C8 9843   0.283   1.276  12.122 -0.2038 -0.4139 -0.1029
  661TMC3    O1 9844   4.537   1.242  12.411  0.5835 -0.3392 -0.1798
  661TMC3    O2 9845   0.233   1.292  12.010  0.0933 -0.2203  0.1676
  662MPD2     C 9846   0.704   1.270  16.547  0.1424  0.1852 -0.5899
  662MPD2    C1 9847   0.656   1.219  16.662 -0.2669 -0.1950  0.4922
  662MPD2    C2 9848   0.560   1.283  16.737 -0.2282  0.1451 -0.1150
  662MPD2    C3 9849   0.528   1.410  16.705  0.6155 -0.8446 -0.7029
  662MPD2    C4 9850   0.567   1.453  16.584  0.4941  0.6276 -0.3883
  662MPD2    C5 9851   0.661   1.391  16.504  0.7506  0.7801  0.2685
  662MPD2     H 9852   0.528   1.243  16.832 -0.8319  2.7651  0.8020
  662MPD2    H1 9853   0.525   1.544  16.541  1.7405  0.4522 -1.9911
  662MPD2    H2 9854   0.786   1.228  16.491  0.9575 -0.4878  1.1209
  662MPD2    H3 9855   0.712   1.442  16.423 -0.4640  1.5509 -0.0147
  662MPD2     N 9856   0.441   1.494  16.781  0.0765 -0.0096  0.3650
  662MPD2    H5 9857   0.403   1.580  16.742 -3.5349 -2.5646 -1.7514
  662MPD2    N1 9858   0.707   1.093  16.706 -0.0361  0.3690 -0.2689
  662MPD2    H7 9859   0.648   1.055  16.779  0.8242  1.0485  0.7698
  663TMC3    C1 9860   0.830   0.894  16.724  0.2246  0.2920 -0.3285
  663TMC3    C2 9861   0.904   0.854  16.837 -0.1194 -0.4731 -0.5252
  663TMC3    C3 9862   0.875   0.741  16.916  0.8319 -0.0241  0.7958
  663TMC3    C4 9863   0.724   0.816  16.689  0.4781 -0.6904  0.0714
  663TMC3    C5 9864   0.700   0.707  16.770 -0.4441 -0.0413  0.4528
  663TMC3    C6 9865   0.770   0.663  16.882 -0.1088 -0.3966  0.5185
  663TMC3     C 9866   0.831   1.030  16.683 -0.4354 -0.1192 -0.6109
  663TMC3     O 9867   0.937   1.075  16.650  0.0065  0.8480 -0.2565
  663TMC3     H 9868   0.966   0.932  16.880 -0.1072 -0.6426 -0.2346
  663TMC3    H1 9869   0.657   0.860  16.616  1.6092  0.3516 -0.3350
  663TMC3    H2 9870   0.722   0.593  16.949 -1.6895 -0.9532 -1.1631
  663TMC3    C7 9871   0.604   0.621  16.704  0.2596 -0.6423 -0.2149
  663TMC3    C8 9872   0.894   0.782  17.052  0.3780  0.2177  0.2791
  663TMC3    O1 9873   0.539   0.665  16.614 -0.6998  0.5321  0.1666
  663TMC3    O2 9874   1.010   0.763  17.095  0.4128  0.4853 -0.6611
  664MPD2     C 9875   3.522   3.752  17.582 -0.4830 -0.0764  0.5146
  664MPD2    C1 9876   3.540   3.861  17.663  0.2025  0.8892  0.9966
  664MPD2    C2 9877   3.459   3.875   0.036  0.4211  0.0265  0.0012
  664MPD2    C3 9878   3.377   3.769   0.069 -0.0698 -0.5681 -0.2427
  664MPD2    C4 9879   3.357   3.658  17.730 -0.2211 -0.1371  0.1146
  664MPD2    C5 9880   3.424   3.654  17.609 -0.4091  0.2314  0.7718
  664MPD2     H 9881   3.478   3.957   0.105 -1.0725 -0.3866  0.9060
  664MPD2    H1 9882   3.298   3.573   0.017 -0.3417  0.7879  2.3745
  664MPD2    H2 9883   3.575   3.743  17.488  0.2585 -1.0016  1.0259
  664MPD2    H3 9884   3.412   3.566  17.546  1.8299  0.3289  0.2032
  664MPD2     N 9885   3.318   3.778   0.197  0.7138 -0.0017 -0.0885
  664MPD2    H5 9886   3.338   3.868   0.240  0.1358 -0.7758  1.8134
  664MPD2    N1 9887   3.618   3.969  17.620 -1.1193 -0.0407 -0.2915
  664MPD2    H7 9888   3.621   4.053  17.677 -2.7329  0.2673 -0.6597
  665TMC3    C1 9889   3.146   3.745   0.362 -0.2530 -0.5197  0.4857
  665TMC3    C2 9890   3.082   3.666   0.452  0.6473 -0.1875  0.1120
  665TMC3    C3 9891   2.968   3.712   0.508  0.0812  0.5684  0.2279
  665TMC3    C4 9892   3.104   3.874   0.336 -0.3234  0.4726  0.0520
  665TMC3    C5 9893   2.990   3.914   0.396  0.6886  0.1208 -0.2222
  665TMC3    C6 9894   2.919   3.836   0.478  0.2467  0.0214  0.2072
  665TMC3     C 9895   3.241   3.688   0.269 -0.6786 -1.2218 -0.1971
  665TMC3     O 9896   3.247   3.563   0.256 -0.0267 -0.4636 -0.1917
  665TMC3     H 9897   3.121   3.568   0.474 -1.6755 -1.0680  0.3844
  665TMC3    H1 9898   3.148   3.935   0.258  1.3461 -2.1609 -1.0940
  665TMC3    H2 9899   2.828   3.872   0.525  1.3937  0.0917  2.3863
  665TMC3    C7 9900   2.956   4.051   0.395  0.0108  0.6684 -0.3619
  665TMC3    C8 9901   2.947   3.683   0.647 -0.1674  0.2707 -0.3821
  665TMC3    O1 9902   2.839   4.083   0.407  0.0830 -0.5873  0.0633
  665TMC3    O2 9903   2.897   3.773   0.714 -0.5878 -0.5564  0.2434
  666TMC3    C1 9904   3.340   3.942   9.412 -0.6893  0.1844 -0.5003
  666TMC3    C2 9905   3.376   3.826   9.475 -0.2361 -0.2393  0.0108
  666TMC3    C3 9906   3.396   3.828   9.609 -0.8332 -0.5945  0.0379
  666TMC3    C4 9907   3.299   4.050   9.489 -0.0564  0.2069  0.1136
  666TMC3    C5 9908   3.304   4.041   9.630 -0.4578 -0.2995  0.2840
  666TMC3    C6 9909   3.370   3.934   9.692 -0.4711  0.1234  0.0376
  666TMC3     C 9910   3.296   3.940   9.269  0.5619  0.4347  0.2051
  666TMC3     O 9911   3.302   4.050   9.219  1.0412 -1.0756  0.5230
  666TMC3     H 9912   3.428   3.751   9.417  0.4611  1.2142 -1.2457
  666TMC3    H1 9913   3.248   4.133   9.442 -0.5198 -0.3686 -0.4082
  666TMC3    H2 9914   3.357   3.921   9.799  1.5020 -0.3787  0.2090
  666TMC3    C7 9915   3.209   4.120   9.704 -0.4733 -0.3979  0.8697
  666TMC3    C8 9916   3.449   3.709   9.667  0.5963 -0.2127 -0.2637
  666TMC3    O1 9917   3.114   4.167   9.644  0.3297  0.2080  0.1078
  666TMC3    O2 9918   3.445   3.602   9.609  0.1144 -0.2914  0.0494
  667MPD2     C 9919   4.307   3.588  14.816  0.1834  0.3380 -0.3140
  667MPD2    C1 9920   4.192   3.642  14.868 -0.2474 -0.2586  0.1698
  667MPD2    C2 9921   4.081   3.568  14.867 -0.0965 -0.0495  0.2533
  667MPD2    C3 9922   4.069   3.437  14.833  0.8813  0.2854  0.1756
  667MPD2    C4 9923   4.186   3.390  14.777  0.2817  0.8470 -0.0712
  667MPD2    C5 9924   4.302   3.461  14.783 -0.2950  0.5756 -0.6379
  667MPD2     H 9925   3.992   3.621  14.902 -2.0434 -2.3393 -1.3067
  667MPD2    H1 9926   4.188   3.295  14.726  0.0830 -0.0060  1.5050
  667MPD2    H2 9927   4.408   3.628  14.821 -0.4701  2.2222 -1.9886
  667MPD2    H3 9928   4.397   3.429  14.743 -1.3945 -1.2469 -1.8022
  667MPD2     N 9929   3.950   3.358  14.840  0.0472  0.4826  0.4874
  667MPD2    H5 9930   3.959   3.272  14.787  2.7258 -0.4089  2.3681
  667MPD2    N1 9931   4.183   3.776  14.922  0.3097 -0.8886  0.0019
  667MPD2    H7 9932   4.098   3.812  14.964  0.0666 -0.0405 -1.2105
  668TMC3    C1 9933   4.242   3.996  14.967  0.3082 -0.0872 -0.0008
  668TMC3    C2 9934   4.352   4.083  14.982  0.4093  0.0903 -0.7385
  668TMC3    C3 9935   4.363   4.154  15.098  0.4310  0.0310 -1.0364
  668TMC3    C4 9936   4.149   3.988  15.062 -0.4803  0.1587 -0.0231
  668TMC3    C5 9937   4.169   4.057  15.184  0.1491 -0.9667  0.0625
  668TMC3    C6 9938   4.274   4.135  15.203 -0.3693 -0.0542  0.5799
  668TMC3     C 9939   4.281   3.873  14.898  0.9197  0.4617  0.1183
  668TMC3     O 9940   4.392   3.869  14.845  0.4755 -0.1912 -0.1603
  668TMC3     H 9941   4.431   4.079  14.907 -0.2335 -1.8862 -1.3136
  668TMC3    H1 9942   4.065   3.920  15.053 -1.8457  1.8662 -0.2543
  668TMC3    H2 9943   4.277   4.198  15.291  0.0784 -0.4382  0.8403
  668TMC3    C7 9944   4.087   4.034  15.290  0.4070  0.2963  0.2176
  668TMC3    C8 9945   4.417   4.290  15.097 -0.2669  0.4446 -0.7256
  668TMC3    O1 9946   4.128   4.031  15.406 -0.2209  0.6215  0.7631
  668TMC3    O2 9947   4.390   4.359  15.192  0.5339  0.3777 -0.2459
  669TMC3    C1 9948   2.174   3.530  14.872 -0.4481  0.9955 -0.7498
  669TMC3    C2 9949   2.070   3.591  14.805 -0.1921 -0.0085  0.4181
  669TMC3    C3 9950   2.092   3.666  14.688 -0.4548 -0.1195  0.1448
  669TMC3    C4 9951   2.302   3.562  14.844  0.0112 -0.4325 -1.3701
  669TMC3    C5 9952   2.325   3.651  14.739 -0.2806  0.3191  0.7859
  669TMC3    C6 9953   2.222   3.689  14.651  0.0766  0.4881  1.0240
  669TMC3     C 9954   2.153   3.485  15.013 -0.8996  0.0589 -0.4651
  669TMC3     O 9955   2.062   3.532  15.081  0.1462  0.2320  0.5488
  669TMC3     H 9956   1.966   3.564  14.818 -0.3352  1.0944  1.5948
  669TMC3    H1 9957   2.381   3.529  14.910 -0.4261  0.6044 -0.3329
  669TMC3    H2 9958   2.235   3.714  14.546  0.6166  0.6847  1.1377
  669TMC3    C7 9959   2.463   3.669  14.694 -0.2913  0.8213  0.4749
  669TMC3    C8 9960   1.980   3.710  14.612  0.2991 -0.1504 -0.0637
  669TMC3    O1 9961   2.550   3.601  14.745 -0.1010 -0.2010 -0.5509
  669TMC3    O2 9962   1.870   3.682  14.654 -0.0182 -0.8394  0.5826
  670MPD2     C 9963   0.127   1.229  13.121 -0.2835 -0.1437  0.0715
  670MPD2    C1 9964   0.242   1.287  13.154 -0.2091 -0.4802 -0.4227
  670MPD2    C2 9965   0.270   1.319  13.287 -0.2232  0.3488 -0.3255
  670MPD2    C3 9966   0.176   1.296  13.385  0.5750 -0.7329 -0.1316
  670MPD2    C4 9967   0.061   1.233  13.341 -0.5390  0.8676  0.9400
  670MPD2    C5 9968   0.033   1.192  13.214  0.1470 -0.2001  0.1000
  670MPD2     H 9969   0.370   1.353  13.314  0.3722  0.3767 -2.5939
  670MPD2    H1 9970   4.721   1.215  13.415 -0.9246  1.4377  0.6801
  670MPD2    H2 9971   0.097   1.209  13.019  2.8118  1.2042 -1.1304
  670MPD2    H3 9972   4.682   1.137  13.182 -0.9949  0.2892  2.3649
  670MPD2     N 9973   0.210   1.313  13.525  0.0805 -0.9098  0.3811
  670MPD2    H5 9974   0.295   1.363  13.547 -0.3060 -0.5154  0.9809
  670MPD2    N1 9975   0.350   1.305  13.057 -0.1112 -0.0743 -0.0079
  670MPD2    H7 9976   0.441   1.328  13.094 -0.5928 -1.3109  1.9064
  671TMC3    C1 9977   0.172   1.296  13.766  0.2076 -0.2127 -0.5302
  671TMC3    C2 9978   0.303   1.333  13.787 -0.1574 -0.1001  0.2214
  671TMC3    C3 9979   0.372   1.249  13.869 -0.8527  0.7190 -0.1351
  671TMC3    C4 9980   0.103   1.207  13.856  0.0300 -0.5367  1.0457
  671TMC3    C5 9981   0.179   1.138  13.943  0.3162 -0.2822 -0.1557
  671TMC3    C6 9982   0.312   1.154  13.945 -0.5267 -0.0566  0.7305
  671TMC3     C 9983   0.129   1.270  13.633  0.5460  0.6728 -0.2829
  671TMC3     O 9984   0.027   1.204  13.624  0.5249 -0.0925  0.4411
  671TMC3     H 9985   0.356   1.379  13.706 -1.9788  0.7270 -0.4939
  671TMC3    H1 9986   4.731   1.200  13.854  0.0767 -1.7142  2.9590
  671TMC3    H2 9987   0.365   1.096  14.021 -1.0302 -0.1370  1.0182
  671TMC3    C7 9988   0.127   1.011  13.985  0.1458 -0.2407 -0.3518
  671TMC3    C8 9989   0.522   1.245  13.875  0.7545  0.1857  0.5970
  671TMC3    O1 9990   0.197   0.909  13.988  0.0899 -0.5366  0.6262
  671TMC3    O2 9991   0.574   1.153  13.932  0.6459 -0.2817 -0.3037
  672MPD2     C 9992   0.847   1.646   0.955  0.1453  0.3554  0.1095
  672MPD2    C1 9993   0.950   1.710   0.882 -0.2115 -0.4526  0.3235
  672MPD2    C2 9994   1.057   1.771   0.955  0.4706  0.3172  0.1994
  672MPD2    C3 9995   1.048   1.774   1.091 -0.8426  0.6300  0.4273
  672MPD2    C4 9996   0.952   1.698   1.158  0.3037  0.1509 -0.0037
  672MPD2    C5 9997   0.851   1.634   1.088  1.3815  1.0968 -0.5308
  672MPD2     H 9998   1.139   1.811   0.898  1.7343 -1.8665  0.4749
  672MPD2    H1 9999   0.956   1.699   1.266  1.0281 -1.1839 -0.0243
  672MPD2    H210000   0.760   1.600   0.910  0.6667  0.7821 -1.3247
  672MPD2    H310001   0.770   1.585   1.141  1.3734 -0.7489 -2.2639
  672MPD2     N10002   1.137   1.848   1.169  0.2338 -0.0894 -0.0546
  672MPD2    H510003   1.125   1.836   1.269 -0.9581 -2.0674 -0.4261
  672MPD2    N110004   0.954   1.686   0.744  0.4206  0.1179 -0.7388
  672MPD2    H710005   1.037   1.705   0.690  1.1073  0.3595  0.4006
  673TMC3    C110006   0.879   1.662   0.522 -0.4469 -0.1169 -0.0859
  673TMC3    C210007   1.001   1.603   0.491 -0.5360  0.1860  0.0022
  673TMC3    C310008   1.015   1.565   0.356 -0.3524 -0.1174  0.5748
  673TMC3    C410009   0.784   1.697   0.436  0.0473  0.5362 -0.4618
  673TMC3    C510010   0.801   1.664   0.307  0.9907 -0.4586 -0.8376
  673TMC3    C610011   0.921   1.605   0.261 -0.3426 -0.0055 -0.3226
  673TMC3     C10012   0.844   1.673   0.665  0.9435  0.0960 -0.7131
  673TMC3     O10013   0.725   1.679   0.694 -0.3468  0.6300  0.0995
  673TMC3     H10014   1.068   1.565   0.567 -0.7828 -0.0724  0.0887
  673TMC3    H110015   0.689   1.739   0.468 -0.1944  0.4947 -1.1339
  673TMC3    H210016   0.938   1.586   0.155  0.8632  0.9148 -0.2911
  673TMC3    C710017   0.711   1.719   0.210  0.0207 -0.1786  0.4099
  673TMC3    C810018   1.139   1.493   0.306  0.3042  0.4225  0.2621
  673TMC3    O110019   0.695   1.654   0.108  0.0327 -0.0391  0.4755
  673TMC3    O210020   1.145   1.440   0.193 -0.2123  0.4758 -0.0258
  674MPD2     C10021   0.670   2.358  17.627 -0.0921 -0.5501 -0.3478
  674MPD2    C110022   0.594   2.265  17.567 -0.0359 -0.0326  0.3078
  674MPD2    C210023   0.458   2.299  17.551 -0.8203  0.1859  0.0509
  674MPD2    C310024   0.403   2.419  17.599 -0.5917  0.0638  0.3036
  674MPD2    C410025   0.483   2.510  17.666 -0.1309 -0.9143  0.1138
  674MPD2    C510026   0.615   2.482  17.668  0.7079 -0.4121 -0.0727
  674MPD2     H10027   0.383   2.240  17.499  0.2581 -1.5448  0.4608
  674MPD2    H110028   0.444   2.606  17.698 -0.3399 -1.2501  0.8498
  674MPD2    H210029   0.773   2.334  17.651 -0.3590 -1.1193  0.2399
  674MPD2    H310030   0.686   2.553  17.708  1.1437 -1.3046  0.7435
  674MPD2     N10031   0.262   2.431  17.600 -0.4704  0.3292 -0.1767
  674MPD2    H510032   0.209   2.353  17.563  2.2570 -0.4158 -2.5167
  674MPD2    N110033   0.658   2.138  17.532 -1.3492  0.0791  0.1732
  674MPD2    H710034   0.743   2.110  17.580 -3.1684  0.5295  3.6630
  675TMC3    C110035   0.658   1.907  17.477  0.1562  0.2895 -0.8517
  675TMC3    C210036   0.591   1.792  17.446  1.0219 -0.1833  0.7187
  675TMC3    C310037   0.643   1.674  17.490  0.1122 -0.2604 -0.2138
  675TMC3    C410038   0.785   1.901  17.531  0.1433  0.3581  0.4507
  675TMC3    C510039   0.836   1.781  17.567  0.2702 -1.1565  0.9082
  675TMC3    C610040   0.758   1.670  17.553  0.4082  0.6566  0.3164
  675TMC3     C10041   0.591   2.035  17.463  0.3006 -0.1215 -0.2595
  675TMC3     O10042   0.486   2.044  17.398 -0.1788 -0.1468  0.1909
  675TMC3     H10043   0.493   1.799  17.401 -0.2789 -0.6894  3.4765
  675TMC3    H110044   0.851   1.985  17.516  1.2780 -0.6482 -0.1221
  675TMC3    H210045   0.794   1.581  17.605  0.0281  0.9642  1.1024
  675TMC3    C710046   0.948   1.760  17.657 -0.5552 -0.4109 -0.4641
  675TMC3    C810047   0.543   1.579  17.528  0.0291 -0.2935 -0.1810
  675TMC3    O110048   0.992   1.645  17.670  1.0945  0.4011 -0.3493
  675TMC3    O210049   0.497   1.529  17.427 -0.3422  0.3674 -0.6950
  676MPD2     C10050   3.526   0.372  10.701  0.2858 -0.3831 -0.0112
  676MPD2    C110051   3.480   0.280  10.786  0.1225 -0.8318 -0.3610
  676MPD2    C210052   3.440   0.153  10.743  0.3881 -0.6181  0.5512
  676MPD2    C310053   3.462   0.115  10.609 -0.1375 -0.4738 -1.2031
  676MPD2    C410054   3.508   0.216  10.522  0.7981 -0.4302  0.6329
  676MPD2    C510055   3.536   0.340  10.568 -0.2637 -0.5444 -0.4238
  676MPD2     H10056   3.400   0.083  10.816 -0.6947 -1.1566 -0.5429
  676MPD2    H110057   3.507   0.204  10.414 -1.4785 -0.7079  0.6877
  676MPD2    H210058   3.552   0.471  10.736 -1.0350 -0.3385  0.8401
  676MPD2    H310059   3.570   0.411  10.493  1.1892 -1.0899 -0.2738
  676MPD2     N10060   3.445   4.721  10.551  0.2284  0.2179 -0.0163
  676MPD2    H510061   3.493   4.701  10.464 -0.0014 -1.7896  0.3005
  676MPD2    N110062   3.462   0.308  10.926  0.1320 -0.2644  0.0564
  676MPD2    H710063   3.415   0.236  10.979  0.5978  0.7755  1.8684
  677TMC3    C110064   3.464   0.416  11.138  0.0512  0.1789 -0.3377
  677TMC3    C210065   3.408   0.304  11.198  0.1677  0.0527 -0.1826
  677TMC3    C310066   3.355   0.316  11.326  0.3996  0.4574  0.2581
  677TMC3    C410067   3.476   0.535  11.205  0.4526  0.1004  0.4052
  677TMC3    C510068   3.436   0.536  11.339 -0.0799 -0.1244 -0.0660
  677TMC3    C610069   3.364   0.437  11.394  0.0583  0.0224 -0.0218
  677TMC3     C10070   3.503   0.415  10.996 -0.6727 -0.5670  0.7136
  677TMC3     O10071   3.571   0.513  10.963  0.4912  0.2324  0.3599
  677TMC3     H10072   3.416   0.203  11.160 -2.4299  0.7653 -2.6310
  677TMC3    H110073   3.536   0.614  11.161  1.6287  0.1907  2.1974
  677TMC3    H210074   3.343   0.439  11.501 -1.1913 -0.3663 -0.2653
  677TMC3    C710075   3.427   0.653  11.416  0.0100 -0.1719  0.3075
  677TMC3    C810076   3.333   0.194  11.408 -0.1776  0.5871 -0.3096
  677TMC3    O110077   3.346   0.659  11.508 -0.4881  0.1623 -0.4287
  677TMC3    O210078   3.337   0.211  11.531  0.1289 -0.3035 -0.2276
  678MPD2     C10079   4.645   0.471   1.114  0.6284  0.3050 -0.5233
  678MPD2    C110080   4.603   0.402   1.005 -0.1858 -0.0051  0.3189
  678MPD2    C210081   4.468   0.410   0.971  0.2987 -0.3917  0.5766
  678MPD2    C310082   4.382   0.492   1.048  0.1878  0.4076 -0.4241
  678MPD2    C410083   4.425   0.562   1.155  0.0471 -0.2577  0.2984
  678MPD2    C510084   4.562   0.560   1.179 -0.3554 -0.3560 -0.5738
  678MPD2     H10085   4.440   0.366   0.876 -1.2912 -0.2303  0.9702
  678MPD2    H110086   4.364   0.631   1.212 -1.9165 -0.4901 -1.5183
  678MPD2    H210087   0.007   0.465   1.160  0.2667 -2.6770 -0.1424
  678MPD2    H310088   4.601   0.609   1.267  0.8902  1.3863 -2.0899
  678MPD2     N10089   4.247   0.479   1.015 -0.2457  0.2585 -0.1754
  678MPD2    H510090   4.226   0.400   0.955 -2.5286  0.0576  0.8761
  678MPD2    N110091   4.686   0.321   0.925 -0.1058 -0.3110  0.0550
  678MPD2    H710092   4.637   0.271   0.852 -0.9494  0.2988  0.2048
  679TMC3    C110093   0.364   0.125   0.818  0.3681 -0.4051  0.5466
  679TMC3    C210094   0.272   0.168   0.907  0.0546  0.4455 -0.6757
  679TMC3    C310095   0.158   0.222   0.866 -0.1766 -0.7336  0.0894
  679TMC3    C410096   0.346   0.142   0.686 -0.1357  0.4241 -0.6951
  679TMC3    C510097   0.234   0.216   0.644 -0.3734 -0.1837 -0.5477
  679TMC3    C610098   0.129   0.246   0.734 -0.0288  0.0523 -0.6786
  679TMC3     C10099   0.499   0.087   0.863  0.0087 -0.2863 -0.4990
  679TMC3     O10100   0.581   0.076   0.773  0.0139  0.4741  0.4779
  679TMC3     H10101   0.293   0.143   1.011  1.3499 -1.3944 -1.3933
  679TMC3    H110102   0.418   0.106   0.614  0.3710 -1.0166  0.5463
  679TMC3    H210103   0.048   0.304   0.690 -0.1697 -0.4149 -1.0452
  679TMC3    C710104   0.242   0.287   0.516 -0.2751 -0.2426 -0.9101
  679TMC3    C810105   0.083   0.289   0.959 -0.1735  0.2863  0.7600
  679TMC3    O110106   0.141   0.344   0.480 -0.0285  0.0535  0.1322
  679TMC3    O210107   0.134   0.304   1.070 -0.3017 -0.6053  0.3363
  680MPD2     C10108   4.586   3.368  13.519  0.0834  0.2540  0.2484
  680MPD2    C110109   4.689   3.313  13.596 -0.1713 -0.2913  0.2500
  680MPD2    C210110   0.038   3.405  13.648 -0.4601 -0.0245  0.1705
  680MPD2    C310111   0.029   3.536  13.624 -0.5749 -0.6795 -0.1794
  680MPD2    C410112   4.661   3.593  13.549 -0.4832 -0.5471  0.0574
  680MPD2    C510113   4.575   3.501  13.503 -0.5125  0.9303 -1.1328
  680MPD2     H10114   0.110   3.362  13.717 -0.6488 -2.3072 -1.0716
  680MPD2    H110115   4.632   3.695  13.526  0.7540 -0.5271 -1.4111
  680MPD2    H210116   4.501   3.308  13.490  0.9166 -1.6400  1.7415
  680MPD2    H310117   4.489   3.538  13.448 -0.7744  0.9750 -0.6963
  680MPD2     N10118   0.127   3.634  13.669 -0.1709  0.1301 -0.0056
  680MPD2    H510119   0.110   3.730  13.642 -1.7182  0.1809  1.1622
  680MPD2    N110120   4.710   3.173  13.620  0.1981  0.0922  0.0623
  680MPD2    H710121   0.061   3.141  13.659  1.2123  0.1029 -2.1625
  681TMC3    C110122   4.672   2.949  13.599  0.2410 -0.6938  0.2705
  681TMC3    C210123   4.576   2.854  13.629 -0.3998 -0.8560  0.1749
  681TMC3    C310124   4.623   2.744  13.694  0.3012  1.0721 -0.3946
  681TMC3    C410125   0.068   2.935  13.617  0.5107 -0.2601  0.3190
  681TMC3    C510126   0.105   2.816  13.677  0.6193 -0.7132 -0.3825
  681TMC3    C610127   0.017   2.726  13.725 -0.2244  0.2544 -1.4658
  681TMC3     C10128   4.618   3.081  13.573  0.3380  0.2633  0.5712
  681TMC3     O10129   4.503   3.097  13.530  0.1665 -0.0766  0.0224
  681TMC3     H10130   4.469   2.859  13.612 -0.3285  0.8671  0.2427
  681TMC3    H110131   0.145   3.007  13.593 -0.9044  0.7032 -1.2803
  681TMC3    H210132   0.048   2.633  13.770 -1.5330 -0.3245 -1.7549
  681TMC3    C710133   0.244   2.774  13.690 -1.2405  0.2995 -0.1251
  681TMC3    C810134   4.538   2.633  13.720  0.1088 -0.4410 -0.2942
  681TMC3    O110135   0.263   2.701  13.785 -0.0441  0.1098  0.4597
  681TMC3    O210136   4.580   2.524  13.680  0.7153  0.1859 -0.1236
  682MPD2     C10137   2.320   0.051  10.351 -0.1211  0.0042  0.5042
  682MPD2    C110138   2.305   4.654  10.363  0.1881  0.2746  0.4235
  682MPD2    C210139   2.238   4.604  10.476  0.1211 -0.3628  0.2654
  682MPD2    C310140   2.159   4.682  10.563  0.2297 -0.6310 -0.4101
  682MPD2    C410141   2.171   0.077  10.543  0.5825 -0.3342  0.1694
  682MPD2    C510142   2.246   0.126  10.439  0.3350 -0.2560 -0.1700
  682MPD2     H10143   2.232   4.496  10.480 -1.9048 -0.2352  0.7617
  682MPD2    H110144   2.117   0.146  10.606 -0.8581  0.2263 -1.6652
  682MPD2    H210145   2.377   0.097  10.271 -1.8001  2.5029  0.7320
  682MPD2    H310146   2.241   0.233  10.426 -0.9426  0.4330  5.6992
  682MPD2     N10147   2.079   4.630  10.663  1.0935 -0.2811 -0.3965
  682MPD2    H510148   2.018   4.702  10.700  3.2141  0.9333  0.7708
  682MPD2    N110149   2.350   4.560  10.264  0.2387 -0.0273 -0.1023
  682MPD2    H710150   2.337   4.461  10.284 -2.1568  0.2277 -0.4580
  683TMC3    C110151   1.930   4.588  11.029 -0.2632  0.2693  0.5821
  683TMC3    C210152   1.880   4.468  11.067  0.4516 -0.8498 -0.1323
  683TMC3    C310153   1.895   4.364  10.979  0.6626 -0.0946 -0.2719
  683TMC3    C410154   1.988   4.613  10.914  0.5250  0.2263  0.7090
  683TMC3    C510155   1.994   4.506  10.833 -0.4186 -0.2752 -0.0084
  683TMC3    C610156   1.946   4.376  10.853 -0.8753  0.7396 -0.0241
  683TMC3     C10157   1.940   4.695  11.123  0.3426  0.2474 -0.3733
  683TMC3     O10158   1.930   0.074  11.081 -0.0383  0.0893  0.8165
  683TMC3     H10159   1.833   4.450  11.163 -1.1383  0.7917 -0.6088
  683TMC3    H110160   2.031   4.709  10.885  1.9537  0.3265  3.1506
  683TMC3    H210161   1.961   4.312  10.767  1.0915 -0.1530  0.9868
  683TMC3    C710162   2.094   4.509  10.725  0.3695  0.1865  0.4404
  683TMC3    C810163   1.845   4.232  11.020  0.6497 -0.5746  0.2664
  683TMC3    O110164   2.159   4.408  10.694  0.4179 -0.4357 -0.1482
  683TMC3    O210165   1.777   4.236  11.118  0.1093  0.7778  0.2261
  684MPD2     C10166   0.836   4.185  16.535 -0.7119 -0.1827  0.2700
  684MPD2    C110167   0.799   4.230  16.411 -0.1025  1.1959  0.0939
  684MPD2    C210168   0.741   4.350  16.398 -0.3969 -0.2672 -0.0132
  684MPD2    C310169   0.728   4.438  16.508  0.3617  1.0183  0.4384
  684MPD2    C410170   0.773   4.388  16.627 -0.2919 -0.1852 -0.7688
  684MPD2    C510171   0.816   4.259  16.645 -0.0084 -0.3516  0.7181
  684MPD2     H10172   0.712   4.385  16.299  0.0169 -0.6526 -0.2689
  684MPD2    H110173   0.779   4.449  16.717 -1.3933 -1.1169 -0.0470
  684MPD2    H210174   0.897   4.095  16.538 -1.8336 -0.9286  0.8110
  684MPD2    H310175   0.860   4.210  16.732  1.7616 -0.9732 -0.5378
  684MPD2     N10176   0.680   4.576  16.501  0.5191  0.3848 -0.4257
  684MPD2    H510177   0.700   4.647  16.571 -0.6473 -0.3022  0.5888
  684MPD2    N110178   0.838   4.158  16.291  0.6998 -0.4768 -0.0518
  684MPD2    H710179   0.817   4.209  16.206  0.1507 -0.3143  0.1820
  685TMC3    C110180   0.925   3.991  16.136  0.2407 -0.0772  0.7776
  685TMC3    C210181   0.853   4.048  16.034 -0.0473 -0.7621  0.2246
  685TMC3    C310182   0.908   4.044  15.906  0.3233 -0.1119  0.4628
  685TMC3    C410183   1.046   3.942  16.122  0.5590 -0.5965 -0.2236
  685TMC3    C510184   1.094   3.936  15.994 -0.3310 -0.0916  0.0994
  685TMC3    C610185   1.030   3.990  15.883  0.1978 -0.5714  0.7728
  685TMC3     C10186   0.904   4.036  16.275 -0.0284  0.5991 -0.0438
  685TMC3     O10187   0.943   3.961  16.362  0.4794 -0.1375 -0.5250
  685TMC3     H10188   0.755   4.091  16.055 -0.5322 -0.4308 -2.7131
  685TMC3    H110189   1.096   3.889  16.202 -0.0512  0.8815  1.1417
  685TMC3    H210190   1.072   3.990  15.783 -3.3666  1.7116 -0.7316
  685TMC3    C710191   1.233   3.929  15.976  0.3326 -0.7854  0.1686
  685TMC3    C810192   0.830   4.094  15.796 -0.4594 -0.1482  0.3315
  685TMC3    O110193   1.280   3.907  15.864 -0.3236  0.2696 -0.0330
  685TMC3    O210194   0.883   4.150  15.699  0.2195 -0.0019  0.2172
  686MPD2     C10195   1.923   4.215  16.206  0.5087  0.1205 -0.2557
  686MPD2    C110196   2.047   4.165  16.173  0.6744 -0.1520  0.1804
  686MPD2    C210197   2.087   4.167  16.042 -0.4997  0.4279  0.8299
  686MPD2    C310198   1.999   4.207  15.943  0.2668  0.1981  0.0921
  686MPD2    C410199   1.877   4.257  15.984 -0.5806 -0.0888 -0.6669
  686MPD2    C510200   1.840   4.274  16.116  0.6093  0.8111  0.4079
  686MPD2     H10201   2.180   4.117  16.017 -1.1753 -0.6317  0.4587
  686MPD2    H110202   1.803   4.295  15.914 -0.7300  1.4463  0.3247
  686MPD2    H210203   1.891   4.208  16.309  0.1321  0.6839 -0.3325
  686MPD2    H310204   1.742   4.310  16.144 -0.8248 -2.5117 -0.3292
  686MPD2     N10205   2.016   4.197  15.799 -0.4590  0.0001  0.0115
  686MPD2    H510206   1.939   4.232  15.743  0.7600 -1.3125 -2.4508
  686MPD2    N110207   2.113   4.105  16.278 -0.0451  1.0526 -0.4923
  686MPD2    H710208   2.073   4.098  16.371  2.6416 -0.7327  0.4954
  687TMC3    C110209   2.114   4.064  15.634 -0.1927 -0.4562 -0.0433
  687TMC3    C210210   1.989   4.039  15.594 -0.5337  0.5554 -0.8872
  687TMC3    C310211   1.957   3.909  15.566  0.0344  0.6413  0.2969
  687TMC3    C410212   2.205   3.961  15.642  0.5012 -0.3024  0.0860
  687TMC3    C510213   2.172   3.833  15.614 -0.0138  0.1391 -0.2673
  687TMC3    C610214   2.044   3.804  15.574  0.2297 -0.6791  0.8443
  687TMC3     C10215   2.134   4.156  15.742  0.3576 -0.0098  0.0899
  687TMC3     O10216   2.238   4.145  15.806 -0.7708  0.1166 -0.5913
  687TMC3     H10217   1.911   4.113  15.581 -0.9351  0.2831 -0.0095
  687TMC3    H110218   2.304   3.982  15.682 -0.1786  0.2916  1.4292
  687TMC3    H210219   2.028   3.708  15.526 -1.0246 -0.4867  0.8810
  687TMC3    C710220   2.218   3.761  15.723 -0.8865  0.7382 -0.3647
  687TMC3    C810221   1.819   3.872  15.558 -0.0873  0.7089 -0.1472
  687TMC3    O110222   2.186   3.796  15.835  0.1231  0.1381 -0.6115
  687TMC3    O210223   1.803   3.752  15.574 -0.3310  0.6877  0.0890
  688MPD2     C10224   1.314   3.188  17.467 -0.1675 -0.0082 -0.1989
  688MPD2    C110225   1.333   3.049  17.465 -0.0715  0.2096  0.2453
  688MPD2    C210226   1.400   3.000  17.363  0.0125  0.6928 -0.2532
  688MPD2    C310227   1.443   3.070  17.257 -0.1360 -0.5990  0.2852
  688MPD2    C410228   1.434   3.210  17.256  0.3351  0.1649 -0.5637
  688MPD2    C510229   1.363   3.261  17.364 -0.7389  0.8318  0.0787
  688MPD2     H10230   1.415   2.893  17.372 -0.2553  0.7937  1.4265
  688MPD2    H110231   1.482   3.277  17.186 -0.5082  1.6078  0.2376
  688MPD2    H210232   1.263   3.240  17.548 -1.3711  0.1246 -1.0472
  688MPD2    H310233   1.355   3.368  17.375 -1.7225  0.7097  0.5623
  688MPD2     N10234   1.501   3.011  17.138  0.0435  0.1212  0.4727
  688MPD2    H510235   1.534   3.081  17.072 -0.2124  0.4899  0.7329
  688MPD2    N110236   1.293   2.976  17.579 -0.1762  0.4918  0.3496
  688MPD2    H710237   1.299   2.875  17.568 -0.8432  0.7325 -2.1385
  689TMC3    C110238   1.182   2.926   0.038 -0.0826 -0.9921  0.3269
  689TMC3    C210239   1.153   2.967   0.164 -0.6816  0.1377 -0.2234
  689TMC3    C310240   1.086   2.891   0.254  0.9324 -0.5591 -0.1251
  689TMC3    C410241   1.133   2.808  17.735  0.5631 -0.0969 -0.0185
  689TMC3    C510242   1.057   2.732   0.079 -0.0327  0.6272  0.0332
  689TMC3    C610243   1.038   2.767   0.211 -0.4935  0.4379  0.0878
  689TMC3     C10244   1.227   3.026  17.692  0.0425 -0.3914  0.3205
  689TMC3     O10245   1.214   3.139  17.733 -0.5273 -0.2386 -0.2025
  689TMC3     H10246   1.202   3.060   0.193 -1.5978  0.5684 -0.0585
  689TMC3    H110247   1.132   2.787  17.629 -0.5615  0.5502 -0.1423
  689TMC3    H210248   0.961   2.735   0.280  0.6286 -2.9831 -0.2161
  689TMC3    C710249   1.024   2.608   0.038 -0.4515 -0.3321 -0.0474
  689TMC3    C810250   1.062   2.933   0.384  0.1575 -0.1266  0.0086
  689TMC3    O110251   1.029   2.525   0.129  0.2823  0.4375  0.1116
  689TMC3    O210252   1.012   2.854   0.463 -0.2585  0.0224 -0.1220
  690MPD2     C10253   3.036   0.449  15.261  1.1202 -0.4147 -0.4933
  690MPD2    C110254   3.109   0.348  15.316 -0.3734 -0.0489  0.2172
  690MPD2    C210255   3.231   0.316  15.264 -0.3576  0.3294 -0.0060
  690MPD2    C310256   3.288   0.395  15.163  0.4157  0.2480 -0.4144
  690MPD2    C410257   3.209   0.491  15.105 -0.1977  0.3317  0.3838
  690MPD2    C510258   3.073   0.505  15.144 -0.3327  0.1624 -0.1924
  690MPD2     H10259   3.288   0.229  15.291  0.2300  1.4156  2.2395
  690MPD2    H110260   3.238   0.552  15.020  0.1126 -0.9346 -0.4276
  690MPD2    H210261   2.932   0.463  15.288  0.9790  1.1771 -1.8602
  690MPD2    H310262   3.010   0.571  15.084 -0.5564 -0.3728 -0.5427
  690MPD2     N10263   3.416   0.360  15.120  0.3218 -0.1204  0.3685
  690MPD2    H510264   3.466   0.290  15.175  1.9380 -1.3526 -2.6579
  690MPD2    N110265   3.064   0.262  15.419  0.4037  0.2444  0.3855
  690MPD2    H710266   3.120   0.177  15.429  0.2721  0.3863  2.2471
  691TMC3    C110267   2.904   0.155  15.554  0.1203 -0.1813  0.3636
  691TMC3    C210268   2.793   0.159  15.632  0.1641 -0.9127 -0.0760
  691TMC3    C310269   2.772   0.066  15.731 -0.1945  0.7065  0.6266
  691TMC3    C410270   2.997   0.056  15.571  0.2710  0.2462  0.2907
  691TMC3    C510271   2.962   4.690  15.652  1.2329 -0.2146 -0.0985
  691TMC3    C610272   2.860   4.699  15.746 -0.6728 -0.5410  0.8647
  691TMC3     C10273   2.940   0.269  15.475 -0.5379 -0.0321  0.0061
  691TMC3     O10274   2.852   0.353  15.468  0.1094 -0.0943 -0.1191
  691TMC3     H10275   2.713   0.228  15.610 -0.1979 -1.3388 -0.0995
  691TMC3    H110276   3.093   0.046  15.521  0.9952  0.7300  1.5895
  691TMC3    H210277   2.848   4.620  15.819  0.2749 -1.2385  0.2673
  691TMC3    C710278   3.053   4.571  15.662 -0.3387  0.2424 -0.5631
  691TMC3    C810279   2.694   0.090  15.844 -0.5599 -0.3334  0.0084
  691TMC3    O110280   3.169   4.592  15.695  0.8014  0.5818 -0.8529
  691TMC3    O210281   2.724   0.029  15.943  0.3511  0.1557  0.4781
  692TMC3    C110282   0.010   1.050  15.757  0.0604 -0.6630  0.2345
  692TMC3    C210283   0.119   1.112  15.805 -0.3585 -1.0154  0.0182
  692TMC3    C310284   0.225   1.038  15.850 -0.0738  0.7279  0.5158
  692TMC3    C410285   0.008   0.910  15.746  0.1017 -0.2428  0.3655
  692TMC3    C510286   0.104   0.840  15.816  0.3607  0.4213  0.0015
  692TMC3    C610287   0.210   0.905  15.879  0.1094 -0.7289 -0.1734
  692TMC3     C10288   4.625   1.130  15.729  0.0677 -0.1214  0.7610
  692TMC3     O10289   4.521   1.066  15.733 -0.1482 -0.3606 -0.1670
  692TMC3     H10290   0.093   1.212  15.838  0.6541 -1.1320  1.1278
  692TMC3    H110291   4.656   0.858  15.711  0.3917 -0.4519 -0.0580
  692TMC3    H210292   0.302   0.850  15.895 -0.2891 -1.3626 -0.0715
  692TMC3    C710293   0.096   0.692  15.824  0.4067  0.4688 -0.0444
  692TMC3    C810294   0.300   1.115  15.946  0.2652  0.6834 -0.9865
  692TMC3    O110295   0.035   0.643  15.731 -0.2807 -0.0795  0.3622
  692TMC3    O210296   0.338   1.051  16.042  0.0831 -0.5301  0.3975
  693MPD2     C10297   4.542   4.042  10.956 -0.6815  0.2015  0.9196
  693MPD2    C110298   4.546   4.007  10.827  0.3709  0.1626 -0.0310
  693MPD2    C210299   4.652   3.936  10.776 -0.7501 -0.4029 -0.7353
  693MPD2    C310300   0.031   3.913  10.856 -0.3508  0.5908 -0.1232
  693MPD2    C410301   0.024   3.945  10.984  0.3496 -0.3288  0.5341
  693MPD2    C510302   4.653   4.017  11.024  0.0377  0.6235  0.0524
  693MPD2     H10303   4.657   3.916  10.670  0.2587  2.9436 -1.3044
  693MPD2    H110304   0.102   3.922  11.055  0.9906  1.0525  0.2905
  693MPD2    H210305   4.453   4.081  11.005 -1.1819 -1.3347  1.2238
  693MPD2    H310306   4.652   4.044  11.129  3.6597  0.0607  0.2433
  693MPD2     N10307   0.151   3.854  10.806  1.0522 -0.0148 -0.2175
  693MPD2    H510308   0.227   3.854  10.874 -0.5383  0.2595  1.5666
  693MPD2    N110309   4.425   4.024  10.753 -0.3717  0.0235 -0.6509
  693MPD2    H710310   4.353   4.085  10.790 -0.5598  0.3388 -1.5175
  694TMC3    C110311   4.242   3.949  10.624  0.1250  0.1120  0.0554
  694TMC3    C210312   4.205   3.896  10.505 -0.1875  0.2505  0.4178
  694TMC3    C310313   4.106   3.806  10.500  0.3186  0.0102 -0.1526
  694TMC3    C410314   4.161   3.922  10.733  0.1466 -0.0215 -0.6095
  694TMC3    C510315   4.059   3.824  10.723 -0.3544 -0.1641 -0.1117
  694TMC3    C610316   4.033   3.764  10.609 -0.3764  0.1678  0.4353
  694TMC3     C10317   4.386   3.953  10.644 -0.7199 -1.0411  0.1234
  694TMC3     O10318   4.450   3.873  10.577  0.0265 -1.0018  0.3672
  694TMC3     H10319   4.282   3.910  10.431  0.4454  0.7275  1.1657
  694TMC3    H110320   4.198   3.954  10.830  2.2541 -2.0138 -0.7732
  694TMC3    H210321   3.949   3.695  10.609 -1.1715  1.1442  0.0045
  694TMC3    C710322   4.009   3.760  10.846  0.0303 -0.1842  0.1122
  694TMC3    C810323   4.052   3.776  10.367  0.3031 -0.3849 -0.3741
  694TMC3    O110324   4.012   3.825  10.952 -0.2477 -0.3462 -0.5884
  694TMC3    O210325   3.987   3.673  10.349  0.0870  0.7503  0.4461
  695MPD2     C10326   0.743   0.588  13.228 -0.3373 -0.0960  0.0892
  695MPD2    C110327   0.720   0.637  13.356 -0.0085 -0.3575  0.6630
  695MPD2    C210328   0.590   0.662  13.387 -0.0480  0.2655 -0.3602
  695MPD2    C310329   0.489   0.624  13.306  0.8454 -0.1106 -0.0559
  695MPD2    C410330   0.516   0.567  13.189  0.4335  0.4265 -0.3535
  695MPD2    C510331   0.641   0.555  13.147 -0.4177 -1.4585  0.3262
  695MPD2     H10332   0.572   0.711  13.482  0.7614  1.3393 -0.7610
  695MPD2    H110333   0.437   0.527  13.126  1.1896 -0.4489 -0.7533
  695MPD2    H210334   0.841   0.558  13.193 -1.9734 -1.6917 -3.1228
  695MPD2    H310335   0.665   0.505  13.054  2.3454 -1.5031  1.0718
  695MPD2     N10336   0.359   0.644  13.353  0.2939 -1.0491 -0.5037
  695MPD2    H510337   0.352   0.652  13.454  1.4199  0.2394 -0.5349
  695MPD2    N110338   0.813   0.676  13.456 -0.0344  0.0292 -0.1783
  695MPD2    H710339   0.784   0.733  13.535 -1.8309 -1.6510  0.3743
  696TMC3    C110340   0.120   0.665  13.336 -0.7476  0.8410  0.0024
  696TMC3    C210341   0.100   0.606  13.460  0.7596  0.1020  0.0415
  696TMC3    C310342   4.717   0.618  13.523  0.4047 -0.5727  0.4660
  696TMC3    C410343   0.018   0.729  13.272  0.0969 -0.3698  0.2291
  696TMC3    C510344   4.639   0.751  13.341  0.9790 -0.6967 -0.1672
  696TMC3    C610345   4.624   0.704  13.469 -0.2687  0.1686  0.0690
  696TMC3     C10346   0.251   0.647  13.266  0.2742 -0.3146 -0.0152
  696TMC3     O10347   0.242   0.647  13.142 -0.1050  0.5132  0.4366
  696TMC3     H10348   0.174   0.543  13.507  0.5778  1.0198  1.5491
  696TMC3    H110349   0.017   0.776  13.174  1.7191 -0.5787  0.1159
  696TMC3    H210350   4.527   0.718  13.514 -0.9082 -1.7938 -0.7014
  696TMC3    C710351   4.550   0.858  13.301 -0.2183  0.1639 -0.5112
  696TMC3    C810352   4.726   0.613  13.667  0.1022 -0.3081  0.2163
  696TMC3    O110353   4.524   0.873  13.181 -0.5157  0.2201  0.2056
  696TMC3    O210354   0.102   0.611  13.718  0.2635  0.0386  0.0280
  697MPD2     C10355   4.376   2.703  15.787  0.2686  0.0913 -0.2695
  697MPD2    C110356   4.386   2.656  15.653 -0.0964 -0.4911 -0.5438
  697MPD2    C210357   4.422   2.740  15.549  0.6278 -1.0050  0.3025
  697MPD2    C310358   4.455   2.871  15.575  0.0946 -0.1146 -0.1695
  697MPD2    C410359   4.442   2.919  15.705 -0.8530 -0.8757  0.2674
  697MPD2    C510360   4.401   2.836  15.812 -0.2501 -0.1892  0.0831
  697MPD2     H10361   4.432   2.699  15.449  0.6501  0.2792 -0.2187
  697MPD2    H110362   4.471   3.019  15.735 -0.1165 -1.5248  1.7234
  697MPD2    H210363   4.350   2.638  15.870  0.3029  1.1894  0.5968
  697MPD2    H310364   4.377   2.865  15.914 -0.9613 -1.7970  0.3693
  697MPD2     N10365   4.509   2.953  15.468 -0.2362 -0.1166  0.3808
  697MPD2    H510366   4.545   2.903  15.388 -0.2890 -2.3791  1.7651
  697MPD2    N110367   4.358   2.518  15.624  0.0062  0.1952 -0.0757
  697MPD2    H710368   4.381   2.497  15.528  1.0313 -0.4338  0.3062
  698TMC3    C110369   4.596   3.137  15.352 -0.2549 -0.0835 -0.5567
  698TMC3    C210370   4.703   3.214  15.377 -0.2408  0.2625 -0.8831
  698TMC3    C310371   0.053   3.247  15.272  0.4502  0.3216  0.1739
  698TMC3    C410372   4.584   3.078  15.228  0.2412 -0.5388 -0.2036
  698TMC3    C510373   4.679   3.099  15.125 -0.3169 -0.1826 -0.3046
  698TMC3    C610374   0.052   3.187  15.152 -0.4401  0.0689  0.3636
  698TMC3     C10375   4.537   3.087  15.474  0.1299  0.3291 -0.7080
  698TMC3     O10376   4.516   3.161  15.575 -0.2075 -1.0451 -0.2975
  698TMC3     H10377   4.710   3.252  15.478  0.8182 -4.7535  0.9242
  698TMC3    H110378   4.503   3.009  15.207 -1.5219  0.8453  2.0761
  698TMC3    H210379   0.126   3.210  15.075  0.0348  0.3793  0.9097
  698TMC3    C710380   4.670   3.026  15.002 -0.0416  0.0918  0.5536
  698TMC3    C810381   0.171   3.318  15.319 -0.4010 -0.1784 -0.1848
  698TMC3    O110382   4.567   2.962  14.978  0.1595 -0.3157  0.6188
  698TMC3    O210383   0.175   3.339  15.442 -0.0869 -0.1033 -0.3108
  699TMC3    C110384   0.109   0.496  12.872 -0.4981 -0.2164  0.3728
  699TMC3    C210385   0.162   0.431  12.985 -0.3739  0.7192 -0.2391
  699TMC3    C310386   0.069   0.351  13.049 -0.0150  0.6614 -1.1175
  699TMC3    C410387   4.709   0.506  12.848  0.1733 -0.1597 -0.8083
  699TMC3    C510388   4.624   0.430  12.923 -0.0488 -0.0830  0.1904
  699TMC3    C610389   4.673   0.344  13.020 -0.1003 -0.3629 -0.1519
  699TMC3     C10390   0.198   0.579  12.791  0.1249 -0.1140 -0.3829
  699TMC3     O10391   0.165   0.594  12.674  0.0154 -0.3618  0.3353
  699TMC3     H10392   0.268   0.414  13.001 -0.1098  1.0896 -1.5989
  699TMC3    H110393   4.665   0.579  12.781 -0.8226 -0.6233 -0.6543
  699TMC3    H210394   4.596   0.309  13.088 -1.6955  0.0592 -1.7176
  699TMC3    C710395   4.504   0.501  12.968 -0.7268  0.3004  0.6466
  699TMC3    C810396   0.087   0.305  13.190  0.0505  0.1658  0.0514
  699TMC3    O110397   4.469   0.490  13.082 -0.5678  0.1358  0.1836
  699TMC3    O210398   4.731   0.237  13.230 -0.1368  0.9632  0.1654
  700TMC3    C110399   3.775   3.507  17.495  0.5270  1.3244  0.0153
  700TMC3    C210400   3.836   3.384  17.488  0.3576  0.6473  0.8738
  700TMC3    C310401   3.962   3.365  17.541  0.5716 -0.5322  0.2956
  700TMC3    C410402   3.844   3.606  17.555  0.6106 -0.2107  0.4939
  700TMC3    C510403   3.970   3.585  17.605 -0.3485 -0.3843  0.6721
  700TMC3    C610404   4.036   3.463  17.599 -0.0248  0.2894 -0.4411
  700TMC3     C10405   3.706   3.549  17.374 -0.7493 -0.9471 -0.5819
  700TMC3     O10406   3.606   3.482  17.343 -0.0309 -0.4333 -0.0648
  700TMC3     H10407   3.775   3.307  17.442  2.2051  1.2853 -2.6221
  700TMC3    H110408   3.794   3.701  17.554  0.8325 -0.0688  2.3465
  700TMC3    H210409   4.135   3.448  17.640 -0.1586  0.9215  0.1095
  700TMC3    C710410   4.050   3.691  17.667  0.2799 -0.3484  0.5294
  700TMC3    C810411   4.041   3.247  17.502  0.0568 -0.1027 -0.0606
  700TMC3    O110412   4.172   3.684  17.677  0.2913 -0.0952  0.4447
  700TMC3    O210413   4.164   3.256  17.507  0.6927 -0.5233  0.2427
  701TMC3    C110414   3.663   1.975  15.541 -0.0387  0.6899 -0.0269
  701TMC3    C210415   3.697   1.924  15.415 -0.1541 -0.2496  0.2075
  701TMC3    C310416   3.808   1.973  15.355  0.7599  0.6930  0.4836
  701TMC3    C410417   3.741   2.063  15.613 -0.0133  0.4513 -1.1779
  701TMC3    C510418   3.843   2.124  15.543 -0.1835  0.1689 -0.5116
  701TMC3    C610419   3.876   2.077  15.415 -0.2257 -0.4025  0.5367
  701TMC3     C10420   3.536   1.940  15.587  0.4102 -0.4240  0.2402
  701TMC3     O10421   3.470   2.017  15.653  0.3542 -0.8380 -0.6083
  701TMC3     H10422   3.633   1.857  15.359 -2.5309  1.6537  0.6340
  701TMC3    H110423   3.707   2.112  15.703  0.1941  0.5919 -1.1769
  701TMC3    H210424   3.962   2.120  15.364 -0.1673 -2.8652 -1.4266
  701TMC3    C710425   3.893   2.258  15.585 -0.4494 -1.1359 -0.2767
  701TMC3    C810426   3.816   1.980  15.209 -0.6628  1.1152 -0.8465
  701TMC3    O110427   3.961   2.312  15.504 -0.6380  0.5939  0.3666
  701TMC3    O210428   3.922   2.025  15.166  0.4812  0.0182 -0.0517
  702MPD2     C10429   3.523   4.302   9.962  0.2960 -0.5783  0.0655
  702MPD2    C110430   3.446   4.388  10.037  0.3400 -0.5303 -0.2726
  702MPD2    C210431   3.359   4.462   9.966  0.2369 -0.2315 -0.6034
  702MPD2    C310432   3.339   4.456   9.827 -0.2172  0.3895  0.0716
  702MPD2    C410433   3.424   4.375   9.755 -0.4696 -0.3505  0.4645
  702MPD2    C510434   3.516   4.300   9.826  0.1990  0.0691 -0.8584
  702MPD2     H10435   3.291   4.518  10.030 -0.9948  1.8170 -3.7047
  702MPD2    H110436   3.419   4.366   9.647  0.9567 -0.9288  0.4482
  702MPD2    H210437   3.594   4.231  10.003  1.0254 -0.9982 -1.9280
  702MPD2    H310438   3.580   4.232   9.770  0.4081 -0.6533  0.2514
  702MPD2     N10439   3.242   4.523   9.753 -0.1372 -0.1672 -0.6223
  702MPD2    H510440   3.228   4.496   9.656  0.8985 -1.3629 -0.4347
  702MPD2    N110441   3.450   4.403  10.178  0.2524  0.0641 -0.1140
  702MPD2    H710442   3.384   4.467  10.222  0.8369  0.2806  0.4599
  703TMC3    C110443   3.179   4.707   9.897  0.5753  0.1281 -0.3176
  703TMC3    C210444   3.116   4.700  10.023  0.3470 -0.7663 -0.1927
  703TMC3    C310445   3.171   0.005  10.146  0.4417 -0.4760 -0.2319
  703TMC3    C410446   3.301   0.028   9.892 -0.1304  0.6306  0.4287
  703TMC3    C510447   3.361   0.066  10.009 -0.2862  0.0360 -0.5319
  703TMC3    C610448   3.301   0.051  10.136 -0.4999  0.3867  0.5813
  703TMC3     C10449   3.144   4.608   9.796  0.0144  0.7562 -0.0501
  703TMC3     O10450   3.029   4.609   9.744  0.1443 -0.1926  0.0717
  703TMC3     H10451   3.019   4.652  10.019  0.2402 -0.3309 -3.1155
  703TMC3    H110452   3.351   0.026   9.795 -0.0286 -1.6197  0.5235
  703TMC3    H210453   3.340   0.086  10.230 -1.9810  3.6162 -0.0113
  703TMC3    C710454   3.505   0.103   9.999  0.3349 -0.5014  0.1158
  703TMC3    C810455   3.153   4.650  10.261 -0.2098  0.4049 -0.6477
  703TMC3    O110456   3.561   0.051   9.903 -0.0947 -0.0136  0.4059
  703TMC3    O210457   3.250   4.582  10.291 -0.0726 -0.3713  0.1704
  704TMC3    C110458   1.146   1.682  12.208  0.5952  0.0064 -0.4827
  704TMC3    C210459   1.062   1.580  12.172 -0.1753  0.6564  0.3038
  704TMC3    C310460   0.962   1.546  12.255  0.0699 -0.7272  0.4287
  704TMC3    C410461   1.144   1.740  12.330 -0.8413  0.1618 -0.5959
  704TMC3    C510462   1.055   1.688  12.419 -0.5693  0.2392 -1.0022
  704TMC3    C610463   0.957   1.605  12.382  0.2059 -0.1763 -0.3564
  704TMC3     C10464   1.240   1.743  12.113  0.2682 -1.0915  0.3435
  704TMC3     O10465   1.316   1.670  12.050  0.0595 -0.1987 -0.6151
  704TMC3     H10466   1.075   1.536  12.074 -0.0200 -2.5551  1.7766
  704TMC3    H110467   1.213   1.819  12.355 -1.5435  2.0459 -4.6949
  704TMC3    H210468   0.890   1.556  12.452  3.0922  0.7335  3.0361
  704TMC3    C710469   1.105   1.660  12.555 -0.3127 -0.2283 -0.2793
  704TMC3    C810470   0.894   1.422  12.238 -0.5290 -0.8692  0.1683
  704TMC3    O110471   1.040   1.583  12.619 -0.4085  0.2634 -0.7317
  704TMC3    O210472   0.890   1.345  12.331 -0.1257 -0.8192 -0.4565
  705MPD2     C10473   0.399   0.873  16.445 -0.1486  0.1081  0.2965
  705MPD2    C110474   0.429   1.006  16.436  0.0256 -0.0744  0.3472
  705MPD2    C210475   0.339   1.106  16.474 -0.2143 -0.0753  0.0059
  705MPD2    C310476   0.212   1.066  16.505 -0.3329 -0.1646  0.2820
  705MPD2    C410477   0.182   0.937  16.512  0.2089 -0.3681  0.0644
  705MPD2    C510478   0.274   0.844  16.481 -0.2245 -0.6607  1.2523
  705MPD2     H10479   0.370   1.208  16.456  0.8102 -0.5984 -1.1706
  705MPD2    H110480   0.082   0.903  16.536  0.0431  0.0077 -0.1033
  705MPD2    H210481   0.461   0.796  16.401 -1.1532  0.9246 -2.5283
  705MPD2    H310482   0.240   0.743  16.465  0.5710 -1.0256  1.8592
  705MPD2     N10483   0.107   1.149  16.545 -0.0485  0.7494 -0.1632
  705MPD2    H510484   0.018   1.104  16.563  1.2038 -1.4802  0.5000
  705MPD2    N110485   0.552   1.054  16.386  0.3920 -0.2562  0.7526
  705MPD2    H710486   0.567   1.153  16.371  4.6239 -1.1749 -1.0106
  706TMC3    C110487   0.901   0.969  16.102 -0.1014 -0.3147 -0.0083
  706TMC3    C210488   0.881   1.085  16.037  0.4907  0.0261 -0.1821
  706TMC3    C310489   0.787   1.164  16.087  0.2761  0.0013  0.1335
  706TMC3    C410490   0.839   0.944  16.213 -0.2629 -0.8804 -0.3179
  706TMC3    C510491   0.759   1.037  16.272  0.4830 -0.2371  0.4487
  706TMC3    C610492   0.727   1.152  16.210  0.0598 -0.2193 -0.3942
  706TMC3     C10493   1.008   0.880  16.060  0.6319  0.0421  0.0488
  706TMC3     O10494   1.042   0.802  16.145 -0.2780  0.0734 -0.3527
  706TMC3     H10495   0.948   1.105  15.954 -0.0032 -0.6814 -0.7524
  706TMC3    H110496   0.854   0.852  16.268  0.2925  1.4117  3.3412
  706TMC3    H210497   0.656   1.224  16.248  1.5579  1.5306 -0.9130
  706TMC3    C710498   0.657   0.973  16.354 -0.7943  0.4406 -0.0510
  706TMC3    C810499   0.771   1.293  16.023  0.2862 -0.3173  0.5027
  706TMC3    O110500   0.665   0.851  16.377 -0.7473  0.2830  0.1091
  706TMC3    O210501   0.744   1.296  15.903 -0.0531  0.3416  0.0042
  707TMC3    C110502   2.793   0.134   1.515 -0.2847  0.3881 -0.3800
  707TMC3    C210503   2.844   0.042   1.603 -0.8172 -0.2187  0.3636
  707TMC3    C310504   2.921   0.092   1.710  0.5847 -0.6527  0.5294
  707TMC3    C410505   2.812   0.268   1.528  0.2855  0.0904 -0.3954
  707TMC3    C510506   2.876   0.319   1.639 -0.1416 -0.1234  0.5082
  707TMC3    C610507   2.931   0.229   1.728  0.6996 -0.4260 -0.0785
  707TMC3     C10508   2.760   0.088   1.378  0.3714  0.0055  0.2671
  707TMC3     O10509   2.802   4.714   1.354  0.1178  0.5479 -0.3331
  707TMC3     H10510   2.843   4.673   1.579 -0.6824 -0.0954 -0.1937
  707TMC3    H110511   2.783   0.334   1.447  0.9067 -0.9615 -1.4689
  707TMC3    H210512   2.993   0.277   1.802 -0.0567 -0.3702  0.5205
  707TMC3    C710513   2.949   0.441   1.608 -0.7435  0.5391  0.0489
  707TMC3    C810514   3.046   0.022   1.737 -0.1936 -0.7206  0.1504
  707TMC3    O110515   2.982   0.447   1.491 -0.4945  0.4842  0.4389
  707TMC3    O210516   3.128   0.090   1.797  0.4876 -0.1609 -0.1340
  708MPD2     C10517   3.942   3.254  13.866  0.2686  0.4103  0.1155
  708MPD2    C110518   3.835   3.335  13.833 -0.5987  0.6296 -0.2394
  708MPD2    C210519   3.730   3.341  13.919  0.0358  0.8260 -1.2032
  708MPD2    C310520   3.733   3.264  14.031 -0.3239 -0.3061  0.4423
  708MPD2    C410521   3.835   3.182  14.060  0.1361  0.2271 -0.4746
  708MPD2    C510522   3.941   3.171  13.976  0.2740 -0.4599 -0.3284
  708MPD2     H10523   3.642   3.386  13.876 -0.2683 -0.0950 -1.5441
  708MPD2    H110524   3.833   3.118  14.147  3.5584 -0.7980 -1.1394
  708MPD2    H210525   4.032   3.263  13.807 -1.6902 -0.1890 -2.9711
  708MPD2    H310526   4.022   3.101  13.987 -0.6982 -1.6490 -0.7543
  708MPD2     N10527   3.617   3.267  14.108 -0.2619 -0.5495  0.1169
  708MPD2    H510528   3.565   3.346  14.072  0.5932  0.0550  0.1984
  708MPD2    N110529   3.843   3.413  13.721  0.1069  0.4250  0.2162
  708MPD2    H710530   3.925   3.397  13.663 -0.9735  1.9020 -1.7186
  709TMC3    C110531   3.792   3.577  13.562 -0.6849  0.1955 -0.6580
  709TMC3    C210532   3.801   3.492  13.457  0.2594 -0.2595 -0.5726
  709TMC3    C310533   3.744   3.533  13.336 -0.4567  0.5108  0.2122
  709TMC3    C410534   3.724   3.688  13.549  0.6569  0.2421 -0.2151
  709TMC3    C510535   3.654   3.724  13.430  0.3208  0.0009 -0.0850
  709TMC3    C610536   3.665   3.644  13.324  0.8384 -0.2014 -0.3918
  709TMC3     C10537   3.764   3.517  13.687  0.3779  0.2582 -0.0579
  709TMC3     O10538   3.677   3.573  13.754 -0.0305  0.1247 -0.3052
  709TMC3     H10539   3.862   3.402  13.461  2.0268  1.0186  0.7303
  709TMC3    H110540   3.734   3.756  13.632  3.3397  1.7331 -1.7585
  709TMC3    H210541   3.587   3.647  13.249  1.6774 -0.5852 -1.2716
  709TMC3    C710542   3.513   3.760  13.461  0.1913 -0.8792 -0.4212
  709TMC3    C810543   3.755   3.442  13.223 -1.1611 -0.1527 -0.0911
  709TMC3    O110544   3.438   3.805  13.377 -0.5357 -0.3694  0.7773
  709TMC3    O210545   3.813   3.334  13.244  0.4430 -0.1602  0.0731
  710TMC3    C110546   0.090   0.936  17.663  0.1132 -0.5468  0.1690
  710TMC3    C210547   0.185   0.970  17.574  0.5129  0.1315 -0.5437
  710TMC3    C310548   0.306   0.908  17.590  0.1685 -0.0549  0.2676
  710TMC3    C410549   0.093   0.829   0.002 -0.2412 -0.4089  0.6437
  710TMC3    C510550   0.219   0.768   0.014  0.2275  0.1121  0.1479
  710TMC3    C610551   0.326   0.808  17.685  0.2960  0.2672  0.1895
  710TMC3     C10552   4.716   1.031  17.675  0.3581  0.5768 -0.5119
  710TMC3     O10553   4.711   1.112  17.584  0.2091  0.5385  0.0750
  710TMC3     H10554   0.170   1.056  17.510 -2.9426  1.7824  2.4904
  710TMC3    H110555   0.015   0.802   0.072 -0.5607 -0.4792  0.2559
  710TMC3    H210556   0.419   0.753  17.695  0.3890 -0.4228 -4.3082
  710TMC3    C710557   0.231   0.649   0.096 -0.0433  0.7895  0.4206
  710TMC3    C810558   0.408   0.931  17.489  0.4223  0.4405  0.1760
  710TMC3    O110559   0.163   0.645   0.200 -0.0858  0.4409 -0.1269
  710TMC3    O210560   0.365   0.975  17.381 -1.2602  0.0444 -1.1537
  711TMC3    C110561   4.367   1.534  15.121  0.1514 -0.1072  0.0760
  711TMC3    C210562   4.364   1.657  15.180  0.4204 -0.0860  0.8736
  711TMC3    C310563   4.446   1.672  15.289 -1.0214 -0.2065  0.3583
  711TMC3    C410564   4.455   1.433  15.169  0.5797 -0.3787  0.0991
  711TMC3    C510565   4.536   1.453  15.277 -0.6109  0.0506 -0.3167
  711TMC3    C610566   4.537   1.577  15.325 -0.1548  0.3881  0.5522
  711TMC3     C10567   4.261   1.503  15.021  0.3319 -0.3764  0.1788
  711TMC3     O10568   4.252   1.385  14.987 -0.9749 -0.6971 -0.3531
  711TMC3     H10569   4.297   1.739  15.159  0.9815 -0.2314 -1.4875
  711TMC3    H110570   4.455   1.348  15.102  1.3127 -0.0912 -0.2755
  711TMC3    H210571   4.600   1.589  15.413  0.4695  3.1315 -0.2850
  711TMC3    C710572   4.634   1.357  15.318  0.0813  0.3099  0.1615
  711TMC3    C810573   4.436   1.794  15.370  0.5264 -0.1267  0.4034
  711TMC3    O110574   4.733   1.399  15.379 -0.5662  0.0906 -0.0580
  711TMC3    O210575   4.329   1.823  15.427 -0.2159  0.4528  0.2630
  712MPD2     C10576   1.260   2.478  13.566 -0.6227 -1.2619 -0.8581
  712MPD2    C110577   1.130   2.473  13.611 -0.7328  0.8957 -0.8536
  712MPD2    C210578   1.092   2.538  13.723  0.6986 -0.6859  0.9560
  712MPD2    C310579   1.187   2.609  13.798 -0.4056 -0.1951 -0.0971
  712MPD2    C410580   1.316   2.603  13.759 -0.0184  0.4545 -0.2758
  712MPD2    C510581   1.353   2.540  13.644  0.3529 -0.0819 -0.3025
  712MPD2     H10582   0.996   2.516  13.767  0.9591 -1.6466  1.0516
  712MPD2    H110583   1.391   2.662  13.810  0.0431 -0.7575  1.0478
  712MPD2    H210584   1.301   2.430  13.478  1.1077  0.1374 -0.8093
  712MPD2    H310585   1.459   2.546  13.623  0.6254 -1.1652  0.7334
  712MPD2     N10586   1.164   2.685  13.906  0.2399  0.2199  0.2123
  712MPD2    H510587   1.237   2.731  13.960  0.5185 -2.3375  1.9713
  712MPD2    N110588   1.032   2.396  13.535 -0.2460  0.0660 -0.0400
  712MPD2    H710589   0.940   2.388  13.578 -0.7003  0.3852 -0.9568
  713TMC3    C110590   1.045   2.789  14.082  0.7445  0.1136  0.0802
  713TMC3    C210591   1.152   2.765  14.163 -0.0281 -0.1772  0.0069
  713TMC3    C310592   1.203   2.861  14.239 -0.5135  0.5710  0.4421
  713TMC3    C410593   0.985   2.911  14.080 -0.0911 -0.2287 -0.5473
  713TMC3    C510594   1.038   3.005  14.162 -0.4397 -0.3085  0.7756
  713TMC3    C610595   1.143   2.983  14.242 -0.1545  0.2681  0.0754
  713TMC3     C10596   1.038   2.722  13.952 -0.3790  0.1225  0.4783
  713TMC3     O10597   0.924   2.715  13.900 -0.3826  0.0661 -0.1561
  713TMC3     H10598   1.196   2.666  14.161  1.4370  0.4279  2.2925
  713TMC3    H110599   0.906   2.934  14.011  0.0809 -0.7129 -0.9034
  713TMC3    H210600   1.181   3.070  14.295  1.4814 -0.7521  0.5749
  713TMC3    C710601   0.999   3.143  14.149  0.4732  0.4392 -0.0222
  713TMC3    C810602   1.342   2.886  14.202 -0.1411 -0.1759 -0.3356
  713TMC3    O110603   1.084   3.229  14.175  0.0313  0.3881 -0.0867
  713TMC3    O210604   1.368   2.814  14.103 -0.0604 -0.5873  0.2013
  714MPD2     C10605   3.439   1.820   1.176  0.2677  0.3024  0.8293
  714MPD2    C110606   3.427   1.682   1.189  0.5387  0.6817  0.3176
  714MPD2    C210607   3.314   1.621   1.127 -0.3650 -0.1826 -0.4136
  714MPD2    C310608   3.214   1.691   1.062 -0.1350  0.0451  0.0213
  714MPD2    C410609   3.235   1.826   1.047 -1.0805 -0.1102  0.4773
  714MPD2    C510610   3.343   1.887   1.106  0.1436  0.3114 -0.1490
  714MPD2     H10611   3.295   1.514   1.130  1.8942 -0.5424  0.9969
  714MPD2    H110612   3.166   1.893   0.996 -1.6967 -0.1891  1.2122
  714MPD2    H210613   3.519   1.876   1.224  2.6966 -0.5034 -2.2500
  714MPD2    H310614   3.353   1.994   1.098  2.7163  0.1612  0.8723
  714MPD2     N10615   3.099   1.618   1.006  0.3899  0.1115 -0.3401
  714MPD2    H510616   3.084   1.522   1.035  0.5259 -0.2041 -1.2915
  714MPD2    N110617   3.524   1.608   1.266  0.4468 -0.2281  0.7448
  714MPD2    H710618   3.601   1.661   1.306 -0.9686  1.2836  1.4554
  715TMC3    C110619   3.676   1.433   1.317 -0.1725 -0.0047 -0.1287
  715TMC3    C210620   3.732   1.311   1.274  0.4142 -0.2424  0.6771
  715TMC3    C310621   3.824   1.255   1.356 -0.1770  0.4732 -0.3408
  715TMC3    C410622   3.725   1.499   1.427  0.0488 -0.5246  0.6553
  715TMC3    C510623   3.812   1.430   1.509 -0.6439 -0.7368  0.5757
  715TMC3    C610624   3.861   1.310   1.478  0.6693  0.3308 -0.3824
  715TMC3     C10625   3.549   1.470   1.258  0.3369 -0.3596  0.4758
  715TMC3     O10626   3.476   1.387   1.199  0.5206 -0.0688 -0.3613
  715TMC3     H10627   3.697   1.265   1.182 -1.1702 -0.1534  1.2383
  715TMC3    H110628   3.664   1.576   1.474  0.6887  0.3121  0.1129
  715TMC3    H210629   3.921   1.259   1.553 -0.8858  0.0603  0.6743
  715TMC3    C710630   3.919   1.504   1.564 -0.3067 -0.2938 -0.1464
  715TMC3    C810631   3.931   1.192   1.282 -0.5224  0.1210  0.7421
  715TMC3    O110632   4.029   1.439   1.558 -0.1754 -0.2006 -0.0854
  715TMC3    O210633   3.902   1.136   1.175 -0.0498 -0.4724 -0.3389
  716MPD2     C10634   3.955   4.227   9.506 -0.3658 -0.1751  0.0562
  716MPD2    C110635   3.920   4.241   9.374 -0.1038  0.5673  0.4858
  716MPD2    C210636   3.958   4.144   9.287 -0.2803  0.6784  0.4881
  716MPD2    C310637   4.044   4.043   9.321  0.0194 -0.1187 -0.0248
  716MPD2    C410638   4.077   4.023   9.454  0.6450 -0.2747  0.6609
  716MPD2    C510639   4.027   4.117   9.546 -0.1816 -0.3032  0.0057
  716MPD2     H10640   3.923   4.148   9.184  2.3228 -1.8058 -0.5129
  716MPD2    H110641   4.144   3.944   9.485  0.5975 -1.0167 -1.1292
  716MPD2    H210642   3.928   4.304   9.578 -2.7910 -0.0133 -1.0531
  716MPD2    H310643   4.048   4.110   9.652  0.2213 -0.5564 -0.0944
  716MPD2     N10644   4.098   3.961   9.222 -0.1531 -0.2362  0.1220
  716MPD2    H510645   4.062   3.978   9.128 -1.9750  0.3705  0.9316
  716MPD2    N110646   3.839   4.354   9.347  0.4391  0.1508  0.8417
  716MPD2    H710647   3.805   4.410   9.424 -1.4784 -1.5497  1.2465
  717TMC3    C110648   4.216   3.805   9.110  0.6571 -0.0677 -0.5659
  717TMC3    C210649   4.205   3.888   8.995 -0.1570 -0.0392 -0.3643
  717TMC3    C310650   4.213   3.818   8.873  0.0717  0.8884 -0.7157
  717TMC3    C410651   4.233   3.672   9.105 -0.9177 -0.4414 -0.5009
  717TMC3    C510652   4.238   3.607   8.984 -0.0724  0.3011  0.3298
  717TMC3    C610653   4.232   3.682   8.867 -0.4666 -0.3407 -0.4127
  717TMC3     C10654   4.194   3.865   9.237  0.0141 -0.3928  0.0946
  717TMC3     O10655   4.243   3.813   9.337 -0.3280 -0.2351  0.3368
  717TMC3     H10656   4.209   3.996   8.996  3.1735 -0.1267 -3.0052
  717TMC3    H110657   4.250   3.622   9.200 -0.0713 -1.5452 -1.2352
  717TMC3    H210658   4.248   3.640   8.769 -0.1003  0.1709 -0.5726
  717TMC3    C710659   4.270   3.468   8.971 -0.0179 -0.1256 -0.5727
  717TMC3    C810660   4.176   3.897   8.759  0.5307 -0.0967  0.7310
  717TMC3    O110661   4.293   3.444   8.854  0.1355 -0.3697  0.7146
  717TMC3    O210662   4.167   4.018   8.786 -0.0991 -0.7062  0.0075
  718MPD2     C10663   2.601   2.844  12.635 -0.3746 -0.5926  0.3552
  718MPD2    C110664   2.567   2.826  12.507  0.0627 -0.2026  0.1129
  718MPD2    C210665   2.523   2.702  12.463  0.1688  0.1244 -0.3153
  718MPD2    C310666   2.509   2.598  12.550  0.2568 -0.1249 -0.0403
  718MPD2    C410667   2.555   2.618  12.682  0.1485  0.1109 -0.4033
  718MPD2    C510668   2.600   2.742  12.724 -0.0793  0.0629  0.1538
  718MPD2     H10669   2.484   2.670  12.367 -0.2343  0.6298 -0.3204
  718MPD2    H110670   2.552   2.535  12.752  0.5778  1.8363  1.6487
  718MPD2    H210671   2.631   2.942  12.670 -2.9402  0.5114 -0.5445
  718MPD2    H310672   2.622   2.762  12.828  0.2530  0.6591 -0.0360
  718MPD2     N10673   2.466   2.473  12.487 -0.3300 -0.1273 -0.5283
  718MPD2    H510674   2.426   2.485  12.395 -0.1003 -2.3804 -0.9212
  718MPD2    N110675   2.563   2.930  12.415  0.8147 -0.7369  0.0148
  718MPD2    H710676   2.596   3.020  12.447  2.1390 -0.4595 -2.1645
  719TMC3    C110677   2.556   3.056  12.216 -0.0947 -0.1237 -0.3840
  719TMC3    C210678   2.519   3.026  12.090 -0.2102 -0.3491  0.2294
  719TMC3    C310679   2.619   3.035  11.987  0.2819  0.5934 -0.3292
  719TMC3    C410680   2.689   3.088  12.251 -0.1046 -0.5474  0.2273
  719TMC3    C510681   2.780   3.089  12.151 -0.1358 -0.1192 -0.0692
  719TMC3    C610682   2.745   3.074  12.017  0.0739 -0.2445  0.7665
  719TMC3     C10683   2.519   2.937  12.290 -0.1595  0.2460  0.4029
  719TMC3     O10684   2.460   2.851  12.222 -0.0282  0.3373  1.0005
  719TMC3     H10685   2.417   2.999  12.064  0.0139  0.2585 -1.3103
  719TMC3    H110686   2.708   3.112  12.355  1.7832  1.2337 -0.5347
  719TMC3    H210687   2.811   3.090  11.933  0.4128  1.2219  1.3078
  719TMC3    C710688   2.888   3.179  12.172 -0.2375 -0.5736 -0.7420
  719TMC3    C810689   2.601   2.932  11.889 -0.7054  1.1465  0.4944
  719TMC3    O110690   2.875   3.255  12.265 -0.0261  0.3758  0.5734
  719TMC3    O210691   2.663   2.941  11.782  0.4003 -0.2983  0.5684
  720MPD2     C10692   0.767   4.205  13.883 -0.3318  0.2658 -0.5424
  720MPD2    C110693   0.804   4.293  13.791  0.4573  0.1407  0.3369
  720MPD2    C210694   0.933   4.347  13.805  0.1782 -0.2317  0.5870
  720MPD2    C310695   1.019   4.321  13.910  0.1675  0.2518 -0.5873
  720MPD2    C410696   0.975   4.234  14.004  0.8507 -0.2911 -0.2076
  720MPD2    C510697   0.841   4.189  13.996 -0.1179 -0.3989  0.6735
  720MPD2     H10698   0.965   4.423  13.734 -2.4252  1.2588  1.0044
  720MPD2    H110699   1.030   4.196  14.089 -0.5028  1.6482  1.5464
  720MPD2    H210700   0.665   4.168  13.889 -0.2470 -0.0221 -0.8661
  720MPD2    H310701   0.798   4.124  14.070  0.1365 -1.6672 -0.2929
  720MPD2     N10702   1.140   4.394  13.918  0.5223 -0.0828 -0.2520
  720MPD2    H510703   1.176   4.431  13.830  1.2378 -0.8192 -0.2687
  720MPD2    N110704   0.723   4.347  13.691  1.5149  0.1362  0.1988
  720MPD2    H710705   0.759   4.424  13.636  0.6903  1.4486  1.4640
  721TMC3    C110706   1.340   4.466  14.025 -0.2094 -0.7795 -0.1606
  721TMC3    C210707   1.383   4.529  14.139 -0.5212 -0.0314  0.0039
  721TMC3    C310708   1.494   4.604  14.129 -0.3702  0.1541  0.0467
  721TMC3    C410709   1.400   4.474  13.902  0.1687 -0.7116 -0.4594
  721TMC3    C510710   1.508   4.556  13.894  0.1874  0.4044  0.1397
  721TMC3    C610711   1.550   4.618  14.008 -0.4069 -0.5173 -0.3515
  721TMC3     C10712   1.207   4.406  14.036 -0.2620 -0.2396 -0.4222
  721TMC3     O10713   1.165   4.372  14.146 -0.1570  0.3861 -0.1802
  721TMC3     H10714   1.323   4.512  14.227 -1.8515  0.3915 -0.8185
  721TMC3    H110715   1.374   4.409  13.820  0.3899 -0.3584 -0.8067
  721TMC3    H210716   1.639   4.679  13.995 -1.6992  1.4923  0.3955
  721TMC3    C710717   1.624   4.521  13.819 -0.0650 -1.2713 -0.3969
  721TMC3    C810718   1.583   4.619  14.239 -1.0330  0.0456  0.9158
  721TMC3    O110719   1.697   4.611  13.780 -0.3009 -0.0602  0.0439
  721TMC3    O210720   1.702   4.623  14.210  0.1191  0.2642  0.2185
  722MPD2     C10721   0.144   2.994  13.305 -0.0828 -0.3732 -0.8053
  722MPD2    C110722   0.095   3.124  13.309  0.0849  0.7279  0.0741
  722MPD2    C210723   4.706   3.137  13.246  0.7004 -0.8457  0.1860
  722MPD2    C310724   4.624   3.030  13.235  0.3500 -0.4655  0.8549
  722MPD2    C410725   4.672   2.902  13.248 -0.8725  0.1316 -0.0816
  722MPD2    C510726   0.066   2.884  13.269 -0.3404  0.4719  0.2534
  722MPD2     H10727   4.674   3.237  13.219 -1.6683 -0.8999  2.8125
  722MPD2    H110728   4.610   2.813  13.239  1.4779 -1.5493  0.4780
  722MPD2    H210729   0.248   2.965  13.318 -0.2607  0.0107  1.5261
  722MPD2    H310730   0.114   2.787  13.275 -1.5072 -0.1556 -0.4195
  722MPD2     N10731   4.482   3.069  13.214  0.0460 -0.4030 -0.2048
  722MPD2    H510732   4.464   3.168  13.202  0.9679 -0.4436 -1.9588
  722MPD2    N110733   0.174   3.237  13.349  0.0880  0.0587  0.0869
  722MPD2    H710734   0.136   3.328  13.327  0.2289 -0.6456 -2.9796
  723TMC3    C110735   4.253   3.048  13.259  0.0280 -0.3494  0.3890
  723TMC3    C210736   4.140   2.975  13.247 -0.2543  0.5994  0.5772
  723TMC3    C310737   4.029   3.019  13.307  0.3976  0.3205 -0.5330
  723TMC3    C410738   4.259   3.152  13.346  0.1585  0.2390  0.6368
  723TMC3    C510739   4.149   3.182  13.422  0.0155  0.5755 -0.0782
  723TMC3    C610740   4.031   3.109  13.409  0.4014  1.1532 -0.1726
  723TMC3     C10741   4.379   2.982  13.219  0.1808 -0.3162  0.5212
  723TMC3     O10742   4.379   2.863  13.197 -0.4101  0.2833 -0.0203
  723TMC3     H10743   4.131   2.893  13.177  0.9053  0.4778  0.5600
  723TMC3    H110744   4.348   3.213  13.359  0.0996  0.4849 -0.1061
  723TMC3    H210745   3.941   3.145  13.458 -0.0096  0.2585 -0.2677
  723TMC3    C710746   4.152   3.267  13.539 -1.1603 -0.2488 -0.3203
  723TMC3    C810747   3.899   2.962  13.274  0.2089 -0.3636  0.2943
  723TMC3    O110748   4.056   3.333  13.560  0.1124  0.1672 -0.8637
  723TMC3    O210749   3.805   2.965  13.357 -0.2506  0.3755  0.4479
  724TMC3    C110750   0.864   1.528   9.900  0.4486 -0.4636  0.7989
  724TMC3    C210751   0.856   1.592   9.774  0.3493  0.6037 -1.0430
  724TMC3    C310752   0.854   1.731   9.778 -0.1714  0.0282 -0.6012
  724TMC3    C410753   0.866   1.601  10.019  0.3990 -0.2978 -0.1706
  724TMC3    C510754   0.859   1.740  10.004 -0.6877 -0.3182 -0.2028
  724TMC3    C610755   0.841   1.808   9.885 -0.5507  0.4906 -0.2479
  724TMC3     C10756   0.821   1.383   9.907 -0.1909 -0.4197 -0.2218
  724TMC3     O10757   0.835   1.324  10.010 -0.4359  0.6501 -0.2828
  724TMC3     H10758   0.907   1.550   9.689 -1.0282  0.3800 -1.7558
  724TMC3    H110759   0.876   1.550  10.114  0.0725 -0.8025 -0.4083
  724TMC3    H210760   0.821   1.914   9.882 -1.6039  0.2059 -3.3029
  724TMC3    C710761   0.912   1.817  10.112 -0.1919 -0.1372  0.0151
  724TMC3    C810762   0.895   1.798   9.655 -0.2333 -0.6154 -0.0592
  724TMC3    O110763   0.919   1.938  10.078 -0.9409  0.3346  0.0151
  724TMC3    O210764   0.862   1.745   9.550 -0.3658  0.0474 -0.0312
  725TMC3    C110765   2.406   4.643  12.631  0.2152  0.7051  0.7667
  725TMC3    C210766   2.292   4.704  12.590 -0.3568 -0.7385 -0.3877
  725TMC3    C310767   2.227   4.660  12.478  0.4535  0.2965 -0.0239
  725TMC3    C410768   2.453   4.542  12.553  0.2509 -0.1694 -0.5043
  725TMC3    C510769   2.383   4.498  12.445  0.2802 -0.1608  0.0895
  725TMC3    C610770   2.268   4.553  12.406 -0.4337  0.0642  0.1727
  725TMC3     C10771   2.481   4.687  12.748  0.1183 -0.5296  0.2388
  725TMC3     O10772   2.422   0.033  12.817  0.2950 -0.0677 -0.5584
  725TMC3     H10773   2.274   0.065  12.635 -0.9535  0.0498 -2.3220
  725TMC3    H110774   2.542   4.496  12.595 -0.9377 -1.6260  0.3923
  725TMC3    H210775   2.204   4.514  12.328  1.2730 -0.4379 -0.9698
  725TMC3    C710776   2.426   4.378  12.367  0.3063  0.5936 -0.2350
  725TMC3    C810777   2.102   4.721  12.443 -0.2069  0.5754 -0.5474
  725TMC3    O110778   2.381   4.369  12.253 -0.3257 -0.4418  0.3820
  725TMC3    O210779   2.063   4.717  12.322 -0.0890 -0.3629  0.1110
  726MPD2     C10780   0.095   1.640   9.599 -0.1269  0.6136 -0.1546
  726MPD2    C110781   0.065   1.736   9.690 -0.3350  0.7558 -0.1646
  726MPD2    C210782   4.736   1.707   9.806 -0.3676 -0.3438  0.1628
  726MPD2    C310783   4.684   1.583   9.821  0.5205 -0.9306 -0.5040
  726MPD2    C410784   4.704   1.480   9.725 -0.8607 -0.4379  0.1975
  726MPD2    C510785   0.043   1.514   9.622 -0.7658 -0.4117 -0.3122
  726MPD2     H10786   0.005   1.776   9.890 -1.2299  0.8611 -0.7722
  726MPD2    H110787   4.681   1.375   9.735 -2.4305 -0.0057  1.1757
  726MPD2    H210788   0.165   1.656   9.517  1.0941  2.0500  1.1568
  726MPD2    H310789   0.075   1.433   9.558  1.2051  1.3787 -1.6196
  726MPD2     N10790   4.602   1.538   9.926 -0.1067 -0.3476 -0.7862
  726MPD2    H510791   4.573   1.441   9.927 -0.4060 -0.2521 -0.2870
  726MPD2    N110792   0.099   1.871   9.666 -0.2946  0.3775  0.1792
  726MPD2    H710793   0.083   1.938   9.741 -0.3841  0.5390  0.0141
  727TMC3    C110794   0.154   2.070   9.536  0.7244 -0.3109 -0.0519
  727TMC3    C210795   0.207   2.128   9.643  0.4733  1.0117  0.0165
  727TMC3    C310796   0.281   2.243   9.626 -0.8284 -0.1260  0.0399
  727TMC3    C410797   0.180   2.110   9.410 -0.3634 -0.4238  0.0685
  727TMC3    C510798   0.255   2.226   9.389 -0.2445  0.0264  0.5504
  727TMC3    C610799   0.310   2.289   9.501 -0.0053  0.9808  0.0744
  727TMC3     C10800   0.114   1.926   9.539  1.1521 -0.0850  0.3772
  727TMC3     O10801   0.101   1.872   9.430 -0.0549 -0.4431  0.1364
  727TMC3     H10802   0.163   2.099   9.738  0.2126 -2.5158 -1.1985
  727TMC3    H110803   0.139   2.077   9.315  0.4857  0.0859 -0.4764
  727TMC3    H210804   0.381   2.370   9.489  0.6374  0.2848 -0.8406
  727TMC3    C710805   0.328   2.246   9.263  0.1456 -0.2572 -0.1637
  727TMC3    C810806   0.340   2.296   9.745  0.1229 -0.3360  0.0225
  727TMC3    O110807   0.415   2.335   9.251  0.6071 -0.1626  0.2604
  727TMC3    O210808   0.334   2.229   9.846 -0.6105  0.1210  0.3852
  728TMC3    C110809   3.597   0.319  14.979 -0.1575  0.1910  0.0564
  728TMC3    C210810   3.682   0.298  15.086 -0.1829 -0.3147  0.4565
  728TMC3    C310811   3.814   0.281  15.065  0.9138 -0.2634  0.1577
  728TMC3    C410812   3.651   0.327  14.851  0.4695  0.6932 -0.3092
  728TMC3    C510813   3.785   0.293  14.833 -0.2238 -0.6361 -1.0745
  728TMC3    C610814   3.867   0.257  14.940 -0.4795  1.0540  0.1404
  728TMC3     C10815   3.476   0.403  15.006  0.0029  0.0368 -0.3082
  728TMC3     O10816   3.439   0.459  14.910  0.7755 -0.3570 -0.6541
  728TMC3     H10817   3.651   0.319  15.188  2.9401  2.7993  0.7886
  728TMC3    H110818   3.591   0.356  14.766  0.8205  2.5676  0.0833
  728TMC3    H210819   3.972   0.268  14.916 -0.4654 -0.0162 -0.3255
  728TMC3    C710820   3.845   0.308  14.707  0.5566 -0.1860  0.4320
  728TMC3    C810821   3.905   0.277  15.183  0.0847  0.9311 -0.5706
  728TMC3    O110822   3.922   0.217  14.671 -0.0750 -0.1526 -0.2866
  728TMC3    O210823   3.869   0.351  15.271 -0.1191  0.3844  0.0385
  729MPD2     C10824   1.040   1.552  17.140 -0.4509 -0.3803 -0.1433
  729MPD2    C110825   1.170   1.561  17.099  0.0465  0.1524  0.6019
  729MPD2    C210826   1.268   1.558  17.192 -0.0196 -0.2695  0.1453
  729MPD2    C310827   1.237   1.543  17.328  0.5531 -0.1869 -0.3039
  729MPD2    C410828   1.104   1.538  17.365 -0.2078 -0.0834  0.0116
  729MPD2    C510829   1.007   1.551  17.269 -0.1227  0.1966  0.5315
  729MPD2     H10830   1.364   1.586  17.149 -0.4534  1.1309  0.1106
  729MPD2    H110831   1.073   1.529  17.468  0.5368 -2.1855  0.0531
  729MPD2    H210832   0.957   1.564  17.071 -0.6097  0.2467  0.1575
  729MPD2    H310833   0.901   1.558  17.292 -0.7740  0.5998 -2.7038
  729MPD2     N10834   1.331   1.554  17.430 -0.9367  0.1234 -0.0380
  729MPD2    H510835   1.297   1.557  17.525 -0.4857 -0.3109  0.1328
  729MPD2    N110836   1.194   1.582  16.960 -0.0447 -1.0138  0.4089
  729MPD2    H710837   1.114   1.595  16.899  0.9741 -1.3491 -1.0038
  730TMC3    C110838   1.518   1.634  17.536 -0.2141 -0.2786  1.0982
  730TMC3    C210839   1.654   1.634  17.529 -0.2707  0.2976 -0.2948
  730TMC3    C310840   1.722   1.743  17.571 -0.2175  0.3002 -0.3907
  730TMC3    C410841   1.455   1.740  17.603 -0.2017  0.4286  0.2225
  730TMC3    C510842   1.520   1.846  17.661 -0.1678 -0.7403  0.3604
  730TMC3    C610843   1.662   1.841  17.652  0.2053 -0.1493 -0.2970
  730TMC3     C10844   1.465   1.563  17.423  0.4340 -0.3884  0.8930
  730TMC3     O10845   1.533   1.555  17.322  0.7091 -0.3075 -0.5809
  730TMC3     H10846   1.704   1.568  17.460 -2.1923 -1.0122 -0.4126
  730TMC3    H110847   1.347   1.744  17.614 -0.2017  1.7532 -0.3337
  730TMC3    H210848   1.728   1.912  17.700 -3.3518  0.4348  3.7144
  730TMC3    C710849   1.450   1.978  17.660  0.0921  0.0949 -0.1523
  730TMC3    C810850   1.800   1.807  17.465 -0.0426 -0.0579  0.7158
  730TMC3    O110851   1.350   1.989  17.590 -0.6050 -0.0479 -0.1513
  730TMC3    O210852   1.824   1.736  17.371  0.1328  0.2608 -0.0754
  731MPD2     C10853   1.497   3.759  12.099  0.3418 -0.3004  0.2139
  731MPD2    C110854   1.490   3.890  12.058 -0.0056 -1.0705  0.8150
  731MPD2    C210855   1.449   3.992  12.138 -0.1399  0.4212  0.1760
  731MPD2    C310856   1.398   3.960  12.264 -0.4886 -0.1699  0.1503
  731MPD2    C410857   1.388   3.824  12.303 -0.2195  0.4045 -0.2842
  731MPD2    C510858   1.435   3.727  12.217  0.0336  0.1220  0.0828
  731MPD2     H10859   1.448   4.097  12.111  1.0152 -0.2164 -2.3317
  731MPD2    H110860   1.346   3.789  12.397 -1.3648 -1.4725 -1.5091
  731MPD2    H210861   1.537   3.679  12.038 -1.0225 -0.8760  0.0667
  731MPD2    H310862   1.434   3.626  12.256  3.8447 -0.0188 -0.1739
  731MPD2     N10863   1.362   4.065  12.356 -0.1076  0.6987 -0.1874
  731MPD2    H510864   1.398   4.157  12.334 -1.0365  1.8586  3.1307
  731MPD2    N110865   1.541   3.915  11.930  0.1150 -0.2242 -0.1649
  731MPD2    H710866   1.586   3.835  11.887  1.7177  0.1720  0.7412
  732TMC3    C110867   1.563   4.013  11.712 -0.2840 -0.2233  0.5020
  732TMC3    C210868   1.475   4.048  11.623 -0.1590  0.1571 -0.0547
  732TMC3    C310869   1.480   4.001  11.495  0.0162  0.0763  0.7232
  732TMC3    C410870   1.683   3.950  11.681  0.2606 -0.0088 -0.0929
  732TMC3    C510871   1.686   3.898  11.551 -0.2650  0.4470 -0.6950
  732TMC3    C610872   1.584   3.921  11.463  0.3007 -0.0964  0.0452
  732TMC3     C10873   1.517   4.026  11.854  0.3544 -0.0123  0.8543
  732TMC3     O10874   1.460   4.129  11.886 -0.0894 -0.2132 -0.0108
  732TMC3     H10875   1.399   4.117  11.660  0.1855  1.1992 -1.3005
  732TMC3    H110876   1.746   3.929  11.767  0.6383 -2.3457 -0.9305
  732TMC3    H210877   1.594   3.890  11.360  0.3636 -2.0919  0.6509
  732TMC3    C710878   1.797   3.845  11.483  0.0568  0.2525  0.0614
  732TMC3    C810879   1.373   3.993  11.407 -0.1653 -0.2864 -0.0344
  732TMC3    O110880   1.770   3.775  11.388  0.3034  0.4978 -0.1443
  732TMC3    O210881   1.392   4.003  11.288 -0.2462  0.5552 -0.1753
  733TMC3    C110882   2.218   2.126  12.363  0.2904 -0.4134  0.3155
  733TMC3    C210883   2.296   2.171  12.471  0.1909 -0.1412 -0.6603
  733TMC3    C310884   2.408   2.253  12.446  0.2322 -0.6233 -0.2301
  733TMC3    C410885   2.252   2.157  12.235 -0.4379 -0.8553  0.6573
  733TMC3    C510886   2.365   2.223  12.209 -0.0417  0.5082  0.0737
  733TMC3    C610887   2.442   2.276  12.313  0.0899 -0.0182 -0.1090
  733TMC3     C10888   2.076   2.111  12.385  0.2852  0.3654  0.4466
  733TMC3     O10889   2.007   2.164  12.305 -0.0815 -0.0754  0.2004
  733TMC3     H10890   2.264   2.145  12.571  2.2335  0.9962  0.2984
  733TMC3    H110891   2.184   2.119  12.160 -1.6966  0.8462  0.9262
  733TMC3    H210892   2.532   2.333  12.294 -1.2898  1.5480 -1.9762
  733TMC3    C710893   2.392   2.264  12.077  0.4869  0.1389 -0.7883
  733TMC3    C810894   2.438   2.355  12.551 -1.0230  0.2964 -0.6801
  733TMC3    O110895   2.354   2.195  11.980  0.2145  0.7577 -0.1175
  733TMC3    O210896   2.456   2.319  12.670  0.0188  0.2796  0.3958
  734MPD2     C10897   3.886   0.213  11.962  0.3119  0.3075 -0.0761
  734MPD2    C110898   3.934   0.095  11.899  0.3205 -0.5293 -0.0335
  734MPD2    C210899   3.998   0.105  11.780 -0.1758 -0.8425 -0.2834
  734MPD2    C310900   4.013   0.230  11.719 -0.1378  0.7278  0.5821
  734MPD2    C410901   3.955   0.346  11.773  0.1192  0.1711  0.5903
  734MPD2    C510902   3.890   0.332  11.892 -0.4331  0.5868 -0.2144
  734MPD2     H10903   4.028   0.017  11.723 -1.0622 -1.5113  0.2858
  734MPD2    H110904   3.963   0.440  11.720 -0.3828 -0.7714 -1.1335
  734MPD2    H210905   3.862   0.217  12.067 -2.2137  0.2449 -0.6361
  734MPD2    H310906   3.851   0.423  11.936  1.6907  0.6975  1.4356
  734MPD2     N10907   4.074   0.226  11.591 -0.5970  0.4433  0.2234
  734MPD2    H510908   4.094   0.136  11.548 -2.2454  0.8572 -1.4212
  734MPD2    N110909   3.931   4.705  11.958 -0.0666  0.2480 -0.1228
  734MPD2    H710910   3.984   4.631  11.913  0.4310  1.1785 -1.0706
  735TMC3    C110911   3.836   4.521  12.087  0.3523 -0.0297 -0.4084
  735TMC3    C210912   3.766   4.458  11.982  0.2608  0.3439  0.0145
  735TMC3    C310913   3.810   4.334  11.939 -0.3590  0.4161 -0.6710
  735TMC3    C410914   3.951   4.461  12.143  0.2914 -0.3682  0.0994
  735TMC3    C510915   3.980   4.336  12.099 -0.3924 -0.0293  0.6866
  735TMC3    C610916   3.916   4.269  11.999 -0.5941  0.2323 -0.5336
  735TMC3     C10917   3.863   4.668  12.071 -0.0074 -0.0366  0.4745
  735TMC3     O10918   3.792   0.006  12.140 -0.2743  0.1011 -0.4547
  735TMC3     H10919   3.689   4.493  11.915 -1.0711  1.1822  2.0032
  735TMC3    H110920   4.017   4.519  12.206 -0.4535 -0.3546  0.8745
  735TMC3    H210921   3.958   4.177  11.959 -2.6310 -1.6069  1.6100
  735TMC3    C710922   4.121   4.296  12.126  0.4191  0.0573 -0.0541
  735TMC3    C810923   3.791   4.308  11.792 -0.0090 -0.3722 -0.1037
  735TMC3    O110924   4.192   4.392  12.151  0.3637 -0.7630 -0.1286
  735TMC3    O210925   3.732   4.203  11.759 -0.0337 -0.1536  0.4297
  736MPD2     C10926   4.296   3.980  12.121  0.1294 -0.3140  0.3206
  736MPD2    C110927   4.275   4.115  12.088 -0.2108 -0.0676  0.4677
  736MPD2    C210928   4.384   4.192  12.044 -0.3142 -0.5767  0.1675
  736MPD2    C310929   4.507   4.137  12.023  0.0384  0.8226  0.2051
  736MPD2    C410930   4.518   4.001  12.050 -0.0242 -0.6357  0.7748
  736MPD2    C510931   4.420   3.925  12.105  0.1327  0.3308  0.5399
  736MPD2     H10932   4.372   4.292  12.003  0.1783 -0.5507  0.0866
  736MPD2    H110933   4.615   3.958  12.028  0.2522 -0.5252  1.7627
  736MPD2    H210934   4.213   3.915  12.145 -0.1427 -0.0711  0.0446
  736MPD2    H310935   4.437   3.819  12.120 -0.6640  0.0368 -0.6424
  736MPD2     N10936   4.612   4.209  11.968  0.1904 -0.4904  0.4906
  736MPD2    H510937   4.696   4.155  11.950  0.3833  0.0199 -0.1502
  736MPD2    N110938   4.149   4.164  12.124  0.8475 -0.7410 -0.3287
  736MPD2    H710939   4.068   4.103  12.135 -1.0967  1.6575 -1.3083
  737TMC3    C110940   0.010   4.387  11.894  0.4274 -0.4547 -0.3287
  737TMC3    C210941   0.004   4.518  11.851 -0.1155 -0.0188  1.0069
  737TMC3    C310942   0.113   4.566  11.780  0.0895  0.5915  0.1453
  737TMC3    C410943   0.113   4.300  11.871 -0.0542 -0.3809  0.3248
  737TMC3    C510944   0.219   4.349  11.802  0.9502  0.4484  0.2049
  737TMC3    C610945   0.223   4.479  11.754  0.1517 -0.3424  0.1800
  737TMC3     C10946   4.620   4.341  11.954 -0.7309 -0.5819  0.6697
  737TMC3     O10947   4.528   4.425  11.967 -0.0076 -0.4298  0.6474
  737TMC3     H10948   4.663   4.589  11.876  1.6711  1.6863  1.6795
  737TMC3    H110949   0.117   4.202  11.918 -1.9772 -0.4352  0.3530
  737TMC3    H210950   0.313   4.523  11.714 -0.2417 -1.1297 -1.5469
  737TMC3    C710951   0.300   4.250  11.737 -0.4046 -0.2732 -0.0820
  737TMC3    C810952   0.069   4.651  11.673  0.8482  0.4565 -0.8862
  737TMC3    O110953   0.244   4.141  11.739  0.1334  0.2815 -0.9634
  737TMC3    O210954   4.682   4.637  11.645 -0.6343 -0.0697  0.7003
  738MPD2     C10955   0.403   3.487  15.369  0.3481  0.1864 -0.1947
  738MPD2    C110956   0.364   3.445  15.242  0.4059 -0.0291  0.1304
  738MPD2    C210957   0.434   3.485  15.137 -0.4015  0.1976 -0.0632
  738MPD2    C310958   0.534   3.578  15.147  0.4208 -0.4108  0.5868
  738MPD2    C410959   0.572   3.614  15.274 -0.3667 -0.9926  0.5920
  738MPD2    C510960   0.514   3.568  15.384  0.2114 -0.3544  0.4096
  738MPD2     H10961   0.394   3.442  15.046 -1.6357  1.0369  0.0799
  738MPD2    H110962   0.652   3.685  15.293 -0.1635 -1.1953  0.5083
  738MPD2    H210963   0.356   3.450  15.459 -1.2498 -1.3644 -1.6678
  738MPD2    H310964   0.555   3.595  15.481 -0.4214  1.7778  0.0958
  738MPD2     N10965   0.609   3.645  15.045 -0.6881  0.0033  0.1612
  738MPD2    H510966   0.664   3.728  15.065 -0.4371 -0.3320  0.8653
  738MPD2    N110967   0.256   3.354  15.219  0.0167 -0.5548 -0.2799
  738MPD2    H710968   0.236   3.322  15.125  0.0954 -0.2687 -0.3968
  739TMC3    C110969   0.714   3.672  14.833  0.4438 -0.3973 -0.3650
  739TMC3    C210970   0.675   3.715  14.704 -0.0163  0.2136 -0.8524
  739TMC3    C310971   0.767   3.791  14.633  0.5817  0.0396  0.0558
  739TMC3    C410972   0.820   3.725  14.896 -0.2541 -0.7341 -0.2267
  739TMC3    C510973   0.899   3.811  14.824 -0.9980  0.0791 -0.7318
  739TMC3    C610974   0.879   3.851  14.694 -0.5031  0.0521 -0.7312
  739TMC3     C10975   0.605   3.609  14.915 -0.0055  0.0318 -0.1348
  739TMC3     O10976   0.530   3.538  14.847 -0.5790 -0.1208  0.0776
  739TMC3     H10977   0.582   3.680  14.662 -0.5651 -1.1356  1.4920
  739TMC3    H110978   0.856   3.691  14.993  1.2875  1.7421  0.0608
  739TMC3    H210979   0.933   3.927  14.639  1.5361 -0.9458 -0.1078
  739TMC3    C710980   1.031   3.846  14.892 -0.5205  0.0569 -0.5460
  739TMC3    C810981   0.740   3.816  14.491 -0.4855 -0.5922  0.4590
  739TMC3    O110982   1.056   3.801  15.003  0.2013  0.3205 -0.6732
  739TMC3    O210983   0.621   3.822  14.458 -0.6332  0.4318  0.0118
  740TMC3    C110984   0.839   4.723  14.573  0.0605  1.0785  0.6956
  740TMC3    C210985   0.877   4.651  14.686 -0.4143 -0.2926  0.2637
  740TMC3    C310986   0.996   4.586  14.683 -0.3212  0.3612  0.1752
  740TMC3    C410987   0.926   4.729  14.463  0.4090 -0.0533  0.0438
  740TMC3    C510988   1.041   4.660  14.461  0.1006  0.3727  0.6039
  740TMC3    C610989   1.082   4.595  14.576  0.3504  0.1019  0.2836
  740TMC3     C10990   0.717   0.075  14.572  0.1211 -0.1633 -0.1283
  740TMC3     O10991   0.715   0.172  14.497  0.5987 -0.2349  0.1015
  740TMC3     H10992   0.807   4.659  14.768 -2.8525  2.2832 -2.0278
  740TMC3    H110993   0.884   0.042  14.376 -0.4021 -2.5235 -0.9639
  740TMC3    H210994   1.169   4.531  14.578  1.4591  1.5776 -0.1753
  740TMC3    C710995   1.141   4.686  14.364  0.1165  0.5046 -0.4813
  740TMC3    C810996   1.032   4.492  14.790 -0.0655  0.3542 -0.2800
  740TMC3    O110997   1.258   4.685  14.401  0.6218  0.4967 -0.1856
  740TMC3    O210998   1.108   4.401  14.769 -0.0629  0.2384  0.2764
  741TMC3    C110999   0.190   4.090  14.632 -0.0986  0.2050 -0.0890
  741TMC3    C211000   0.189   3.981  14.549 -0.8206  0.2289  0.4347
  741TMC3    C311001   0.262   3.874  14.591 -0.2191  0.2181  0.2690
  741TMC3    C411002   0.258   4.101  14.750  1.1467 -0.4043  0.4880
  741TMC3    C511003   0.318   3.986  14.790 -0.1727  0.6086  0.7344
  741TMC3    C611004   0.322   3.871  14.719 -0.5791  0.1759  0.0236
  741TMC3     C11005   0.162   4.220  14.570  0.2106  0.5712  0.6397
  741TMC3     O11006   0.110   4.305  14.644  0.3626 -0.3148  0.1526
  741TMC3     H11007   0.123   3.979  14.463 -0.9141  0.4066  0.5028
  741TMC3    H111008   0.240   4.190  14.809 -1.6421 -0.5754 -0.1110
  741TMC3    H211009   0.368   3.779  14.752  0.6491  0.9041  0.3328
  741TMC3    C711010   0.363   3.963  14.926  0.1206  0.4496 -0.3639
  741TMC3    C811011   0.208   3.747  14.553  0.7886  0.3463  0.7611
  741TMC3    O111012   0.406   3.851  14.952  0.3127 -0.0645  0.1699
  741TMC3    O211013   0.282   3.654  14.536 -0.0847 -0.3582 -0.1966
  742TMC3    C111014   0.185   2.414  15.379 -0.0702  0.2403  0.1883
  742TMC3    C211015   0.130   2.420  15.248  0.4115 -0.1761 -0.4919
  742TMC3    C311016   0.223   2.400  15.151 -0.2357  0.1399  0.4585
  742TMC3    C411017   0.315   2.388  15.403  0.1491  0.5045 -0.4564
  742TMC3    C511018   0.404   2.382  15.301  0.2298 -0.6609 -0.2970
  742TMC3    C611019   0.355   2.388  15.171  0.0174 -0.8170 -0.4184
  742TMC3     C11020   0.098   2.418  15.491 -0.4777 -0.0824  0.6030
  742TMC3     O11021   4.717   2.392  15.472 -0.6563  0.3296 -0.3527
  742TMC3     H11022   0.028   2.391  15.227  0.9811 -2.3344 -0.3310
  742TMC3    H111023   0.348   2.355  15.501 -3.7630  0.8286  0.9924
  742TMC3    H211024   0.426   2.369  15.091  0.4744 -3.4436  0.6182
  742TMC3    C711025   0.544   2.368  15.322  0.5668 -0.5976  0.4383
  742TMC3    C811026   0.178   2.374  15.012  0.7481  0.0954  0.0091
  742TMC3    O111027   0.619   2.366  15.228  0.1915 -0.2467 -0.4346
  742TMC3    O211028   0.265   2.312  14.948 -0.0379 -0.5356  0.0348
  743MPD2     C11029   3.480   3.393   1.540 -0.0971 -0.1805 -0.4237
  743MPD2    C111030   3.497   3.530   1.548  0.5410 -0.1997  0.2566
  743MPD2    C211031   3.624   3.575   1.576  0.2957 -0.0036 -0.1794
  743MPD2    C311032   3.728   3.492   1.591 -0.6068 -0.2740 -0.1646
  743MPD2    C411033   3.708   3.354   1.593  0.2723 -0.3591 -0.0242
  743MPD2    C511034   3.580   3.307   1.564 -0.3070 -1.2321 -0.2610
  743MPD2     H11035   3.643   3.682   1.585 -1.2711  0.3483 -1.0765
  743MPD2    H111036   3.792   3.286   1.582  2.2533  2.0611  0.3268
  743MPD2    H211037   3.383   3.349   1.521  0.2775 -1.1527 -0.0660
  743MPD2    H311038   3.569   3.199   1.556  0.3637 -1.1203 -2.7052
  743MPD2     N11039   3.857   3.544   1.602 -0.2796 -1.0259  0.0119
  743MPD2    H511040   3.866   3.645   1.596 -1.2580 -0.7328  3.0244
  743MPD2    N111041   3.389   3.609   1.504 -0.9099 -0.1856  0.2574
  743MPD2    H711042   3.305   3.562   1.470  0.1748 -0.5935 -1.8628
  744TMC3    C111043   3.269   3.818   1.459 -0.8263  0.0626  0.1241
  744TMC3    C211044   3.253   3.942   1.497  0.3221 -0.4418 -0.5316
  744TMC3    C311045   3.162   4.023   1.434  0.2660 -0.4853 -0.3972
  744TMC3    C411046   3.209   3.770   1.349 -0.0354 -0.7428 -0.5399
  744TMC3    C511047   3.104   3.845   1.292  0.0329 -0.1835  0.0835
  744TMC3    C611048   3.078   3.972   1.337 -0.5495 -0.0587  0.0600
  744TMC3     C11049   3.386   3.746   1.518 -0.9247 -0.1702  0.1517
  744TMC3     O11050   3.477   3.818   1.561 -0.9984  0.4939  0.2642
  744TMC3     H11051   3.312   3.975   1.582 -1.2692  0.4699  0.2187
  744TMC3    H111052   3.252   3.678   1.311  0.5466 -0.8154  0.2874
  744TMC3    H211053   2.998   4.029   1.290 -0.1203 -0.1372 -0.7742
  744TMC3    C711054   3.036   3.787   1.182 -0.4932 -0.4885  0.6349
  744TMC3    C811055   3.145   4.160   1.466 -0.5048 -0.2040 -0.0186
  744TMC3    O111056   2.957   3.860   1.118 -0.4013  0.8913 -0.7607
  744TMC3    O211057   3.050   4.222   1.428 -0.1944  0.2177 -0.5216
  745TMC3    C111058   0.903   2.357  13.346  0.6257 -0.4688  0.2120
  745TMC3    C211059   0.802   2.319  13.431  0.2490  0.2700  0.1778
  745TMC3    C311060   0.674   2.340  13.394 -0.3388 -0.1421  0.0638
  745TMC3    C411061   0.861   2.442  13.241  0.8610 -0.6098 -0.4855
  745TMC3    C511062   0.730   2.465  13.207 -0.8152 -0.1790 -0.8775
  745TMC3    C611063   0.631   2.411  13.286  0.3113 -0.5874  0.0100
  745TMC3     C11064   1.038   2.369  13.399  0.0564  0.4206 -0.1546
  745TMC3     O11065   1.132   2.389  13.326 -0.6431  0.1918  0.1334
  745TMC3     H11066   0.829   2.237  13.497  3.4044 -0.1883 -1.6800
  745TMC3    H111067   0.938   2.507  13.200  0.8135 -1.2682 -1.6026
  745TMC3    H211068   0.527   2.430  13.260 -0.2577 -0.3951  2.4604
  745TMC3    C711069   0.701   2.537  13.088 -0.5455  0.6262  0.0630
  745TMC3    C811070   0.570   2.311  13.487 -0.9212  0.0290  0.1268
  745TMC3    O111071   0.607   2.613  13.082 -0.0459 -0.5396 -0.5486
  745TMC3    O211072   0.459   2.336  13.446 -0.1114 -0.7782 -0.5122
  746TMC3    C111073   3.390   4.493  10.557  1.1783 -0.3570 -1.3554
  746TMC3    C211074   3.454   4.470  10.442  0.2531 -0.2742  0.3245
  746TMC3    C311075   3.487   4.348  10.398 -0.0653  0.3056 -0.1470
  746TMC3    C411076   3.346   4.388  10.629  0.5004  0.0506  0.4133
  746TMC3    C511077   3.367   4.257  10.579  0.0048  0.3836  0.3625
  746TMC3    C611078   3.447   4.235  10.465  0.5137  0.1258 -0.1579
  746TMC3     C11079   3.397   4.618  10.629 -0.2049 -0.4169 -0.3921
  746TMC3     O11080   3.335   4.622  10.738 -1.0880  0.1903  0.7420
  746TMC3     H11081   3.496   4.555  10.388 -1.8990  0.6253  0.0737
  746TMC3    H111082   3.284   4.393  10.718 -1.1649 -1.0847 -0.6838
  746TMC3    H211083   3.462   4.137  10.422  2.0112 -0.1644  1.0020
  746TMC3    C711084   3.265   4.160  10.595 -0.6235  0.4996  0.4340
  746TMC3    C811085   3.530   4.330  10.261 -0.5077  0.0432  0.4888
  746TMC3    O111086   3.228   4.107  10.491 -0.7781 -0.1495  0.2900
  746TMC3    O211087   3.614   4.245  10.245  0.6011 -0.3453 -0.5071
  747TMC3    C111088   1.142   4.430  11.121  0.2696  0.2999  0.0399
  747TMC3    C211089   1.019   4.361  11.128  0.2398  0.7537  0.1816
  747TMC3    C311090   0.983   4.300  11.245 -0.2282  0.1838 -0.2623
  747TMC3    C411091   1.223   4.428  11.230 -0.7070 -0.0786  0.0863
  747TMC3    C511092   1.185   4.352  11.341 -0.3907 -0.1716 -0.6579
  747TMC3    C611093   1.065   4.295  11.359  0.9766 -0.2590  0.2124
  747TMC3     C11094   1.177   4.513  11.006  0.0527 -0.1368  0.2110
  747TMC3     O11095   1.239   4.617  11.037  0.2881 -0.2842 -0.5026
  747TMC3     H11096   0.950   4.352  11.045 -0.7557 -1.4247  1.2563
  747TMC3    H111097   1.321   4.475  11.230  0.1833 -1.8990 -2.1652
  747TMC3    H211098   1.056   4.222  11.439  1.4701  0.9699  1.3858
  747TMC3    C711099   1.275   4.346  11.452 -0.2218 -0.3246 -0.0267
  747TMC3    C811100   0.854   4.224  11.256  0.3220  0.3252  0.5133
  747TMC3    O111101   1.235   4.343  11.566  0.3711  0.1550 -0.3561
  747TMC3    O211102   0.802   4.174  11.158  0.1949  0.0890 -0.9424
  748MPD2     C11103   2.599   0.688   1.727  0.4949  0.2537  0.5918
  748MPD2    C111104   2.589   0.598   1.625 -0.1259 -0.4081  0.1568
  748MPD2    C211105   2.672   0.611   1.515 -0.2342  0.6474  0.0367
  748MPD2    C311106   2.753   0.719   1.495 -0.0203 -0.2367 -0.0729
  748MPD2    C411107   2.762   0.810   1.599  0.0664 -0.2267  0.2131
  748MPD2    C511108   2.689   0.793   1.712  0.5976 -0.5980  0.3739
  748MPD2     H11109   2.677   0.541   1.431 -2.2652 -0.6083  0.9550
  748MPD2    H111110   2.832   0.893   1.590  1.4566 -1.2672  1.4678
  748MPD2    H211111   2.540   0.669   1.816  0.7882  1.0181  0.9448
  748MPD2    H311112   2.698   0.872   1.786  2.1030 -0.4769  0.0494
  748MPD2     N11113   2.826   0.714   1.378  0.0877 -0.5669 -0.0729
  748MPD2    H511114   2.816   0.627   1.326  1.3978  0.3208 -1.8018
  748MPD2    N111115   2.502   0.487   1.653 -0.1978  0.2769  0.4271
  748MPD2    H711116   2.443   0.485   1.736  1.4612  1.4119  1.6255
  749TMC3    C111117   2.956   0.795   1.206  0.3918 -0.2222  0.4940
  749TMC3    C211118   3.031   0.676   1.200  0.2926  0.2142  0.0451
  749TMC3    C311119   3.126   0.669   1.104  0.1230 -0.2706  0.9056
  749TMC3    C411120   2.987   0.901   1.125 -0.5816  0.2903  0.5424
  749TMC3    C511121   3.071   0.886   1.019  0.7733 -0.9455 -0.4196
  749TMC3    C611122   3.137   0.766   1.008  0.5991 -0.1482  0.2332
  749TMC3     C11123   2.891   0.821   1.326 -0.3093 -0.1585  0.5296
  749TMC3     O11124   2.896   0.941   1.359  0.2703 -0.6621 -0.1265
  749TMC3     H11125   3.025   0.596   1.272  0.4126 -0.3978 -0.6176
  749TMC3    H111126   2.932   0.993   1.138  0.4979  0.5781  3.2567
  749TMC3    H211127   3.217   0.744   0.938  1.3693 -0.4099  1.1993
  749TMC3    C711128   3.108   1.004   0.942 -0.4437 -0.5897  0.0841
  749TMC3    C811129   3.253   0.611   1.156 -0.9483  1.4089  0.2235
  749TMC3    O111130   3.126   1.105   1.010 -0.4288 -0.2682 -0.1396
  749TMC3    O211131   3.274   0.626   1.274  0.0287  0.5442 -0.6644
  750MPD2     C11132   3.077   1.699  11.034 -0.5391 -0.2064  0.6254
  750MPD2    C111133   2.994   1.608  11.093 -0.6222  0.2633  0.3297
  750MPD2    C211134   2.983   1.486  11.029  0.4872  0.6094  0.5415
  750MPD2    C311135   3.058   1.459  10.914 -0.1051  0.5714  0.7349
  750MPD2    C411136   3.127   1.562  10.855 -0.2649 -0.2073 -0.3025
  750MPD2    C511137   3.129   1.685  10.908 -0.0237  0.2833  0.3337
  750MPD2     H11138   2.908   1.421  11.072  0.0362  1.2762  0.7626
  750MPD2    H111139   3.184   1.543  10.764  0.1619 -0.3880  0.0000
  750MPD2    H211140   3.074   1.800  11.073 -1.1203 -0.4056  1.0793
  750MPD2    H311141   3.195   1.762  10.872 -0.9171  0.4478 -0.9796
  750MPD2     N11142   3.060   1.334  10.849  1.3053 -0.3059  0.2552
  750MPD2    H511143   3.095   1.331  10.753  1.1725 -1.0985  0.2331
  750MPD2    N111144   2.942   1.642  11.222 -0.0159  0.4483  0.7761
  750MPD2    H711145   2.950   1.740  11.248  1.1851  0.3537  0.7927
  751TMC3    C111146   3.031   1.093  10.834  0.3311  0.3335 -0.4399
  751TMC3    C211147   2.942   0.998  10.889 -0.2757 -0.2885 -1.2464
  751TMC3    C311148   2.950   0.877  10.822  0.3595  0.3710  0.4673
  751TMC3    C411149   3.108   1.082  10.721 -0.1764  0.6054 -0.4371
  751TMC3    C511150   3.093   0.967  10.653  0.1258 -1.0705  0.4373
  751TMC3    C611151   3.013   0.864  10.700  0.2958  0.3122 -0.4795
  751TMC3     C11152   3.023   1.216  10.907 -0.3633 -0.2730  0.2661
  751TMC3     O11153   2.985   1.202  11.024  0.4664 -0.1854 -0.5632
  751TMC3     H11154   2.871   1.024  10.966  1.9838  1.9349  0.0623
  751TMC3    H111155   3.191   1.147  10.697 -0.0296  0.3139 -0.7073
  751TMC3    H211156   3.005   0.771  10.646 -1.7480 -0.2898  0.8250
  751TMC3    C711157   3.175   0.942  10.531 -0.6749 -0.6517  0.6662
  751TMC3    C811158   2.863   0.763  10.852  0.8143  0.5009 -0.2294
  751TMC3    O111159   3.213   0.825  10.506 -0.2259 -0.1113 -0.3239
  751TMC3    O211160   2.845   0.686  10.757  0.2422 -0.1266 -0.6611
  752TMC3    C111161   2.236   1.675  17.114 -0.0733  0.7962  1.0534
  752TMC3    C211162   2.294   1.568  17.167 -0.3525  0.2620  0.4207
  752TMC3    C311163   2.306   1.557  17.302 -0.1363 -0.2962 -0.6643
  752TMC3    C411164   2.168   1.767  17.192 -0.8862  0.2770 -0.7275
  752TMC3    C511165   2.183   1.757  17.326 -0.0482  0.2565  0.2611
  752TMC3    C611166   2.256   1.655  17.384 -0.2514 -0.1527 -0.2460
  752TMC3     C11167   2.210   1.691  16.969 -0.2896 -0.2339 -0.1072
  752TMC3     O11168   2.296   1.661  16.888  0.7677  0.2011  0.7650
  752TMC3     H11169   2.321   1.491  17.096 -1.0423 -1.6223  2.1880
  752TMC3    H111170   2.102   1.843  17.152 -0.2599  0.1787 -1.9513
  752TMC3    H211171   2.284   1.652  17.488 -0.4533 -0.2423 -0.1942
  752TMC3    C711172   2.167   1.892  17.389  0.1349  0.3245 -0.0784
  752TMC3    C811173   2.327   1.427  17.359  0.2665  0.0690  0.0088
  752TMC3    O111174   2.167   1.996  17.323  0.1035 -0.2503 -0.0150
  752TMC3    O211175   2.373   1.347  17.279  0.5815  0.1559  0.0161
  753TMC3    C111176   4.528   2.391  13.272 -0.1683  0.0406 -0.0632
  753TMC3    C211177   4.483   2.327  13.383  0.0017 -0.9072  0.3092
  753TMC3    C311178   4.512   2.197  13.414 -0.2428 -0.4215 -0.4095
  753TMC3    C411179   4.598   2.320  13.179  0.6238  0.4229  0.4590
  753TMC3    C511180   4.635   2.190  13.214  0.5963  0.0441  0.9648
  753TMC3    C611181   4.592   2.132  13.329  0.1585  0.3293  0.4131
  753TMC3     C11182   4.426   2.470  13.206  0.1623  0.1943  0.6806
  753TMC3     O11183   4.452   2.494  13.087 -0.3750 -0.0037 -0.2866
  753TMC3     H11184   4.427   2.386  13.455 -1.8845  0.6597 -2.4545
  753TMC3    H111185   4.636   2.367  13.089  0.0941  2.2161  1.1655
  753TMC3    H211186   4.618   2.030  13.354 -0.4092 -0.3335 -1.6342
  753TMC3    C711187   4.692   2.099  13.112 -0.2562 -0.1334  0.0408
  753TMC3    C811188   4.458   2.134  13.537  0.0981  0.7468 -0.0275
  753TMC3    O111189   4.729   1.989  13.155 -0.0513 -0.3036 -0.3297
  753TMC3    O211190   4.445   2.011  13.535 -0.9603 -0.6829  0.5786
  754MPD2     C11191   3.339   0.738  13.490 -0.1144 -0.3196 -0.3248
  754MPD2    C111192   3.299   0.612  13.452  0.0845  0.1046 -0.1597
  754MPD2    C211193   3.163   0.596  13.442 -0.2445 -0.2076  0.3575
  754MPD2    C311194   3.066   0.697  13.455 -0.0050  0.1657  0.2122
  754MPD2    C411195   3.111   0.825  13.475  0.2293 -0.3745 -0.8638
  754MPD2    C511196   3.248   0.839  13.501  0.3625 -0.6110 -1.2525
  754MPD2     H11197   3.131   0.499  13.404  1.6123 -0.0139 -1.7334
  754MPD2    H111198   3.043   0.910  13.476  1.6085  0.7165  1.3404
  754MPD2    H211199   3.443   0.767  13.505 -0.4561  0.6037  0.2915
  754MPD2    H311200   3.290   0.935  13.530 -0.8261 -0.4802  0.0948
  754MPD2     N11201   2.934   0.667  13.430 -0.5063 -0.3764  0.6596
  754MPD2    H511202   2.871   0.739  13.396  1.0415  0.8295  0.3496
  754MPD2    N111203   3.400   0.514  13.431  0.0942  0.2674 -0.4622
  754MPD2    H711204   3.497   0.546  13.435  0.3104 -0.6161  1.2308
  755MPD2     C11205   2.129   1.048  13.342  0.4814  0.2637  0.8850
  755MPD2    C111206   2.099   0.920  13.313 -0.5482  0.1011  0.2688
  755MPD2    C211207   2.201   0.828  13.312 -0.4119 -0.2674 -0.1219
  755MPD2    C311208   2.330   0.863  13.351  0.0231  0.3051 -0.9229
  755MPD2    C411209   2.366   0.996  13.368  0.1834 -0.3246  0.0498
  755MPD2    C511210   2.261   1.083  13.368 -0.3213 -0.1845 -0.1997
  755MPD2     H11211   2.167   0.727  13.294  0.4404 -0.5389 -0.2140
  755MPD2    H111212   2.465   1.035  13.385 -0.2015 -0.0468  1.6707
  755MPD2    H211213   2.057   1.127  13.359 -0.6839 -0.9413  1.5487
  755MPD2    H311214   2.278   1.190  13.371  0.2676 -0.3168  1.0950
  755MPD2     N11215   2.433   0.769  13.356 -0.1807 -0.3865 -0.8616
  755MPD2    H511216   2.529   0.797  13.368 -0.5080  1.6319 -2.8924
  755MPD2    N111217   1.965   0.874  13.287 -0.2809  0.6322  0.6535
  755MPD2    H711218   1.956   0.777  13.261  2.5079  0.5152  0.0773
  756MPD2     C11219   3.028   1.403   9.245 -0.5084  0.7832  0.8047
  756MPD2    C111220   2.953   1.373   9.357 -0.5437 -0.4759  0.8585
  756MPD2    C211221   2.828   1.433   9.375  0.6835  0.2277  0.5051
  756MPD2    C311222   2.787   1.541   9.297  0.5417  0.2122  0.0555
  756MPD2    C411223   2.861   1.571   9.182 -0.2283  0.3002 -0.0489
  756MPD2    C511224   2.971   1.503   9.156 -0.1914  0.0798 -0.3899
  756MPD2     H11225   2.755   1.406   9.451  2.5866  0.8056  2.5631
  756MPD2    H111226   2.818   1.636   9.107  0.0371  1.9331  1.2231
  756MPD2    H211227   3.125   1.357   9.230  0.0250  2.1394  0.1177
  756MPD2    H311228   3.026   1.529   9.066  0.0409  0.6554 -0.0829
  756MPD2     N11229   2.671   1.608   9.328 -0.3168 -0.0277  0.1319
  756MPD2    H511230   2.606   1.560   9.390  0.5646 -2.2797 -0.6809
  756MPD2    N111231   3.003   1.295   9.466 -0.1375  0.2098 -0.0951
  756MPD2    H711232   2.946   1.299   9.550  0.9452 -0.9365  0.6880
  757MPD2     C11233   1.920   1.253   9.534 -0.1132  0.3316 -0.1432
  757MPD2    C111234   2.054   1.226   9.540 -0.1675 -0.1626  0.0252
  757MPD2    C211235   2.147   1.325   9.497  0.2084  0.5114  0.5239
  757MPD2    C311236   2.106   1.453   9.471  0.0840 -0.1759 -0.5264
  757MPD2    C411237   1.968   1.479   9.468  0.0684 -0.2267  0.3018
  757MPD2    C511238   1.883   1.379   9.498 -0.2191 -0.2893  0.0034
  757MPD2     H11239   2.251   1.294   9.497  0.1329  0.2453  0.9418
  757MPD2    H111240   1.930   1.573   9.431  0.0816 -0.9751 -1.6240
  757MPD2    H211241   1.841   1.181   9.554 -0.8683  0.6607 -1.9868
  757MPD2    H311242   1.775   1.390   9.497 -0.2068  0.0292  3.7978
  757MPD2     N11243   2.209   1.550   9.449  0.2718 -0.1560 -0.0192
  757MPD2    H511244   2.307   1.531   9.469  0.5519  1.3497  0.1091
  757MPD2    N111245   2.086   1.095   9.584  0.4222  0.2239 -0.1520
  757MPD2    H711246   2.007   1.038   9.612  0.9119  0.2092  1.2102
  758MPD2     C11247   2.626   0.586  15.995  0.1734 -0.0325  0.0667
  758MPD2    C111248   2.742   0.536  16.052 -0.3821 -0.3861  0.2659
  758MPD2    C211249   2.761   0.566  16.184 -0.1542  0.1127 -0.3535
  758MPD2    C311250   2.671   0.638  16.263 -0.1622 -0.1273 -0.4967
  758MPD2    C411251   2.552   0.673  16.202 -0.9105 -0.0221  0.0303
  758MPD2    C511252   2.535   0.648  16.066  0.4536 -0.2600  0.8921
  758MPD2     H11253   2.858   0.535  16.222  0.1042 -0.3554 -1.4012
  758MPD2    H111254   2.464   0.710  16.254 -0.8149  1.3157 -0.7785
  758MPD2    H211255   2.591   0.551  15.898 -0.5322 -0.9519  0.6441
  758MPD2    H311256   2.440   0.678  16.022  1.3654 -0.5795 -1.3225
  758MPD2     N11257   2.685   0.675  16.402  0.1725  0.2340 -0.1032
  758MPD2    H511258   2.613   0.740  16.432 -0.0297 -0.4739  0.9343
  758MPD2    N111259   2.826   0.465  15.964 -0.9971 -0.0855  0.1566
  758MPD2    H711260   2.812   0.466  15.863 -1.8398  0.9034  0.2899
  759MPD2     C11261   2.968   3.649   9.421  0.2774 -0.1647 -0.2728
  759MPD2    C111262   3.018   3.712   9.533  0.5251 -0.0998 -0.3808
  759MPD2    C211263   3.007   3.851   9.544 -0.0878 -0.7043  0.0652
  759MPD2    C311264   2.957   3.927   9.438 -0.5786  0.0304  0.4998
  759MPD2    C411265   2.915   3.861   9.324 -0.2887 -0.5511 -0.6663
  759MPD2    C511266   2.917   3.722   9.316 -0.5754 -0.2888  0.4093
  759MPD2     H11267   3.037   3.903   9.634 -0.5902  0.1671 -0.2652
  759MPD2    H111268   2.868   3.911   9.240  0.5617 -0.1768 -0.9194
  759MPD2    H211269   2.961   3.542   9.409 -0.0810 -0.2477  0.6416
  759MPD2    H311270   2.880   3.666   9.230 -0.4677 -0.1984  0.3053
  759MPD2     N11271   2.969   4.069   9.443  0.6838 -0.1916 -0.3318
  759MPD2    H511272   3.001   4.112   9.529 -0.6272  0.1722 -0.0296
  759MPD2    N111273   3.068   3.641   9.641 -0.6130 -0.0586 -0.9475
  759MPD2    H711274   3.101   3.702   9.715  0.5412 -1.7363 -0.0763
  760MPD2     C11275   0.886   0.645  11.683  0.1593 -0.1287  0.6473
  760MPD2    C111276   0.949   0.718  11.783  0.0940  0.1063 -0.9405
  760MPD2    C211277   1.021   0.649  11.878 -0.2645  0.3358 -0.7719
  760MPD2    C311278   1.057   0.518  11.851  0.5496 -0.5916 -0.6404
  760MPD2    C411279   1.015   0.456  11.735 -0.2401 -0.2294  0.7563
  760MPD2    C511280   0.919   0.516  11.658 -0.4973  0.3916 -0.1011
  760MPD2     H11281   1.061   0.697  11.967 -2.3179  1.7178 -0.5988
  760MPD2    H111282   1.041   0.354  11.711  1.1089  0.0476  1.0824
  760MPD2    H211283   0.828   0.700  11.609  0.7014 -0.9583 -0.3834
  760MPD2    H311284   0.875   0.465  11.572  0.5576 -1.8794  0.7071
  760MPD2     N11285   1.141   0.441  11.937  0.0246 -0.3472  0.4739
  760MPD2    H511286   1.174   0.352  11.899 -1.1533 -1.1949  1.4286
  760MPD2    N111287   0.929   0.858  11.785 -0.0280 -0.5447 -0.2473
  760MPD2    H711288   0.884   0.891  11.700  0.7350 -1.1458 -0.8790
  761MPD2     C11289   2.600   0.457  11.170 -0.0066  0.7119  0.2486
  761MPD2    C111290   2.597   0.464  11.035 -0.6923  0.1160 -0.7268
  761MPD2    C211291   2.677   0.558  10.971 -0.1381 -0.2883  0.1059
  761MPD2    C311292   2.748   0.655  11.044 -0.1370 -0.6243  0.0216
  761MPD2    C411293   2.758   0.637  11.179 -0.4815 -0.2676 -0.0533
  761MPD2    C511294   2.682   0.538  11.242 -0.0140  0.8387  0.2241
  761MPD2     H11295   2.668   0.572  10.864 -3.8732 -0.0961  0.4523
  761MPD2    H111296   2.800   0.710  11.248  1.7565 -1.0235 -0.6096
  761MPD2    H211297   2.543   0.379  11.220  0.0787  0.7026  0.3312
  761MPD2    H311298   2.666   0.539  11.349 -1.3606 -0.9354  0.0303
  761MPD2     N11299   2.814   0.767  10.983  0.3081  0.2741  0.2284
  761MPD2    H511300   2.858   0.835  11.043  0.5766 -0.0469  0.3968
  761MPD2    N111301   2.513   0.369  10.969  0.7326 -0.2933  0.4610
  761MPD2    H711302   2.481   0.286  11.018 -1.0635 -0.3991 -0.8846
  762MPD2     C11303   2.845   4.468  10.620  0.5584  0.7305  1.3031
  762MPD2    C111304   2.782   4.570  10.562 -0.2430  0.0344 -0.3052
  762MPD2    C211305   2.839   4.634  10.452  0.1980 -0.1697 -0.4952
  762MPD2    C311306   2.964   4.591  10.412  0.4122  0.5342  0.5303
  762MPD2    C411307   3.025   4.487  10.475  0.3884  0.1470 -0.4905
  762MPD2    C511308   2.966   4.422  10.580  0.6579  0.6166  0.0909
  762MPD2     H11309   2.788   4.707  10.390 -1.2535  0.8341  1.9192
  762MPD2    H111310   3.122   4.447  10.448  0.0978  1.0237 -2.8233
  762MPD2    H211311   2.792   4.419  10.701 -2.5144 -1.0293 -1.7561
  762MPD2    H311312   3.004   4.340  10.640 -0.7628 -0.1774 -0.0871
  762MPD2     N11313   3.023   4.656  10.300 -0.5724 -1.1557  0.5648
  762MPD2    H511314   2.961   4.728  10.262 -0.0549 -1.6891 -1.2816
  762MPD2    N111315   2.666   4.615  10.621  0.8397 -0.5374  0.0803
  762MPD2    H711316   2.639   4.567  10.706 -0.1083  0.5067  0.3638
  763MPD2     C11317   0.020   1.067  16.154 -0.1916  0.3083 -0.7642
  763MPD2    C111318   4.631   1.083  16.100  0.2252 -0.6047  0.0550
  763MPD2    C211319   4.583   1.206  16.082 -0.2819  0.2867 -0.6068
  763MPD2    C311320   4.658   1.314  16.122 -0.5616  0.3084  0.6236
  763MPD2    C411321   0.044   1.293  16.174  0.0147  0.8371  0.4474
  763MPD2    C511322   0.088   1.169  16.197  0.4935 -0.2451 -0.2765
  763MPD2     H11323   4.488   1.224  16.034  0.4921  0.4855 -2.0617
  763MPD2    H111324   0.107   1.377  16.200 -1.0245  1.5550  0.6477
  763MPD2    H211325   0.064   0.968  16.158  0.4884  0.6826  1.0534
  763MPD2    H311326   0.193   1.152  16.219 -0.4673 -0.4678  3.9892
  763MPD2     N11327   4.608   1.447  16.105 -0.3518 -0.4391  0.7468
  763MPD2    H511328   4.530   1.466  16.044  0.7368 -0.2607 -0.5877
  763MPD2    N111329   4.553   0.983  16.047 -0.2404  0.1972  0.1951
  763MPD2    H711330   4.471   1.015  15.997 -1.0285  0.6257  1.7789
  764MPD2     C11331   2.955   2.390  17.354 -0.3833 -0.1582  0.0036
  764MPD2    C111332   2.813   2.378  17.340  0.8795 -0.0649 -0.1227
  764MPD2    C211333   2.737   2.345  17.444 -0.1965 -0.4272 -0.0995
  764MPD2    C311334   2.787   2.331  17.570 -0.4035 -0.9333  0.4570
  764MPD2    C411335   2.926   2.331  17.587 -0.5566 -0.5481 -0.2813
  764MPD2    C511336   3.010   2.362  17.478 -0.1390 -0.6459  0.4748
  764MPD2     H11337   2.632   2.318  17.435 -0.1888 -0.5345  0.1276
  764MPD2    H111338   2.969   2.310  17.684 -0.4187 -1.3176 -0.5072
  764MPD2    H211339   3.026   2.411  17.274 -2.3600 -2.1561 -2.3132
  764MPD2    H311340   3.117   2.350  17.488 -0.3577 -2.2970  0.7359
  764MPD2     N11341   2.689   2.301  17.674 -0.3009  0.2891  0.2261
  764MPD2    H511342   2.593   2.292  17.643 -1.1229 -1.2243  3.2567
  764MPD2    N111343   2.749   2.384  17.212 -0.6336 -0.8233  0.0158
  764MPD2    H711344   2.654   2.350  17.198 -0.1623 -2.3415  0.5193
  765MPD2     C11345   2.362   0.369  16.117 -0.4106  0.4946 -0.0122
  765MPD2    C111346   2.320   0.378  15.987  0.4950  0.8469  0.0531
  765MPD2    C211347   2.388   0.294  15.898 -0.0894  0.3014 -0.4704
  765MPD2    C311348   2.508   0.229  15.925 -0.2536 -0.1086  0.0603
  765MPD2    C411349   2.561   0.241  16.052 -0.3903 -0.1457  0.3149
  765MPD2    C511350   2.486   0.313  16.146 -0.1712  0.2935 -0.3901
  765MPD2     H11351   2.356   0.293  15.794 -1.2583 -2.0198 -0.0739
  765MPD2    H111352   2.655   0.198  16.084  1.0771  1.7958 -1.3902
  765MPD2    H211353   2.302   0.411  16.198 -2.3184 -0.5351 -0.8843
  765MPD2    H311354   2.538   0.336  16.238 -3.7251  1.8706  1.2377
  765MPD2     N11355   2.579   0.172  15.822 -0.1249  0.4193 -0.0128
  765MPD2    H511356   2.556   0.197  15.726 -0.4218  1.3458  0.3029
  765MPD2    N111357   2.193   0.435  15.945  0.6107  0.8426 -0.7710
  765MPD2    H711358   2.177   0.427  15.845 -1.7823 -1.6363 -0.1867
  766MPD2     C11359   1.703   0.417  15.353  0.1155 -0.5799  0.1321
  766MPD2    C111360   1.839   0.423  15.369 -0.7001  0.2318 -0.3795
  766MPD2    C211361   1.920   0.374  15.266  0.0505  0.2732 -0.6462
  766MPD2    C311362   1.862   0.340  15.142  0.1324 -1.3751 -0.4702
  766MPD2    C411363   1.727   0.341  15.138  0.1762 -0.5813 -0.2337
  766MPD2    C511364   1.646   0.378  15.240  0.4013 -0.1529 -0.0469
  766MPD2     H11365   2.027   0.367  15.282  0.0621  0.0124 -0.8389
  766MPD2    H111366   1.664   0.306  15.057  2.7964  0.5045 -2.7443
  766MPD2    H211367   1.640   0.449  15.436 -2.2971 -0.3392 -1.7679
  766MPD2    H311368   1.537   0.379  15.234  0.2977  2.5951  1.9054
  766MPD2     N11369   1.935   0.292  15.036  0.5334 -0.7193  0.4823
  766MPD2    H511370   1.891   0.282  14.945  0.4522  1.0278  0.3284
  766MPD2    N111371   1.906   0.463  15.488  0.5400  0.8028 -0.2271
  766MPD2    H711372   2.006   0.476  15.479  0.9702 -1.2528  1.4350
  767MPD2     C11373   1.529   0.683  14.832  0.4172  0.8046 -0.1660
  767MPD2    C111374   1.659   0.655  14.838  0.2924  0.3157  0.7901
  767MPD2    C211375   1.708   0.555  14.750 -0.1778 -0.0487  0.8136
  767MPD2    C311376   1.624   0.498  14.652 -0.7585  0.4265 -0.2981
  767MPD2    C411377   1.491   0.527  14.658  0.4797  0.7489 -0.8414
  767MPD2    C511378   1.446   0.627  14.743  0.1891  0.3059 -0.2270
  767MPD2     H11379   1.812   0.523  14.753 -0.2887 -0.5418 -0.6919
  767MPD2    H111380   1.415   0.480  14.597 -0.0929 -0.3814  0.7482
  767MPD2    H211381   1.489   0.757  14.901 -0.5448  0.0926  0.0451
  767MPD2    H311382   1.341   0.652  14.753 -0.5784 -1.9557 -2.4112
  767MPD2     N11383   1.667   0.390  14.567  0.3457  0.8492 -0.2671
  767MPD2    H511384   1.763   0.360  14.573  0.2063  0.8489  2.1484
  767MPD2    N111385   1.734   0.712  14.939  0.4284  1.0195 -0.2888
  767MPD2    H711386   1.687   0.782  14.995 -0.7277 -0.8442  1.0605
  768MPD2     C11387   3.184   3.596  10.223 -0.3558 -0.2977 -0.1039
  768MPD2    C111388   3.130   3.573  10.342  0.1959  0.3309 -0.4667
  768MPD2    C211389   3.215   3.545  10.445  0.0659 -0.3317  0.2985
  768MPD2    C311390   3.351   3.533  10.427 -0.0050  0.1925 -0.3192
  768MPD2    C411391   3.405   3.564  10.307 -0.3902 -0.3006 -0.4509
  768MPD2    C511392   3.322   3.593  10.207  0.3894 -0.2645 -0.1850
  768MPD2     H11393   3.173   3.534  10.544  0.1775  1.1530  0.5133
  768MPD2    H111394   3.512   3.564  10.291 -0.2585 -2.1521  0.3759
  768MPD2    H211395   3.120   3.620  10.139 -0.0769  2.4764  0.4678
  768MPD2    H311396   3.349   3.616  10.104  0.5581 -0.9818 -0.3009
  768MPD2     N11397   3.443   3.510  10.531 -0.2579 -0.2812 -0.3112
  768MPD2    H511398   3.542   3.529  10.515 -0.1855 -1.3631 -1.0987
  768MPD2    N111399   2.993   3.574  10.375  0.3931  0.0190  0.3934
  768MPD2    H711400   2.969   3.543  10.468 -0.0190 -1.1379 -0.0942
  769MPD2     C11401   3.596   2.055  14.750 -0.1438 -0.1295  0.1106
  769MPD2    C111402   3.504   1.981  14.826 -0.1760 -0.4286  0.1579
  769MPD2    C211403   3.539   1.951  14.958  0.7899  0.4001 -0.7212
  769MPD2    C311404   3.663   1.997  15.011 -0.4730  0.4228  1.5970
  769MPD2    C411405   3.751   2.067  14.931 -0.6824 -0.8367 -0.1689
  769MPD2    C511406   3.715   2.099  14.806  0.1858  0.1005  0.4457
  769MPD2     H11407   3.469   1.895  15.019  2.1172 -0.6910 -0.1875
  769MPD2    H111408   3.841   2.112  14.971 -0.0884 -1.4024 -0.8679
  769MPD2    H211409   3.567   2.107  14.659  4.4567  2.8917  0.3829
  769MPD2    H311410   3.779   2.160  14.744 -1.4079 -0.2816 -1.5647
  769MPD2     N11411   3.689   1.967  15.145 -0.4394  0.7201 -0.5793
  769MPD2    H511412   3.619   1.927  15.207  0.2923  0.6515  0.2170
  769MPD2    N111413   3.381   1.955  14.765 -0.3709 -0.0044  0.1420
  769MPD2    H711414   3.362   1.997  14.674 -1.9276 -2.7826 -0.8093
  770MPD2     C11415   2.596   1.460  15.101 -0.2831 -0.2577 -0.0190
  770MPD2    C111416   2.719   1.486  15.152 -0.4676 -0.1109 -0.2575
  770MPD2    C211417   2.799   1.575  15.082 -0.3905 -0.0553  0.2928
  770MPD2    C311418   2.752   1.639  14.967 -0.4489  0.1782  0.3310
  770MPD2    C411419   2.627   1.595  14.923 -0.1032  0.0290 -0.2714
  770MPD2    C511420   2.546   1.514  14.993 -0.1269  0.3353 -0.6109
  770MPD2     H11421   2.898   1.604  15.114  0.6939  0.3141 -3.3933
  770MPD2    H111422   2.584   1.637  14.833  0.8628  1.9752  0.1630
  770MPD2    H211423   2.519   1.405  15.153  1.0052 -0.0156  2.1374
  770MPD2    H311424   2.445   1.498  14.957  0.6289 -1.2966 -1.9764
  770MPD2     N11425   2.838   1.727  14.896 -0.0173  0.6136 -0.0542
  770MPD2    H511426   2.931   1.736  14.933 -0.0863 -1.9097  0.7251
  770MPD2    N111427   2.765   1.416  15.267  0.4129 -0.0493  0.1266
  770MPD2    H711428   2.695   1.356  15.310  1.0973 -3.2497 -3.2608
  771MPD2     C11429   4.498   4.597  14.385  0.4967 -0.4197  0.9911
  771MPD2    C111430   4.438   4.613  14.265 -0.4924 -0.5570  0.8348
  771MPD2    C211431   4.375   4.504  14.203  0.0817 -0.7656  0.3453
  771MPD2    C311432   4.376   4.380  14.266 -0.2468  0.4321 -0.5950
  771MPD2    C411433   4.417   4.366  14.400  0.1380 -0.1553 -0.1420
  771MPD2    C511434   4.491   4.474  14.453 -0.6608 -0.6951  0.3653
  771MPD2     H11435   4.351   4.505  14.098 -0.3550 -1.1148  0.4421
  771MPD2    H111436   4.409   4.270  14.449  3.6665  0.0883  0.8958
  771MPD2    H211437   4.572   4.668  14.419  0.7522 -0.2689  0.1259
  771MPD2    H311438   4.542   4.465  14.548 -0.4397 -2.6276  0.0639
  771MPD2     N11439   4.315   4.275  14.193 -0.1201  0.3523 -0.7177
  771MPD2    H511440   4.291   4.291  14.096  1.0651  1.3729 -0.8411
  771MPD2    N111441   4.447   4.736  14.196 -0.1893 -0.1719 -0.1392
  771MPD2    H711442   4.388   4.735  14.113 -2.3000 -1.4447  1.3649
  772MPD2     C11443   4.058   0.371  13.732 -0.6769 -0.6203  0.5344
  772MPD2    C111444   4.073   0.310  13.850 -0.3229 -0.0571 -0.4972
  772MPD2    C211445   3.961   0.253  13.906  0.3816 -0.0457  0.0868
  772MPD2    C311446   3.840   0.264  13.846  0.4563  0.4172  0.3183
  772MPD2    C411447   3.829   0.354  13.741 -0.3587 -0.4178  0.1220
  772MPD2    C511448   3.938   0.397  13.677 -0.5333 -0.3356 -0.5998
  772MPD2     H11449   3.970   0.212  14.006 -0.9721 -1.2343 -0.2632
  772MPD2    H111450   3.737   0.391  13.698 -0.9890 -0.6491  1.2945
  772MPD2    H211451   4.148   0.403  13.681 -1.9603  0.4113 -1.0862
  772MPD2    H311452   3.917   0.446  13.582  0.7219  0.2035 -0.6008
  772MPD2     N11453   3.721   0.214  13.907 -0.3129  0.0166 -0.7669
  772MPD2    H511454   3.633   0.247  13.868 -0.8669  0.9124  1.2156
  772MPD2    N111455   4.199   0.292  13.913  0.5289 -0.3104 -0.0295
  772MPD2    H711456   4.203   0.230  13.994  3.6611  0.1002  0.1220
  773MPD2     C11457   3.790   1.206   0.471  0.1322  0.0460  0.1348
  773MPD2    C111458   3.776   1.115   0.369 -0.1204 -0.2482  0.4859
  773MPD2    C211459   3.870   1.019   0.343  0.5352 -0.2574  0.3243
  773MPD2    C311460   3.979   1.006   0.418  1.1292  0.0514 -0.1203
  773MPD2    C411461   4.004   1.089   0.524  0.0553  0.3629 -0.2941
  773MPD2    C511462   3.901   1.187   0.550 -0.2079  0.7625 -0.9037
  773MPD2     H11463   3.848   0.942   0.271 -3.0510 -0.0655  1.2258
  773MPD2    H111464   4.083   1.077   0.598  0.8526 -0.1309 -1.2217
  773MPD2    H211465   3.730   1.295   0.482  1.0475  0.4598  1.7817
  773MPD2    H311466   3.912   1.243   0.642  2.2228 -1.1142 -0.0508
  773MPD2     N11467   4.072   0.905   0.376 -0.4681 -0.6069  0.1954
  773MPD2    H511468   4.044   0.848   0.297 -1.9592 -1.9339  1.7034
  773MPD2    N111469   3.660   1.113   0.281  0.3817  0.2154  0.3869
  773MPD2    H711470   3.673   1.052   0.201  1.9683  1.4107 -0.2756
  774MPD2     C11471   2.587   4.585  13.304 -0.3178  0.4561  0.0184
  774MPD2    C111472   2.576   4.685  13.397  0.7939  0.5481  0.2021
  774MPD2    C211473   2.685   0.016  13.447  0.0043  0.5806 -0.7379
  774MPD2    C311474   2.813   4.726  13.398 -0.0032 -0.2467  0.0635
  774MPD2    C411475   2.824   4.626  13.305 -0.0232  0.0088 -0.9122
  774MPD2    C511476   2.710   4.555  13.256  0.9691  0.6017 -0.5228
  774MPD2     H11477   2.670   0.100  13.514 -0.2427 -0.0206 -0.0425
  774MPD2    H111478   2.920   4.593  13.268  1.0824  0.4134  1.6234
  774MPD2    H211479   2.498   4.537  13.266 -0.6567  0.8201  0.3520
  774MPD2    H311480   2.724   4.468  13.193 -0.5912 -1.1700  1.5943
  774MPD2     N11481   2.920   0.054  13.465  0.2934 -0.1531 -0.0668
  774MPD2    H511482   2.902   0.099  13.554  0.4336  2.0149 -1.1598
  774MPD2    N111483   2.450   4.695  13.459  0.0973  0.3362  0.9083
  774MPD2    H711484   2.391   4.615  13.436  3.2523 -1.6970 -0.2021
  775MPD2     C11485   3.902   1.512  15.635  0.3865  0.4682 -0.2401
  775MPD2    C111486   3.860   1.624  15.707 -0.9298  1.0309  0.5039
  775MPD2    C211487   3.927   1.751  15.688  0.2174 -0.6743 -0.5620
  775MPD2    C311488   4.042   1.757  15.615 -0.3104 -0.6843 -0.5089
  775MPD2    C411489   4.080   1.638  15.553  0.1151  0.2031 -0.3051
  775MPD2    C511490   4.005   1.522  15.553 -0.2170  0.6199 -0.0780
  775MPD2     H11491   3.895   1.843  15.736  0.2894  0.0687 -1.9500
  775MPD2    H111492   4.166   1.644  15.487 -0.1623  2.8278 -0.3934
  775MPD2    H211493   3.854   1.415  15.643 -2.2129  1.8377  0.7617
  775MPD2    H311494   4.046   1.442  15.494  0.9756  1.1951 -0.0367
  775MPD2     N11495   4.118   1.875  15.590  1.0480  0.1152 -1.2450
  775MPD2    H511496   4.192   1.874  15.521  1.4708  1.1159 -0.8092
  775MPD2    N111497   3.748   1.604  15.787 -0.0785  0.1350  0.4552
  775MPD2    H711498   3.701   1.514  15.781  1.0836 -0.3722 -1.0298
  776MPD2     C11499   3.159   1.802  12.010 -0.2584 -0.2439  0.5235
  776MPD2    C111500   3.081   1.874  11.927 -0.2399 -0.3678 -0.1674
  776MPD2    C211501   3.093   2.010  11.927  0.1811 -0.5668 -0.5780
  776MPD2    C311502   3.175   2.081  12.010 -0.3392  0.2224  0.6878
  776MPD2    C411503   3.251   1.997  12.096 -0.4843 -0.0001 -0.2061
  776MPD2    C511504   3.246   1.866  12.093  0.8097  0.3660 -0.2840
  776MPD2     H11505   3.032   2.062  11.854  1.1936 -0.2250 -1.1783
  776MPD2    H111506   3.315   2.040  12.172 -0.1510  0.5739 -0.8081
  776MPD2    H211507   3.156   1.694  12.019  0.3837 -0.4084 -1.1744
  776MPD2    H311508   3.303   1.807  12.164  0.3394 -0.2727 -0.4345
  776MPD2     N11509   3.207   2.221  12.004  0.0152  0.3637  0.0545
  776MPD2    H511510   3.283   2.259  12.059 -0.3058 -1.1047  1.5176
  776MPD2    N111511   3.011   1.800  11.826  0.3012 -0.6970  0.1053
  776MPD2    H711512   3.008   1.699  11.840  0.7793 -0.5207  1.5137
  777MPD2     C11513   3.100   4.540   0.488  0.6558  0.5163 -0.5552
  777MPD2    C111514   3.211   4.460   0.504  0.1647  0.6027 -0.1606
  777MPD2    C211515   3.197   4.319   0.473 -0.1557 -0.5468 -0.1335
  777MPD2    C311516   3.078   4.266   0.421  0.0421 -0.1898 -0.0261
  777MPD2    C411517   2.972   4.353   0.404  0.5149  0.3388  0.4096
  777MPD2    C511518   2.986   4.484   0.431  0.3878 -0.5614  0.1557
  777MPD2     H11519   3.279   4.250   0.489  0.9309  0.9376  0.6518
  777MPD2    H111520   2.875   4.314   0.376  1.2504  0.7418 -2.7172
  777MPD2    H211521   3.086   4.638   0.531 -1.2852 -0.0842  0.1717
  777MPD2    H311522   2.903   4.550   0.412  1.4505  0.7547  0.0619
  777MPD2     N11523   3.069   4.123   0.415 -0.3036 -0.2712 -0.2450
  777MPD2    H511524   3.157   4.073   0.411  0.4093  0.8782  1.1745
  777MPD2    N111525   3.328   4.520   0.553  0.4447 -0.3041 -0.3782
  777MPD2    H711526   3.314   4.616   0.583  1.3404 -0.7024  1.3011
  778MPD2     C11527   4.483   4.559  15.006  0.6146 -0.5649  0.4739
  778MPD2    C111528   4.537   4.446  14.951  0.1630 -0.1103 -0.0583
  778MPD2    C211529   4.642   4.459  14.865 -0.9129 -0.7850  0.4130
  778MPD2    C311530   4.688   4.587  14.826  0.2370 -0.1540 -0.4270
  778MPD2    C411531   4.628   4.700  14.875  0.1876  0.5592  0.0470
  778MPD2    C511532   4.537   4.681  14.976 -0.0820 -0.1365  0.4584
  778MPD2     H11533   4.693   4.368  14.835  1.5135  0.4652  0.7327
  778MPD2    H111534   4.652   0.065  14.847  2.8365 -0.1627 -0.2608
  778MPD2    H211535   4.390   4.551  15.063 -0.5035  0.4992 -1.1994
  778MPD2    H311536   4.493   0.031  15.024 -0.2939 -0.7616  1.3759
  778MPD2     N11537   0.051   4.592  14.730 -0.4586  0.6021 -0.3287
  778MPD2    H511538   0.091   4.504  14.699  1.0797  0.8258  1.0197
  778MPD2    N111539   4.485   4.321  14.981 -0.4361 -0.2008  0.0199
  778MPD2    H711540   4.508   4.243  14.921  0.7061  0.3371 -0.2510
  779MPD2     C11541   3.933   2.886  14.428  0.4679  0.4661  0.5594
  779MPD2    C111542   4.061   2.946  14.416 -0.5408  0.3073 -0.3441
  779MPD2    C211543   4.079   3.086  14.401  0.7384 -0.9932 -0.3041
  779MPD2    C311544   3.968   3.166  14.414 -0.1877  0.1139 -0.2575
  779MPD2    C411545   3.843   3.113  14.422 -0.1547  0.7953 -0.2639
  779MPD2    C511546   3.828   2.978  14.430  0.9573 -0.4731 -0.2987
  779MPD2     H11547   4.181   3.117  14.383  0.6784 -0.2340  0.6523
  779MPD2    H111548   3.753   3.173  14.434 -0.7186 -0.6333  2.7043
  779MPD2    H211549   3.913   2.780  14.434  0.1434  0.4337 -1.0010
  779MPD2    H311550   3.726   2.942  14.430  1.1378 -0.9613 -1.7138
  779MPD2     N11551   3.998   3.304  14.405  0.5617 -0.1917 -0.1962
  779MPD2    H511552   4.095   3.330  14.387 -0.2167  2.1779 -0.8638
  779MPD2    N111553   4.181   2.875  14.394  0.3277  0.3857  0.1495
  779MPD2    H711554   4.270   2.922  14.383 -0.1965  1.3246 -0.0422
  780MPD2     C11555   0.044   3.494   0.861 -0.0507  0.6808  0.4676
  780MPD2    C111556   4.647   3.489   0.833 -0.0757 -0.0698  0.2187
  780MPD2    C211557   4.610   3.546   0.711  0.2724  0.2374 -0.4120
  780MPD2    C311558   4.705   3.600   0.629 -0.3519  0.3657 -0.3355
  780MPD2    C411559   0.104   3.617   0.665 -0.7200  0.6105  0.3045
  780MPD2    C511560   0.138   3.559   0.781  0.2462 -0.5117  0.1677
  780MPD2     H11561   4.506   3.538   0.683 -0.1122 -0.2669  1.1756
  780MPD2    H111562   0.182   3.676   0.618 -0.0396  0.0305  0.6976
  780MPD2    H211563   0.085   3.457   0.955 -0.4254  0.1413  0.4172
  780MPD2    H311564   0.244   3.565   0.803  0.4406  2.4555 -1.5717
  780MPD2     N11565   4.664   3.653   0.506 -0.9558 -0.1550 -0.4425
  780MPD2    H511566   4.568   3.688   0.503 -0.6801  0.5649 -0.8576
  780MPD2    N111567   4.559   3.428   0.922 -0.4458  0.0933 -0.3099
  780MPD2    H711568   4.596   3.371   0.998  0.8934  2.2386  0.6706
  781MPD2     C11569   1.007   0.075  12.089  0.5602  0.7220  0.4768
  781MPD2    C111570   1.040   4.733  12.190 -0.1063 -0.6521  1.0132
  781MPD2    C211571   1.169   4.690  12.203  0.4058  0.8227 -1.0593
  781MPD2    C311572   1.272   4.720  12.111 -0.4672 -0.3083  0.5218
  781MPD2    C411573   1.231   0.056  11.999 -0.0044 -0.3482  0.0111
  781MPD2    C511574   1.103   0.105  11.994 -0.3536 -0.2122 -0.6903
  781MPD2     H11575   1.206   4.649  12.296 -0.6775  0.9192 -0.5821
  781MPD2    H111576   1.304   0.083  11.924 -0.2567  0.9776  0.2314
  781MPD2    H211577   0.909   0.120  12.073  0.4591  0.6098  0.7846
  781MPD2    H311578   1.076   0.168  11.910 -2.2239  1.1417  0.9408
  781MPD2     N11579   1.405   4.689  12.125 -0.0033 -0.3672  0.2358
  781MPD2    H511580   1.459   4.716  12.043  0.8385 -1.4907  0.4295
  781MPD2    N111581   0.950   4.677  12.279  0.2353 -0.3786  0.2750
  781MPD2    H711582   0.989   4.627  12.358  2.0055  0.4396 -0.0855
  782MPD2     C11583   3.922   1.009   9.575 -0.1740  0.6480  0.2237
  782MPD2    C111584   3.871   1.005   9.704 -0.4875  0.0978  0.4768
  782MPD2    C211585   3.934   1.082   9.805 -0.3164  0.0876  0.9106
  782MPD2    C311586   4.031   1.170   9.764 -0.7131 -0.3428  0.3154
  782MPD2    C411587   4.079   1.177   9.633  0.2387 -0.3554 -0.0528
  782MPD2    C511588   4.020   1.099   9.536 -0.7650 -0.1457  0.7130
  782MPD2     H11589   3.902   1.076   9.908  2.0265  2.7849  1.8249
  782MPD2    H111590   4.142   1.259   9.602  1.1442 -1.2228 -0.5098
  782MPD2    H211591   3.888   0.943   9.496 -1.0950  0.6360  0.6304
  782MPD2    H311592   4.052   1.108   9.433 -0.9879 -0.9969  0.5645
  782MPD2     N11593   4.102   1.240   9.871  0.2097 -0.1297 -0.2403
  782MPD2    H511594   4.056   1.225   9.961 -2.1534 -1.9604 -1.7324
  782MPD2    N111595   3.764   0.918   9.744 -0.1681  0.1971 -0.6126
  782MPD2    H711596   3.738   0.930   9.841 -2.3444  0.6155 -1.2383
  783MPD2     C11597   3.323   1.202  10.310  0.4400 -0.3946 -0.3535
  783MPD2    C111598   3.287   1.074  10.353 -0.4238  0.5324  0.6193
  783MPD2    C211599   3.336   0.967  10.283 -0.0057 -1.0011  0.0945
  783MPD2    C311600   3.431   0.983  10.184 -0.3186 -0.2813  0.2472
  783MPD2    C411601   3.474   1.111  10.146  0.1350 -0.4551 -0.1032
  783MPD2    C511602   3.417   1.216  10.208  0.0029 -0.8719 -0.2266
  783MPD2     H11603   3.301   0.865  10.292  1.0492 -1.2974  0.8487
  783MPD2    H111604   3.554   1.121  10.075 -1.2446 -0.0477 -1.5999
  783MPD2    H211605   3.289   1.296  10.351  3.6412  0.0406  1.3332
  783MPD2    H311606   3.451   1.316  10.181  0.6845 -0.7265  1.1766
  783MPD2     N11607   3.480   0.868  10.113 -0.3354 -0.1663  0.3006
  783MPD2    H511608   3.421   0.787  10.128 -1.9303  1.0857  0.9566
  783MPD2    N111609   3.198   1.063  10.463 -0.8475  0.3231  0.4651
  783MPD2    H711610   3.154   1.148  10.498  0.4812  1.6028 -0.9866
  784MPD2     C11611   1.643   1.356   0.366  0.5070  0.3450  0.5105
  784MPD2    C111612   1.593   1.408   0.485 -0.2440  0.0459  0.1173
  784MPD2    C211613   1.468   1.469   0.481 -1.1585 -0.2641 -0.8787
  784MPD2    C311614   1.384   1.471   0.364 -0.1009 -0.1991  0.1899
  784MPD2    C411615   1.441   1.426   0.250 -0.3266 -0.0690  0.8279
  784MPD2    C511616   1.565   1.366   0.255 -0.0675 -1.2662 -0.5979
  784MPD2     H11617   1.440   1.509   0.577 -2.9314 -3.3751 -0.0952
  784MPD2    H111618   1.387   1.425   0.156 -2.8961 -1.5586  2.3326
  784MPD2    H211619   1.742   1.312   0.363 -0.9584 -2.9756  0.4554
  784MPD2    H311620   1.596   1.331   0.157  0.7757 -1.5699 -0.2244
  784MPD2     N11621   1.250   1.516   0.385  0.1448 -0.1390  0.3743
  784MPD2    H511622   1.236   1.569   0.469  1.2301 -0.7929  0.9767
  784MPD2    N111623   1.655   1.405   0.612  0.1032  0.3943  0.1484
  784MPD2    H711624   1.598   1.444   0.686 -3.0040 -1.8725 -1.0126
  785MPD2     C11625   2.055   3.583  10.447 -0.2624  0.3969 -0.2414
  785MPD2    C111626   1.921   3.557  10.447  0.1520 -0.1920  0.6643
  785MPD2    C211627   1.860   3.486  10.345 -0.3960 -0.0346 -0.2291
  785MPD2    C311628   1.926   3.444  10.226  0.4729  0.0725  0.9533
  785MPD2    C411629   2.065   3.466  10.226 -1.0943 -0.7468 -0.3467
  785MPD2    C511630   2.122   3.530  10.336  0.5137 -0.3447  0.9581
  785MPD2     H11631   1.755   3.460  10.343  0.0088 -1.4784 -3.0665
  785MPD2    H111632   2.126   3.430  10.145 -0.7099 -1.7024  0.3736
  785MPD2    H211633   2.107   3.635  10.526 -1.3791  1.5939 -0.2852
  785MPD2    H311634   2.229   3.544  10.330  0.5732 -0.6965  1.1587
  785MPD2     N11635   1.849   3.384  10.126 -0.0042 -0.1017 -0.8728
  785MPD2    H511636   1.750   3.402  10.137 -0.2630 -1.6120 -0.7392
  785MPD2    N111637   1.847   3.607  10.558  0.3208  0.0670  0.1006
  785MPD2    H711638   1.899   3.662  10.626 -0.1213  2.6113 -1.6390
  786MPD2     C11639   4.624   2.430  14.596 -0.2590  0.0332 -0.3768
  786MPD2    C111640   0.000   2.349  14.609 -0.4818  0.2517  0.2086
  786MPD2    C211641   0.068   2.358  14.731  0.3306 -0.2287  0.4083
  786MPD2    C311642   0.011   2.433  14.842  0.1812 -0.5476  0.7207
  786MPD2    C411643   4.634   2.513  14.819  0.5800  0.2535 -0.1888
  786MPD2    C511644   4.581   2.515  14.695  0.6706  0.6880 -0.0315
  786MPD2     H11645   0.154   2.295  14.747  0.0400 -0.6579  0.2867
  786MPD2    H111646   4.599   2.583  14.894  1.3804  2.2599 -1.6808
  786MPD2    H211647   4.580   2.469  14.505  0.3128 -0.1183 -0.7158
  786MPD2    H311648   4.494   2.579  14.683 -0.8369 -0.8686  2.3499
  786MPD2     N11649   0.065   2.443  14.969 -0.5072 -0.0005 -0.4943
  786MPD2    H511650   0.023   2.506  15.037  0.0495 -0.0328 -0.1238
  786MPD2    N111651   0.050   2.266  14.505 -0.1857  0.1092  0.0596
  786MPD2    H711652   0.140   2.222  14.521 -1.1826 -1.3724  1.6355
  787MPD2     C11653   0.325   1.665  14.559  0.2289  0.0591  0.1097
  787MPD2    C111654   0.313   1.701  14.430 -0.4152 -0.4664  0.5937
  787MPD2    C211655   0.396   1.646  14.338  0.1088 -0.5939 -0.2843
  787MPD2    C311656   0.483   1.547  14.372  0.2817 -0.6843  0.2941
  787MPD2    C411657   0.491   1.507  14.501 -0.1261  0.2863 -0.0673
  787MPD2    C511658   0.413   1.563  14.598 -0.0572  0.1573 -0.4198
  787MPD2     H11659   0.390   1.666  14.232  0.5866  0.0002 -0.1962
  787MPD2    H111660   0.569   1.437  14.528 -0.5032  0.0946  0.5536
  787MPD2    H211661   0.254   1.710  14.628  0.6245 -1.0892  1.2734
  787MPD2    H311662   0.425   1.544  14.704  0.0018  0.3653 -0.3891
  787MPD2     N11663   0.562   1.490  14.268  0.0542 -0.8720  0.2065
  787MPD2    H511664   0.584   1.549  14.189 -1.4598  0.8472  1.0573
  787MPD2    N111665   0.213   1.798  14.399  0.3130 -0.3684  0.0292
  787MPD2    H711666   0.174   1.849  14.477  1.8876  2.1753 -0.8512
  788MPD2     C11667   2.157   1.098   0.919  0.8655 -0.0828  0.3776
  788MPD2    C111668   2.262   1.060   0.835  0.3582  0.2598 -0.2314
  788MPD2    C211669   2.330   1.159   0.762  0.4971  0.9304  0.6605
  788MPD2    C311670   2.300   1.292   0.780  0.8235  0.1590  0.3564
  788MPD2    C411671   2.202   1.326   0.866  0.2395 -0.2248 -0.2109
  788MPD2    C511672   2.131   1.233   0.938  0.3477 -0.0972  0.6426
  788MPD2     H11673   2.415   1.137   0.699 -0.1514  0.0264  0.0952
  788MPD2    H111674   2.176   1.430   0.881 -1.5930 -0.5810 -0.9241
  788MPD2    H211675   2.082   1.040   0.972  1.3865  0.0223  1.2186
  788MPD2    H311676   2.064   1.270   1.014 -0.0080  1.2954 -0.3379
  788MPD2     N11677   2.352   1.395   0.698 -0.4579  0.3057 -0.6205
  788MPD2    H511678   2.319   1.486   0.728 -3.0186 -0.6493 -0.5596
  788MPD2    N111679   2.297   0.927   0.810 -0.4873 -0.3212  0.0270
  788MPD2    H711680   2.363   0.912   0.735 -0.6725  0.9175 -0.3887
  789MPD2     C11681   2.651   0.888  17.125  0.1183  1.3760  0.3274
  789MPD2    C111682   2.550   0.864  17.027  0.5484 -0.2452  0.2899
  789MPD2    C211683   2.461   0.964  16.998  0.9398 -0.1879  0.4543
  789MPD2    C311684   2.462   1.080  17.073 -0.5081  0.8006 -0.9161
  789MPD2    C411685   2.552   1.095  17.182  0.3629  0.4593  0.3210
  789MPD2    C511686   2.649   1.000  17.201 -0.0728 -0.0602  0.8043
  789MPD2     H11687   2.387   0.946  16.920 -1.4320 -3.5399  3.4623
  789MPD2    H111688   2.547   1.181  17.248 -1.5208 -0.3682  1.2567
  789MPD2    H211689   2.731   0.819  17.150 -0.0589  1.2565  0.5631
  789MPD2    H311690   2.714   1.010  17.287 -2.3884  1.7029  2.3669
  789MPD2     N11691   2.356   1.167  17.060 -0.4577 -0.0086  0.0946
  789MPD2    H511692   2.338   1.235  17.133  0.2700 -0.6197  0.8425
  789MPD2    N111693   2.551   0.749  16.947 -0.6195 -0.2836  0.3290
  789MPD2    H711694   2.471   0.737  16.886 -2.0665  0.8335  2.0122
  790MPD2     C11695   3.801   1.863  13.389 -0.6619  0.3396  0.2268
  790MPD2    C111696   3.674   1.885  13.445  0.3578  0.5773 -0.2034
  790MPD2    C211697   3.567   1.877  13.356  0.3534 -0.2358  0.1863
  790MPD2    C311698   3.588   1.861  13.220 -0.5604  0.3965 -0.2545
  790MPD2    C411699   3.719   1.868  13.172  0.6110 -1.0624  0.1343
  790MPD2    C511700   3.823   1.866  13.257 -0.8191 -0.1463 -0.3870
  790MPD2     H11701   3.466   1.875  13.394 -0.1149 -3.2450 -1.1759
  790MPD2    H111702   3.740   1.866  13.066  1.3655  1.7032  0.2179
  790MPD2    H211703   3.882   1.874  13.459 -1.2318 -0.1475  0.9610
  790MPD2    H311704   3.923   1.876  13.218  0.0870 -0.8891  1.7338
  790MPD2     N11705   3.478   1.853  13.138  0.3543  1.0473 -0.1484
  790MPD2    H511706   3.389   1.860  13.187 -0.4842 -1.3445 -1.2979
  790MPD2    N111707   3.661   1.889  13.585  0.1753 -0.2546  0.0890
  790MPD2    H711708   3.747   1.869  13.635  0.6685  1.3756 -0.1181
  791MPD2     C11709   2.883   1.565  13.227 -0.3747  0.0025 -0.3856
  791MPD2    C111710   2.938   1.523  13.107  0.5238 -0.0430 -0.2652
  791MPD2    C211711   2.858   1.424  13.044 -0.0469  0.2260 -0.1167
  791MPD2    C311712   2.747   1.356  13.101  0.1249 -0.1754  0.3960
  791MPD2    C411713   2.712   1.398  13.230  0.5635  0.5005  0.0143
  791MPD2    C511714   2.778   1.508  13.289  0.5846  0.5556  0.1519
  791MPD2     H11715   2.885   1.411  12.940 -1.6256 -1.5010 -0.3072
  791MPD2    H111716   2.644   1.343  13.295 -0.2884  1.8669  0.2908
  791MPD2    H211717   2.925   1.646  13.287 -0.4152  0.7451 -1.3468
  791MPD2    H311718   2.759   1.537  13.392  1.0076  0.5026  0.2453
  791MPD2     N11719   2.687   1.253  13.033  0.3137 -0.6081 -0.4465
  791MPD2    H511720   2.729   1.212  12.950  2.3253 -2.0777  1.2816
  791MPD2    N111721   3.046   1.595  13.048  0.0171  0.6117  0.7382
  791MPD2    H711722   3.084   1.659  13.117  1.6774 -2.0006  2.2640
  792MPD2     C11723   3.498   2.238  10.997  1.2998 -0.7543 -0.0562
  792MPD2    C111724   3.505   2.186  10.864 -0.5270  0.4235 -0.1039
  792MPD2    C211725   3.387   2.129  10.812  0.0729 -0.6317 -0.2544
  792MPD2    C311726   3.278   2.113  10.893 -0.2200 -0.0097  0.0875
  792MPD2    C411727   3.279   2.153  11.026  0.1329 -0.4774 -0.0693
  792MPD2    C511728   3.387   2.216  11.080 -0.2511  0.1005  0.1135
  792MPD2     H11729   3.386   2.083  10.714  1.0068 -1.8584  0.3132
  792MPD2    H111730   3.186   2.147  11.082 -0.0984 -0.7360 -0.4849
  792MPD2    H211731   3.586   2.287  11.038  0.1618 -1.1624  2.8902
  792MPD2    H311732   3.383   2.258  11.179 -1.7878  0.4771 -0.1031
  792MPD2     N11733   3.163   2.043  10.858  0.0456  0.3190  0.5219
  792MPD2    H511734   3.090   2.037  10.927  0.2485  0.9499  0.7927
  792MPD2    N111735   3.620   2.194  10.790 -0.5847  0.3389  0.7432
  792MPD2    H711736   3.693   2.241  10.842  0.3610  0.6440 -0.8617
  793MPD2     C11737   2.898   1.278  10.220 -0.3637  1.0668  0.3100
  793MPD2    C111738   2.981   1.389  10.185  0.0311 -0.0254 -0.7286
  793MPD2    C211739   2.989   1.502  10.266  0.9418 -0.4918 -0.2754
  793MPD2    C311740   2.904   1.522  10.371  0.3332 -0.5520 -0.4449
  793MPD2    C411741   2.824   1.413  10.410 -0.1983 -0.7064  0.0504
  793MPD2    C511742   2.823   1.295  10.337 -0.3869  0.2267 -0.3286
  793MPD2     H11743   3.042   1.590  10.232 -0.0252 -0.6682 -2.2514
  793MPD2    H111744   2.761   1.410  10.498 -0.3200 -0.9652 -0.0455
  793MPD2    H211745   2.889   1.189  10.159  0.5445  0.0533  1.6682
  793MPD2    H311746   2.763   1.210  10.366 -0.8827  0.0187 -1.9530
  793MPD2     N11747   2.903   1.644  10.441  0.2113 -0.6391  0.2160
  793MPD2    H511748   2.953   1.725  10.404 -0.8248 -1.7053 -3.5570
  793MPD2    N111749   3.051   1.391  10.062 -0.7243 -0.4019  0.3320
  793MPD2    H711750   3.105   1.474  10.040  0.5362 -1.7669 -1.7483
  794MPD2     C11751   3.317   1.663  17.481  1.0044 -0.3250  0.1424
  794MPD2    C111752   3.303   1.530  17.444  0.1970 -0.3002 -0.0622
  794MPD2    C211753   3.239   1.503  17.321  0.4041  0.3504 -0.4035
  794MPD2    C311754   3.199   1.607  17.236 -0.1202 -0.5107 -0.2175
  794MPD2    C411755   3.225   1.732  17.274  0.6149  0.0262  0.3181
  794MPD2    C511756   3.271   1.756  17.398  0.0330 -0.3961  0.2692
  794MPD2     H11757   3.233   1.398  17.294 -1.3286  0.8207 -1.8564
  794MPD2    H111758   3.203   1.815  17.207  1.9482 -0.6473 -0.9598
  794MPD2    H211759   3.369   1.685  17.573  0.3078 -0.6602  0.6232
  794MPD2    H311760   3.291   1.857  17.434  0.7279 -0.7025  0.7458
  794MPD2     N11761   3.144   1.589  17.108 -0.1292  0.6730  0.2463
  794MPD2    H511762   3.111   1.670  17.057 -1.3364 -0.9628 -1.5561
  794MPD2    N111763   3.326   1.423  17.536  0.2261  0.4226  0.1113
  794MPD2    H711764   3.312   1.329  17.498  2.8742  0.4125 -0.8834
  795MPD2     C11765   0.758   3.525  13.915 -0.0538  0.4429  0.0394
  795MPD2    C111766   0.706   3.412  13.868  0.2671  0.1334  0.8731
  795MPD2    C211767   0.746   3.281  13.924  0.2518  0.1564 -0.5069
  795MPD2    C311768   0.834   3.281  14.032 -0.3198  0.7374  0.6020
  795MPD2    C411769   0.865   3.400  14.090  0.3984 -0.1648  0.1564
  795MPD2    C511770   0.831   3.520  14.034 -0.1905 -0.5379  0.7340
  795MPD2     H11771   0.729   3.189  13.869 -0.5291 -0.6175  1.0373
  795MPD2    H111772   0.928   3.404  14.178 -0.4359 -0.5379  0.7735
  795MPD2    H211773   0.746   3.615  13.855  0.4098  0.0444 -0.6571
  795MPD2    H311774   0.865   3.612  14.081 -0.1754  0.6565 -1.6177
  795MPD2     N11775   0.888   3.157  14.076  0.0587  0.3240 -0.3999
  795MPD2    H511776   0.848   3.068  14.048 -1.2448  1.2391 -1.4907
  795MPD2    N111777   0.633   3.409  13.749  0.2582  0.5137 -0.1548
  795MPD2    H711778   0.612   3.319  13.706 -1.2589  1.4589 -1.3904
  796MPD2     C11779   0.285   0.227  15.917  0.1155  0.5237  0.7282
  796MPD2    C111780   0.333   0.318  16.011  0.6327 -0.2000 -0.1111
  796MPD2    C211781   0.301   0.451  16.002 -0.0824 -0.4208  1.2299
  796MPD2    C311782   0.210   0.494  15.912 -0.0616  0.0617  0.7010
  796MPD2    C411783   0.157   0.403  15.820  0.4888  0.0876  0.6151
  796MPD2    C511784   0.201   0.272  15.823 -0.0575  0.4282  0.0213
  796MPD2     H11785   0.344   0.529  16.064 -2.0917  2.5654 -1.1492
  796MPD2    H111786   0.094   0.425  15.735  0.0668 -0.8036  0.6997
  796MPD2    H211787   0.316   0.124  15.910 -0.9318  0.2387  0.1785
  796MPD2    H311788   0.164   0.200  15.751 -0.8585  1.2948 -0.4247
  796MPD2     N11789   0.184   0.634  15.911 -0.2632 -0.8032 -0.2910
  796MPD2    H511790   0.225   0.686  15.987 -2.3446  1.6418 -0.8220
  796MPD2    N111791   0.425   0.262  16.096 -0.5641  0.0364 -1.1279
  796MPD2    H711792   0.440   0.161  16.095  2.4882  0.4364  2.7265
  797MPD2     C11793   1.624   0.118  17.515  0.3972  0.0241  0.3639
  797MPD2    C111794   1.711   0.219  17.472 -1.0335  0.0958 -0.5374
  797MPD2    C211795   1.692   0.267  17.343  0.3474  0.3542  0.5094
  797MPD2    C311796   1.583   0.225  17.269  0.2822  0.0823 -0.3276
  797MPD2    C411797   1.500   0.127  17.313  0.3921  0.1532 -0.3286
  797MPD2    C511798   1.524   0.068  17.435 -0.1117 -0.4101  0.0625
  797MPD2     H11799   1.744   0.355  17.307  1.9029 -0.7927 -0.0400
  797MPD2    H111800   1.417   0.095  17.251 -0.8590  2.4571  0.1690
  797MPD2    H211801   1.635   0.073  17.613  1.0783  1.2799  0.8634
  797MPD2    H311802   1.473   4.718  17.474 -1.0160 -1.2800 -3.0228
  797MPD2     N11803   1.566   0.272  17.135 -0.0712 -0.4889 -0.1095
  797MPD2    H511804   1.634   0.343  17.109 -1.4610  0.2125 -1.8904
  797MPD2    N111805   1.815   0.283  17.546 -0.5821  0.4646  0.2227
  797MPD2    H711806   1.878   0.344  17.493 -2.7604  2.1528 -0.4412
  798MPD2     C11807   1.893   0.886  17.157 -0.1465  0.0553  0.7432
  798MPD2    C111808   1.854   0.752  17.158  0.4961  0.4384  0.6190
  798MPD2    C211809   1.897   0.677  17.258  0.5392  0.4693 -0.6077
  798MPD2    C311810   1.987   0.719  17.357 -0.9152  0.0466 -0.2685
  798MPD2    C411811   2.045   0.845  17.345 -0.0329 -0.7553  0.1650
  798MPD2    C511812   1.990   0.922  17.251  0.3206 -0.8148  0.1166
  798MPD2     H11813   1.869   0.572  17.256 -3.1243  1.5104 -3.5890
  798MPD2    H111814   2.124   0.877  17.412 -0.4017 -0.0268  0.2520
  798MPD2    H211815   1.877   0.951  17.072 -1.3874 -1.1392  0.0632
  798MPD2    H311816   2.041   1.015  17.230 -2.2573  0.7289  0.6545
  798MPD2     N11817   2.010   0.629  17.470  0.3298 -0.6952 -0.0849
  798MPD2    H511818   1.954   0.545  17.476  1.1031 -1.1982  0.0771
  798MPD2    N111819   1.769   0.700  17.055 -1.2475  0.1669  0.6105
  798MPD2    H711820   1.743   0.767  16.983  2.2410 -1.6279 -2.2944
  799MPD2     C11821   0.065   1.433  14.656 -0.4442  0.6212  0.0807
  799MPD2    C111822   0.065   1.330  14.567 -0.2801  0.0572 -0.4041
  799MPD2    C211823   0.031   1.357  14.431 -0.0857 -0.1624  0.6540
  799MPD2    C311824   4.722   1.481  14.390 -0.7513  0.3792  0.0933
  799MPD2    C411825   4.714   1.578  14.493 -0.4005  1.2012  0.1275
  799MPD2    C511826   0.017   1.556  14.621  0.2625  0.1029  0.1363
  799MPD2     H11827   0.047   1.280  14.358 -0.5595 -0.5918  1.0051
  799MPD2    H111828   4.677   1.674  14.458 -0.5171  0.4161 -1.9114
  799MPD2    H211829   0.092   1.405  14.757  0.6176 -1.5258 -0.7959
  799MPD2    H311830   4.735   1.632  14.697  0.2168  1.0632 -0.8282
  799MPD2     N11831   4.685   1.521  14.258 -0.5609  0.3229 -0.7458
  799MPD2    H511832   4.648   1.614  14.245 -1.3587 -0.3609 -3.4529
  799MPD2    N111833   0.106   1.196  14.588 -0.1863  0.1960  0.2234
  799MPD2    H711834   0.100   1.137  14.506 -0.0861 -1.4602  1.4199
  800MPD2     C11835   0.435   2.430  13.956  0.6231 -0.6232 -0.2755
  800MPD2    C111836   0.569   2.406  13.956 -0.1483  0.3110 -0.3497
  800MPD2    C211837   0.633   2.369  13.843 -0.6485 -0.0354  0.0955
  800MPD2    C311838   0.550   2.342  13.733 -0.3767 -0.5497 -0.0284
  800MPD2    C411839   0.407   2.357  13.739 -0.2529 -0.7639  0.0929
  800MPD2    C511840   0.350   2.404  13.845 -0.8949  0.3321  0.1107
  800MPD2     H11841   0.741   2.370  13.835 -0.6968 -1.3986 -0.8088
  800MPD2    H111842   0.348   2.334  13.650  0.0810  0.7851 -0.5341
  800MPD2    H211843   0.387   2.470  14.044 -0.4718 -0.0302 -1.1424
  800MPD2    H311844   0.252   2.449  13.846 -1.9343 -1.9410 -1.3185
  800MPD2     N11845   0.615   2.286  13.618 -0.2752 -0.4830 -0.7239
  800MPD2    H511846   0.709   2.248  13.627  0.2650  0.4362 -2.5149
  800MPD2    N111847   0.637   2.448  14.070  0.0413 -0.0709  0.4883
  800MPD2    H711848   0.584   2.493  14.144  1.2976  2.9051 -0.4176
  801MPD2     C11849   0.712   3.097  14.379 -0.0901 -0.1006 -0.6295
  801MPD2    C111850   0.625   2.995  14.339 -0.3452 -0.3136  0.6376
  801MPD2    C211851   0.488   3.010  14.342 -0.1317  0.2408  0.1974
  801MPD2    C311852   0.433   3.133  14.392  0.0530  0.8555 -0.8688
  801MPD2    C411853   0.521   3.240  14.416  1.2508  0.2164 -0.1989
  801MPD2    C511854   0.654   3.218  14.413  0.3637 -0.4109 -0.3131
  801MPD2     H11855   0.429   2.921  14.325  1.4671 -0.5708 -1.0942
  801MPD2    H111856   0.481   3.338  14.436 -2.1078 -1.4223  1.1116
  801MPD2    H211857   0.819   3.092  14.395 -0.3296 -1.2045  0.7157
  801MPD2    H311858   0.725   3.298  14.425 -0.4965  0.1540  0.9798
  801MPD2     N11859   0.294   3.156  14.404 -0.1505  0.3234 -0.1905
  801MPD2    H511860   0.259   3.235  14.456 -0.3408 -1.6409  2.6750
  801MPD2    N111861   0.677   2.864  14.316 -0.1064 -0.7025  0.6674
  801MPD2    H711862   0.610   2.796  14.281 -0.9946  1.7047 -2.3360
  802MPD2     C11863   0.675   4.396   0.384 -0.4055 -0.7194  0.3634
  802MPD2    C111864   0.605   4.414   0.263  0.1450  0.4336  0.8479
  802MPD2    C211865   0.644   4.336   0.160 -0.1179 -1.0240  0.1647
  802MPD2    C311866   0.742   4.232   0.163  1.1237  0.0216 -0.1261
  802MPD2    C411867   0.810   4.222   0.284  0.3023 -0.0729  0.2789
  802MPD2    C511868   0.776   4.306   0.392  0.1040 -0.7066 -0.1978
  802MPD2     H11869   0.589   4.349   0.067 -0.0035 -2.0334 -0.0417
  802MPD2    H111870   0.900   4.162   0.294  1.4013  1.6153  0.4563
  802MPD2    H211871   0.672   4.471   0.462  0.9046 -0.3413  0.0570
  802MPD2    H311872   0.838   4.312   0.481  2.1977 -1.6987 -1.5719
  802MPD2     N11873   0.760   4.156   0.044 -0.0248 -0.5001  0.3333
  802MPD2    H511874   0.707   4.185  17.707 -1.7260  1.3114  2.0531
  802MPD2    N111875   0.503   4.508   0.246 -0.3111  0.4544 -0.0901
  802MPD2    H711876   0.450   4.502   0.160 -0.0387  1.6684 -0.3358
  803MPD2     C11877   0.770   0.525  12.753  0.4158 -0.4902 -0.1489
  803MPD2    C111878   0.791   0.628  12.668 -0.2688  0.6016 -0.7270
  803MPD2    C211879   0.909   0.709  12.675 -0.0428  0.0403 -0.4196
  803MPD2    C311880   1.006   0.679  12.773 -0.2029  0.3573 -0.1658
  803MPD2    C411881   0.974   0.575  12.860 -0.1309  0.0768 -0.2837
  803MPD2    C511882   0.857   0.499  12.854 -0.2471  0.1527  0.5163
  803MPD2     H11883   0.929   0.788  12.603 -2.8850 -0.1950 -1.4815
  803MPD2    H111884   1.041   0.549  12.942  0.7447  0.5596 -0.8447
  803MPD2    H211885   0.681   0.462  12.749 -0.0817  0.1713  0.3643
  803MPD2    H311886   0.834   0.420  12.925  1.2005 -1.0560 -0.3567
  803MPD2     N11887   1.137   0.724  12.784  0.1204  0.3308  0.4377
  803MPD2    H511888   1.208   0.667  12.829  1.8694  2.3921  0.2646
  803MPD2    N111889   0.699   0.660  12.561  0.0462  0.5450 -0.4127
  803MPD2    H711890   0.728   0.742  12.508 -0.4509  0.0801 -1.4240
  804MPD2     C11891   1.082   3.628  17.219 -0.4571 -0.3584  0.2333
  804MPD2    C111892   1.097   3.550  17.335  0.3166 -0.0147 -0.2854
  804MPD2    C211893   1.175   3.598  17.440 -0.1898  0.5188 -0.3596
  804MPD2    C311894   1.234   3.723  17.441 -0.1951  0.1526  0.2455
  804MPD2    C411895   1.217   3.807  17.324 -0.4722 -0.2057  0.1475
  804MPD2    C511896   1.139   3.757  17.221 -0.2388  0.3993  0.2122
  804MPD2     H11897   1.188   3.537  17.529  1.4502 -0.7227 -1.4616
  804MPD2    H111898   1.253   3.910  17.321  0.3083 -0.4704  0.3682
  804MPD2    H211899   1.026   3.594  17.133 -1.5543  1.9564  0.0471
  804MPD2    H311900   1.131   3.823  17.136  1.5017 -0.4546 -0.6237
  804MPD2     N11901   1.313   3.758  17.556 -0.1839 -0.2946  0.4212
  804MPD2    H511902   1.334   3.684  17.622 -1.3456  0.9230  2.1285
  804MPD2    N111903   1.022   3.436  17.359 -0.2912  0.5560 -0.6372
  804MPD2    H711904   1.036   3.379  17.442 -0.0338  1.6010  0.0317
  805MPD2     C11905   4.528   1.973  15.598 -0.0874  0.0198  0.7318
  805MPD2    C111906   4.609   1.923  15.496 -0.7907  0.7772  0.1902
  805MPD2    C211907   0.006   1.948  15.495 -0.0403 -0.5114 -0.2761
  805MPD2    C311908   0.057   2.021  15.595  0.4477  0.2844 -0.7760
  805MPD2    C411909   4.714   2.067  15.702  0.4656 -0.2563  0.0797
  805MPD2    C511910   4.576   2.051  15.698 -0.5275  0.1420 -0.8349
  805MPD2     H11911   0.071   1.897  15.425 -0.4353  0.0871 -1.0794
  805MPD2    H111912   0.013   2.123  15.788 -0.8583 -0.8728  1.0337
  805MPD2    H211913   4.421   1.956  15.601 -0.3100  1.0492 -1.3881
  805MPD2    H311914   4.512   2.094  15.774 -0.9831  0.9439 -1.6733
  805MPD2     N11915   0.196   2.029  15.604 -0.2888 -0.8390 -0.1581
  805MPD2    H511916   0.246   1.969  15.538  1.1786  0.5214 -0.2951
  805MPD2    N111917   4.568   1.837  15.394 -0.1904 -0.1961 -0.6221
  805MPD2    H711918   4.642   1.796  15.339 -1.0028 -2.4602 -0.0108
  806MPD2     C11919   0.230   1.329   0.097 -0.3946 -0.1886 -0.3129
  806MPD2    C111920   0.335   1.379   0.172  0.5040  0.1371  0.6851
  806MPD2    C211921   0.427   1.446   0.105 -0.0533  0.3634  0.2379
  806MPD2    C311922   0.431   1.471  17.714 -0.1168 -0.5913 -0.4294
  806MPD2    C411923   0.321   1.424  17.642 -1.2352  0.2533  0.1539
  806MPD2    C511924   0.225   1.357  17.708  0.9007 -0.3818 -0.1978
  806MPD2     H11925   0.515   1.482   0.158 -0.7996  1.4363  0.7352
  806MPD2    H111926   0.307   1.437  17.536  2.0510 -0.1298 -0.3051
  806MPD2    H211927   0.151   1.268   0.138 -1.1818  1.1461  0.1686
  806MPD2    H311928   0.135   1.316  17.662  1.2333 -0.4298 -0.8064
  806MPD2     N11929   0.540   1.541  17.660  0.1248  0.1097  0.1798
  806MPD2    H511930   0.603   1.576  17.731 -0.2429 -0.6150  0.8553
  806MPD2    N111931   0.341   1.359   0.310  0.0129  0.0842  0.6797
  806MPD2    H711932   0.283   1.281   0.339  0.1964 -0.3106 -0.0264
  807MPD2     C11933   0.376   0.748   0.706  0.1057 -0.0612 -0.2736
  807MPD2    C111934   0.353   0.835   0.814  0.5752  0.9765 -0.5985
  807MPD2    C211935   0.359   0.782   0.942 -0.1213 -0.0771 -0.5391
  807MPD2    C311936   0.399   0.653   0.956  0.5194 -0.4874 -0.1781
  807MPD2    C411937   0.413   0.564   0.854 -0.2486  0.1012  0.1226
  807MPD2    C511938   0.391   0.613   0.728 -0.2038 -0.8002 -0.1658
  807MPD2     H11939   0.345   0.841   1.031  3.9614  0.5009 -0.2892
  807MPD2    H111940   0.440   0.460   0.866 -2.7540 -0.5979 -0.4031
  807MPD2    H211941   0.380   0.778   0.602 -0.1103  0.5022 -0.1200
  807MPD2    H311942   0.401   0.539   0.650  1.0717 -0.6707 -0.1396
  807MPD2     N11943   0.418   0.611   1.093 -0.2195 -0.6370  0.1020
  807MPD2    H511944   0.414   0.687   1.160  0.8370 -0.4743 -0.0281
  807MPD2    N111945   0.335   0.975   0.802  0.0686 -0.0364  0.6829
  807MPD2    H711946   0.331   1.036   0.884 -0.4901 -0.3772  0.9142
  808MPD2     C11947   1.572   2.916   9.295  0.1307 -0.5153 -0.6022
  808MPD2    C111948   1.585   2.927   9.430 -0.3026 -0.0474 -0.5277
  808MPD2    C211949   1.691   2.998   9.491 -1.0758 -0.5209 -0.3115
  808MPD2    C311950   1.775   3.065   9.400 -0.1180 -0.3846 -0.0821
  808MPD2    C411951   1.764   3.060   9.260  0.3559 -0.1934  0.0196
  808MPD2    C511952   1.655   2.984   9.213 -0.2982  0.5133 -0.3043
  808MPD2     H11953   1.713   2.991   9.597  0.1258  0.6151 -0.4905
  808MPD2    H111954   1.835   3.106   9.193 -0.5298 -0.9722 -1.4542
  808MPD2    H211955   1.501   2.846   9.253 -0.4339 -0.1124 -0.3141
  808MPD2    H311956   1.642   2.972   9.106 -0.1682 -1.6862 -0.0796
  808MPD2     N11957   1.894   3.134   9.431 -0.3407 -0.1232  0.2819
  808MPD2    H511958   1.953   3.165   9.354  0.0519  0.1220  0.6819
  808MPD2    N111959   1.500   2.860   9.525 -0.4746 -0.2952  0.0721
  808MPD2    H711960   1.507   2.885   9.623  0.6873  2.6580 -0.7640
  809MPD2     C11961   2.224   4.027   9.164  0.3696 -0.0376  0.4607
  809MPD2    C111962   2.159   3.919   9.110 -0.1361  0.6216 -0.2690
  809MPD2    C211963   2.144   3.806   9.190  0.0084  0.5612 -0.4865
  809MPD2    C311964   2.189   3.799   9.321 -0.5443  0.1589  0.4473
  809MPD2    C411965   2.255   3.910   9.372  0.0980 -0.2580  0.5198
  809MPD2    C511966   2.270   4.022   9.293  0.4918  0.4131 -0.1672
  809MPD2     H11967   2.093   3.719   9.150 -1.4745 -0.4005  3.4327
  809MPD2    H111968   2.289   3.916   9.474 -1.4222  0.2591  0.9849
  809MPD2    H211969   2.258   4.115   9.110 -0.7880 -0.5228 -1.0594
  809MPD2    H311970   2.331   4.105   9.326 -1.0701  1.8499 -0.8907
  809MPD2     N11971   2.176   3.688   9.410  0.4101 -0.0919 -0.1355
  809MPD2    H511972   2.216   3.688   9.503  2.0445  0.5784 -0.8353
  809MPD2    N111973   2.117   3.904   8.974 -0.4419  0.2062 -0.2685
  809MPD2    H711974   2.088   3.811   8.945 -1.3244 -0.1472  1.6596
  810MPD2     C11975   0.700   1.523  10.530  0.2959  0.5686 -0.6403
  810MPD2    C111976   0.656   1.579  10.414 -0.0330 -0.1176  0.0910
  810MPD2    C211977   0.650   1.716  10.394 -0.0300  0.2088  0.8200
  810MPD2    C311978   0.680   1.800  10.493 -0.4458 -0.6409  0.2503
  810MPD2    C411979   0.708   1.751  10.617  0.0175 -0.0980  0.3951
  810MPD2    C511980   0.725   1.613  10.634 -0.9105 -0.0901 -0.7244
  810MPD2     H11981   0.620   1.746  10.295  2.3392 -1.4977 -0.4131
  810MPD2    H111982   0.735   1.810  10.704 -2.5630 -0.1513  1.2365
  810MPD2    H211983   0.711   1.417  10.549  0.1188  0.5893 -0.4289
  810MPD2    H311984   0.758   1.575  10.730  0.1834  0.6984 -0.7820
  810MPD2     N11985   0.689   1.941  10.484  0.4435 -0.2530 -0.2919
  810MPD2    H511986   0.703   1.992  10.570  1.6020 -0.8564 -0.1301
  810MPD2    N111987   0.621   1.502  10.302  0.2371 -0.5264 -0.5758
  810MPD2    H711988   0.558   1.553  10.241 -0.5614  0.3916  1.0308
  811MPD2     C11989   0.336   1.316   9.507 -0.4924 -0.7682 -0.1598
  811MPD2    C111990   0.392   1.394   9.608 -0.1273 -0.3622  0.5414
  811MPD2    C211991   0.442   1.519   9.575  0.0541 -0.1648 -0.2732
  811MPD2    C311992   0.440   1.566   9.449  0.1044  0.2694  0.1455
  811MPD2    C411993   0.379   1.488   9.346  0.0685 -0.7225 -1.1771
  811MPD2    C511994   0.328   1.364   9.378  0.4493  0.9981  0.1587
  811MPD2     H11995   0.472   1.589   9.652 -1.9275  0.9475 -0.5161
  811MPD2    H111996   0.378   1.524   9.244 -3.7111  3.1910  0.2560
  811MPD2    H211997   0.291   1.220   9.530  0.4968 -1.4599 -1.0932
  811MPD2    H311998   0.290   1.302   9.298  2.7458  0.9435 -0.8978
  811MPD2     N11999   0.502   1.691   9.415 -0.9970  0.0207 -0.4101
  811MPD2    H512000   0.551   1.737   9.491 -2.1134 -0.7866  0.7851
  811MPD2    N112001   0.394   1.346   9.743  0.4710 -0.2327  0.2593
  811MPD2    H712002   0.365   1.249   9.748  2.3840 -0.8256 -0.2041
  812MPD2     C12003   4.216   1.587  11.648 -0.2243 -0.4164  0.4529
  812MPD2    C112004   4.198   1.706  11.719  0.2081  0.3597 -0.5565
  812MPD2    C212005   4.245   1.701  11.854  0.1835 -0.4679  0.3783
  812MPD2    C312006   4.316   1.594  11.902 -0.2037 -0.0584 -0.3449
  812MPD2    C412007   4.337   1.484  11.819  0.4096 -0.4601 -0.5553
  812MPD2    C512008   4.284   1.482  11.692 -0.0125 -0.1657 -0.3854
  812MPD2     H12009   4.233   1.780  11.926 -0.1140  0.4769 -0.7079
  812MPD2    H112010   4.371   1.387  11.855  0.4449  0.2160  1.2387
  812MPD2    H212011   4.182   1.573  11.546  1.1415  1.1736 -0.2278
  812MPD2    H312012   4.293   1.395  11.628  1.1630  0.9906 -1.7863
  812MPD2     N12013   4.363   1.606  12.032 -0.3489  0.7319 -0.3916
  812MPD2    H512014   4.321   1.673  12.095  0.7298  2.0224 -1.0624
  812MPD2    N112015   4.136   1.826  11.672  0.3657  0.0781  0.2148
  812MPD2    H712016   4.127   1.902  11.738 -0.8147 -0.4638  0.6885
  813MPD2     C12017   2.801   3.310  12.784  0.0643  0.2791  0.1375
  813MPD2    C112018   2.846   3.437  12.787  0.3208 -0.2447  0.0155
  813MPD2    C212019   2.825   3.524  12.894 -0.8324  0.0155  0.4199
  813MPD2    C312020   2.748   3.480  13.000  0.0308 -0.2196 -0.3250
  813MPD2    C412021   2.700   3.351  12.998  0.0305  0.5743  0.2189
  813MPD2    C512022   2.726   3.266  12.891 -0.4558  0.3632 -0.3357
  813MPD2     H12023   2.853   3.629  12.895 -0.2202 -0.1458  0.1102
  813MPD2    H112024   2.644   3.308  13.080 -0.2097 -1.2569 -0.8993
  813MPD2    H212025   2.800   3.239  12.703 -0.6819 -0.3488  0.6942
  813MPD2    H312026   2.688   3.165  12.890 -2.3052  1.0623  1.4051
  813MPD2     N12027   2.723   3.574  13.109 -0.1864 -0.8808  0.2999
  813MPD2    H512028   2.777   3.659  13.108 -2.5203  0.5891 -0.8785
  813MPD2    N112029   2.945   3.472  12.691 -0.5084 -0.0782  0.5163
  813MPD2    H712030   2.985   3.402  12.631 -0.5720  0.4143 -0.1019
  814MPD2     C12031   3.413   0.329  12.239  0.8417  0.4771 -0.2734
  814MPD2    C112032   3.511   0.365  12.140 -0.5203  0.8993 -0.3375
  814MPD2    C212033   3.574   0.482  12.156 -1.0271 -0.3718  0.2412
  814MPD2    C312034   3.556   0.563  12.268  0.1887  0.1378 -0.1976
  814MPD2    C412035   3.468   0.521  12.363 -0.2120 -0.0628 -1.1338
  814MPD2    C512036   3.399   0.403  12.351 -0.2270  0.5420  0.1676
  814MPD2     H12037   3.638   0.515  12.076 -2.2960  0.7429 -0.3056
  814MPD2    H112038   3.441   0.583  12.447  1.9011  2.5668 -2.3916
  814MPD2    H212039   3.354   0.238  12.236 -0.6684  1.4197  0.9225
  814MPD2    H312040   3.334   0.368  12.430  0.0864 -1.0692 -0.2804
  814MPD2     N12041   3.627   0.675  12.294 -0.0801  0.7981  0.2251
  814MPD2    H512042   3.600   0.729  12.375 -2.4253 -0.0967  0.0414
  814MPD2    N112043   3.539   0.285  12.026  0.0589  0.0644 -0.2568
  814MPD2    H712044   3.591   0.328  11.950  1.1444 -1.0393 -0.1574
  815MPD2     C12045   4.210   3.323  11.240 -0.0702  0.0581  0.2896
  815MPD2    C112046   4.186   3.188  11.235  0.0936  1.0299  0.0197
  815MPD2    C212047   4.120   3.123  11.341 -0.2778 -0.2952  0.2340
  815MPD2    C312048   4.071   3.200  11.440 -0.5597 -0.9255 -0.7510
  815MPD2    C412049   4.115   3.329  11.455 -0.4285 -0.3933  0.8698
  815MPD2    C512050   4.181   3.391  11.353  0.2522 -0.7090 -0.5601
  815MPD2     H12051   4.092   3.019  11.334 -0.3431 -0.1726 -1.3499
  815MPD2    H112052   4.087   3.393  11.538 -1.9602  0.2483 -0.1395
  815MPD2    H212053   4.249   3.378  11.155 -0.5278  0.7429  0.5249
  815MPD2    H312054   4.218   3.492  11.370 -2.9287 -0.1863  3.2940
  815MPD2     N12055   3.975   3.131  11.524  0.1156 -0.0336  0.5580
  815MPD2    H512056   3.950   3.039  11.489  1.6954  0.1971 -1.2311
  815MPD2    N112057   4.232   3.119  11.127 -0.3450 -0.0129 -0.7355
  815MPD2    H712058   4.265   3.167  11.043  2.2391 -1.2467 -0.4221
  816MPD2     C12059   3.894   2.909  17.445 -0.3009  0.1829  0.1672
  816MPD2    C112060   3.988   3.013  17.437 -0.4211 -0.1868 -0.8803
  816MPD2    C212061   4.104   2.983  17.372  0.0266  0.5472  0.6705
  816MPD2    C312062   4.130   2.862  17.307  0.9453  0.0019 -0.0028
  816MPD2    C412063   4.036   2.767  17.321  0.0240  0.6187 -0.2503
  816MPD2    C512064   3.917   2.788  17.380 -0.3319 -0.7559  0.1469
  816MPD2     H12065   4.180   3.060  17.367  0.3498  0.1992  0.2324
  816MPD2    H112066   4.055   2.667  17.285  0.7875  1.1889 -1.4206
  816MPD2    H212067   3.798   2.931  17.490 -0.3836 -1.9858  1.0619
  816MPD2    H312068   3.842   2.710  17.381 -1.1514  0.0240  0.5007
  816MPD2     N12069   4.244   2.849  17.229 -0.2486 -0.9654  0.4364
  816MPD2    H512070   4.314   2.923  17.230  0.5859 -1.7470  0.3327
  816MPD2    N112071   3.954   3.140  17.475 -0.1848  0.6638 -0.4934
  816MPD2    H712072   3.856   3.156  17.497  0.4018  2.1922  1.0694
  817MPD2     C12073   4.060   4.609   9.510 -0.8015  0.8666 -0.0706
  817MPD2    C112074   4.121   4.571   9.389  0.3193  0.6249 -0.2163
  817MPD2    C212075   4.094   4.644   9.270 -0.3903 -0.1921  0.0946
  817MPD2    C312076   4.006   0.017   9.279  0.1244 -0.5275 -0.2492
  817MPD2    C412077   3.942   0.042   9.400 -0.1231 -0.0660  1.2519
  817MPD2    C512078   3.968   4.711   9.513 -0.0099 -0.3247 -0.6041
  817MPD2     H12079   4.131   4.616   9.172  1.9331 -0.6724  1.0984
  817MPD2    H112080   3.872   0.123   9.416 -1.3709 -1.0642  0.8612
  817MPD2    H212081   4.093   4.577   9.608 -0.8046  1.8486  0.2447
  817MPD2    H312082   3.924   0.006   9.607 -0.1404  0.4992 -0.9420
  817MPD2     N12083   3.980   0.094   9.162  0.0597  0.2213  0.0942
  817MPD2    H512084   4.041   0.085   9.082  1.6595  0.5357  1.2985
  817MPD2    N112085   4.221   4.466   9.385 -0.2746  0.3120 -0.3369
  817MPD2    H712086   4.252   4.433   9.294 -2.3944  0.1905 -1.0091
  818MPD2     C12087   3.025   4.352  10.129  0.2985 -0.5618  0.2178
  818MPD2    C112088   2.966   4.339  10.001 -0.1049 -0.1947 -0.4330
  818MPD2    C212089   3.037   4.271   9.906 -1.2541 -0.7099  0.0113
  818MPD2    C312090   3.157   4.210   9.931  0.1617 -0.5906 -0.3193
  818MPD2    C412091   3.197   4.204  10.061 -0.0979  0.0144 -0.0317
  818MPD2    C512092   3.140   4.282  10.153  0.2349 -0.9536  1.1233
  818MPD2     H12093   2.998   4.262   9.805  1.3654 -0.9307 -0.9986
  818MPD2    H112094   3.289   4.152  10.083  0.1865  0.1324 -0.9445
  818MPD2    H212095   2.961   4.395  10.204  0.7559 -0.6050  0.6314
  818MPD2    H312096   3.183   4.285  10.252  2.1438 -0.9642  0.2928
  818MPD2     N12097   3.233   4.127   9.843 -0.1529  0.2953 -0.0617
  818MPD2    H512098   3.312   4.074   9.879 -1.2741 -0.6000  1.0485
  818MPD2    N112099   2.828   4.372   9.995 -0.4331 -0.2216 -0.2808
  818MPD2    H712100   2.786   4.397  10.084  1.6835  0.9790  0.4114
  819MPD2     C12101   0.915   1.445  15.546  0.7021 -0.5620 -0.1528
  819MPD2    C112102   0.917   1.326  15.620 -0.7876  0.0992  0.6691
  819MPD2    C212103   1.009   1.319  15.733  0.4473 -0.1705 -0.8261
  819MPD2    C312104   1.075   1.431  15.781 -0.1004  0.0442  0.3618
  819MPD2    C412105   1.059   1.552  15.711  0.0454  0.0457  0.0932
  819MPD2    C512106   0.985   1.553  15.594  0.4091  0.2509 -0.0366
  819MPD2     H12107   1.004   1.230  15.796 -0.4019  0.2790 -0.2506
  819MPD2    H112108   1.096   1.646  15.749 -1.6022  0.2044  1.2912
  819MPD2    H212109   0.852   1.466  15.461  0.8863 -0.7841 -0.3432
  819MPD2    H312110   0.970   1.647  15.542  1.4816  1.3502  1.6548
  819MPD2     N12111   1.156   1.422  15.898  0.3416  0.1148  0.1895
  819MPD2    H512112   1.161   1.331  15.943  0.0176  1.1953  2.3933
  819MPD2    N112113   0.818   1.233  15.586  0.3301 -0.2730  0.3577
  819MPD2    H712114   0.759   1.264  15.509  0.3571 -2.0388 -0.3628
  820MPD2     C12115   4.610   0.985  15.306  0.6778 -0.0604  0.6005
  820MPD2    C112116   4.677   1.106  15.321  0.7386 -0.0710 -0.2773
  820MPD2    C212117   0.069   1.110  15.380 -0.8362 -0.7707 -0.2176
  820MPD2    C312118   0.135   0.987  15.403 -0.0686  0.7384 -0.2339
  820MPD2    C412119   0.073   0.869  15.364  0.3107  0.4361  0.0084
  820MPD2    C512120   4.676   0.871  15.328  0.3159  0.0953 -0.8373
  820MPD2     H12121   0.122   1.202  15.402  1.8816 -1.7932 -2.4811
  820MPD2    H112122   0.132   0.777  15.359  0.7095  0.6778  0.2350
  820MPD2    H212123   4.505   0.975  15.280  0.8164 -0.1688  0.0843
  820MPD2    H312124   4.633   0.773  15.307  0.6565 -0.1924 -0.2054
  820MPD2     N12125   0.266   0.974  15.449  0.4532  0.5261 -0.2973
  820MPD2    H512126   0.300   0.878  15.454  0.0334  0.3271 -1.2276
  820MPD2    N112127   4.601   1.226  15.291  0.1150  0.1705 -0.8011
  820MPD2    H712128   4.514   1.207  15.243 -0.1668  0.4146 -0.3796
  821MPD2     C12129   0.749   2.677  12.832 -0.0223 -0.0507 -0.4203
  821MPD2    C112130   0.837   2.593  12.889 -0.7618 -0.0219 -0.3200
  821MPD2    C212131   0.961   2.568  12.833  0.1419 -0.6887 -0.0773
  821MPD2    C312132   0.999   2.625  12.718 -0.3517 -0.2409  0.0260
  821MPD2    C412133   0.909   2.705  12.657  0.2519 -0.5688  0.3023
  821MPD2    C512134   0.789   2.744  12.719  0.1419  0.1668  0.0207
  821MPD2     H12135   1.034   2.521  12.898 -0.2383  0.9574  1.5088
  821MPD2    H112136   0.918   2.740  12.555 -1.9101  0.0357  0.3199
  821MPD2    H212137   0.651   2.702  12.872  0.3765 -1.3322  1.3467
  821MPD2    H312138   0.735   2.818  12.661  0.2269  1.3848  1.4815
  821MPD2     N12139   1.118   2.601  12.650 -0.4540  0.3894  0.3706
  821MPD2    H512140   1.139   2.638  12.557 -0.6227 -3.4854 -1.2329
  821MPD2    N112141   0.805   2.525  13.008  0.4287 -0.9382 -0.1836
  821MPD2    H712142   0.870   2.457  13.047  2.3691 -0.6723 -2.8905
  822MPD2     C12143   1.659   2.764  15.864 -0.7783  0.3851  0.3175
  822MPD2    C112144   1.662   2.715  15.988  0.4233  0.4030  0.5176
  822MPD2    C212145   1.627   2.801  16.088  0.1879  0.1252 -0.2925
  822MPD2    C312146   1.583   2.933  16.073  0.2580 -0.4578 -0.2259
  822MPD2    C412147   1.561   2.975  15.947  0.1502  0.1262 -0.5623
  822MPD2    C512148   1.594   2.888  15.850 -0.1447  0.3777 -0.2205
  822MPD2     H12149   1.644   2.764  16.189 -1.6356 -0.2225 -0.1183
  822MPD2    H112150   1.517   3.072  15.925 -2.3462 -0.4543  1.8101
  822MPD2    H212151   1.697   2.721  15.772 -1.6195  0.5494 -0.1032
  822MPD2    H312152   1.574   2.919  15.748  0.1206  0.4622 -0.2465
  822MPD2     N12153   1.540   3.008  16.188 -0.1688  0.0273 -0.8201
  822MPD2    H512154   1.561   2.956  16.273 -0.8319 -0.7024 -1.1050
  822MPD2    N112155   1.718   2.586  16.013  0.2633 -0.1852  0.4625
  822MPD2    H712156   1.712   2.534  16.100 -1.0675 -0.2952  0.3067
  823MPD2     C12157   1.169   3.296  16.915  0.0865  0.3491  0.0479
  823MPD2    C112158   1.182   3.187  16.824  0.1095 -0.0150 -0.0117
  823MPD2    C212159   1.175   3.054  16.875 -0.2630 -0.6537 -0.0532
  823MPD2    C312160   1.160   3.036  17.009  0.4631 -0.3367  0.6558
  823MPD2    C412161   1.147   3.145  17.096 -1.3802 -0.2363  0.2433
  823MPD2    C512162   1.149   3.275  17.049  0.0905  0.0971  0.0177
  823MPD2     H12163   1.186   2.968  16.810  1.6902  0.4691 -1.2013
  823MPD2    H112164   1.129   3.134  17.203  0.1609 -3.0569  0.2031
  823MPD2    H212165   1.166   3.399  16.879  0.1986  0.0584 -0.7832
  823MPD2    H312166   1.152   3.364  17.110  0.9585  0.0881 -0.0203
  823MPD2     N12167   1.154   2.907  17.066  0.3075 -0.1314  0.1746
  823MPD2    H512168   1.128   2.916  17.164  3.2983  0.4569  0.9237
  823MPD2    N112169   1.218   3.220  16.689  1.1918  0.2804 -0.0442
  823MPD2    H712170   1.240   3.319  16.678  1.4396  0.2226 -0.0773
  824MPD2     C12171   1.808   2.075  15.441  0.3239 -0.1052 -0.0659
  824MPD2    C112172   1.872   2.030  15.551  0.2585  0.8179  0.2405
  824MPD2    C212173   1.971   1.930  15.535  0.3373 -0.1420  0.4975
  824MPD2    C312174   1.995   1.869  15.414 -0.0724  0.7101  0.1479
  824MPD2    C412175   1.919   1.910  15.306 -0.1488 -0.3414  0.3723
  824MPD2    C512176   1.830   2.012  15.322  0.0422 -0.2606 -0.0819
  824MPD2     H12177   2.025   1.891  15.620 -0.4836 -2.1723  0.0700
  824MPD2    H112178   1.932   1.858  15.212  0.8421  0.8678 -0.1593
  824MPD2    H212179   1.730   2.151  15.450 -0.3949 -0.6818 -1.3973
  824MPD2    H312180   1.777   2.049  15.234  2.8846  0.4837 -1.4705
  824MPD2     N12181   2.099   1.777  15.398  0.4145  0.1280 -0.0276
  824MPD2    H512182   2.146   1.759  15.486 -2.0004  1.5534  1.5734
  824MPD2    N112183   1.848   2.098  15.671 -0.1926  0.0538 -0.0705
  824MPD2    H712184   1.772   2.164  15.665 -1.3707 -1.2241  0.8154
  825MPD2     C12185   2.960   1.810  15.299  0.1166 -0.0397  0.3653
  825MPD2    C112186   2.829   1.864  15.299 -0.8767  0.3481  0.0876
  825MPD2    C212187   2.812   2.001  15.284  0.2904  0.9319 -0.7057
  825MPD2    C312188   2.914   2.093  15.273  0.0908  0.1445  0.7121
  825MPD2    C412189   3.042   2.040  15.273  0.2755 -0.0522  0.5938
  825MPD2    C512190   3.063   1.903  15.294  0.2202 -0.3302  0.4434
  825MPD2     H12191   2.709   2.031  15.297 -0.3880 -0.6482 -2.4067
  825MPD2    H112192   3.131   2.101  15.262  1.2903 -1.5826  0.2358
  825MPD2    H212193   2.981   1.707  15.324 -1.1234  0.2314  2.5655
  825MPD2    H312194   3.164   1.865  15.305 -0.0320 -1.2159 -0.3530
  825MPD2     N12195   2.903   2.237  15.271  0.7904 -0.3045  0.0650
  825MPD2    H512196   2.986   2.291  15.248 -0.4893  1.1113 -1.1971
  825MPD2    N112197   2.726   1.779  15.325 -0.4014  0.6238 -0.6196
  825MPD2    H712198   2.748   1.692  15.374 -1.9870  0.5888  0.0527
  826MPD2     C12199   2.228   1.155  13.692 -0.0434 -0.0719 -0.1655
  826MPD2    C112200   2.320   1.241  13.642  0.1141  0.8308 -0.2121
  826MPD2    C212201   2.278   1.369  13.607  0.1328  0.7448  0.5992
  826MPD2    C312202   2.146   1.405  13.608  0.0125 -0.1938  0.6017
  826MPD2    C412203   2.048   1.318  13.657  0.3938  0.0707  0.9516
  826MPD2    C512204   2.095   1.194  13.697  0.4000  0.2940  0.6038
  826MPD2     H12205   2.349   1.449  13.594  1.6282 -0.6457  0.1714
  826MPD2    H112206   1.945   1.351  13.662 -0.1391 -1.4279 -0.2101
  826MPD2    H212207   2.261   1.058  13.729 -0.1847 -0.3683 -0.8119
  826MPD2    H312208   2.031   1.114  13.733  2.5279 -1.2996  0.8763
  826MPD2     N12209   2.112   1.541  13.580  0.3135  0.4350 -0.2654
  826MPD2    H512210   2.019   1.574  13.603  0.7935  3.2781 -2.4141
  826MPD2    N112211   2.453   1.204  13.631 -0.2343 -0.1060 -0.6232
  826MPD2    H712212   2.475   1.117  13.679  1.5995  0.1797 -0.9597
  827MPD2     C12213   3.713   3.857   9.368  0.5981 -0.2785  1.0815
  827MPD2    C112214   3.692   3.721   9.367  0.6527  0.6051  0.3416
  827MPD2    C212215   3.633   3.656   9.255  0.0116  0.5143 -0.2727
  827MPD2    C312216   3.604   3.729   9.140 -0.8461  0.3012 -0.7348
  827MPD2    C412217   3.625   3.869   9.140 -0.3839  0.2995 -0.3300
  827MPD2    C512218   3.677   3.925   9.253 -0.0029 -0.4601  0.5552
  827MPD2     H12219   3.625   3.548   9.258  1.9159  0.4112  1.1473
  827MPD2    H112220   3.592   3.929   9.056  0.8613  2.2120  0.5334
  827MPD2    H212221   3.752   3.915   9.450 -0.3619  0.1749  1.2115
  827MPD2    H312222   3.705   4.030   9.258  1.2286 -0.7362 -0.4654
  827MPD2     N12223   3.551   3.662   9.029 -0.1257 -0.1134 -0.1908
  827MPD2    H512224   3.528   3.565   9.048 -2.7190  0.2074 -1.6762
  827MPD2    N112225   3.737   3.645   9.479  0.0792  0.0460 -0.3688
  827MPD2    H712226   3.785   3.694   9.554  0.5456 -0.9225 -0.0309
  828MPD2     C12227   1.914   2.811  11.496 -0.0975  0.2991 -0.0375
  828MPD2    C112228   1.790   2.862  11.492  0.2152  0.7675  0.2360
  828MPD2    C212229   1.751   2.926  11.379  0.3536 -0.1654  0.5912
  828MPD2    C312230   1.825   2.904  11.261 -0.4735 -1.0785  0.9752
  828MPD2    C412231   1.938   2.836  11.262 -0.0959  0.0856 -0.1785
  828MPD2    C512232   1.987   2.791  11.382 -0.2603 -0.0363 -0.7069
  828MPD2     H12233   1.655   2.976  11.374 -0.8479 -2.5275 -0.5137
  828MPD2    H112234   1.985   2.824  11.165  0.7964  1.5727  0.0659
  828MPD2    H212235   1.956   2.770  11.588  1.2926 -0.3970 -0.9754
  828MPD2    H312236   2.084   2.743  11.382 -0.1147  0.2537 -0.7603
  828MPD2     N12237   1.771   2.940  11.133  0.1078 -0.2503  0.7598
  828MPD2    H512238   1.831   2.931  11.052  0.0697  0.0030  0.7053
  828MPD2    N112239   1.700   2.881  11.604 -0.0748  0.2246  0.3353
  828MPD2    H712240   1.615   2.932  11.581  0.8218  1.0012 -1.2452
  829MPD2     C12241   1.125   3.458  11.551 -0.7585 -0.5486 -0.4092
  829MPD2    C112242   1.053   3.376  11.633 -1.4576  0.0588  0.1867
  829MPD2    C212243   1.123   3.296  11.722  0.0650 -0.8047  0.2579
  829MPD2    C312244   1.266   3.291  11.716  1.0305 -0.4703 -0.1980
  829MPD2    C412245   1.332   3.377  11.632 -0.2897 -0.3349 -0.6145
  829MPD2    C512246   1.260   3.463  11.553  0.2328  0.3642 -0.4116
  829MPD2     H12247   1.069   3.219  11.775 -1.7546  1.3047  1.4809
  829MPD2    H112248   1.439   3.381  11.620 -0.1545 -1.9019  0.0974
  829MPD2    H212249   1.064   3.528  11.494 -1.6659  1.2673  2.7733
  829MPD2    H312250   1.317   3.526  11.487  0.3300 -0.7035 -1.3414
  829MPD2     N12251   1.350   3.197  11.774 -0.5821 -0.7499  0.2969
  829MPD2    H512252   1.449   3.213  11.757 -0.6197 -0.6773  0.1435
  829MPD2    N112253   0.910   3.377  11.633  0.7136  0.1356 -0.4386
  829MPD2    H712254   0.861   3.418  11.554  0.1782 -0.9549 -0.6694
  830MPD2     C12255   1.278   0.982  16.436 -0.2408  0.1226  1.2086
  830MPD2    C112256   1.201   1.059  16.349  0.0279 -0.0336  0.5395
  830MPD2    C212257   1.231   1.057  16.215  0.5308  0.7404  0.4204
  830MPD2    C312258   1.351   0.998  16.172  0.1996  0.0590 -0.2140
  830MPD2    C412259   1.434   0.934  16.256  0.8186 -0.6769 -0.2530
  830MPD2    C512260   1.389   0.919  16.390  0.0641  0.0529  0.7433
  830MPD2     H12261   1.165   1.115  16.152 -0.7293 -2.8602 -1.5441
  830MPD2    H112262   1.530   0.891  16.231  1.6928 -0.0857  2.1181
  830MPD2    H212263   1.236   0.972  16.535  1.3620 -1.5588  1.7187
  830MPD2    H312264   1.461   0.887  16.464 -0.6701  0.9882  1.8583
  830MPD2     N12265   1.395   1.013  16.038 -0.0757 -0.8165  1.0123
  830MPD2    H512266   1.484   0.977  16.005  0.3981  0.6804  0.6509
  830MPD2    N112267   1.106   1.146  16.408  0.0662  0.5800  0.1680
  830MPD2    H712268   1.062   1.121  16.495  1.8142 -1.1624  0.5377
  831MPD2     C12269   1.741   3.048  16.519  0.1698 -0.4774  0.3717
  831MPD2    C112270   1.751   2.928  16.447 -0.2449  0.0314  0.5940
  831MPD2    C212271   1.638   2.846  16.457 -0.4215  0.7651  0.3916
  831MPD2    C312272   1.530   2.879  16.540 -0.4696 -0.7605  0.1813
  831MPD2    C412273   1.522   2.997  16.605  0.0552  0.2440  0.8574
  831MPD2    C512274   1.630   3.082  16.589  0.4063 -0.7769  0.0371
  831MPD2     H12275   1.644   2.750  16.407  1.5148  1.0572  0.0653
  831MPD2    H112276   1.445   3.022  16.677 -1.0251 -1.3635  0.2668
  831MPD2    H212277   1.822   3.119  16.530 -0.7497  1.0495 -2.7004
  831MPD2    H312278   1.624   3.177  16.640  1.4254 -1.5366  1.5580
  831MPD2     N12279   1.425   2.781  16.565 -0.0677  0.1732  0.2165
  831MPD2    H512280   1.339   2.821  16.599 -0.1257  0.2770 -0.0527
  831MPD2    N112281   1.870   2.896  16.384  0.3622  0.5433  0.9047
  831MPD2    H712282   1.949   2.959  16.384  0.4465  0.4471 -0.8383
  832MPD2     C12283   0.061   4.166  17.306 -0.0655 -0.3708 -0.1132
  832MPD2    C112284   0.066   4.262  17.210 -0.2869  0.8727  0.5922
  832MPD2    C212285   4.678   4.283  17.144  0.4365 -0.8998  0.3496
  832MPD2    C312286   4.573   4.192  17.168  0.5112  0.3232  0.4182
  832MPD2    C412287   4.575   4.101  17.265 -0.2879 -0.1373  0.2247
  832MPD2    C512288   4.689   4.088  17.337 -0.4364  0.5267  0.0963
  832MPD2     H12289   4.674   4.344  17.054  1.3220  0.3999  1.2076
  832MPD2    H112290   4.493   4.039  17.298  0.2780 -0.8170  0.3469
  832MPD2    H212291   0.153   4.142  17.357  0.4402 -0.7262 -1.1854
  832MPD2    H312292   4.701   4.015  17.416 -0.7761 -0.6400 -0.9371
  832MPD2     N12293   4.450   4.194  17.096  0.8065 -0.0038  0.3313
  832MPD2    H512294   4.382   4.123  17.118 -0.3628  0.6395 -1.2354
  832MPD2    N112295   0.193   4.334  17.196  0.0866 -0.1556 -0.2914
  832MPD2    H712296   0.265   4.310  17.263  0.5422  0.1499 -0.6729
  833MPD2     C12297   2.247   0.880  12.279  0.1923 -0.1570  0.2446
  833MPD2    C112298   2.163   0.937  12.186 -0.0191 -0.1158 -0.1313
  833MPD2    C212299   2.175   0.910  12.052 -0.3576  0.2412  0.6145
  833MPD2    C312300   2.259   0.803  12.013 -0.2723 -0.0588 -0.3535
  833MPD2    C412301   2.337   0.736  12.109  0.4206  0.8556 -0.4398
  833MPD2    C512302   2.326   0.776  12.239 -0.8693  0.0851  0.0439
  833MPD2     H12303   2.112   0.946  11.971  0.1501 -0.1667  0.0402
  833MPD2    H112304   2.389   0.643  12.090 -2.7264 -1.0612  0.3992
  833MPD2    H212305   2.248   0.907  12.384  1.8052 -0.8075  0.3877
  833MPD2    H312306   2.378   0.708  12.306  0.3702  2.0391  1.0880
  833MPD2     N12307   2.257   0.756  11.883 -0.4382 -0.2692 -0.6641
  833MPD2    H512308   2.292   0.661  11.871  2.0184  0.4424  0.9076
  833MPD2    N112309   2.055   1.013  12.234  0.2311 -1.0342  0.3276
  833MPD2    H712310   2.038   1.019  12.334 -0.0609 -0.7591  0.2613
  834MPD2     C12311   1.995   4.635  11.471 -1.4372  0.3781 -0.7178
  834MPD2    C112312   1.981   4.715  11.362  0.2187 -0.3580 -0.3323
  834MPD2    C212313   1.985   0.121  11.380  0.2643  0.2393  0.7288
  834MPD2    C312314   2.022   0.176  11.501  0.5737 -0.5603 -0.1017
  834MPD2    C412315   2.033   0.087  11.606 -0.4606  0.2001  0.1587
  834MPD2    C512316   2.020   4.690  11.589 -0.9431  0.0756  0.6350
  834MPD2     H12317   1.966   0.177  11.289  0.0175 -0.4831  0.3339
  834MPD2    H112318   2.067   0.115  11.705 -1.5658  0.0202  0.5836
  834MPD2    H212319   1.992   4.526  11.476 -1.4323  0.4925  1.7401
  834MPD2    H312320   2.029   4.621  11.673  2.1885  1.4631  1.4379
  834MPD2     N12321   2.028   0.315  11.520 -0.1070 -0.1194 -0.2655
  834MPD2    H512322   2.012   0.379  11.443  0.3568 -0.4188 -0.6113
  834MPD2    N112323   1.956   4.644  11.246 -0.1551  0.0478 -0.6786
  834MPD2    H712324   1.960   4.542  11.251 -1.2131 -0.0587 -2.0389
  835MPD2     C12325   2.634   3.083  10.660  0.8098 -0.2217  0.2805
  835MPD2    C112326   2.522   3.056  10.742 -0.5660  0.1954  0.7102
  835MPD2    C212327   2.540   3.062  10.880  0.5000  0.1881 -0.6300
  835MPD2    C312328   2.660   3.084  10.940 -0.3092 -0.3566 -0.3527
  835MPD2    C412329   2.770   3.096  10.851  0.1442  0.0642 -0.1400
  835MPD2    C512330   2.760   3.100  10.712  0.5144 -0.2581  0.6673
  835MPD2     H12331   2.460   3.039  10.949 -0.4560 -0.6018 -2.0056
  835MPD2    H112332   2.869   3.109  10.892 -0.0540  1.2360 -0.0187
  835MPD2    H212333   2.629   3.089  10.552  1.3944  1.7692  0.3481
  835MPD2    H312334   2.848   3.122  10.653 -0.3704 -2.4897 -1.4965
  835MPD2     N12335   2.685   3.080  11.080 -0.4277  0.1245 -0.0033
  835MPD2    H512336   2.782   3.086  11.111 -0.8839 -0.6260  1.5517
  835MPD2    N112337   2.391   3.052  10.691  0.2583 -0.1496  0.4202
  835MPD2    H712338   2.315   3.041  10.758  0.1637  0.4885  0.4257
  836MPD2     C12339   2.678   3.384  11.950  0.1229 -0.1788  0.2620
  836MPD2    C112340   2.585   3.343  11.858 -0.1142 -0.7039  0.0383
  836MPD2    C212341   2.452   3.344  11.893 -0.4325  0.4097 -0.6654
  836MPD2    C312342   2.411   3.401  12.008  0.1719  0.5979  0.4441
  836MPD2    C412343   2.503   3.456  12.087 -0.3802  0.2538 -0.2580
  836MPD2    C512344   2.636   3.430  12.069 -0.1238  0.1102 -0.2867
  836MPD2     H12345   2.377   3.296  11.830  0.0494 -2.2184  0.7592
  836MPD2    H112346   2.460   3.498  12.178  1.6954  0.3274  0.6783
  836MPD2    H212347   2.783   3.360  11.937 -0.1488 -1.0452 -0.3089
  836MPD2    H312348   2.714   3.447  12.143 -0.3187 -1.0042  0.1855
  836MPD2     N12349   2.274   3.421  12.035  0.0452 -0.9296  0.6636
  836MPD2    H512350   2.249   3.470  12.120  1.0026  0.6895  0.0032
  836MPD2    N112351   2.630   3.285  11.730 -0.0916  0.3687 -0.1239
  836MPD2    H712352   2.728   3.287  11.704  0.0671 -0.0946  0.4294
  837MPD2     C12353   1.054   2.200   8.941  0.4527  0.0958  0.3463
  837MPD2    C112354   0.955   2.250   9.027 -0.2739 -0.3037 -0.2759
  837MPD2    C212355   0.957   2.390   9.054 -0.3329 -0.1683  0.1370
  837MPD2    C312356   1.061   2.461   9.012 -0.1059 -0.1172  0.9622
  837MPD2    C412357   1.173   2.409   8.944  0.3659  0.7135  0.3824
  837MPD2    C512358   1.164   2.279   8.897  0.3755 -0.0445  0.1262
  837MPD2     H12359   0.885   2.442   9.117 -2.2594 -0.8062 -1.5288
  837MPD2    H112360   1.242   2.470   8.888  0.5419  1.0144  0.9228
  837MPD2    H212361   1.060   2.097   8.911 -1.2245 -0.3768  1.6518
  837MPD2    H312362   1.239   2.249   8.825  0.8733 -2.6564  1.7505
  837MPD2     N12363   1.055   2.597   9.053 -0.6433  0.0569  0.3645
  837MPD2    H512364   0.968   2.620   9.099  0.9907  1.7647  2.6515
  837MPD2    N112365   0.854   2.176   9.080 -0.6029  0.6904  0.3846
  837MPD2    H712366   0.794   2.228   9.143  0.0778  1.9077  0.0325
  838MPD2     C12367   3.376   0.837  10.821 -0.7881  1.0599  0.2077
  838MPD2    C112368   3.374   0.921  10.926  1.1489  0.8573 -0.5699
  838MPD2    C212369   3.318   0.878  11.045  1.2873  0.3128  0.0866
  838MPD2    C312370   3.247   0.761  11.046 -0.2282 -0.6539 -0.0175
  838MPD2    C412371   3.239   0.683  10.933  0.4404  0.0396  0.4040
  838MPD2    C512372   3.306   0.718  10.824 -0.5229 -0.6939 -0.2495
  838MPD2     H12373   3.315   0.943  11.131 -0.7730 -0.3255  0.5068
  838MPD2    H112374   3.200   0.581  10.931  0.0056  0.2459 -1.7416
  838MPD2    H212375   3.411   0.868  10.723  1.3328  1.4264  1.0846
  838MPD2    H312376   3.300   0.657  10.734  2.3457  0.2447 -1.0965
  838MPD2     N12377   3.191   0.719  11.174 -0.3189 -0.0924  0.4020
  838MPD2    H512378   3.196   0.792  11.245 -0.0187  0.9490 -0.6848
  838MPD2    N112379   3.434   1.048  10.921  0.4260 -0.3264 -0.1408
  838MPD2    H712380   3.424   1.108  11.001  0.3704  0.3469 -0.6512
  839MPD2     C12381   3.438   0.925  11.520  0.3833 -0.2525 -0.2363
  839MPD2    C112382   3.508   0.885  11.407  0.1241 -0.3136  0.2864
  839MPD2    C212383   3.574   0.971  11.319 -0.0120 -0.0197 -0.7218
  839MPD2    C312384   3.560   1.105  11.346 -0.0335 -0.3925  0.3580
  839MPD2    C412385   3.484   1.147  11.454 -0.0199 -0.0047  0.0838
  839MPD2    C512386   3.424   1.060  11.545  0.4606  0.9686 -0.2515
  839MPD2     H12387   3.629   0.935  11.233 -0.7330  3.8161 -2.7803
  839MPD2    H112388   3.461   1.252  11.445 -0.5995 -0.3908 -3.2569
  839MPD2    H212389   3.389   0.862  11.593  0.4373 -0.4198 -0.3462
  839MPD2    H312390   3.362   1.099  11.625  0.4572  0.6134 -0.0829
  839MPD2     N12391   3.612   1.198  11.253 -0.0375  1.2441  0.6821
  839MPD2    H512392   3.599   1.295  11.279  1.5656  1.4537  0.7121
  839MPD2    N112393   3.515   0.746  11.370 -0.2462 -0.8843  0.4359
  839MPD2    H712394   3.580   0.718  11.296  0.5769  1.4308  0.2959
  840MPD2     C12395   4.137   3.855   9.860 -0.4114  0.7763  0.1869
  840MPD2    C112396   4.078   3.745   9.922 -0.1398 -0.0546 -0.4226
  840MPD2    C212397   4.057   3.748  10.060 -0.1981 -0.2295 -0.3471
  840MPD2    C312398   4.091   3.866  10.132  0.0199 -0.1409 -0.3484
  840MPD2    C412399   4.154   3.972  10.069  0.1456  0.0233  0.0448
  840MPD2    C512400   4.166   3.968   9.929 -0.2338  0.3051  0.5258
  840MPD2     H12401   4.020   3.661  10.113  2.8657 -1.8109 -0.8124
  840MPD2    H112402   4.201   4.060  10.113  0.8511  0.7743 -2.1911
  840MPD2    H212403   4.165   3.846   9.755 -0.2396  1.1548  0.1989
  840MPD2    H312404   4.221   4.049   9.881  0.9960  0.0013  1.4356
  840MPD2     N12405   4.093   3.876  10.276  0.5305 -0.1213  0.1836
  840MPD2    H512406   4.134   3.961  10.314 -0.1599  0.4625 -0.3878
  840MPD2    N112407   4.047   3.637   9.840  0.1928 -0.2521 -0.0325
  840MPD2    H712408   4.065   3.646   9.741 -2.8148 -0.4725 -0.6070
  841MPD2     C12409   3.200   2.886  14.371  0.1456  0.0919  0.6546
  841MPD2    C112410   3.293   2.791  14.408 -1.4970  0.1063 -0.0902
  841MPD2    C212411   3.392   2.825  14.496  0.4763  0.2780 -0.0504
  841MPD2    C312412   3.405   2.950  14.548  0.2414 -0.7985  0.6138
  841MPD2    C412413   3.310   3.045  14.516 -0.8690 -0.9890  0.2228
  841MPD2    C512414   3.205   3.011  14.432  0.4226  0.3313  0.1713
  841MPD2     H12415   3.468   2.757  14.533  0.1316  1.0952  2.1669
  841MPD2    H112416   3.309   3.144  14.560 -0.1930 -0.1827 -1.5717
  841MPD2    H212417   3.113   2.857  14.313  0.3590 -1.4236  1.0928
  841MPD2    H312418   3.118   3.076  14.427 -1.4241 -2.2391 -1.5137
  841MPD2     N12419   3.509   2.974  14.641 -0.3578  0.2563  0.4074
  841MPD2    H512420   3.566   2.896  14.670 -1.0639  0.3361  1.9916
  841MPD2    N112421   3.280   2.656  14.377 -0.1537  0.3431 -0.2058
  841MPD2    H712422   3.350   2.594  14.417 -0.8287 -0.7420 -0.7058
  842MPD2     C12423   4.108   4.553  16.885 -0.1379  0.2924 -0.8166
  842MPD2    C112424   3.998   4.462  16.894 -0.9776 -0.1398  0.1836
  842MPD2    C212425   3.967   4.418  17.023  0.8747 -0.7473  0.0027
  842MPD2    C312426   4.053   4.446  17.129 -0.2174  0.3863  0.2623
  842MPD2    C412427   4.163   4.529  17.118 -0.4948  0.1319  0.7039
  842MPD2    C512428   4.190   4.582  16.993 -0.1152  0.2093  0.0105
  842MPD2     H12429   3.887   4.344  17.026  1.5172 -1.4617 -0.5166
  842MPD2    H112430   4.231   4.549  17.200 -0.4915 -1.4136  1.0765
  842MPD2    H212431   4.143   4.592  16.791  0.7599  1.4616 -0.0023
  842MPD2    H312432   4.269   4.656  16.988 -2.1464  2.2983 -1.3599
  842MPD2     N12433   4.031   4.381  17.253  0.1211  0.2857 -0.2891
  842MPD2    H512434   4.083   4.423  17.330 -1.2541 -0.2134  0.9171
  842MPD2    N112435   3.930   4.429  16.775  0.0857 -0.1970  0.0812
  842MPD2    H712436   3.969   4.463  16.688  3.9066 -0.1118  1.8615
  843MPD2     C12437   1.360   0.724  17.218  0.7694 -0.5774 -0.4047
  843MPD2    C112438   1.403   0.637  17.318 -0.6881  0.0003 -0.1083
  843MPD2    C212439   1.508   0.680  17.394  1.1487  0.6177  0.2738
  843MPD2    C312440   1.567   0.803  17.383 -0.4947 -0.6095  0.1234
  843MPD2    C412441   1.533   0.875  17.272 -0.4146 -0.2905 -0.0204
  843MPD2    C512442   1.435   0.832  17.190 -0.1138 -0.0216 -0.8094
  843MPD2     H12443   1.554   0.613  17.466  1.6459 -0.9749 -1.5280
  843MPD2    H112444   1.570   0.973  17.244 -1.5960  0.2808  0.4360
  843MPD2    H212445   1.286   0.695  17.143  0.8315  1.1653 -1.1350
  843MPD2    H312446   1.401   0.893  17.107 -1.9405  2.1189  1.5253
  843MPD2     N12447   1.661   0.856  17.471  0.1253  0.3234  0.5149
  843MPD2    H512448   1.700   0.948  17.460 -0.5254  0.3767 -1.2549
  843MPD2    N112449   1.330   0.515  17.331  0.0864 -0.2734  0.3013
  843MPD2    H712450   1.257   0.504  17.261 -0.9056 -1.5926  1.5541
  844MPD2     C12451   4.141   3.616  16.812  0.3344 -0.6721 -0.7458
  844MPD2    C112452   4.189   3.662  16.697  0.4968  0.2746 -0.7701
  844MPD2    C212453   4.282   3.762  16.689  0.1894 -0.7496  0.5777
  844MPD2    C312454   4.339   3.812  16.802 -0.7947  0.0690 -0.0165
  844MPD2    C412455   4.292   3.763  16.925  0.3253  0.6254  0.5865
  844MPD2    C512456   4.200   3.655  16.928  0.2907 -0.4145 -0.2027
  844MPD2     H12457   4.309   3.799  16.591  0.3547 -0.3671  0.7652
  844MPD2    H112458   4.331   3.793  17.022  1.7365  1.9775 -0.3805
  844MPD2    H212459   4.050   3.559  16.828  0.5534 -0.2588  1.8494
  844MPD2    H312460   4.162   3.626  17.026 -0.9392  1.5965 -0.0727
  844MPD2     N12461   4.446   3.899  16.803  0.2688 -0.1336  0.0143
  844MPD2    H512462   4.469   3.946  16.716 -0.4233 -0.6690 -0.4557
  844MPD2    N112463   4.136   3.611  16.577  0.3354  0.3199 -0.2543
  844MPD2    H712464   4.160   3.659  16.491 -0.7669  1.4080  0.0490
  845MPD2     C12465   4.717   0.057  16.549 -0.9997 -0.0168  0.1340
  845MPD2    C112466   0.045   0.041  16.666 -0.1254  0.4155 -0.0792
  845MPD2    C212467   0.055   4.648  16.718 -0.2823  0.1411  0.0302
  845MPD2    C312468   0.002   4.540  16.651  0.1839  0.0068  0.5678
  845MPD2    C412469   4.672   4.562  16.530  0.5510 -0.2407 -0.7380
  845MPD2    C512470   4.667   4.687  16.480 -0.1539  0.5899  0.2057
  845MPD2     H12471   0.116   4.628  16.806  1.4532 -0.0411 -1.2144
  845MPD2    H112472   4.625   4.485  16.470 -1.2904  0.6693 -0.4765
  845MPD2    H212473   4.690   0.154  16.510 -1.0101 -0.4722 -1.0097
  845MPD2    H312474   4.618   4.701  16.384 -1.3108  1.2109  0.8876
  845MPD2     N12475   0.011   4.414  16.715 -0.3635 -1.2139  0.1850
  845MPD2    H512476   0.070   4.409  16.798  0.2191 -3.1955 -0.3440
  845MPD2    N112477   0.077   0.161  16.746  0.0505 -0.2257  0.6377
  845MPD2    H712478   0.056   0.249  16.700 -1.4059 -0.0539  1.6202
  846MPD2     C12479   1.277   0.175  13.924 -0.3545 -0.0086  0.5309
  846MPD2    C112480   1.157   0.106  13.905  0.7354  0.3950 -0.0581
  846MPD2    C212481   1.101   0.035  14.016  0.3487  0.3717  1.2730
  846MPD2    C312482   1.168   0.042  14.137 -0.0385  0.6100  0.5546
  846MPD2    C412483   1.294   0.101  14.147 -0.4455 -0.2560 -0.6789
  846MPD2    C512484   1.344   0.177  14.041  0.6180 -0.2484 -1.0135
  846MPD2     H12485   1.007   4.719  14.001 -0.2988  1.2027  2.3252
  846MPD2    H112486   1.342   0.090  14.244 -1.5815  1.5663  0.0962
  846MPD2    H212487   1.323   0.231  13.844 -2.4458  2.2638  0.9484
  846MPD2    H312488   1.432   0.239  14.051  0.6838 -0.3422 -1.0057
  846MPD2     N12489   1.091   4.721  14.242 -0.4324 -0.1361  0.3751
  846MPD2    H512490   0.994   4.711  14.217  0.1340 -0.6048 -1.6656
  846MPD2    N112491   1.103   0.100  13.775 -0.6774  0.0316 -0.3654
  846MPD2    H712492   1.036   0.025  13.763 -0.1037 -0.3338 -1.2664
  847MPD2     C12493   1.264   0.936  14.984  0.0249 -0.2202  0.1117
  847MPD2    C112494   1.359   1.027  15.030  0.3508 -0.0684 -0.1708
  847MPD2    C212495   1.451   0.991  15.122  0.2998  0.1648  0.2536
  847MPD2    C312496   1.433   0.879  15.191 -0.5757 -0.1085 -0.0255
  847MPD2    C412497   1.333   0.786  15.158 -0.3777  0.6553  0.3063
  847MPD2    C512498   1.249   0.819  15.055 -0.5958  0.4055  0.2059
  847MPD2     H12499   1.530   1.059  15.152  0.5177  0.2568 -0.5250
  847MPD2    H112500   1.329   0.686  15.199 -0.5810  0.1223 -1.0193
  847MPD2    H212501   1.202   0.960  14.899  0.6099  0.5050 -0.1081
  847MPD2    H312502   1.180   0.743  15.021  0.5667 -0.7013  0.3030
  847MPD2     N12503   1.530   0.858  15.294  0.4531 -0.3551  0.0537
  847MPD2    H512504   1.596   0.934  15.307  1.6635 -1.4839  0.4521
  847MPD2    N112505   1.375   1.156  14.978 -0.0538  0.7891 -0.4091
  847MPD2    H712506   1.461   1.199  15.009  0.2321  0.8740 -1.3043
  848MPD2     C12507   4.137   4.247  16.303 -0.2026  0.8260  0.3714
  848MPD2    C112508   4.203   4.321  16.393  0.3989  0.4756  0.1560
  848MPD2    C212509   4.251   4.447  16.355 -0.3529 -0.6584 -0.0826
  848MPD2    C312510   4.248   4.492  16.225 -0.1348  0.2088 -1.3534
  848MPD2    C412511   4.175   4.414  16.140 -1.0336  0.0383  0.1238
  848MPD2    C512512   4.122   4.295  16.178  0.4030  0.0997  0.6311
  848MPD2     H12513   4.300   4.501  16.435 -1.5760  1.9289 -1.0992
  848MPD2    H112514   4.161   4.456  16.041 -0.8383 -0.2974 -0.0498
  848MPD2    H212515   4.086   4.156  16.333 -0.9716  1.2942  0.4666
  848MPD2    H312516   4.064   4.241  16.105  0.5472  0.1822  0.4570
  848MPD2     N12517   4.284   4.620  16.182  0.1897  0.2283 -0.5837
  848MPD2    H512518   4.271   4.639  16.083  1.6594  1.8927 -0.4543
  848MPD2    N112519   4.211   4.286  16.530 -0.6500  0.9226  0.6477
  848MPD2    H712520   4.255   4.357  16.588  4.2863  0.2923 -2.3531
  849MPD2     C12521   3.252   3.798  13.612 -0.1432  0.2643 -0.9397
  849MPD2    C112522   3.359   3.717  13.653 -0.4887  0.0446 -0.1291
  849MPD2    C212523   3.357   3.635  13.763 -0.1198  1.0831  0.1532
  849MPD2    C312524   3.241   3.628  13.849  0.9626 -0.4202 -0.9439
  849MPD2    C412525   3.135   3.709  13.808 -0.4134 -0.1165 -0.0903
  849MPD2    C512526   3.142   3.791  13.696 -0.3514 -0.4391 -0.2051
  849MPD2     H12527   3.448   3.580  13.787 -0.5203  0.2761 -0.1845
  849MPD2    H112528   3.039   3.696  13.856 -0.6150  0.3390 -0.3666
  849MPD2    H212529   3.249   3.876  13.537 -0.5419  0.1117 -1.0780
  849MPD2    H312530   3.053   3.844  13.664  0.0839 -0.1424 -0.9237
  849MPD2     N12531   3.227   3.543  13.962 -0.0803  0.1808 -0.8374
  849MPD2    H512532   3.138   3.546  14.012  1.2232 -0.8340  1.5480
  849MPD2    N112533   3.486   3.708  13.586  0.1356  0.6864  0.3596
  849MPD2    H712534   3.561   3.665  13.638 -0.5008  0.9253  1.4882
  850MPD2     C12535   1.557   2.009  14.851 -0.6379 -0.8120  0.1213
  850MPD2    C112536   1.550   2.098  14.953 -0.1712  0.4655  0.7240
  850MPD2    C212537   1.667   2.165  14.993  0.2710 -0.0402  0.0690
  850MPD2    C312538   1.793   2.144  14.924 -0.2899 -0.0146  0.3107
  850MPD2    C412539   1.792   2.057  14.823 -1.1329  0.0956  0.0911
  850MPD2    C512540   1.674   1.995  14.786  0.1632 -1.1165  0.1788
  850MPD2     H12541   1.652   2.239  15.071 -4.1018 -3.2731  2.2998
  850MPD2    H112542   1.881   2.023  14.772 -0.7586  1.9508 -0.4560
  850MPD2    H212543   1.466   1.962  14.816 -0.3043 -2.0926  0.9699
  850MPD2    H312544   1.682   1.933  14.698  0.7447 -2.9661  1.5389
  850MPD2     N12545   1.916   2.193  14.970 -0.0265 -0.8129 -0.4515
  850MPD2    H512546   1.994   2.162  14.912  1.2784  1.5211  0.0729
  850MPD2    N112547   1.433   2.111  15.027 -0.1126  0.3996 -0.0372
  850MPD2    H712548   1.365   2.037  15.025  0.7779 -0.4647  1.4707
  851MPD2     C12549   1.586   1.971  15.822  0.1193  0.8450 -0.0746
  851MPD2    C112550   1.535   1.913  15.707 -0.3612 -0.1319 -0.4582
  851MPD2    C212551   1.538   1.775  15.707  0.1838 -0.1627 -0.1029
  851MPD2    C312552   1.573   1.698  15.816  0.5068 -0.2889 -0.1800
  851MPD2    C412553   1.614   1.757  15.934 -0.3041  0.2769  0.5134
  851MPD2    C512554   1.630   1.897  15.937 -0.5926  0.1691 -1.1162
  851MPD2     H12555   1.513   1.736  15.609 -1.2933 -1.4839  0.8090
  851MPD2    H112556   1.653   1.691  16.011 -0.5502  0.1858  0.5583
  851MPD2    H212557   1.597   2.078  15.828  1.2585  0.6136  1.7694
  851MPD2    H312558   1.667   1.959  16.017  0.4424 -0.0676 -1.4143
  851MPD2     N12559   1.564   1.557  15.791 -0.5069  0.4474  0.5847
  851MPD2    H512560   1.533   1.533  15.698  3.5034 -0.3424 -0.5433
  851MPD2    N112561   1.494   1.996  15.604 -0.2081 -0.2662 -0.2011
  851MPD2    H712562   1.506   2.096  15.614 -0.5941  0.0520 -2.9041
  852MPD2     C12563   1.971   3.946   9.671  0.3565  0.4520 -0.9392
  852MPD2    C112564   1.896   3.933   9.783  0.4518 -0.4338 -0.8708
  852MPD2    C212565   1.887   4.048   9.872  0.1516  0.0353  0.5689
  852MPD2    C312566   1.962   4.163   9.848  0.9575  0.3019 -0.4596
  852MPD2    C412567   2.041   4.171   9.735  0.7250  0.2857 -0.2843
  852MPD2    C512568   2.048   4.059   9.652 -0.2517 -0.5682 -0.4160
  852MPD2     H12569   1.836   4.037   9.967 -1.4686  2.1304 -0.0619
  852MPD2    H112570   2.101   4.258   9.712  1.2000 -0.5287 -2.1894
  852MPD2    H212571   1.986   3.870   9.596 -2.0246 -1.3457  0.4223
  852MPD2    H312572   2.119   4.048   9.571 -0.0924 -0.1156 -0.3359
  852MPD2     N12573   1.955   4.269   9.941 -0.1698 -0.0800  0.5511
  852MPD2    H512574   1.897   4.251  10.023 -0.2448 -2.7741 -0.0749
  852MPD2    N112575   1.824   3.819   9.819  0.1556  0.2403  0.6095
  852MPD2    H712576   1.769   3.828   9.904  3.1792 -1.1716  2.6981
  853MPD2     C12577   3.057   3.855  12.133 -0.0056  0.9955 -0.0333
  853MPD2    C112578   2.989   3.972  12.093 -0.7845  0.1852  0.3533
  853MPD2    C212579   2.969   4.002  11.958 -0.3006  0.0581 -0.3917
  853MPD2    C312580   3.024   3.912  11.864  0.1369  0.1583  0.9112
  853MPD2    C412581   3.091   3.797  11.905 -0.0740  0.8304  0.1661
  853MPD2    C512582   3.106   3.766  12.037 -0.1760 -0.1574 -0.4755
  853MPD2     H12583   2.915   4.093  11.932 -1.6971 -0.5252  0.4387
  853MPD2    H112584   3.132   3.739  11.823  0.4936  0.7719  0.4904
  853MPD2    H212585   3.079   3.827  12.235 -1.2039 -1.0760 -0.3375
  853MPD2    H312586   3.153   3.677  12.077 -0.7750  0.2291  1.0949
  853MPD2     N12587   3.016   3.935  11.718 -0.3535 -0.3056 -0.1222
  853MPD2    H512588   3.064   3.869  11.657 -0.6152 -0.9999  0.4189
  853MPD2    N112589   2.955   4.057  12.195 -0.7886  0.1055  0.0722
  853MPD2    H712590   2.987   4.037  12.289 -0.1474  0.4898 -0.0670
  854MPD2     C12591   4.488   4.155  12.384 -0.1358 -0.3892  0.5739
  854MPD2    C112592   4.561   4.265  12.411 -0.1963  0.1195 -0.4260
  854MPD2    C212593   4.673   4.251  12.485 -0.0626  0.3818 -0.1641
  854MPD2    C312594   4.717   4.130  12.528 -0.2614  0.8303  0.3023
  854MPD2    C412595   4.651   4.017  12.485 -0.1427 -0.1495 -0.1802
  854MPD2    C512596   4.529   4.031  12.422  0.2188  0.9889 -0.1498
  854MPD2     H12597   4.730   4.343  12.491  1.8576 -0.9599  2.0457
  854MPD2    H112598   4.706   3.924  12.485 -1.5099 -0.9669  2.0429
  854MPD2    H212599   4.394   4.168  12.333  0.1564  0.4991  0.2609
  854MPD2    H312600   4.462   3.950  12.397  0.7106  0.2879  0.8186
  854MPD2     N12601   0.107   4.126  12.601 -0.0584  0.6785  0.2108
  854MPD2    H512602   0.155   4.036  12.601  1.0685  1.2779  0.2495
  854MPD2    N112603   4.514   4.383  12.344 -0.5597 -0.1762  0.0909
  854MPD2    H712604   4.422   4.378  12.303 -0.4424 -0.7510 -0.1097
  855MPD2     C12605   0.084   4.182  13.496  0.8903  0.3186  0.6195
  855MPD2    C112606   0.202   4.130  13.463  0.2202 -0.2848 -0.0976
  855MPD2    C212607   0.268   4.158  13.344 -0.3164  0.8214 -0.4219
  855MPD2    C312608   0.210   4.236  13.247 -0.3784 -0.3500  0.2338
  855MPD2    C412609   0.086   4.294  13.281  1.4139  0.2396  1.2214
  855MPD2    C512610   0.030   4.270  13.406 -0.2475 -0.4625 -0.5017
  855MPD2     H12611   0.364   4.109  13.332 -0.1903  0.4747  2.0208
  855MPD2    H112612   0.029   4.350  13.208 -0.2508 -1.5744  1.1169
  855MPD2    H212613   0.035   4.153  13.588 -3.4893  1.4932 -1.3547
  855MPD2    H312614   4.669   4.313  13.424  0.5381  1.0524  0.1537
  855MPD2     N12615   0.267   4.255  13.118 -0.2376 -0.3325 -0.4824
  855MPD2    H512616   0.206   4.294  13.048  1.5873 -0.7920 -2.3245
  855MPD2    N112617   0.266   4.053  13.566  0.1511 -0.0168 -0.4594
  855MPD2    H712618   0.203   4.017  13.637 -0.0325  1.2815  0.0379
  856MPD2     C12619   2.517   0.079  14.109 -0.4011 -0.3511 -1.4912
  856MPD2    C112620   2.494   0.217  14.087  0.4766  0.6744  0.2068
  856MPD2    C212621   2.373   0.269  14.047  0.3752 -0.2751  0.6087
  856MPD2    C312622   2.270   0.181  14.011 -0.0102 -0.1929 -0.0383
  856MPD2    C412623   2.276   0.051  14.057  0.9791  0.6936 -0.0184
  856MPD2    C512624   2.396   0.005  14.106 -0.1329 -0.4326 -0.1033
  856MPD2     H12625   2.368   0.377  14.033  0.4977 -0.3644 -0.1666
  856MPD2    H112626   2.195   4.717  14.049 -1.2172  2.9751  2.0791
  856MPD2    H212627   2.612   0.040  14.144 -1.5943 -1.6095  0.3112
  856MPD2    H312628   2.401   4.635  14.126 -0.7613 -0.0974  1.8668
  856MPD2     N12629   2.168   0.220  13.922  0.0249 -0.0311  0.1186
  856MPD2    H512630   2.095   0.153  13.899  1.3326 -1.1474 -0.7289
  856MPD2    N112631   2.596   0.315  14.109 -0.3260 -0.8268  0.8046
  856MPD2    H712632   2.565   0.412  14.105  1.6155 -0.2072  0.7800
  857MPD2     C12633   3.542   2.779  12.939 -0.0774 -0.4991  0.4421
  857MPD2    C112634   3.663   2.806  12.868 -0.7061 -0.5558  0.4872
  857MPD2    C212635   3.777   2.856  12.938 -0.0617  0.5999  0.2414
  857MPD2    C312636   3.778   2.877  13.077 -0.0681  0.0056  0.8453
  857MPD2    C412637   3.660   2.843  13.141 -0.1736 -0.5599 -0.6824
  857MPD2    C512638   3.551   2.791  13.079  0.5716  0.3923  0.4359
  857MPD2     H12639   3.868   2.888  12.888 -0.3383  3.2925  1.4094
  857MPD2    H112640   3.652   2.840  13.249  0.3153 -1.9768 -0.6869
  857MPD2    H212641   3.452   2.735  12.899 -0.1559  0.4233 -0.3883
  857MPD2    H312642   3.467   2.772  13.146 -0.2995  0.2146 -0.7045
  857MPD2     N12643   3.892   2.927  13.138 -0.5906  0.3945 -0.4736
  857MPD2    H512644   3.969   2.952  13.078 -0.2727 -2.7474 -1.4136
  857MPD2    N112645   3.663   2.794  12.724 -0.8015 -0.6922  0.0272
  857MPD2    H712646   3.571   2.776  12.686  0.2543  0.1204 -2.9390
  858MPD2     C12647   0.219   2.286  16.338 -0.4568  0.3499 -1.5426
  858MPD2    C112648   0.150   2.171  16.383 -0.3450  0.1009 -0.6356
  858MPD2    C212649   0.124   2.161  16.517  0.0800 -0.8721 -0.5661
  858MPD2    C312650   0.165   2.256  16.608  0.0834  0.8806  0.0654
  858MPD2    C412651   0.223   2.373  16.559  0.2185 -0.0282  0.4898
  858MPD2    C512652   0.249   2.383  16.429  0.3692 -0.1310 -1.0813
  858MPD2     H12653   0.103   2.062  16.556  1.9376 -1.5142 -1.1992
  858MPD2    H112654   0.261   2.451  16.624  0.0734 -0.0691  0.6242
  858MPD2    H212655   0.246   2.287  16.233  0.7571  0.5176 -1.2296
  858MPD2    H312656   0.315   2.465  16.404  0.7799 -0.4529 -1.0343
  858MPD2     N12657   0.163   2.237  16.748  0.7120  0.2263  0.5542
  858MPD2    H512658   0.204   2.302  16.814  2.0721 -0.0250 -0.0369
  858MPD2    N112659   0.107   2.081  16.282  0.0705 -0.1068  0.0855
  858MPD2    H712660   0.126   2.101  16.184  0.7628  2.9712  0.8661
  859MPD2     C12661   3.071   3.886  15.436  1.0813 -0.0386  0.6377
  859MPD2    C112662   3.157   3.934  15.538 -0.3369 -0.6125  1.0039
  859MPD2    C212663   3.211   3.844  15.636  0.3598 -0.1988 -0.4905
  859MPD2    C312664   3.191   3.704  15.619 -0.1251 -0.0696 -0.4234
  859MPD2    C412665   3.125   3.669  15.502 -0.2712 -0.0939 -0.4306
  859MPD2    C512666   3.070   3.751  15.409  0.4746 -0.9466  0.6677
  859MPD2     H12667   3.265   3.875  15.725 -1.1610  2.8261 -0.6352
  859MPD2    H112668   3.101   3.567  15.475  0.0515 -0.4701  0.7199
  859MPD2    H212669   3.020   3.948  15.363  1.6587  0.3084  0.5333
  859MPD2    H312670   3.019   3.713  15.321  1.5845  0.3101 -0.5039
  859MPD2     N12671   3.229   3.607  15.714  0.3419 -0.7634  0.4079
  859MPD2    H512672   3.232   3.511  15.681  1.7493 -1.9322  3.8799
  859MPD2    N112673   3.189   4.073  15.528  0.2459  0.0350 -0.5344
  859MPD2    H712674   3.146   4.132  15.458  0.8308  0.9803 -0.0845
  860MPD2     C12675   1.101   3.944  11.285  0.1437  0.9689 -0.0932
  860MPD2    C112676   1.135   3.921  11.419  0.4162  0.0477 -0.5598
  860MPD2    C212677   1.054   3.857  11.507  0.1819  0.3375  0.5775
  860MPD2    C312678   0.927   3.825  11.464  0.6994  0.0939 -0.6505
  860MPD2    C412679   0.883   3.854  11.335  0.3198  0.5024  0.1954
  860MPD2    C512680   0.978   3.901  11.248 -0.6296  0.2872 -1.1494
  860MPD2     H12681   1.087   3.842  11.609  1.2772 -0.6091  0.0840
  860MPD2    H112682   0.785   3.830  11.296 -1.0939  0.4564  3.7610
  860MPD2    H212683   1.162   3.996  11.212  0.7226 -0.9838 -0.9816
  860MPD2    H312684   0.963   3.919  11.142 -1.0446  1.6194 -0.8577
  860MPD2     N12685   0.830   3.785  11.556  0.1419  0.0245 -0.6910
  860MPD2    H512686   0.733   3.780  11.526 -0.5512  3.1562  1.0858
  860MPD2    N112687   1.258   3.961  11.472  0.6494  0.6243  0.2505
  860MPD2    H712688   1.282   3.956  11.570 -0.5711  1.8168  0.6080
  861MPD2     C12689   0.377   2.071  10.538  0.2411  0.1397  0.1029
  861MPD2    C112690   0.410   2.206  10.555  0.1662 -0.1906  0.2111
  861MPD2    C212691   0.391   2.297  10.455  0.1772  0.3324 -0.1405
  861MPD2    C312692   0.322   2.257  10.337  0.3961 -0.3336  0.3217
  861MPD2    C412693   0.284   2.121  10.321 -0.3190 -0.3920  0.2471
  861MPD2    C512694   0.325   2.028  10.413 -0.8019  0.0139  0.1631
  861MPD2     H12695   0.416   2.399  10.479  0.0305  0.4046 -0.2902
  861MPD2    H112696   0.245   2.079  10.229 -1.4186  0.5980  0.2617
  861MPD2    H212697   0.385   1.996  10.616  0.3465  1.0853  1.0097
  861MPD2    H312698   0.310   1.922  10.396 -0.3035  0.1193 -0.9192
  861MPD2     N12699   0.278   2.346  10.239  0.5577  0.6013 -0.2186
  861MPD2    H512700   0.221   2.308  10.164 -0.0945 -0.0425  0.6020
  861MPD2    N112701   0.459   2.254  10.680  0.1182 -0.4776  0.0658
  861MPD2    H712702   0.475   2.353  10.699  0.1339 -0.9864  2.7729
  862MPD2     C12703   4.719   2.386   9.565 -0.2250 -0.4257 -0.0297
  862MPD2    C112704   4.704   2.340   9.693  0.0315 -0.2604  0.2254
  862MPD2    C212705   4.620   2.228   9.711  0.4645  0.4017  0.0123
  862MPD2    C312706   4.543   2.163   9.608 -0.5501 -0.1395 -0.8472
  862MPD2    C412707   4.558   2.216   9.483  0.2525 -0.3880 -0.2663
  862MPD2    C512708   4.640   2.333   9.463 -0.2459  0.4682 -0.5417
  862MPD2     H12709   4.609   2.205   9.816  0.4719  2.7769  0.5413
  862MPD2    H112710   4.504   2.177   9.397 -1.6899 -1.7252  1.5315
  862MPD2    H212711   0.053   2.467   9.548 -2.8016  2.0114  0.8786
  862MPD2    H312712   4.658   2.371   9.363  0.5225 -0.0606 -0.6008
  862MPD2     N12713   4.459   2.052   9.631  0.2181 -0.0423  0.4124
  862MPD2    H512714   4.388   2.039   9.560 -1.5242 -1.7200  2.4660
  862MPD2    N112715   0.026   2.403   9.802  0.2171 -0.1653 -0.1788
  862MPD2    H712716   0.022   2.346   9.885 -1.2187 -0.1479 -0.2345
  863MPD2     C12717   3.238   0.377  16.843  0.1757  0.3167  0.2567
  863MPD2    C112718   3.234   0.517  16.864 -0.2549 -0.2295  0.6251
  863MPD2    C212719   3.342   0.581  16.923 -0.7434  0.6641  0.6904
  863MPD2    C312720   3.461   0.509  16.941  0.3306 -0.6609 -0.1491
  863MPD2    C412721   3.469   0.382  16.905  0.1384  0.7082 -0.2076
  863MPD2    C512722   3.355   0.308  16.865 -0.3409 -0.4954 -0.2933
  863MPD2     H12723   3.347   0.687  16.944  1.5991  0.6457  0.2133
  863MPD2    H112724   3.562   0.327  16.911  0.2912  0.5011 -4.2876
  863MPD2    H212725   3.153   0.325  16.800  0.3770 -0.7430  1.1521
  863MPD2    H312726   3.367   0.203  16.841  0.2167 -1.0980  2.5958
  863MPD2     N12727   3.569   0.562  17.013  0.1595 -0.0804 -0.4967
  863MPD2    H512728   3.652   0.506  17.030 -1.0482 -2.2587 -1.7604
  863MPD2    N112729   3.124   0.589  16.820  0.2690 -0.1271  1.0141
  863MPD2    H712730   3.056   0.533  16.770  1.2644 -2.2222  1.9750
  864MPD2     C12731   3.579   1.892  17.335 -0.0936  0.2638 -0.8208
  864MPD2    C112732   3.611   1.837  17.216 -0.3350 -0.0881 -0.1809
  864MPD2    C212733   3.648   1.908  17.105  0.2899 -0.4736 -0.4549
  864MPD2    C312734   3.649   2.046  17.117  0.1000  0.3070  0.3417
  864MPD2    C412735   3.625   2.104  17.242  0.8184  0.0241  0.1651
  864MPD2    C512736   3.592   2.026  17.353  0.1019  0.7915  0.1386
  864MPD2     H12737   3.663   1.859  17.010  1.1898  0.0515 -0.5787
  864MPD2    H112738   3.628   2.211  17.261  0.3154 -0.1124  1.0190
  864MPD2    H212739   3.531   1.827  17.407  0.4393  1.7032  0.8405
  864MPD2    H312740   3.574   2.067  17.452  1.0037  0.8762  0.2639
  864MPD2     N12741   3.688   2.131  17.006  0.3799  1.1124  0.1954
  864MPD2    H512742   3.679   2.232  17.014  0.9326  1.1644  0.2152
  864MPD2    N112743   3.596   1.696  17.214  0.2989 -0.1043 -0.5404
  864MPD2    H712744   3.585   1.649  17.304  3.3146 -0.9649 -0.6386
  865MPD2     C12745   3.170   1.831  16.489  0.1497  0.1880  0.0504
  865MPD2    C112746   3.270   1.874  16.408  0.2774  0.3871 -0.5025
  865MPD2    C212747   3.343   1.990  16.441  0.2334  0.8621  0.1324
  865MPD2    C312748   3.317   2.059  16.561 -0.6634 -0.2106  0.5190
  865MPD2    C412749   3.224   2.008  16.642 -0.0907  0.0718 -0.3159
  865MPD2    C512750   3.147   1.901  16.605 -0.2213 -0.2073 -0.3757
  865MPD2     H12751   3.427   2.020  16.380 -0.5687  1.1105 -0.8577
  865MPD2    H112752   3.200   2.058  16.735  1.3826 -0.3780  0.3046
  865MPD2    H212753   3.114   1.739  16.475  0.4069  0.4062 -2.4753
  865MPD2    H312754   3.069   1.862  16.671 -1.1431  1.1390 -0.6769
  865MPD2     N12755   3.389   2.165  16.612 -0.0673  0.5724  0.2634
  865MPD2    H512756   3.380   2.176  16.712  1.2211  2.3041  0.2056
  865MPD2    N112757   3.327   1.778  16.308 -0.6108 -0.0950 -0.1046
  865MPD2    H712758   3.280   1.688  16.309  2.3949 -1.6869 -1.5299
  866MPD2     C12759   0.964   2.854  10.651  0.9238  0.1387  0.0742
  866MPD2    C112760   0.908   2.762  10.735 -0.4613  0.2573 -0.6756
  866MPD2    C212761   0.773   2.729  10.730 -0.4579  0.1238  0.1640
  866MPD2    C312762   0.687   2.807  10.653  0.1430 -0.0349  0.0718
  866MPD2    C412763   0.745   2.911  10.582 -0.5352 -0.0437  0.0942
  866MPD2    C512764   0.882   2.929  10.581  0.2797 -0.2097  0.3800
  866MPD2     H12765   0.734   2.650  10.793  0.3215  0.0894  0.6102
  866MPD2    H112766   0.680   2.977  10.527 -2.4873 -0.0150  2.4069
  866MPD2    H212767   1.069   2.879  10.664  1.0136  0.5413 -1.3508
  866MPD2    H312768   0.936   2.992  10.511  0.5388 -1.9670 -1.0043
  866MPD2     N12769   0.551   2.780  10.630  0.1863  0.2068 -0.1669
  866MPD2    H512770   0.498   2.856  10.589 -1.5399 -0.6585  0.4335
  866MPD2    N112771   1.006   2.684  10.804  0.3979 -0.3107  0.0073
  866MPD2    H712772   1.101   2.705  10.773  1.9451 -2.8635  3.0862
  867MPD2     C12773   2.498   1.721  16.575 -0.0172 -0.1140 -0.2747
  867MPD2    C112774   2.584   1.759  16.677 -0.0788  0.8304 -0.6761
  867MPD2    C212775   2.568   1.885  16.737  0.3502 -0.4567  0.0554
  867MPD2    C312776   2.476   1.971  16.690 -0.8258  0.3640 -0.4842
  867MPD2    C412777   2.389   1.937  16.590  0.4092  0.0649  1.0175
  867MPD2    C512778   2.399   1.806  16.542  0.1432  0.3259  0.0021
  867MPD2     H12779   2.625   1.903  16.827  0.6176 -0.1871 -0.1698
  867MPD2    H112780   2.314   2.000  16.542 -0.9051 -1.6023  0.8619
  867MPD2    H212781   2.519   1.627  16.526  2.2976  1.0390 -1.4704
  867MPD2    H312782   2.343   1.789  16.451  3.0640 -2.6404 -1.2578
  867MPD2     N12783   2.474   2.100  16.747 -0.3755  1.0449 -0.2696
  867MPD2    H512784   2.428   2.177  16.700 -0.1023 -0.0523 -2.3529
  867MPD2    N112785   2.692   1.669  16.711 -0.2160 -0.2409 -0.0808
  867MPD2    H712786   2.682   1.583  16.658 -1.7208  0.0457 -0.2874
  868MPD2     C12787   4.271   0.702  12.775 -0.9534 -0.4251  0.1445
  868MPD2    C112788   4.338   0.663  12.889 -0.3219  0.6414  0.5618
  868MPD2    C212789   4.310   0.714  13.017  0.4981  0.1183  0.0831
  868MPD2    C312790   4.200   0.799  13.030  0.3052 -0.0738  0.2159
  868MPD2    C412791   4.125   0.833  12.915 -0.4086  0.4129  0.3416
  868MPD2    C512792   4.166   0.791  12.795  0.2993 -0.0951 -0.1596
  868MPD2     H12793   4.363   0.686  13.108  2.1753  0.9502 -0.6371
  868MPD2    H112794   4.048   0.909  12.907  2.0621  2.6555 -2.3241
  868MPD2    H212795   4.301   0.686  12.672 -2.6617 -2.3479 -0.0544
  868MPD2    H312796   4.128   0.830  12.701 -1.6677 -0.3584  0.5329
  868MPD2     N12797   4.175   0.860  13.161 -0.2054  0.6337 -0.1581
  868MPD2    H512798   4.256   0.851  13.221 -0.2342 -2.6060 -0.6195
  868MPD2    N112799   4.442   0.573  12.864  0.4520 -0.2324 -0.3784
  868MPD2    H712800   4.459   0.543  12.768  0.0206  0.4825 -0.6847
  869MPD2     C12801   0.732   3.953   0.910 -0.0417 -0.1502 -0.1225
  869MPD2    C112802   0.768   3.984   0.775  0.5554  0.3086  0.0139
  869MPD2    C212803   0.878   4.067   0.756  0.8515  0.3615  0.1264
  869MPD2    C312804   0.945   4.111   0.867 -0.0963  0.1681 -0.2083
  869MPD2    C412805   0.915   4.066   0.991  0.3655 -0.5258  0.9382
  869MPD2    C512806   0.810   3.982   1.018 -0.1004  0.3070  0.1559
  869MPD2     H12807   0.895   4.125   0.666 -0.0053 -1.6824 -1.3393
  869MPD2    H112808   0.974   4.080   1.081 -0.2646 -0.5800  1.3598
  869MPD2    H212809   0.647   3.890   0.934  0.0214 -0.5989 -1.0598
  869MPD2    H312810   0.784   3.939   1.114 -0.1197  0.0724  0.0467
  869MPD2     N12811   1.053   4.205   0.858 -0.2704 -0.0574  0.3458
  869MPD2    H512812   1.088   4.228   0.950  0.0360 -0.7468  0.4027
  869MPD2    N112813   0.682   3.952   0.670  0.3492  0.7851  0.7950
  869MPD2    H712814   0.598   3.904   0.700 -0.2713  1.9850  0.9445
  870MPD2     C12815   0.686   2.875   1.843  1.1700  0.4414 -1.0827
  870MPD2    C112816   0.693   2.802   1.723 -0.7131 -0.0045 -0.2643
  870MPD2    C212817   0.593   2.832   1.633 -0.0087 -0.1885  0.0308
  870MPD2    C312818   0.478   2.903   1.662 -0.0200  0.5840 -0.1035
  870MPD2    C412819   0.463   2.956   1.789 -0.2615  0.1491  0.1560
  870MPD2    C512820   0.572   2.945   1.868 -0.1850  0.2520  0.4761
  870MPD2     H12821   0.575   2.768   1.547  0.5034 -1.4195  0.8468
  870MPD2    H112822   0.378   3.011   1.826 -1.1118 -0.4245 -0.9675
  870MPD2    H212823   0.760   2.863   1.921  0.1379 -2.6971 -0.6129
  870MPD2    H312824   0.552   2.996   1.961  1.4042  0.0846  0.9087
  870MPD2     N12825   0.394   2.938   1.547  0.5249 -0.1072 -0.5070
  870MPD2    H512826   0.425   2.898   1.459  2.4627  2.0212 -0.7755
  870MPD2    N112827   0.792   2.701   1.705  0.0610 -1.2281 -0.6179
  870MPD2    H712828   0.866   2.693   1.774 -0.6094 -0.1963  0.2263
  871MPD2     C12829   0.868   2.240  16.763  0.2010  0.0979  0.4804
  871MPD2    C112830   0.977   2.221  16.845 -0.1470 -0.0345 -0.2177
  871MPD2    C212831   1.069   2.119  16.810  0.2252  0.1519 -0.1333
  871MPD2    C312832   1.049   2.040  16.697 -0.4971 -0.4345  0.2187
  871MPD2    C412833   0.947   2.066  16.613 -0.1204  0.0436 -0.6653
  871MPD2    C512834   0.853   2.165  16.649 -0.4325  0.6503  0.8755
  871MPD2     H12835   1.159   2.106  16.868 -0.6696 -0.6202  1.0887
  871MPD2    H112836   0.926   2.010  16.523  0.9790  0.6954 -1.3273
  871MPD2    H212837   0.790   2.310  16.789  0.6241  0.8718 -0.3499
  871MPD2    H312838   0.763   2.166  16.588 -0.0340 -0.5587  0.2675
  871MPD2     N12839   1.148   1.941  16.680 -0.0695  0.0266  0.7091
  871MPD2    H512840   1.220   1.929  16.749  0.6733  0.2633 -0.0228
  871MPD2    N112841   1.011   2.325  16.935 -0.1437  0.5515  0.0598
  871MPD2    H712842   0.958   2.411  16.925  0.9358  1.1481 -0.4847
  872MPD2     C12843   2.018   4.193  13.761 -0.2936  0.3897 -0.4217
  872MPD2    C112844   2.008   4.330  13.732 -0.1125  0.0811 -0.1841
  872MPD2    C212845   1.886   4.397  13.747  0.0100 -0.1631 -0.0585
  872MPD2    C312846   1.769   4.326  13.780  0.9404 -0.5534  0.1226
  872MPD2    C412847   1.786   4.189  13.802  0.4938  0.3659 -0.0031
  872MPD2    C512848   1.907   4.127  13.794  0.6037 -0.4272  0.0657
  872MPD2     H12849   1.893   4.505  13.745  0.2101 -0.1939 -0.9858
  872MPD2    H112850   1.706   4.125  13.838  0.4115 -0.3665 -1.4796
  872MPD2    H212851   2.113   4.142  13.763 -0.6196 -0.2037 -0.1301
  872MPD2    H312852   1.912   4.022  13.822 -0.5308 -0.4541  0.1605
  872MPD2     N12853   1.643   4.389  13.811 -0.1384  0.5330 -0.3401
  872MPD2    H512854   1.568   4.327  13.840  1.3329 -0.9366  0.3546
  872MPD2    N112855   2.122   4.411  13.715  0.3841  0.0998  0.2492
  872MPD2    H712856   2.107   4.510  13.732  2.3505  0.3966  0.2423
  873MPD2     C12857   4.274   0.226   0.602 -0.6042 -0.3201  0.0934
  873MPD2    C112858   4.151   0.191   0.644  0.6436  0.6330  0.0965
  873MPD2    C212859   4.118   0.056   0.661  0.1320  0.0730 -0.2299
  873MPD2    C312860   4.217   4.703   0.643 -0.4455  0.1821 -0.7632
  873MPD2    C412861   4.341   4.735   0.592 -0.4260 -0.6606  0.0578
  873MPD2    C512862   4.371   0.130   0.569 -0.0606 -0.2152  0.2323
  873MPD2     H12863   4.031   0.012   0.708 -0.1931 -1.4461 -2.2256
  873MPD2    H112864   4.413   4.656   0.574 -0.4324 -0.3557 -1.3026
  873MPD2    H212865   4.297   0.332   0.595  3.2091 -1.0631  1.5244
  873MPD2    H312866   4.456   0.165   0.513  0.8556 -0.8848  1.2062
  873MPD2     N12867   4.202   4.561   0.661 -0.4167  0.3574 -0.2358
  873MPD2    H512868   4.278   4.496   0.677  0.4118  1.0484 -1.3042
  873MPD2    N112869   4.069   0.291   0.699 -0.3982 -0.2331 -0.4783
  873MPD2    H712870   4.109   0.383   0.711  0.3135 -1.0238  3.2957
  874MPD2     C12871   3.665   4.696  16.042 -0.8039  0.7810 -0.4620
  874MPD2    C112872   3.759   4.648  16.132 -0.3402  0.0539 -0.6071
  874MPD2    C212873   3.872   4.722  16.136 -0.7064 -0.4750  0.5354
  874MPD2    C312874   3.904   0.085  16.043  0.1922 -0.4170 -0.1069
  874MPD2    C412875   3.813   0.121  15.949 -0.0507  0.4496  0.6699
  874MPD2    C512876   3.689   0.061  15.954 -0.0287  0.0016  0.7211
  874MPD2     H12877   3.951   4.700  16.207 -0.0338  0.5690  0.1036
  874MPD2    H112878   3.827   0.202  15.878  0.5184  1.1971  1.6325
  874MPD2    H212879   3.574   4.637  16.034 -0.9825  0.4337  3.8332
  874MPD2    H312880   3.602   0.085  15.893  1.8344  2.5649 -0.9167
  874MPD2     N12881   4.034   0.141  16.047 -0.0782  0.1636 -0.2652
  874MPD2    H512882   4.098   0.097  16.113 -0.1004  0.1869 -0.2284
  874MPD2    N112883   3.728   4.543  16.219  0.4265  0.3458 -0.2104
  874MPD2    H712884   3.632   4.512  16.221  0.8439 -0.9240 -0.1391
  875MPD2     C12885   0.160   2.825  14.585 -0.1270 -0.6509 -0.3481
  875MPD2    C112886   0.024   2.843  14.621  0.2724 -0.2817 -0.3482
  875MPD2    C212887   4.734   2.892  14.745 -0.5487 -0.2541  0.0605
  875MPD2    C312888   0.098   2.937  14.828  0.4534 -0.1272  0.5504
  875MPD2    C412889   0.226   2.928  14.790  0.1300  0.7070 -0.2829
  875MPD2    C512890   0.259   2.856  14.676  0.1908  0.7201  0.5609
  875MPD2     H12891   4.631   2.917  14.767 -0.1652  0.3278  1.1863
  875MPD2    H112892   0.311   2.946  14.855 -0.8344  1.5207  0.7795
  875MPD2    H212893   0.198   2.782  14.493  1.7904  1.5222 -0.5763
  875MPD2    H312894   0.360   2.832  14.648 -0.2917 -1.3826  0.5732
  875MPD2     N12895   0.062   2.998  14.954 -0.0619 -0.5240 -0.0929
  875MPD2    H512896   0.138   3.044  15.004 -0.7502 -0.8793  1.2842
  875MPD2    N112897   4.650   2.816  14.529 -0.3201  0.0320  0.1175
  875MPD2    H712898   4.556   2.830  14.563  0.9610  3.0015  2.5272
  876MPD2     C12899   3.569   4.424  15.863 -0.3664  0.3811 -0.1374
  876MPD2    C112900   3.708   4.419  15.885  0.1181  0.2289 -0.2073
  876MPD2    C212901   3.752   4.335  15.988  0.0710  0.2924 -0.1370
  876MPD2    C312902   3.664   4.251  16.057 -0.8454  0.3748 -0.2960
  876MPD2    C412903   3.528   4.255  16.039  0.1327 -0.1830  0.1935
  876MPD2    C512904   3.486   4.357  15.947  0.2502 -0.7000 -0.4566
  876MPD2     H12905   3.855   4.332  16.024  0.0165 -2.1280 -0.2211
  876MPD2    H112906   3.454   4.190  16.085  1.5267 -1.6554  0.3648
  876MPD2    H212907   3.521   4.489  15.791 -2.4118 -1.1605 -0.1685
  876MPD2    H312908   3.385   4.330  15.919  0.6244 -0.7195 -1.7743
  876MPD2     N12909   3.727   4.152  16.138 -0.1052  0.2094  0.3322
  876MPD2    H512910   3.826   4.136  16.122 -0.3197 -0.3844 -0.4254
  876MPD2    N112911   3.782   4.510  15.820  0.2469  0.0107  0.2353
  876MPD2    H712912   3.731   4.571  15.758  0.4932 -1.1077 -1.0691
  877MPD2     C12913   3.565   0.025  15.223 -0.0389  0.2153  0.2652
  877MPD2    C112914   3.690   4.721  15.197 -1.2784  1.1581 -0.4371
  877MPD2    C212915   3.721   4.675  15.072 -0.0033 -0.4012  0.1613
  877MPD2    C312916   3.625   4.661  14.968 -0.4467 -0.5407  0.1849
  877MPD2    C412917   3.496   4.696  14.993 -0.1223  0.1612 -0.4817
  877MPD2    C512918   3.471   0.005  15.120  0.5585  0.3598  0.7478
  877MPD2     H12919   3.818   4.632  15.046  0.8850  0.7779  1.5479
  877MPD2    H112920   3.414   4.679  14.925  0.8873  1.4377 -2.0165
  877MPD2    H212921   3.529   0.062  15.319 -1.1489  2.5750 -1.0620
  877MPD2    H312922   3.366   0.020  15.144  0.1070  1.7631 -2.0847
  877MPD2     N12923   3.651   4.597  14.841 -0.3890 -0.2114 -0.0971
  877MPD2    H512924   3.565   4.568  14.795 -0.2949  0.8860 -0.9891
  877MPD2    N112925   3.793   4.713  15.293  0.2318 -0.7735 -0.1677
  877MPD2    H712926   3.887   4.695  15.258  0.9161  1.5343  0.5130
  878MPD2     C12927   3.512   3.257  12.802  0.4335 -0.3199 -1.0030
  878MPD2    C112928   3.529   3.397  12.787 -0.6789  0.8831 -0.5192
  878MPD2    C212929   3.594   3.473  12.882  0.0863 -0.4032 -0.6354
  878MPD2    C312930   3.649   3.406  12.997 -0.6220 -0.0284  0.6160
  878MPD2    C412931   3.656   3.267  12.989 -0.0502 -0.2712 -1.1729
  878MPD2    C512932   3.588   3.195  12.897 -0.2774  0.0466  0.0147
  878MPD2     H12933   3.604   3.581  12.872  0.0349 -0.1786  1.7556
  878MPD2    H112934   3.689   3.206  13.073 -1.0496  0.5751 -0.1735
  878MPD2    H212935   3.452   3.197  12.734  0.3173 -2.4652  1.0195
  878MPD2    H312936   3.585   3.087  12.888 -2.5941  0.3135 -2.5298
  878MPD2     N12937   3.693   3.485  13.107 -0.5958 -0.0667 -0.5073
  878MPD2    H512938   3.668   3.584  13.107 -3.1481 -0.7156 -1.9642
  878MPD2    N112939   3.445   3.450  12.690  0.0288  0.0000 -0.4416
  878MPD2    H712940   3.391   3.384  12.635 -0.6860 -0.0661  0.3333
  879MPD2     C12941   4.440   0.281  16.864 -0.2213 -0.1563  0.1402
  879MPD2    C112942   4.325   0.335  16.904 -0.3885  0.0652 -0.2283
  879MPD2    C212943   4.206   0.270  16.867  0.0888  0.4549  0.1126
  879MPD2    C312944   4.201   0.165  16.776  0.0866 -0.3284  0.4982
  879MPD2    C412945   4.321   0.111  16.736  0.0801 -0.4568  0.1445
  879MPD2    C512946   4.439   0.166  16.793 -0.0629 -0.0709 -0.3787
  879MPD2     H12947   4.109   0.308  16.897 -0.0784 -0.6982  1.0311
  879MPD2    H112948   4.319   0.024  16.671  1.8549  0.3748 -1.0234
  879MPD2    H212949   4.533   0.335  16.880 -0.9293  1.0035  0.2579
  879MPD2    H312950   4.530   0.124  16.754 -0.2222 -0.8010  0.0492
  879MPD2     N12951   4.083   0.112  16.726  0.4223  0.3109  0.0668
  879MPD2    H512952   4.092   0.040  16.655  1.8333  0.1664  0.3963
  879MPD2    N112953   4.330   0.454  16.974 -0.1087 -0.2258  0.7344
  879MPD2    H712954   4.419   0.496  16.997  0.3200  0.0965 -1.4763
  880MPD2     C12955   0.403   2.086   0.044  0.1902 -0.1504  0.1912
  880MPD2    C112956   0.462   2.138   0.157  0.6194 -0.2224 -0.4492
  880MPD2    C212957   0.545   2.047   0.224  0.0397 -0.4816  0.1471
  880MPD2    C312958   0.573   1.920   0.177 -0.8187  0.5827  0.6670
  880MPD2    C412959   0.500   1.874   0.068  0.8289  0.1349 -0.2610
  880MPD2    C512960   0.418   1.956   0.003  0.6933  0.4126 -0.8813
  880MPD2     H12961   0.607   2.083   0.305  1.0895 -2.1740  0.1034
  880MPD2    H112962   0.491   1.771   0.035  2.5855 -0.0511 -0.1665
  880MPD2    H212963   0.325   2.146  17.743  1.5277  0.1944 -1.6360
  880MPD2    H312964   0.349   1.914  17.675  1.0282 -1.2812 -0.2190
  880MPD2     N12965   0.659   1.840   0.252 -0.2156  0.6504 -0.3053
  880MPD2    H512966   0.706   1.881   0.332 -1.0746 -0.0587  0.5562
  880MPD2    N112967   0.442   2.273   0.201  0.1447 -0.4950 -0.1984
  880MPD2    H712968   0.427   2.350   0.137  1.0898 -0.1944 -0.0454
  881MPD2     C12969   0.840   3.209   0.182 -0.3013  0.1001  0.0163
  881MPD2    C112970   0.833   3.094   0.103  0.1341  0.3835  0.4342
  881MPD2    C212971   0.766   2.986   0.146  0.2977  0.0038  0.3500
  881MPD2    C312972   0.722   2.980   0.271  0.1379 -0.1945 -0.0609
  881MPD2    C412973   0.735   3.083   0.354  0.5146  0.0433 -0.2099
  881MPD2    C512974   0.792   3.198   0.310  0.5641  0.1688 -0.6579
  881MPD2     H12975   0.747   2.912   0.070  1.4102  0.6755 -0.5900
  881MPD2    H112976   0.707   3.078   0.459 -0.8228 -0.4105 -0.5932
  881MPD2    H212977   0.887   3.303   0.154  0.4061 -0.7786 -1.7447
  881MPD2    H312978   0.810   3.283   0.376 -0.9255  0.4945 -0.6856
  881MPD2     N12979   0.653   2.866   0.310  0.3980 -0.0007 -0.3903
  881MPD2    H512980   0.629   2.861   0.409 -2.6607  2.0798 -1.0563
  881MPD2    N112981   0.860   3.119  17.706 -0.4105 -0.0727 -0.1167
  881MPD2    H712982   0.897   3.213  17.695 -0.4663 -0.0498 -0.1117
  882MPD2     C12983   3.570   4.427  14.061  0.2987 -0.0237  0.0603
  882MPD2    C112984   3.489   4.433  14.170  0.0605  0.2978 -1.0459
  882MPD2    C212985   3.355   4.404  14.158 -0.0945  0.4025  0.1231
  882MPD2    C312986   3.297   4.365  14.039 -0.4294  0.1180  0.7130
  882MPD2    C412987   3.382   4.350  13.928  0.9505  0.7320  0.0516
  882MPD2    C512988   3.514   4.387  13.939  0.6633 -0.4080  0.2888
  882MPD2     H12989   3.298   4.416  14.249 -0.8006 -1.0467 -0.1285
  882MPD2    H112990   3.341   4.345  13.828  1.9990 -1.9576 -0.2232
  882MPD2    H212991   3.676   4.447  14.062  0.2473  0.2363  0.2220
  882MPD2    H312992   3.569   4.401  13.846 -0.4756  1.2387 -0.1479
  882MPD2     N12993   3.162   4.338  14.033  0.5858 -0.7087 -0.1654
  882MPD2    H512994   3.135   4.287  13.950  2.2078 -0.1852 -1.0167
  882MPD2    N112995   3.560   4.466  14.288 -0.7168  0.2954 -0.1804
  882MPD2    H712996   3.658   4.491  14.295 -1.2194  3.1050 -3.0882
  883MPD2     C12997   1.083   4.505  16.368 -0.6997 -0.3622  0.0049
  883MPD2    C112998   1.165   4.566  16.278 -0.0340 -0.3063 -0.3462
  883MPD2    C212999   1.302   4.556  16.294 -0.5549 -0.5047  0.0025
  883MPD2    C313000   1.356   4.483  16.399  0.5845 -0.1047 -0.2006
  883MPD2    C413001   1.275   4.443  16.499  0.3109 -0.2480  0.2861
  883MPD2    C513002   1.141   4.444  16.480 -0.0571  0.7246 -0.2634
  883MPD2     H13003   1.364   4.607  16.221 -0.5161  0.7331  0.8869
  883MPD2    H113004   1.311   4.392  16.588  0.9775 -0.3316 -0.0332
  883MPD2    H213005   0.975   4.507  16.365 -0.6950 -1.4654 -0.8033
  883MPD2    H313006   1.078   4.392  16.552  0.4006 -0.7856 -0.9492
  883MPD2     N13007   1.497   4.484  16.414 -0.2207 -0.3875 -0.3601
  883MPD2    H513008   1.551   4.528  16.340  0.3757  0.0007  0.3143
  883MPD2    N113009   1.110   4.640  16.173 -0.2145  0.4465  0.0060
  883MPD2    H713010   1.155   4.731  16.159 -0.4202  0.7949  1.5360
  884MPD2     C13011   2.543   0.857  15.678 -0.5379 -0.5509 -0.2520
  884MPD2    C113012   2.545   0.950  15.572  0.7157 -0.0033  0.2742
  884MPD2    C213013   2.440   0.945  15.482  0.7231 -0.3626  0.2684
  884MPD2    C313014   2.349   0.835  15.489 -0.1680  0.0773  0.1629
  884MPD2    C413015   2.355   0.741  15.586  0.3085  0.4720  0.3999
  884MPD2    C513016   2.451   0.755  15.681  1.3268 -0.4248 -0.5702
  884MPD2     H13017   2.424   1.024  15.409 -2.4705 -0.5846  0.7546
  884MPD2    H113018   2.293   0.652  15.583  0.7809  0.1296  0.6771
  884MPD2    H213019   2.613   0.857  15.760 -0.0123 -0.9293 -0.6965
  884MPD2    H313020   2.454   0.670  15.748  0.1632  0.4540  0.6121
  884MPD2     N13021   2.249   0.840  15.385  0.0035  0.2167  1.1070
  884MPD2    H513022   2.251   0.918  15.321  1.3543 -0.9172 -0.2546
  884MPD2    N113023   2.642   1.052  15.558  0.1841 -0.0702 -0.6402
  884MPD2    H713024   2.638   1.095  15.466  0.2186 -0.8445 -0.9974
  885MPD2     C13025   0.921   1.275   0.016  0.5154 -0.4459  0.2184
  885MPD2    C113026   1.018   1.189  17.714  0.1056  0.0112 -0.3882
  885MPD2    C213027   1.021   1.155  17.580  0.4766  0.1793  0.4610
  885MPD2    C313028   0.928   1.199  17.495  0.2530 -1.1399  0.3421
  885MPD2    C413029   0.831   1.291  17.543 -0.4961  0.2617 -0.2163
  885MPD2    C513030   0.828   1.328  17.674  0.7479 -0.6731 -0.0180
  885MPD2     H13031   1.090   1.084  17.537 -1.0917 -2.1499  1.7670
  885MPD2    H113032   0.746   1.326  17.485 -1.7976 -1.9422  0.3452
  885MPD2    H213033   0.924   1.310   0.119  0.3433  0.0647  0.0506
  885MPD2    H313034   0.746   1.383  17.719  0.9479 -1.0326  0.7949
  885MPD2     N13035   0.937   1.165  17.357 -0.2252 -0.4410  0.2648
  885MPD2    H513036   1.012   1.103  17.328  0.3326  0.7796 -0.9189
  885MPD2    N113037   1.116   1.153   0.064 -0.3376 -0.3511  0.5573
  885MPD2    H713038   1.099   1.179   0.161  0.5488  0.2409  0.5502
  886MPD2     C13039   2.345   3.756  15.293  0.6893  0.3664 -0.7775
  886MPD2    C113040   2.421   3.848  15.353  0.1375 -0.9151 -0.0547
  886MPD2    C213041   2.383   3.979  15.349  0.4340  0.0852 -0.3612
  886MPD2    C313042   2.277   4.022  15.265 -0.3550 -0.3135  0.2039
  886MPD2    C413043   2.219   3.924  15.181  0.5462 -0.5251 -0.4166
  886MPD2    C513044   2.253   3.796  15.202 -0.0528 -0.3572 -0.3696
  886MPD2     H13045   2.430   4.053  15.414 -0.5100  1.0319 -0.7576
  886MPD2    H113046   2.146   3.952  15.107 -2.0681 -1.3607  1.8332
  886MPD2    H213047   2.389   3.657  15.287  2.0946  1.0753 -2.2672
  886MPD2    H313048   2.203   3.724  15.139 -2.4624 -0.7206  1.9592
  886MPD2     N13049   2.242   4.156  15.246 -0.2519 -0.5438  0.0930
  886MPD2    H513050   2.215   4.188  15.153  0.7981 -0.4477 -0.1834
  886MPD2    N113051   2.538   3.821  15.431 -0.7500 -0.5336 -0.5570
  886MPD2    H713052   2.590   3.902  15.462 -1.9361  0.4896 -1.2782
  887MPD2     C13053   3.039   4.111  15.894 -0.1746 -0.7066  0.1058
  887MPD2    C113054   2.939   4.114  15.799 -0.5086 -0.0355  0.7653
  887MPD2    C213055   2.925   4.232  15.722 -0.5710 -1.1423 -0.6144
  887MPD2    C313056   3.002   4.341  15.741 -0.3035  0.5663  1.0915
  887MPD2    C413057   3.103   4.332  15.832  0.6402  0.6149  0.5479
  887MPD2    C513058   3.125   4.216  15.900 -0.3535  0.9288  0.2440
  887MPD2     H13059   2.852   4.227  15.642 -1.7380 -1.2224  0.4631
  887MPD2    H113060   3.176   4.410  15.848  0.5321  0.8345 -0.0295
  887MPD2    H213061   3.052   4.025  15.958 -0.3276 -0.7194  0.1193
  887MPD2    H313062   3.209   4.206  15.968 -0.9975 -2.0566  0.6193
  887MPD2     N13063   2.975   4.457  15.664  0.0254 -0.3801  0.1775
  887MPD2    H513064   2.889   4.463  15.612  0.9956 -0.5814 -1.4451
  887MPD2    N113065   2.861   4.008  15.758 -0.1541  0.0493 -0.0124
  887MPD2    H713066   2.808   4.017  15.672  1.1754 -2.2660 -1.0765
  888MPD2     C13067   4.537   3.906  15.431 -0.2895  0.8876  0.2567
  888MPD2    C113068   4.623   3.968  15.519  0.8468 -0.3901  0.3073
  888MPD2    C213069   4.698   4.079  15.476  0.1490 -0.1805 -0.1769
  888MPD2    C313070   4.685   4.131  15.348  0.4406  0.1911  0.3729
  888MPD2    C413071   4.612   4.058  15.256  0.6057  0.0947  0.1430
  888MPD2    C513072   4.541   3.942  15.305  0.0840  0.4833  0.6739
  888MPD2     H13073   0.028   4.130  15.544 -3.0458 -1.3397  3.8300
  888MPD2    H113074   4.620   4.072  15.149  1.6703 -1.2899  0.0485
  888MPD2    H213075   4.480   3.818  15.458  0.5910  0.2787  0.1357
  888MPD2    H313076   4.489   3.877  15.235 -1.0067  0.6404  1.3423
  888MPD2     N13077   0.012   4.259  15.323  0.6886  0.3487 -0.1939
  888MPD2    H513078   0.019   4.323  15.401 -0.8814 -0.0615  0.2969
  888MPD2    N113079   4.633   3.934  15.654 -0.4853 -0.4309  0.6004
  888MPD2    H713080   4.708   3.982  15.703 -0.1913 -1.7792  1.4704
  889MPD2     C13081   4.410   3.287  13.804 -0.4481 -0.4254  0.5175
  889MPD2    C113082   4.290   3.321  13.737  0.7127 -0.5508  0.1276
  889MPD2    C213083   4.228   3.437  13.778  0.3088 -0.4694  0.5449
  889MPD2    C313084   4.270   3.508  13.893 -0.4528  1.0063 -1.3113
  889MPD2    C413085   4.368   3.443  13.970  0.6472  0.2917 -0.4519
  889MPD2    C513086   4.433   3.329  13.923  0.7281  0.3064 -0.6075
  889MPD2     H13087   4.160   3.490  13.712 -0.5562  0.4072  2.1512
  889MPD2    H113088   4.403   3.474  14.068 -0.3689  0.4077 -0.1239
  889MPD2    H213089   4.469   3.199  13.780  2.1788  1.2644  0.7950
  889MPD2    H313090   4.504   3.274  13.982  0.0546 -1.3663 -1.3589
  889MPD2     N13091   4.214   3.635  13.941  0.6231 -0.3851  0.1144
  889MPD2    H513092   4.163   3.693  13.876  1.4591 -0.9640 -1.0769
  889MPD2    N113093   4.269   3.256  13.612  0.1126  0.0786 -0.4735
  889MPD2    H713094   4.335   3.182  13.593  2.0422  2.0275 -1.2707
  890MPD2     C13095   3.953   0.577  14.293  0.2910 -0.1873  0.8923
  890MPD2    C113096   3.901   0.662  14.385  0.0909 -0.0445  0.4567
  890MPD2    C213097   3.847   0.603  14.508 -0.8572 -0.0042 -0.5765
  890MPD2    C313098   3.856   0.470  14.527 -0.0640 -0.2719 -0.0534
  890MPD2    C413099   3.914   0.391  14.435  0.6799  0.4418  0.0037
  890MPD2    C513100   3.965   0.440  14.320  0.6060  0.0911  0.2739
  890MPD2     H13101   3.788   0.654  14.584 -0.9806 -0.9456 -0.0486
  890MPD2    H113102   3.938   0.285  14.446 -0.4807  0.1617 -0.1816
  890MPD2    H213103   4.001   0.601  14.199 -0.6871 -1.0426  0.1816
  890MPD2    H313104   4.010   0.374  14.245 -0.6230 -0.4751  0.0426
  890MPD2     N13105   3.809   0.425  14.649  0.6276  0.1492  0.5130
  890MPD2    H513106   3.742   0.482  14.700  2.7072  1.8117  1.3994
  890MPD2    N113107   3.894   0.799  14.351 -0.1495 -0.4265  0.7894
  890MPD2    H713108   3.943   0.838  14.271  2.0450 -2.2042  1.2459
  891MPD2     C13109   2.248   4.012  16.908  0.1225  0.1465 -0.1170
  891MPD2    C113110   2.143   3.933  16.945 -0.3140  0.3872 -0.5804
  891MPD2    C213111   2.161   3.823  17.021  0.2217 -0.0824 -0.1246
  891MPD2    C313112   2.287   3.795  17.070  0.1618 -0.1062 -0.9467
  891MPD2    C413113   2.391   3.877  17.044  0.6985 -0.3216 -0.9614
  891MPD2    C513114   2.373   3.979  16.957 -0.3891 -0.3924 -0.0902
  891MPD2     H13115   2.078   3.758  17.048  1.6563 -0.9166  2.2505
  891MPD2    H113116   2.491   3.873  17.086  0.5960  0.2592 -0.6651
  891MPD2    H213117   2.239   4.107  16.858 -0.0800  0.4308  0.4571
  891MPD2    H313118   2.452   4.048  16.930  1.3890 -2.6242 -0.5074
  891MPD2     N13119   2.297   3.677  17.146  0.2192 -0.1178 -0.3907
  891MPD2    H513120   2.213   3.637  17.187  0.7930  0.5113  1.4273
  891MPD2    N113121   2.016   3.973  16.900 -0.0512  0.1994 -0.0220
  891MPD2    H713122   2.000   4.053  16.839 -3.7069  0.3549  1.1269
  892MPD2     C13123   2.721   0.038  14.740 -0.1950 -0.7728  0.4967
  892MPD2    C113124   2.619   0.048  14.647 -0.1756  0.0012 -0.4664
  892MPD2    C213125   2.625   4.701  14.534 -0.3232  0.4402 -0.3556
  892MPD2    C313126   2.741   4.638  14.495 -0.0313  0.0092 -0.7163
  892MPD2    C413127   2.845   4.643  14.583 -0.0195  0.2866  0.3270
  892MPD2    C513128   2.836   4.714  14.703  0.3043  0.0979 -0.5227
  892MPD2     H13129   2.541   4.692  14.467 -2.1856  1.2674  1.8647
  892MPD2    H113130   2.930   4.577  14.572 -0.2699 -0.1411  0.9739
  892MPD2    H213131   2.711   0.089  14.835 -2.2539 -0.9613  0.3722
  892MPD2    H313132   2.914   4.707  14.778  0.0378 -0.5090 -0.2985
  892MPD2     N13133   2.762   4.562  14.377 -0.0622  0.3812 -0.2120
  892MPD2    H513134   2.854   4.525  14.356 -1.7187 -3.3364 -0.9788
  892MPD2    N113135   2.502   0.117  14.670  0.2187  0.2981  0.3019
  892MPD2    H713136   2.445   0.130  14.587 -1.4836 -1.8021  1.1592
  893MPD2     C13137   4.316   3.271   1.449  0.1529 -0.3577 -0.1084
  893MPD2    C113138   4.304   3.372   1.363 -0.2303  0.1403  0.5948
  893MPD2    C213139   4.181   3.399   1.318  0.6094 -0.4460 -0.3001
  893MPD2    C313140   4.070   3.330   1.348 -0.2545 -0.1899 -0.0953
  893MPD2    C413141   4.089   3.215   1.427 -0.4551  1.0357  0.1112
  893MPD2    C513142   4.209   3.193   1.476 -0.8334  0.2532  0.8318
  893MPD2     H13143   4.174   3.480   1.245  2.4322 -0.3299 -0.3549
  893MPD2    H113144   4.009   3.143   1.437  1.3660 -1.3715 -2.4302
  893MPD2    H213145   4.410   3.244   1.495 -0.2682 -1.1172  0.3018
  893MPD2    H313146   4.222   3.101   1.531 -0.4389 -0.3604 -0.2840
  893MPD2     N13147   3.940   3.364   1.303  0.2442 -0.2351  0.1261
  893MPD2    H513148   3.864   3.299   1.322 -0.6858  0.2174 -2.0978
  893MPD2    N113149   4.418   3.449   1.342 -0.7601 -0.4993  0.0430
  893MPD2    H713150   4.502   3.398   1.364 -0.9280  0.1183  2.1238
  894MPD2     C13151   2.705   0.755   0.947  0.0549 -0.1249  0.1347
  894MPD2    C113152   2.630   0.833   1.035 -0.0874 -1.0270 -0.1696
  894MPD2    C213153   2.637   0.972   1.030 -0.0928 -0.4371  0.1659
  894MPD2    C313154   2.704   1.034   0.926 -0.2002 -0.1243  0.1197
  894MPD2    C413155   2.786   0.953   0.848 -0.4964 -0.1468  0.1013
  894MPD2    C513156   2.787   0.817   0.857 -0.0533  0.4427  0.7279
  894MPD2     H13157   2.587   1.033   1.104 -0.8539 -1.4181  0.4603
  894MPD2    H113158   2.855   0.989   0.772  0.9793  1.4837  2.2247
  894MPD2    H213159   2.719   0.647   0.954 -1.4620 -0.3816 -0.8263
  894MPD2    H313160   2.858   0.767   0.792  2.9055  3.1253  1.9307
  894MPD2     N13161   2.726   1.175   0.924 -0.2548  0.0954 -0.2061
  894MPD2    H513162   2.688   1.231   1.000 -2.3360 -1.0461 -0.4153
  894MPD2    N113163   2.555   0.776   1.144 -0.1465 -0.3361 -0.1170
  894MPD2    H713164   2.498   0.840   1.197 -1.1346  0.5453 -2.2642
  895MPD2     C13165   2.096   3.782  13.619 -0.1214  0.0632  0.2756
  895MPD2    C113166   1.966   3.740  13.587 -0.6130  0.2585  0.7692
  895MPD2    C213167   1.942   3.603  13.597  0.5670 -0.1120 -0.2035
  895MPD2    C313168   2.037   3.508  13.639  1.0281  0.4411 -0.6030
  895MPD2    C413169   2.156   3.558  13.689  0.1955  0.2268 -0.0307
  895MPD2    C513170   2.180   3.689  13.673  0.2312  0.6330  0.3895
  895MPD2     H13171   1.840   3.571  13.582  0.7537 -1.1971  0.8329
  895MPD2    H113172   2.238   3.497  13.724 -0.5713 -0.6154  0.3143
  895MPD2    H213173   2.122   3.888  13.612  0.9280 -0.3196 -1.7511
  895MPD2    H313174   2.274   3.731  13.708 -0.5028  2.8594 -0.2928
  895MPD2     N13175   2.016   3.370  13.661  0.8385  0.2000 -0.5701
  895MPD2    H513176   2.081   3.314  13.715 -1.5802 -1.6019  0.4342
  895MPD2    N113177   1.862   3.828  13.539 -0.0238 -0.6034 -0.2459
  895MPD2    H713178   1.775   3.783  13.513 -0.5217  1.9009 -2.9594
  896MPD2     C13179   0.095   1.969   1.527  0.1374 -0.4633 -0.7162
  896MPD2    C113180   0.054   1.917   1.410 -0.8373  0.2323 -0.3677
  896MPD2    C213181   4.650   1.928   1.391  0.1560  0.3055 -0.1404
  896MPD2    C313182   4.560   1.995   1.481  0.0864  0.4343  0.1990
  896MPD2    C413183   4.618   2.041   1.598 -0.0157  0.1402 -0.2487
  896MPD2    C513184   0.014   2.026   1.619 -1.5813  0.5181  0.2999
  896MPD2     H13185   4.596   1.878   1.312  1.3479 -0.8883 -0.1958
  896MPD2    H113186   4.560   2.095   1.672  0.9108 -0.6807  1.0653
  896MPD2    H213187   0.195   1.947   1.562  0.5052  2.9445  0.3337
  896MPD2    H313188   0.062   2.056   1.712 -0.9085  0.6032 -0.0791
  896MPD2     N13189   4.420   1.992   1.455  0.0294  0.1691 -0.5610
  896MPD2    H513190   4.385   1.945   1.372 -0.6246  0.1600 -0.2755
  896MPD2    N113191   0.148   1.859   1.323  0.2368  0.5445 -0.3523
  896MPD2    H713192   0.240   1.875   1.363 -0.0793 -1.7962  1.2686
  897MPD2     C13193   0.659   3.876   9.984 -0.0578 -0.2209  0.4044
  897MPD2    C113194   0.728   3.910  10.100 -0.5071  0.2784 -0.4052
  897MPD2    C213195   0.679   3.849  10.218 -0.4505  0.4331 -0.2922
  897MPD2    C313196   0.562   3.771  10.221  0.0460  0.5575 -0.5339
  897MPD2    C413197   0.487   3.758  10.101  0.1577 -0.4595  0.3163
  897MPD2    C513198   0.543   3.809   9.987  1.1257  0.2835  0.6997
  897MPD2     H13199   0.737   3.844  10.310  1.3963  1.8850 -1.3745
  897MPD2    H113200   0.392   3.706  10.085  0.8740 -0.9405 -2.4099
  897MPD2    H213201   0.689   3.913   9.887 -0.0744 -1.7415 -0.1727
  897MPD2    H313202   0.485   3.812   9.896  0.2154 -0.0859  1.2723
  897MPD2     N13203   0.515   3.721  10.342  0.2793 -0.7934 -0.2956
  897MPD2    H513204   0.422   3.681  10.344  0.2708 -0.7756 -0.3684
  897MPD2    N113205   0.845   3.978  10.087  0.5300  0.1820  0.7162
  897MPD2    H713206   0.880   3.990   9.992 -0.6460 -2.0256 -0.0117
  898MPD2     C13207   1.973   4.556  17.551 -0.0116 -0.1563  0.8043
  898MPD2    C113208   2.099   4.517  17.605 -0.1330  0.1752 -0.2488
  898MPD2    C213209   2.202   4.606  17.591 -0.4014 -0.3322  0.0504
  898MPD2    C313210   2.189   4.728  17.528 -0.1664  0.1709  0.1779
  898MPD2    C413211   2.067   0.033  17.478  0.0260 -0.2441 -0.6228
  898MPD2    C513212   1.962   4.678  17.488  0.4031 -0.4919 -0.5427
  898MPD2     H13213   2.302   4.576  17.620  0.1428  0.7564 -0.6878
  898MPD2    H113214   2.049   0.117  17.412 -1.3314 -0.6817 -0.8032
  898MPD2    H213215   1.882   4.498  17.558 -0.2284  0.0311 -0.3393
  898MPD2    H313216   1.863   4.702  17.450  0.3014  1.6210  1.0495
  898MPD2     N13217   2.312   0.074  17.514 -0.1008 -0.2343 -0.9944
  898MPD2    H513218   2.393   0.027  17.554 -1.3051 -1.0859  0.4541
  898MPD2    N113219   2.119   4.394  17.674 -0.3709 -0.5507 -0.6194
  898MPD2    H713220   2.198   4.378  17.737 -1.1726 -1.6169  0.0987
  899MPD2     C13221   3.961   0.186  17.278  0.4147  0.7642  0.1388
  899MPD2    C113222   3.947   0.303  17.348  0.6886  0.3654  0.2721
  899MPD2    C213223   3.939   0.301  17.486 -0.1870 -0.1190  0.0780
  899MPD2    C313224   3.920   0.183  17.561  0.0986 -0.2397  0.2736
  899MPD2    C413225   3.951   0.063  17.487 -0.9352  0.1322  0.2938
  899MPD2    C513226   3.958   0.066  17.350 -0.5883 -0.0221 -0.0803
  899MPD2     H13227   3.933   0.395  17.540  1.7381 -0.4981  0.9674
  899MPD2    H113228   3.942   4.708  17.544  0.3869 -0.6186 -0.6873
  899MPD2    H213229   3.990   0.190  17.173 -0.0317  1.7242  0.0518
  899MPD2    H313230   3.975   4.709  17.297 -0.4642 -0.4047  0.6255
  899MPD2     N13231   3.884   0.178  17.691 -0.3873 -0.4897  0.3441
  899MPD2    H513232   3.859   0.084  17.721  0.0156 -0.8009 -0.2970
  899MPD2    N113233   3.948   0.421  17.265  0.2524 -0.0835  0.6642
  899MPD2    H713234   3.953   0.415  17.164  0.9705  0.2262  0.6810
  900MPD2     C13235   2.564   1.585  12.272 -0.2033  0.3549  0.2291
  900MPD2    C113236   2.499   1.479  12.324 -0.3794  0.4158 -0.3133
  900MPD2    C213237   2.369   1.496  12.356 -0.2619 -0.0238  0.1557
  900MPD2    C313238   2.304   1.609  12.321  0.5560 -0.5884  0.0862
  900MPD2    C413239   2.370   1.716  12.259 -1.1810  0.2899 -0.0858
  900MPD2    C513240   2.500   1.699  12.228 -0.8907 -0.1638 -0.3469
  900MPD2     H13241   2.309   1.418  12.401 -1.0806  1.1792  1.1523
  900MPD2    H113242   2.319   1.801  12.216 -0.3958  0.6761 -0.2585
  900MPD2    H213243   2.671   1.580  12.256 -0.7120 -1.3771 -2.7029
  900MPD2    H313244   2.560   1.779  12.185 -1.2149  0.3008  0.0579
  900MPD2     N13245   2.165   1.611  12.348 -0.5025 -0.2095 -0.4874
  900MPD2    H513246   2.117   1.538  12.400  1.0521 -0.7151  0.2094
  900MPD2    N113247   2.580   1.364  12.348  0.3462  0.1342 -0.0972
  900MPD2    H713248   2.674   1.366  12.310  0.3581  0.3065 -0.0608
  901MPD2     C13249   2.650   0.298  12.649  0.0982  0.1002  0.2202
  901MPD2    C113250   2.743   0.318  12.545 -0.6793 -0.2045  0.7057
  901MPD2    C213251   2.738   0.442  12.476 -0.5800 -0.8214  0.3491
  901MPD2    C313252   2.666   0.549  12.522  0.2576  0.3025 -0.7344
  901MPD2    C413253   2.577   0.519  12.617 -0.0366  0.3191  0.8498
  901MPD2    C513254   2.562   0.398  12.677 -0.5632 -0.0029 -0.4133
  901MPD2     H13255   2.804   0.461  12.392  0.0031 -0.0857  0.9751
  901MPD2    H113256   2.508   0.597  12.647 -1.1113 -0.9716  1.7169
  901MPD2    H213257   2.640   0.203  12.701  3.3752  1.1132  2.7001
  901MPD2    H313258   2.493   0.397  12.761  1.2821 -0.6505  1.0982
  901MPD2     N13259   2.682   0.674  12.456 -0.8026  0.1403  0.1990
  901MPD2    H513260   2.750   0.683  12.381 -1.4420 -0.5665 -0.4812
  901MPD2    N113261   2.835   0.212  12.515 -0.2290 -0.2607  0.2967
  901MPD2    H713262   2.833   0.126  12.569  4.0644 -0.6368 -0.1799
  902MPD2     C13263   2.580   4.082  12.517  0.0127  0.7074 -0.1142
  902MPD2    C113264   2.536   4.161  12.415 -0.2523  0.0815  0.2337
  902MPD2    C213265   2.553   4.119  12.283  0.6955 -0.4642 -0.1174
  902MPD2    C313266   2.582   3.989  12.257  0.1714 -0.5077  0.5377
  902MPD2    C413267   2.615   3.908  12.363  0.6733  0.0985 -1.0063
  902MPD2    C513268   2.625   3.954  12.486 -0.5467  0.6731 -0.0230
  902MPD2     H13269   2.532   4.193  12.206 -0.5919  1.4594  2.1165
  902MPD2    H113270   2.626   3.804  12.338 -1.1284  0.4449 -3.2237
  902MPD2    H213271   2.591   4.129  12.614 -0.4636  0.5956 -0.0022
  902MPD2    H313272   2.666   3.895  12.568 -0.4088  2.2401  1.0400
  902MPD2     N13273   2.594   3.946  12.122  0.9797 -0.4057 -0.5114
  902MPD2    H513274   2.566   4.018  12.056 -0.4888 -0.3872  0.1291
  902MPD2    N113275   2.484   4.284  12.450  0.2789 -0.2031  0.3341
  902MPD2    H713276   2.471   4.302  12.549 -1.1063  2.8767 -0.4099
  903MPD2     C13277   2.287   3.828  11.343 -0.0791  0.1481  0.1430
  903MPD2    C113278   2.288   3.888  11.464  0.1635 -0.4061 -0.6968
  903MPD2    C213279   2.169   3.903  11.525 -0.1478  0.3465 -0.3798
  903MPD2    C313280   2.047   3.867  11.460  0.7167  0.1060 -0.3987
  903MPD2    C413281   2.050   3.793  11.343  0.8654 -0.5215 -0.0271
  903MPD2    C513282   2.177   3.771  11.289  0.2258  0.6120  0.5161
  903MPD2     H13283   2.154   3.952  11.621 -0.2502  0.0104 -0.2235
  903MPD2    H113284   1.968   3.742  11.293  0.2405 -0.0366  0.4934
  903MPD2    H213285   2.381   3.807  11.293  0.5020  2.4843  0.2571
  903MPD2    H313286   2.188   3.730  11.189 -1.0568 -1.5056  1.2329
  903MPD2     N13287   1.921   3.887  11.526 -0.3533 -0.2876  0.1030
  903MPD2    H513288   1.924   3.961  11.595  0.0292 -1.2842  1.1433
  903MPD2    N113289   2.408   3.920  11.534 -0.7237 -0.1840 -0.4944
  903MPD2    H713290   2.487   3.907  11.473 -1.3595 -1.6266 -1.0148
  904MPD2     C13291   1.621   3.377  14.632 -0.2707 -0.9109  0.0094
  904MPD2    C113292   1.646   3.413  14.502  0.3538  0.2501 -0.2989
  904MPD2    C213293   1.776   3.426  14.462  0.0310 -0.6324 -0.5857
  904MPD2    C313294   1.877   3.374  14.541  0.0811 -0.2259 -0.7181
  904MPD2    C413295   1.846   3.328  14.669  0.0975  0.3178  0.0456
  904MPD2    C513296   1.721   3.331  14.714 -0.1808 -0.1247 -0.0507
  904MPD2     H13297   1.789   3.462  14.360  0.9613 -2.9505 -1.2810
  904MPD2    H113298   1.918   3.294  14.743  0.1212 -0.9992 -0.5858
  904MPD2    H213299   1.520   3.382  14.672  0.3895 -0.7407  1.6437
  904MPD2    H313300   1.694   3.306  14.816 -3.0460  0.9571 -0.5696
  904MPD2     N13301   2.003   3.376  14.476 -0.2649  0.2469 -0.0123
  904MPD2    H513302   2.005   3.412  14.381 -0.8536  2.4338  0.8078
  904MPD2    N113303   1.549   3.447  14.407 -0.2011 -0.1346 -0.3105
  904MPD2    H713304   1.581   3.492  14.322  0.1119 -0.7868 -0.5382
  905MPD2     C13305   1.213   3.092  13.849  0.6542 -0.5756  0.0241
  905MPD2    C113306   1.304   3.191  13.873  0.0185 -0.0602 -0.1166
  905MPD2    C213307   1.431   3.168  13.817 -0.0131  0.4690 -0.3488
  905MPD2    C313308   1.458   3.051  13.743  0.0552  0.7624  0.2451
  905MPD2    C413309   1.366   2.950  13.733 -0.0317  0.2056 -0.3807
  905MPD2    C513310   1.245   2.980  13.782  0.5455 -0.1841  0.0815
  905MPD2     H13311   1.511   3.240  13.833 -0.1629  0.5508  0.0386
  905MPD2    H113312   1.390   2.866  13.669  2.0245 -1.0644  2.0973
  905MPD2    H213313   1.111   3.112  13.881 -0.4652  0.2202 -3.9858
  905MPD2    H313314   1.169   2.903  13.769  0.8100 -0.1396 -1.8330
  905MPD2     N13315   1.590   3.040  13.696 -0.0985  0.4447  0.0910
  905MPD2    H513316   1.637   3.130  13.690 -0.6362  0.8360  1.6482
  905MPD2    N113317   1.278   3.300  13.953  0.2128 -0.0862 -0.3997
  905MPD2    H713318   1.187   3.307  13.996 -0.2233  0.5474 -1.4135
  906MPD2     C13319   3.954   3.555  11.062 -0.0382  0.1213  0.5230
  906MPD2    C113320   3.957   3.528  10.926  0.0211  0.0594  0.4033
  906MPD2    C213321   3.939   3.398  10.882  0.1143 -1.0911 -0.1970
  906MPD2    C313322   3.905   3.296  10.967 -0.2373 -0.3769  0.2597
  906MPD2    C413323   3.907   3.322  11.106 -0.0134  0.2286 -0.6922
  906MPD2    C513324   3.926   3.453  11.146  0.7139  0.2112 -0.5532
  906MPD2     H13325   3.944   3.375  10.776 -2.4836 -1.0392 -0.3316
  906MPD2    H113326   3.878   3.245  11.177  0.3289 -0.7816 -1.6589
  906MPD2    H213327   3.963   3.653  11.108  1.2890  1.2326 -2.0586
  906MPD2    H313328   3.921   3.479  11.251 -1.3843 -0.4084 -0.5126
  906MPD2     N13329   3.887   3.164  10.916  1.1814 -0.1280 -0.1390
  906MPD2    H513330   3.852   3.092  10.979  1.3690  1.4335  1.7333
  906MPD2    N113331   4.001   3.621  10.830  0.2138  1.0123  0.4612
  906MPD2    H713332   4.024   3.581  10.739  1.7543  0.3015  1.1756
  907MPD2     C13333   3.221   2.794  15.570  0.4948  0.1702  0.4109
  907MPD2    C113334   3.169   2.666  15.566  0.3732 -0.1310  0.7392
  907MPD2    C213335   3.162   2.592  15.684  0.4035  0.0105  0.4699
  907MPD2    C313336   3.210   2.641  15.806  0.5991 -0.1657  0.7484
  907MPD2    C413337   3.256   2.775  15.805  0.3816  0.7464  0.3492
  907MPD2    C513338   3.258   2.846  15.689  0.5903 -0.1483 -0.4886
  907MPD2     H13339   3.116   2.494  15.682 -2.8144  1.5587 -0.7161
  907MPD2    H113340   3.294   2.828  15.892 -0.3672  2.1652 -0.1818
  907MPD2    H213341   3.219   2.859  15.483  1.6933 -0.3186  0.0248
  907MPD2    H313342   3.274   2.953  15.693  3.0794 -0.5944  1.1118
  907MPD2     N13343   3.196   2.554  15.913  0.3363 -0.5230 -0.1351
  907MPD2    H513344   3.181   2.456  15.894 -0.9938 -0.2453 -0.5805
  907MPD2    N113345   3.110   2.612  15.451 -0.0569  0.0372 -0.0787
  907MPD2    H713346   3.084   2.514  15.451  0.5946 -0.1365  0.7021
  908MPD2     C13347   1.482   3.787   9.543  0.0205  0.4477 -0.1458
  908MPD2    C113348   1.351   3.754   9.566 -0.1399  0.0779 -0.3058
  908MPD2    C213349   1.282   3.831   9.663 -0.2821  0.3523 -0.4962
  908MPD2    C313350   1.343   3.930   9.747 -0.5133  0.9030  0.3487
  908MPD2    C413351   1.482   3.950   9.722 -0.2935  0.2820 -0.0787
  908MPD2    C513352   1.548   3.883   9.620  0.5143  0.1147  0.0489
  908MPD2     H13353   1.184   3.801   9.698  0.8152 -0.8968  1.5311
  908MPD2    H113354   1.537   4.030   9.770 -2.3335  1.6038  0.0633
  908MPD2    H213355   1.541   3.757   9.458 -1.3409 -1.5270 -0.3923
  908MPD2    H313356   1.650   3.909   9.592  0.3704 -0.7980 -1.3392
  908MPD2     N13357   1.267   3.991   9.855 -0.0866  0.7052  0.3641
  908MPD2    H513358   1.170   3.968   9.873 -0.4545  1.4505 -0.6849
  908MPD2    N113359   1.295   3.655   9.486 -0.5654 -0.4316 -0.2120
  908MPD2    H713360   1.355   3.623   9.411 -1.0245  1.8333 -1.5441
  909MPD2     C13361   1.001   1.420  11.426  0.9385 -0.2731 -0.1262
  909MPD2    C113362   1.116   1.492  11.447 -0.3220 -0.2825  0.2718
  909MPD2    C213363   1.119   1.587  11.546  0.4676  0.4031  0.0796
  909MPD2    C313364   1.020   1.582  11.644 -0.2206  0.5897  0.4391
  909MPD2    C413365   0.920   1.493  11.640 -0.0974  0.1319 -0.7487
  909MPD2    C513366   0.908   1.417  11.525  0.1593  0.5896  0.4991
  909MPD2     H13367   1.202   1.657  11.549 -1.5833  2.8945 -0.7721
  909MPD2    H113368   0.837   1.493  11.710 -1.5379 -0.7849 -2.4538
  909MPD2    H213369   0.994   1.361  11.335  2.4149  1.1990 -1.1990
  909MPD2    H313370   0.814   1.372  11.497  1.7387 -2.4698  0.0933
  909MPD2     N13371   1.016   1.690  11.737 -0.6691  0.0482 -0.1886
  909MPD2    H513372   1.085   1.763  11.722  0.2195 -0.5832  0.8158
  909MPD2    N113373   1.226   1.489  11.364 -0.2824  0.0162 -0.0872
  909MPD2    H713374   1.306   1.535  11.407 -0.6583  0.0921  0.5194
  910MPD2     C13375   2.486   3.383  16.456 -0.0528 -0.7695 -1.1520
  910MPD2    C113376   2.495   3.293  16.354  0.7036  0.2952  0.0851
  910MPD2    C213377   2.416   3.306  16.239  0.4473 -0.8445  1.0036
  910MPD2    C313378   2.320   3.400  16.235 -0.4100  0.6950  0.0732
  910MPD2    C413379   2.306   3.483  16.337 -0.9462  0.7339  0.2388
  910MPD2    C513380   2.395   3.482  16.448  0.2997  0.1154  0.1221
  910MPD2     H13381   2.422   3.229  16.163  2.7897 -0.4033  0.7380
  910MPD2    H113382   2.232   3.562  16.338 -0.0405  1.6298 -2.5091
  910MPD2    H213383   2.537   3.387  16.552  2.6393 -0.9349 -2.5753
  910MPD2    H313384   2.373   3.554  16.526 -1.3228 -1.9144  1.5308
  910MPD2     N13385   2.224   3.409  16.128  0.1367 -0.3795  0.9585
  910MPD2    H513386   2.156   3.482  16.146 -1.2876 -0.8045 -2.5957
  910MPD2    N113387   2.589   3.186  16.358 -0.4696 -0.1843  0.0441
  910MPD2    H713388   2.587   3.130  16.274 -1.3032 -1.9277  1.2391
  911MPD2     C13389   0.188   3.758  16.638 -0.1501  0.2654  0.8013
  911MPD2    C113390   0.281   3.862  16.619 -0.0585 -0.3586  0.3349
  911MPD2    C213391   0.242   3.969  16.546 -0.2364 -0.0291 -0.3123
  911MPD2    C313392   0.115   3.981  16.490  0.2249  0.2924  0.0601
  911MPD2    C413393   0.028   3.877  16.506  0.1032  0.1113  0.6760
  911MPD2    C513394   0.066   3.769  16.579  0.2150  0.3344  0.1039
  911MPD2     H13395   0.314   4.050  16.535 -0.0276  0.0020  1.4060
  911MPD2    H113396   4.669   3.877  16.455 -0.6773 -2.1334  2.1414
  911MPD2    H213397   0.211   3.666  16.690 -3.2835 -0.6554  0.5563
  911MPD2    H313398   4.727   3.692  16.586 -1.8314  2.3280 -0.0079
  911MPD2     N13399   0.070   4.090  16.413  0.0659  0.5630  0.0262
  911MPD2    H513400   4.716   4.084  16.368 -0.4196 -0.1871  1.1153
  911MPD2    N113401   0.400   3.849  16.691  0.7306 -0.1208 -0.4320
  911MPD2    H713402   0.402   3.763  16.744 -0.1315 -1.4884 -2.6545
  912MPD2     C13403   4.316   4.008  15.873 -0.0595 -0.1721  1.3188
  912MPD2    C113404   4.368   3.998  16.001 -0.0926  0.9376  0.2972
  912MPD2    C213405   4.333   3.889  16.080 -0.4085  0.3435 -0.3546
  912MPD2    C313406   4.256   3.789  16.024 -0.1425 -0.1440  0.5040
  912MPD2    C413407   4.212   3.798  15.893  0.2900 -0.1771  0.5761
  912MPD2    C513408   4.231   3.913  15.827  0.0072 -0.6183 -0.4269
  912MPD2     H13409   4.371   3.881  16.181 -0.1627 -0.3110 -0.5064
  912MPD2    H113410   4.156   3.719  15.846  0.2243  0.7768 -0.9493
  912MPD2    H213411   4.347   4.089  15.807 -1.6403 -0.9743 -0.4038
  912MPD2    H313412   4.191   3.924  15.727 -1.0297 -2.4708 -0.2139
  912MPD2     N13413   4.218   3.684  16.116  0.5084  0.5343 -0.0282
  912MPD2    H513414   4.253   3.692  16.211  1.0129  1.1214 -0.2630
  912MPD2    N113415   4.450   4.105  16.032 -0.2155  0.4957 -0.1141
  912MPD2    H713416   4.458   4.180  15.964  0.3655  2.0192  1.6396
  913MPD2     C13417   0.902   0.543  10.075 -0.9776  0.5230  0.6692
  913MPD2    C113418   1.014   0.618  10.089  0.1040  0.0341 -0.7371
  913MPD2    C213419   1.028   0.725  10.005  0.9050 -0.0693 -0.1908
  913MPD2    C313420   0.934   0.752   9.905  0.0914  0.3359  0.6159
  913MPD2    C413421   0.830   0.664   9.886 -0.1785 -0.1415  0.6656
  913MPD2    C513422   0.817   0.557   9.968 -0.0832 -0.5176  0.9272
  913MPD2     H13423   1.100   0.804  10.025  3.5801 -2.5222 -0.0567
  913MPD2    H113424   0.762   0.681   9.804 -1.5070 -1.7341  1.4409
  913MPD2    H213425   0.887   0.460  10.143 -1.5699 -1.8391 -2.3379
  913MPD2    H313426   0.732   0.491   9.954 -0.6901  0.9031 -2.1463
  913MPD2     N13427   0.955   0.850   9.810  0.0891  0.2329 -0.4881
  913MPD2    H513428   0.892   0.840   9.732 -0.9959  2.4953  0.0771
  913MPD2    N113429   1.118   0.602  10.181 -0.1200 -0.1277  1.0019
  913MPD2    H713430   1.193   0.666  10.158 -2.5601  1.5774 -2.2216
  914MPD2     C13431   3.052   0.018  11.563  0.2897  0.2320 -0.1661
  914MPD2    C113432   3.028   0.129  11.632  0.8326 -0.2871  0.5248
  914MPD2    C213433   3.046   0.134  11.773 -0.6111  0.3384  0.1351
  914MPD2    C313434   3.072   0.017  11.837 -0.3782  0.5847 -0.0726
  914MPD2    C413435   3.094   4.638  11.771  0.0927  0.5898 -0.2378
  914MPD2    C513436   3.090   4.644  11.635  0.4887  0.4880 -1.2092
  914MPD2     H13437   3.019   0.224  11.827 -2.9979 -0.5386  0.3824
  914MPD2    H113438   3.132   4.545  11.813 -0.1055 -0.5634 -2.5958
  914MPD2    H213439   3.036   4.727  11.460 -2.9305  0.7072  0.2086
  914MPD2    H313440   3.109   4.556  11.575  0.3828  0.5078 -1.2725
  914MPD2     N13441   3.078   0.018  11.973  0.0631  0.1320  0.1308
  914MPD2    H513442   3.057   0.109  12.013 -0.8294  0.5831 -1.3550
  914MPD2    N113443   2.981   0.240  11.557 -0.3774 -0.7515 -0.6672
  914MPD2    H713444   2.978   0.232  11.456 -0.0175  1.3608 -0.8543
  915MPD2     C13445   1.312   0.629  15.746 -0.4192 -0.4265  0.9564
  915MPD2    C113446   1.207   0.677  15.666  1.3094 -0.0812  0.2682
  915MPD2    C213447   1.118   0.767  15.720  0.1114  0.1723 -0.2361
  915MPD2    C313448   1.120   0.796  15.855 -0.4097  0.3158 -1.2295
  915MPD2    C413449   1.234   0.750  15.933  0.0032  0.0665  0.1333
  915MPD2    C513450   1.332   0.669  15.874  0.2068 -0.2055 -0.1696
  915MPD2     H13451   1.032   0.803  15.664  0.5368 -0.7875 -1.5083
  915MPD2    H113452   1.255   0.769  16.038  1.8792  0.9344 -0.4124
  915MPD2    H213453   1.385   0.562  15.703 -1.0141 -0.1805 -0.4683
  915MPD2    H313454   1.417   0.632  15.929  0.9764  0.9534 -0.5747
  915MPD2     N13455   1.024   0.877  15.926 -0.2598  0.3395  0.2706
  915MPD2    H513456   0.957   0.933  15.874  0.1924 -0.4511 -1.1517
  915MPD2    N113457   1.194   0.626  15.530  0.0842  0.5374  0.2156
  915MPD2    H713458   1.248   0.544  15.504 -0.2125 -0.1772  1.9127
  916MPD2     C13459   3.558   3.669  15.684  0.3186  0.0164 -0.1060
  916MPD2    C113460   3.649   3.632  15.774 -0.0497  0.0922 -0.1437
  916MPD2    C213461   3.731   3.528  15.740 -0.1627  0.1024 -0.2289
  916MPD2    C313462   3.723   3.464  15.614 -0.2466  0.2537 -0.1101
  916MPD2    C413463   3.630   3.508  15.522  0.2027  0.5583  0.2271
  916MPD2    C513464   3.540   3.606  15.563 -0.3319 -0.0102  0.2679
  916MPD2     H13465   3.805   3.492  15.811  1.7313 -1.1579 -2.8588
  916MPD2    H113466   3.623   3.467  15.422 -1.0692 -0.4919  0.7491
  916MPD2    H213467   3.516   3.768  15.703  0.0311 -0.7491  3.3320
  916MPD2    H313468   3.461   3.642  15.497 -0.4684  0.9128  0.9356
  916MPD2     N13469   3.811   3.354  15.592  0.2741 -0.0830 -0.1266
  916MPD2    H513470   3.863   3.326  15.675  0.3189 -1.4204 -0.6045
  916MPD2    N113471   3.656   3.694  15.900 -0.0234  0.0389 -0.2730
  916MPD2    H713472   3.615   3.786  15.911 -0.8263 -0.2307 -1.0634
  917MPD2     C13473   4.320   1.404  11.283 -0.1688  0.3299 -0.4017
  917MPD2    C113474   4.188   1.356  11.286 -0.2246  0.2912 -0.1288
  917MPD2    C213475   4.096   1.429  11.213  0.0313 -0.2247 -0.1820
  917MPD2    C313476   4.134   1.547  11.153  0.2008  0.2320  0.6142
  917MPD2    C413477   4.268   1.577  11.141 -0.5633 -0.4947  0.4343
  917MPD2    C513478   4.360   1.510  11.215 -0.0596  0.4140 -0.0663
  917MPD2     H13479   3.993   1.394  11.219 -0.1163  0.4960  1.5204
  917MPD2    H113480   4.309   1.657  11.080 -1.1595 -1.6058 -1.4129
  917MPD2    H213481   4.390   1.368  11.357 -2.0435  1.1707  1.7760
  917MPD2    H313482   4.464   1.541  11.214 -0.1328  0.6625 -0.0889
  917MPD2     N13483   4.040   1.637  11.087 -0.0816  0.9024  0.1630
  917MPD2    H513484   4.070   1.727  11.050 -0.7044  1.1377  0.2246
  917MPD2    N113485   4.156   1.245  11.371  0.2161 -0.3640 -0.4290
  917MPD2    H713486   4.236   1.212  11.423 -0.0290 -0.2135  0.0466
  918MPD2     C13487   4.292   1.256  12.239 -0.7205 -0.5342 -0.2212
  918MPD2    C113488   4.379   1.211  12.146 -0.0256  0.1765 -0.1626
  918MPD2    C213489   4.336   1.184  12.016 -0.0289 -0.0365 -0.4628
  918MPD2    C313490   4.197   1.191  11.991  0.0488 -0.1000  0.0695
  918MPD2    C413491   4.114   1.236  12.094 -0.3812 -0.0310  0.3838
  918MPD2    C513492   4.164   1.268  12.215  0.0464 -0.1735 -0.2952
  918MPD2     H13493   4.401   1.143  11.940  1.2734  3.1650 -1.0536
  918MPD2    H113494   4.009   1.261  12.095  0.5123  3.7908 -0.9508
  918MPD2    H213495   4.332   1.293  12.332 -0.4468  2.4203 -1.4984
  918MPD2    H313496   4.097   1.293  12.297 -1.2528  1.5484 -1.8955
  918MPD2     N13497   4.154   1.146  11.865 -0.8487 -0.2831 -0.0747
  918MPD2    H513498   4.227   1.113  11.802  0.0058  2.2312 -0.3692
  918MPD2    N113499   4.520   1.202  12.178  0.4129 -0.2942  0.0885
  918MPD2    H713500   4.579   1.180  12.098  0.9838  2.7425 -0.3449
  919MPD2     C13501   0.307   0.028  11.427  0.0841 -0.0490  0.8773
  919MPD2    C113502   0.177   0.006  11.477 -0.3157  0.5198  0.6050
  919MPD2    C213503   0.069   0.019  11.395  0.2096 -0.6369 -0.1259
  919MPD2    C313504   0.083   0.049  11.262 -0.0618 -0.0302 -0.0669
  919MPD2    C413505   0.212   0.076  11.219 -0.2255  0.4222  0.4622
  919MPD2    C513506   0.325   0.071  11.301  0.1332  0.3732 -0.3863
  919MPD2     H13507   4.709   0.011  11.444  0.8476  1.5362  1.4935
  919MPD2    H113508   0.239   0.107  11.119 -0.7479 -2.3039 -0.5472
  919MPD2    H213509   0.395   0.012  11.488  2.0140  4.8422 -0.5866
  919MPD2    H313510   0.421   0.072  11.250  0.0530 -1.6665 -0.6007
  919MPD2     N13511   4.720   0.051  11.171 -0.4094  0.2799 -0.3450
  919MPD2    H513512   0.013   0.060  11.075  1.9262 -0.3110  0.3104
  919MPD2    N113513   0.177   4.703  11.605  0.2580 -0.3228 -0.6300
  919MPD2    H713514   0.267   4.691  11.650 -0.2655  0.3735  0.6130
  920MPD2     C13515   4.717   0.056  10.225  0.1180  0.1337 -0.3969
  920MPD2    C113516   4.576   0.059  10.234  0.5786  0.1953 -0.2167
  920MPD2    C213517   4.513   0.040  10.358  0.2642 -0.5190 -0.2911
  920MPD2    C313518   4.591   0.021  10.478 -0.3697  0.0126  0.1114
  920MPD2    C413519   4.730   0.028  10.458 -0.1339 -0.0639 -0.2232
  920MPD2    C513520   0.053   0.045  10.339 -0.4200 -0.1466  0.2520
  920MPD2     H13521   4.405   0.044  10.354  0.3267  1.7748  0.6350
  920MPD2    H113522   0.062   0.004  10.538 -0.7812  0.7409  0.5633
  920MPD2    H213523   0.033   0.053  10.130 -0.7294 -2.6914 -0.7562
  920MPD2    H313524   0.161   0.039  10.334 -0.5096 -0.7069 -1.1113
  920MPD2     N13525   4.532   0.013  10.606 -0.0744 -0.1079  0.1116
  920MPD2    H513526   4.430   0.006  10.606  0.0709 -2.1595 -1.5906
  920MPD2    N113527   4.492   0.071  10.120 -0.3699 -0.5456 -0.3001
  920MPD2    H713528   4.393   0.054  10.137 -0.8016  0.1019 -2.2635
  921MPD2     C13529   1.229   4.336  16.854  0.5745  0.0829 -0.2766
  921MPD2    C113530   1.264   4.199  16.863  0.1370 -0.2911 -0.7357
  921MPD2    C213531   1.162   4.114  16.900 -0.4973  0.1976 -0.2335
  921MPD2    C313532   1.031   4.159  16.925 -0.0777 -0.2752 -0.1264
  921MPD2    C413533   1.002   4.291  16.904 -0.9659 -0.4373 -0.0280
  921MPD2    C513534   1.104   4.377  16.862  0.3249 -0.4053  0.5687
  921MPD2     H13535   1.174   4.009  16.923 -3.3210  0.0239  0.4083
  921MPD2    H113536   0.904   4.334  16.919 -1.1749 -1.4517  1.4706
  921MPD2    H213537   1.295   4.407  16.806 -1.4560  2.2624  0.1383
  921MPD2    H313538   1.084   4.479  16.832 -0.3738 -1.3167 -2.0219
  921MPD2     N13539   0.918   4.074  16.961  0.3140 -0.2176  0.2453
  921MPD2    H513540   0.829   4.122  16.964  1.1545  1.3533  0.0077
  921MPD2    N113541   1.394   4.161  16.828  0.6165  0.0666 -0.2659
  921MPD2    H713542   1.455   4.228  16.784  1.4671 -1.5189 -1.4735
  922MPD2     C13543   1.880   2.216  17.155 -0.6400 -0.2529  0.8411
  922MPD2    C113544   1.821   2.259  17.272 -0.5976 -0.3452  0.2380
  922MPD2    C213545   1.787   2.167  17.369  0.2923  0.0713  0.4077
  922MPD2    C313546   1.799   2.034  17.352 -0.1349 -0.5483  0.0763
  922MPD2    C413547   1.850   1.990  17.231 -0.1833  0.5231  0.1966
  922MPD2    C513548   1.884   2.079  17.127 -0.1627  0.2312 -0.2213
  922MPD2     H13549   1.728   2.191  17.457  0.7607  2.1764  0.1464
  922MPD2    H113550   1.863   1.884  17.210 -2.2287  0.1282  0.8770
  922MPD2    H213551   1.920   2.289  17.086  1.6012  0.6968  3.1482
  922MPD2    H313552   1.916   2.038  17.032 -2.2023  0.7675 -1.1323
  922MPD2     N13553   1.773   1.945  17.456  0.5116 -0.2156 -0.6028
  922MPD2    H513554   1.735   1.990  17.538  1.9376 -0.1023  0.0040
  922MPD2    N113555   1.799   2.393  17.307  0.2561  0.1003 -0.5859
  922MPD2    H713556   1.762   2.417  17.398 -1.1640 -3.2461 -0.3046
  923MPD2     C13557   3.935   3.980   8.313 -0.8268  0.0377 -0.4695
  923MPD2    C113558   3.933   4.051   8.432  0.6259  0.3233  0.1893
  923MPD2    C213559   4.005   4.005   8.542  0.4564  0.2068  0.0486
  923MPD2    C313560   4.070   3.881   8.540  1.5661 -0.5536  0.4776
  923MPD2    C413561   4.077   3.814   8.419  1.2343  0.4913 -0.0366
  923MPD2    C513562   4.000   3.862   8.315 -0.1908  0.1588  0.4364
  923MPD2     H13563   3.995   4.059   8.636  3.9377  0.4994  0.2327
  923MPD2    H113564   4.142   3.728   8.409  0.3649 -0.2107  0.2869
  923MPD2    H213565   3.867   4.003   8.232 -0.3104  0.6815 -0.7241
  923MPD2    H313566   3.997   3.799   8.226  1.5446 -0.4015  0.7869
  923MPD2     N13567   4.135   3.822   8.654 -0.7071 -0.3119  0.9501
  923MPD2    H513568   4.163   3.725   8.645 -0.0477 -0.0060 -0.3928
  923MPD2    N113569   3.855   4.173   8.436  0.2534  0.2538  0.4660
  923MPD2    H713570   3.804   4.192   8.350 -0.6213  0.0949  0.9551
  924MPD2     C13571   3.056   1.685  15.995  0.5520  0.0623  0.0106
  924MPD2    C113572   3.005   1.736  16.113  0.3617  0.6841  0.1285
  924MPD2    C213573   3.046   1.865  16.145  0.6914 -0.5024  0.0088
  924MPD2    C313574   3.118   1.945  16.060  0.7369  0.2863 -0.0590
  924MPD2    C413575   3.161   1.893  15.941 -0.3557 -0.0389  0.5822
  924MPD2    C513576   3.133   1.765  15.913 -0.1940 -0.5707  0.1216
  924MPD2     H13577   3.010   1.894  16.243 -0.1426  3.2545 -1.4078
  924MPD2    H113578   3.212   1.962  15.874 -0.4624 -1.0421 -0.5213
  924MPD2    H213579   3.036   1.583  15.964  2.9231  0.0835 -1.5528
  924MPD2    H313580   3.164   1.717  15.821  2.8515 -0.0544  0.9031
  924MPD2     N13581   3.144   2.079  16.092  0.3521  0.0638  0.1670
  924MPD2    H513582   3.207   2.133  16.033  1.1885  0.0359  1.0481
  924MPD2    N113583   2.920   1.663  16.205  0.6544  0.6207  0.5934
  924MPD2    H713584   2.916   1.563  16.191  3.1153  0.5799  0.2709
  925MPD2     C13585   1.734   4.585  14.495  0.3005  0.6452 -0.1464
  925MPD2    C113586   1.599   4.601  14.489 -0.3209  0.5954 -0.4404
  925MPD2    C213587   1.529   4.580  14.609 -0.7775  0.6080 -0.0316
  925MPD2    C313588   1.591   4.554  14.728 -0.2415  0.6788 -0.3398
  925MPD2    C413589   1.731   4.539  14.731  0.0486  0.0991  0.2236
  925MPD2    C513590   1.794   4.553  14.610 -0.0726  0.5736 -0.0405
  925MPD2     H13591   1.421   4.576  14.612 -0.6024 -3.0987  1.2295
  925MPD2    H113592   1.791   4.509  14.816  0.8117  0.3910 -0.2198
  925MPD2    H213593   1.808   4.593  14.415 -2.2381 -1.0116 -2.6559
  925MPD2    H313594   1.900   4.535  14.616 -0.1772 -0.4942 -1.3075
  925MPD2     N13595   1.521   4.540  14.855  0.4764  0.8707 -0.2457
  925MPD2    H513596   1.571   4.482  14.922  0.4231  2.2201  0.9643
  925MPD2    N113597   1.534   4.609  14.370  0.2134  0.3460 -0.0944
  925MPD2    H713598   1.433   4.612  14.374  0.2208 -0.7979  1.0476
  926MPD2     C13599   0.540   2.714  13.679  0.2504 -0.2350  0.1790
  926MPD2    C113600   0.467   2.788  13.584 -0.4429  0.3330 -0.0347
  926MPD2    C213601   0.541   2.835  13.475 -0.7036  0.1542  0.2486
  926MPD2    C313602   0.676   2.803  13.458 -0.5648 -0.2790  0.0393
  926MPD2    C413603   0.737   2.721  13.549  0.6495  0.5343 -0.3195
  926MPD2    C513604   0.673   2.674  13.658 -0.1526  0.1806  0.4075
  926MPD2     H13605   0.485   2.892  13.401  0.3803  0.4537 -0.3307
  926MPD2    H113606   0.843   2.697  13.543  0.2655 -1.2650  0.0851
  926MPD2    H213607   0.487   2.661  13.757 -1.5690  0.4553 -0.5625
  926MPD2    H313608   0.722   2.623  13.741  0.3512  0.3941  0.2431
  926MPD2     N13609   0.752   2.854  13.355 -0.0036 -0.5173 -1.0257
  926MPD2    H513610   0.850   2.834  13.370  0.6057  0.6611 -3.3465
  926MPD2    N113611   0.330   2.830  13.593 -0.1110 -0.0712 -1.0800
  926MPD2    H713612   0.287   2.890  13.524  0.6548  3.1272  1.2524
  927MPD2     C13613   0.765   0.874  17.540 -0.0277  0.7999 -0.2782
  927MPD2    C113614   0.651   0.888  17.460  0.7699 -0.0069  0.6673
  927MPD2    C213615   0.658   0.868  17.320  0.0022  0.9279  0.1463
  927MPD2    C313616   0.777   0.838  17.263  0.7809  0.3827 -0.3809
  927MPD2    C413617   0.883   0.823  17.349  0.7427  0.2042 -0.1977
  927MPD2    C513618   0.879   0.845  17.482 -0.1076 -0.2411 -0.2665
  927MPD2     H13619   0.569   0.882  17.258 -0.2284 -2.1521 -0.2069
  927MPD2    H113620   0.979   0.791  17.310 -0.6166 -1.8765 -1.8409
  927MPD2    H213621   0.758   0.902  17.645  0.8663  0.0909 -0.0331
  927MPD2    H313622   0.971   0.851  17.539 -0.2141 -2.4633  0.1271
  927MPD2     N13623   0.781   0.825  17.119  0.1052 -0.3848 -0.4088
  927MPD2    H513624   0.696   0.839  17.066  0.0940 -0.8525 -0.5121
  927MPD2    N113625   0.531   0.904  17.532 -0.1346  0.3843  0.0516
  927MPD2    H713626   0.529   0.904  17.634  0.4760 -1.7367  0.0606
  928MPD2     C13627   3.047   3.438   1.076 -0.0457 -0.0071 -0.2819
  928MPD2    C113628   3.027   3.570   1.056  0.1573  0.0105 -0.1852
  928MPD2    C213629   2.998   3.616   0.930 -0.5497  0.2385 -0.2078
  928MPD2    C313630   3.010   3.524   0.823 -0.4171  0.0478 -0.1564
  928MPD2    C413631   3.042   3.390   0.845  0.4155  0.5308 -0.2819
  928MPD2    C513632   3.068   3.346   0.972 -0.4009 -0.1188  0.7461
  928MPD2     H13633   2.970   3.719   0.915  0.3006  0.8652  2.4580
  928MPD2    H113634   3.062   3.325   0.760  0.6053  0.9672 -0.5710
  928MPD2    H213635   3.057   3.406   1.179 -0.7253 -2.2674 -0.9250
  928MPD2    H313636   3.089   3.243   0.998  0.8174 -0.3013 -0.9704
  928MPD2     N13637   3.001   3.562   0.691 -0.6839  0.4565 -0.2326
  928MPD2    H513638   3.030   3.488   0.628  0.1436  0.3884  0.2247
  928MPD2    N113639   3.048   3.652   1.174  0.0197  0.4357 -0.1583
  928MPD2    H713640   3.066   3.601   1.260  1.5020 -1.6814 -1.7052
  929MPD2     C13641   3.697   3.526  10.090  0.3085 -0.2336 -0.3525
  929MPD2    C113642   3.604   3.460  10.001  0.3166  0.6756 -0.1751
  929MPD2    C213643   3.565   3.524   9.889  0.1095 -0.0187 -0.1681
  929MPD2    C313644   3.588   3.660   9.876 -0.7950  0.4955  0.4154
  929MPD2    C413645   3.669   3.721   9.965 -0.7646 -0.1765  0.4170
  929MPD2    C513646   3.732   3.654  10.065  0.1160  0.1616  0.0796
  929MPD2     H13647   3.490   3.475   9.828 -0.5775 -1.4414  1.8254
  929MPD2    H113648   3.667   3.829   9.951 -0.0188 -0.2149 -0.0315
  929MPD2    H213649   3.737   3.469  10.173 -0.0906  0.6053  0.4125
  929MPD2    H313650   3.797   3.706  10.135  2.8486 -1.4975 -1.2241
  929MPD2     N13651   3.528   3.742   9.775 -0.2778 -0.7573 -0.7906
  929MPD2    H513652   3.549   3.841   9.768  0.9883 -0.8111  2.2486
  929MPD2    N113653   3.575   3.327  10.044  0.4826  0.3316  0.0564
  929MPD2    H713654   3.614   3.301  10.133 -0.3375 -1.5511 -0.1376
  930MPD2     C13655   4.507   0.924  13.995  0.0367  0.0213  0.1912
  930MPD2    C113656   4.640   0.908  13.965 -0.3732  0.1153  0.5719
  930MPD2    C213657   4.675   0.802  13.878 -0.1457  0.7433  0.0438
  930MPD2    C313658   4.580   0.714  13.831  0.4153 -0.1972 -0.0432
  930MPD2    C413659   4.450   0.724  13.878  0.1976  0.4059  0.3369
  930MPD2    C513660   4.414   0.823  13.965 -0.5625  0.2776 -1.1736
  930MPD2     H13661   0.043   0.797  13.847 -0.1586  1.8049 -0.1521
  930MPD2    H113662   4.371   0.661  13.841  1.1276 -0.9211  0.6116
  930MPD2    H213663   4.469   1.016  14.039  0.3139  0.5966 -0.7623
  930MPD2    H313664   4.311   0.831  13.999 -0.2022  0.9878 -0.2760
  930MPD2     N13665   4.602   0.625  13.724  0.1901  0.0310  0.0943
  930MPD2    H513666   4.522   0.615  13.661  0.0861  0.9401  0.0704
  930MPD2    N113667   4.729   1.015  14.006 -0.3791 -0.4141 -0.0725
  930MPD2    H713668   4.690   1.096  14.053  1.2652 -1.0510  2.3938
  931MPD2     C13669   0.481   0.378   0.073 -0.0882 -0.0405 -0.2217
  931MPD2    C113670   0.369   0.447   0.122  0.0185 -0.1809 -0.6253
  931MPD2    C213671   0.328   0.406   0.251  0.1558 -0.3242 -0.6742
  931MPD2    C313672   0.388   0.297   0.312  0.0605  0.1758  0.2445
  931MPD2    C413673   0.497   0.232   0.258  0.0099  0.2309  0.3292
  931MPD2    C513674   0.548   0.278   0.139 -0.3881  0.5601 -0.7689
  931MPD2     H13675   0.246   0.461   0.296  2.0110  2.0295 -0.1399
  931MPD2    H113676   0.551   0.156   0.314 -0.6255 -1.7647 -1.7349
  931MPD2    H213677   0.513   0.404  17.718 -0.8362  1.5670 -0.0477
  931MPD2    H313678   0.636   0.242   0.086  0.5016 -3.0665  3.1127
  931MPD2     N13679   0.352   0.255   0.443 -0.4616  0.2385 -0.1746
  931MPD2    H513680   0.418   0.201   0.498 -0.8765  1.2432  1.2961
  931MPD2    N113681   0.314   0.555   0.055 -0.6126  0.4645  0.3568
  931MPD2    H713682   0.345   0.565  17.704 -0.8052 -1.1036  0.1433
  932MPD2     C13683   1.755   3.946  11.067  0.1639 -0.8379  0.1958
  932MPD2    C113684   1.863   3.984  10.984  0.6485  0.0724 -0.3494
  932MPD2    C213685   1.948   3.881  10.943  0.4921  0.0902 -0.6497
  932MPD2    C313686   1.930   3.747  10.989 -0.0191  0.7770  0.0719
  932MPD2    C413687   1.824   3.716  11.070  0.3126 -0.3749 -0.6291
  932MPD2    C513688   1.735   3.814  11.102  1.2593 -0.0599 -0.2142
  932MPD2     H13689   2.030   3.915  10.881 -0.0029  1.5427 -0.5121
  932MPD2    H113690   1.808   3.619  11.115 -0.1576  0.0848  0.1885
  932MPD2    H213691   1.683   4.018  11.105  1.7958  0.0541  1.5958
  932MPD2    H313692   1.645   3.792  11.158  0.4369  0.5438 -1.2915
  932MPD2     N13693   2.033   3.651  10.964 -0.4223  0.1683 -0.2507
  932MPD2    H513694   2.041   3.566  11.019 -2.2226  0.6518  0.7320
  932MPD2    N113695   1.890   4.120  10.948 -0.4173 -0.0620  0.2270
  932MPD2    H713696   1.968   4.127  10.883 -0.3596 -2.1743  0.0396
  933MPD2     C13697   3.375   4.370   1.658 -0.2252 -0.1377 -0.1313
  933MPD2    C113698   3.245   4.331   1.612  0.4529  0.5811  0.0938
  933MPD2    C213699   3.134   4.416   1.629 -0.1222 -0.5223 -0.3490
  933MPD2    C313700   3.149   4.534   1.698  0.2245  0.9554 -0.6139
  933MPD2    C413701   3.273   4.569   1.748  0.5644  0.5544  0.9474
  933MPD2    C513702   3.386   4.486   1.724  0.3800  0.0006  0.2775
  933MPD2     H13703   3.037   4.385   1.592  0.1390  1.5427 -2.7487
  933MPD2    H113704   3.295   4.660   1.803  0.0298  2.0040 -1.2381
  933MPD2    H213705   3.460   4.305   1.638  0.2016  0.2946  0.3163
  933MPD2    H313706   3.481   4.529   1.752  1.1613  0.2555 -2.8060
  933MPD2     N13707   3.041   4.627   1.698 -0.2156 -0.1258  0.7209
  933MPD2    H513708   2.954   4.585   1.665 -0.0905 -0.6570  1.0770
  933MPD2    N113709   3.251   4.207   1.543  0.0044  0.4230  0.6443
  933MPD2    H713710   3.331   4.146   1.553  0.5956  1.2868  1.2199
  934MPD2     C13711   4.123   1.862   1.855 -0.8396  0.1801  0.3566
  934MPD2    C113712   4.189   1.765   1.790  0.3461  0.5183  0.5718
  934MPD2    C213713   4.111   1.673   1.716 -0.5656 -0.8118  0.0293
  934MPD2    C313714   3.979   1.700   1.699  0.2183  0.4630  0.6248
  934MPD2    C413715   3.915   1.799   1.767  0.0144  0.2170  0.1792
  934MPD2    C513716   3.985   1.875   1.850 -0.6406  0.7928 -0.1213
  934MPD2     H13717   4.167   1.600   1.658  2.3237 -0.3196  2.1764
  934MPD2    H113718   3.808   1.810   1.776 -0.5333 -2.9119 -2.4673
  934MPD2    H213719   4.176   1.932   1.918  0.0543 -1.5345  1.4995
  934MPD2    H313720   3.931   1.948   1.910  0.4651  1.2264  0.3396
  934MPD2     N13721   3.889   1.625   1.620 -0.4530  0.4394  0.5743
  934MPD2    H513722   3.790   1.650   1.617 -0.7810 -1.0711 -1.5666
  934MPD2    N113723   4.325   1.742   1.805  0.2551 -0.7958  0.3525
  934MPD2    H713724   4.362   1.661   1.757  3.8661  0.8734  0.2937
  935MPD2     C13725   4.447   1.110   1.249 -0.9881 -0.0545 -0.5729
  935MPD2    C113726   4.344   1.063   1.169  0.0935  0.1779 -1.0114
  935MPD2    C213727   4.214   1.084   1.204  0.5228 -0.6082  0.4460
  935MPD2    C313728   4.185   1.179   1.303  0.5806 -0.3461 -0.4449
  935MPD2    C413729   4.286   1.227   1.382  0.4883 -0.1215 -0.3512
  935MPD2    C513730   4.416   1.195   1.354  0.0592  0.6055 -0.8348
  935MPD2     H13731   4.137   1.043   1.140 -2.0737  1.4560  2.2397
  935MPD2    H113732   4.269   1.297   1.462 -1.2786 -0.0326 -0.8041
  935MPD2    H213733   4.552   1.086   1.234 -0.9781 -0.6442  0.4350
  935MPD2    H313734   4.499   1.236   1.411  0.1992 -0.3942 -0.3215
  935MPD2     N13735   4.051   1.223   1.336 -0.7100  0.1187  0.0809
  935MPD2    H513736   4.048   1.281   1.420  0.9074  0.0121  0.2225
  935MPD2    N113737   4.357   0.995   1.046 -0.8447 -0.7794  0.0545
  935MPD2    H713738   4.272   0.959   1.003  1.0074 -1.1829 -3.3088
  936MPD2     C13739   2.524   2.428  11.860  0.5798  0.1798 -0.1779
  936MPD2    C113740   2.482   2.476  11.980  0.1187  1.1057  0.9292
  936MPD2    C213741   2.499   2.604  12.015  0.5107 -0.2655 -0.7516
  936MPD2    C313742   2.548   2.692  11.920  0.2760 -0.3515  0.5219
  936MPD2    C413743   2.597   2.640  11.805  0.7455 -0.0588  0.1764
  936MPD2    C513744   2.581   2.511  11.767  0.0044 -0.6814  0.2997
  936MPD2     H13745   2.478   2.646  12.112 -2.6201 -2.2671 -0.5756
  936MPD2    H113746   2.651   2.697  11.730  1.6656  1.0445  1.6622
  936MPD2    H213747   2.511   2.327  11.822 -0.3300 -0.1298  0.9407
  936MPD2    H313748   2.614   2.473  11.671  1.5052  1.5929 -0.0741
  936MPD2     N13749   2.559   2.825  11.958 -0.1784  0.3882  0.3159
  936MPD2    H513750   2.533   2.839  12.056 -0.0472 -2.4275  0.7698
  936MPD2    N113751   2.441   2.391  12.090 -0.3027 -0.6795  0.1751
  936MPD2    H713752   2.418   2.432  12.179 -0.9495 -2.7936  0.9871
  937MPD2     C13753   0.441   4.101  11.526 -0.1348 -0.1543  0.0275
  937MPD2    C113754   0.491   4.211  11.585  0.8358 -0.1866 -0.4429
  937MPD2    C213755   0.598   4.271  11.524 -0.1453 -0.3734 -0.5395
  937MPD2    C313756   0.669   4.208  11.426  0.2025  0.5098 -0.0529
  937MPD2    C413757   0.616   4.087  11.376  0.3017 -0.1646 -0.5100
  937MPD2    C513758   0.494   4.038  11.419 -0.9359  0.2595  0.0163
  937MPD2     H13759   0.640   4.369  11.545 -2.4760  0.5524 -0.2705
  937MPD2    H113760   0.671   4.035  11.298  2.4010  0.1354  0.7409
  937MPD2    H213761   0.349   4.063  11.571  0.1867 -0.9197  0.0385
  937MPD2    H313762   0.453   3.950  11.371  0.4024  0.6818 -1.9112
  937MPD2     N13763   0.789   4.259  11.371 -0.4692  0.7742  0.1456
  937MPD2    H513764   0.841   4.325  11.427 -0.6783  0.9446  0.1368
  937MPD2    N113765   0.412   4.293  11.673 -0.5892  0.7349 -0.4552
  937MPD2    H713766   0.441   4.389  11.692  2.5126 -0.1592 -0.6329
  938MPD2     C13767   3.176   1.249   0.498  0.0675 -0.1940  0.4584
  938MPD2    C113768   3.199   1.289   0.630  0.0104 -0.8259  1.2610
  938MPD2    C213769   3.192   1.197   0.734 -0.1149  0.1377 -0.4189
  938MPD2    C313770   3.151   1.062   0.710  0.4082 -0.2598  0.2614
  938MPD2    C413771   3.137   1.024   0.575  0.5639 -0.3364 -0.0870
  938MPD2    C513772   3.141   1.120   0.475 -0.4778  0.7260 -0.0988
  938MPD2     H13773   3.216   1.222   0.836 -0.8450  0.9554 -0.4555
  938MPD2    H113774   3.102   0.923   0.556  0.2746 -0.0323 -1.1352
  938MPD2    H213775   3.185   1.311   0.410 -1.5684  0.5868  0.8530
  938MPD2    H313776   3.119   1.089   0.374 -0.1435 -2.1860  0.7130
  938MPD2     N13777   3.130   0.970   0.812 -0.5029 -0.1488  0.7085
  938MPD2    H513778   3.119   0.871   0.790 -0.5187  0.1428 -0.5880
  938MPD2    N113779   3.230   1.429   0.666  0.2032 -0.7997 -0.7421
  938MPD2    H713780   3.267   1.452   0.758 -3.3273  0.3504  0.3898
  939MPD2     C13781   4.603   1.736   0.846 -0.3753 -0.5384  0.7155
  939MPD2    C113782   4.560   1.871   0.826  0.4526 -0.7810 -0.2131
  939MPD2    C213783   4.487   1.897   0.711  0.1870  0.1182  0.4315
  939MPD2    C313784   4.468   1.807   0.610  0.1794  0.1126  0.8666
  939MPD2    C413785   4.526   1.683   0.620 -0.2386 -0.0156  0.0548
  939MPD2    C513786   4.584   1.649   0.740 -0.8629  0.7049  0.5425
  939MPD2     H13787   4.451   1.996   0.684  0.6985 -0.0844 -1.0135
  939MPD2    H113788   4.527   1.606   0.544  0.7013  0.6222 -0.5739
  939MPD2    H213789   4.661   1.719   0.935  1.9412 -2.3019 -1.1245
  939MPD2    H313790   4.630   1.552   0.744 -0.0930  1.1294  1.8898
  939MPD2     N13791   4.395   1.856   0.495  0.2056 -0.2113  0.6071
  939MPD2    H513792   4.327   1.931   0.497 -1.2423 -1.4617 -1.2347
  939MPD2    N113793   4.588   1.957   0.935 -0.2123  0.3195  0.3914
  939MPD2    H713794   4.642   1.921   1.013  0.5628  0.8526  0.0988
  940MPD2     C13795   3.227   2.683  13.268 -0.4320 -0.5498 -0.2278
  940MPD2    C113796   3.284   2.595  13.174  0.5197  0.7266  0.1097
  940MPD2    C213797   3.229   2.588  13.049 -0.3831  0.2322  0.2157
  940MPD2    C313798   3.114   2.654  13.026 -0.0836 -0.6358  0.3151
  940MPD2    C413799   3.047   2.728  13.121  0.7414 -0.4079  0.1422
  940MPD2    C513800   3.114   2.745  13.244 -0.2338  0.0185 -0.1582
  940MPD2     H13801   3.261   2.525  12.968  1.3489  2.1258 -0.5770
  940MPD2    H113802   2.960   2.788  13.098 -1.9358 -3.9889  0.9620
  940MPD2    H213803   3.271   2.698  13.366 -0.2691 -1.7678 -0.1126
  940MPD2    H313804   3.065   2.802  13.321 -1.4302 -0.2952 -0.6809
  940MPD2     N13805   3.043   2.643  12.903 -0.4647 -0.3245 -0.0265
  940MPD2    H513806   2.970   2.712  12.888 -1.2371 -1.2229 -0.3965
  940MPD2    N113807   3.399   2.512  13.208 -0.3530  0.4288  0.4533
  940MPD2    H713808   3.428   2.443  13.139 -0.3286 -0.1384  1.0371
  941MPD2     C13809   2.654   1.978   9.752 -0.0178 -0.5754 -0.0208
  941MPD2    C113810   2.697   1.861   9.714  0.2343 -0.1435 -0.2501
  941MPD2    C213811   2.636   1.750   9.763 -0.2388  0.3824  0.2456
  941MPD2    C313812   2.528   1.757   9.835 -0.0058 -0.5043 -0.2923
  941MPD2    C413813   2.483   1.877   9.883 -0.2637 -0.4020  0.3848
  941MPD2    C513814   2.548   1.992   9.841  0.9316 -0.0399 -0.0655
  941MPD2     H13815   2.684   1.656   9.739  0.4831  1.2801 -1.8451
  941MPD2    H113816   2.397   1.889   9.948  0.9651 -0.4250  1.9880
  941MPD2    H213817   2.691   2.071   9.711  1.0791 -0.0716  2.1136
  941MPD2    H313818   2.512   2.090   9.869  0.1851 -0.5005  0.6050
  941MPD2     N13819   2.444   1.652   9.875 -0.6968  0.1853  0.2690
  941MPD2    H513820   2.364   1.665   9.937 -0.4116  0.5263  0.5617
  941MPD2    N113821   2.801   1.853   9.614 -0.0213  0.5859  0.5041
  941MPD2    H713822   2.845   1.762   9.608 -0.7241  0.3527 -1.3602
  942MPD2     C13823   3.325   4.218   8.550 -0.1896 -0.2245 -0.0464
  942MPD2    C113824   3.398   4.192   8.435 -0.5133 -0.2184 -0.2267
  942MPD2    C213825   3.487   4.091   8.440 -0.4636 -0.0714  0.2769
  942MPD2    C313826   3.513   4.026   8.560 -0.3790 -0.1066 -0.2734
  942MPD2    C413827   3.452   4.072   8.678  0.1143 -0.2553 -0.4449
  942MPD2    C513828   3.359   4.170   8.677 -0.0747  0.2008  0.0989
  942MPD2     H13829   3.540   4.068   8.349 -1.2346  1.6066 -0.5905
  942MPD2    H113830   3.486   4.041   8.776 -0.0018 -1.3481 -0.7547
  942MPD2    H213831   3.246   4.293   8.545  0.1677  0.3043  2.3759
  942MPD2    H313832   3.307   4.192   8.769 -0.4181 -1.2014  0.2415
  942MPD2     N13833   3.599   3.919   8.578 -0.3045  0.2781 -0.0429
  942MPD2    H513834   3.609   3.891   8.675 -0.4737  1.2542  0.2596
  942MPD2    N113835   3.363   4.245   8.307  0.3489 -0.1390 -0.3032
  942MPD2    H713836   3.406   4.207   8.223  2.3622 -0.5882  0.9179
  943MPD2     C13837   1.654   2.621   9.730 -0.0269  0.0595 -0.3658
  943MPD2    C113838   1.578   2.508   9.741 -0.0086  0.9978 -0.1894
  943MPD2    C213839   1.499   2.500   9.856  0.3496  0.4341  0.2745
  943MPD2    C313840   1.503   2.585   9.954  0.4731  0.0483 -0.3435
  943MPD2    C413841   1.593   2.692   9.942 -0.1811 -0.4974 -0.0372
  943MPD2    C513842   1.669   2.711   9.830 -0.1554 -0.3979  0.5395
  943MPD2     H13843   1.429   2.418   9.863 -1.1799  1.6938 -0.4449
  943MPD2    H113844   1.605   2.756  10.028 -2.0867  1.1455 -0.9962
  943MPD2    H213845   1.702   2.647   9.636 -0.3897  2.5683  0.1426
  943MPD2    H313846   1.736   2.796   9.822 -1.4460  0.5679 -0.0745
  943MPD2     N13847   1.421   2.577  10.073 -0.3539  0.2856  0.1178
  943MPD2    H513848   1.442   2.644  10.146  1.5983  0.8064 -0.9398
  943MPD2    N113849   1.593   2.404   9.643  0.0696 -0.3094 -0.9899
  943MPD2    H713850   1.621   2.425   9.548  0.7586  3.1368 -0.0231
  944MPD2     C13851   0.754   1.239  10.806  0.3992  0.0422 -0.2182
  944MPD2    C113852   0.841   1.339  10.846 -0.0508 -0.4945  0.0070
  944MPD2    C213853   0.818   1.418  10.958 -0.4690 -0.4163  0.5131
  944MPD2    C313854   0.703   1.391  11.031 -0.2570  0.3279  0.4542
  944MPD2    C413855   0.610   1.291  10.992 -0.1132  0.6286 -0.5866
  944MPD2    C513856   0.637   1.223  10.874 -0.4059  0.0745 -0.5569
  944MPD2     H13857   0.891   1.494  10.985 -0.3167 -1.1903  2.3006
  944MPD2    H113858   0.516   1.286  11.044  0.3083 -0.3450  0.0672
  944MPD2    H213859   0.767   1.180  10.716  3.2652 -0.8787  0.8044
  944MPD2    H313860   0.558   1.158  10.836  0.1746 -0.3961 -0.9563
  944MPD2     N13861   0.698   1.468  11.149  0.0448 -0.0058  0.0642
  944MPD2    H513862   0.777   1.532  11.158  0.2224 -0.5257  2.2565
  944MPD2    N113863   0.958   1.351  10.772  0.9415 -0.2404 -0.8949
  944MPD2    H713864   0.966   1.281  10.699  1.3716 -1.7835  0.6334
    1TMC1    C113865   4.395   1.566  14.602  0.3761 -0.1476  0.4199
    1TMC1    C213866   4.369   1.542  14.470 -0.4679  0.8925 -0.4110
    1TMC1    C313867   4.371   1.408  14.431  0.1219 -0.4720 -0.1006
    1TMC1    C413868   4.440   1.469  14.689  0.7873 -0.7679 -0.1692
    1TMC1    C513869   4.447   1.338  14.643 -0.0717  0.4873  0.2647
    1TMC1    C613870   4.411   1.310  14.510 -0.3919 -0.3226 -0.5183
    1TMC1     C13871   4.367   1.698  14.657  0.2973 -0.2789  0.3219
    1TMC1     O13872   4.449   1.735  14.740 -0.5009  0.0143  0.6112
    1TMC1     H13873   4.354   1.616  14.392 -0.7339  1.4615  0.1843
    1TMC1    H113874   4.446   1.483  14.796 -0.7856  0.5267 -0.2392
    1TMC1    H213875   4.422   1.207  14.477 -1.1266  0.0049 -1.7730
    1TMC1    C713876   4.496   1.224  14.718  0.0076 -0.6155 -0.1790
    1TMC1    C813877   4.333   1.385  14.290 -0.2599  1.2963 -0.0189
    1TMC1    O113878   4.502   1.109  14.681  0.3554 -0.3595  0.1752
    1TMC1    O213879   4.236   1.451  14.254 -0.2444  0.0349 -0.4423
    1TMC1    O313880   4.545   1.264  14.838  0.0093  0.6008  0.3522
    1TMC1    H313881   4.564   1.360  14.842  2.1212  0.2302 -0.5579
    1TMC1    O513882   4.357   1.263  14.252  0.3999  0.0533  0.0129
    1TMC1    H513883   4.442   1.223  14.281  0.8219  0.5251 -0.5677
    2MPD2     C13884   4.104   2.135  14.751  0.4028 -0.7443 -0.2277
    2MPD2    C113885   4.083   2.087  14.625  0.3946 -0.0707  0.7151
    2MPD2    C213886   4.131   1.964  14.587 -0.5324 -0.2670 -0.0556
    2MPD2    C313887   4.207   1.888  14.670  0.8374  1.0059 -0.0300
    2MPD2    C413888   4.231   1.926  14.795  0.8018 -0.3897 -0.5503
    2MPD2    C513889   4.188   2.055  14.830 -0.0851 -0.5039  0.4822
    2MPD2     H13890   4.120   1.936  14.483  1.1212  1.5563 -0.7447
    2MPD2    H113891   4.288   1.866  14.866 -1.7274 -0.7277  1.1907
    2MPD2    H213892   4.080   2.232  14.792  0.1362 -0.5102 -0.9344
    2MPD2    H313893   4.224   2.083  14.928 -2.3785 -0.6379  1.3778
    2MPD2     N13894   4.260   1.768  14.614 -0.2520 -0.3782  0.7178
    2MPD2    H513895   4.217   1.739  14.526  0.0038 -0.7474  0.7181
    2MPD2    N113896   4.019   2.177  14.540 -0.1507  0.4755 -0.2033
    2MPD2    H713897   3.973   2.259  14.580  0.7562  0.6591  0.4736
    3TMC2    C113898   3.953   2.279  14.341 -0.4534 -0.1726  0.3733
    3TMC2    C213899   3.837   2.322  14.404 -0.5562  0.4267 -0.5484
    3TMC2    C313900   3.781   2.439  14.357 -0.3981  0.1341  0.1587
    3TMC2    C413901   3.999   2.330  14.228  0.0099  0.6525 -0.1570
    3TMC2    C513902   3.934   2.444  14.182  0.0629 -0.0592 -0.6777
    3TMC2    C613903   3.828   2.506  14.244 -0.6810  0.2396  0.0368
    3TMC2     C13904   4.017   2.167  14.398  0.3217  0.3517  0.2876
    3TMC2     O13905   4.085   2.096  14.326  0.1545 -0.4516 -0.3178
    3TMC2     H13906   3.800   2.250  14.476  1.4034 -0.2948 -0.2658
    3TMC2    H113907   4.085   2.286  14.179  0.2739  0.7578  0.2213
    3TMC2    H213908   3.766   2.590  14.212  0.6641  1.3764  0.4481
    3TMC2    C713909   3.969   2.485  14.043  0.2722  1.1760  1.2869
    3TMC2    C813910   3.639   2.453  14.388 -0.0684  0.0245 -0.1154
    3TMC2    O113911   4.058   2.418  13.988  0.2399  0.0900 -0.4213
    3TMC2    O213912   3.551   2.485  14.310  0.3959  0.2888 -0.5983
    3TMC2    O513913   3.628   2.406  14.517  0.2962 -0.2060  0.1927
    3TMC2    H513914   3.715   2.416  14.561 -2.1033 -0.1747  4.9533
    4TMC2    C113915   3.378   3.203  13.689  0.7238 -0.4550 -0.8905
    4TMC2    C213916   3.395   3.249  13.553  0.2995 -0.7960  0.6851
    4TMC2    C313917   3.512   3.206  13.498 -0.2483 -0.1958 -0.2987
    4TMC2    C413918   3.469   3.124  13.758  0.2148 -0.2149 -0.4595
    4TMC2    C513919   3.577   3.078  13.688  0.1130 -0.2680  0.0882
    4TMC2    C613920   3.597   3.122  13.556 -0.1956 -0.9178  0.9223
    4TMC2     C13921   3.248   3.202  13.753  0.5163  0.3046  0.1494
    4TMC2     O13922   3.247   3.175  13.871  0.4048 -0.3484  0.0179
    4TMC2     H13923   3.327   3.319  13.507  1.7007 -0.1404 -0.3892
    4TMC2    H113924   3.452   3.084  13.857 -1.4672 -1.0326 -1.0779
    4TMC2    H213925   3.692   3.104  13.506  0.0305  1.4532  0.5101
    4TMC2    C713926   3.646   2.969  13.742 -0.2806  0.3599 -0.4325
    4TMC2    C813927   3.515   3.224  13.357 -0.6223 -0.4186 -0.3325
    4TMC2    O113928   3.638   2.956  13.865 -0.1018 -0.7762  0.0210
    4TMC2    O213929   3.458   3.319  13.310 -0.5373 -0.0630  1.0412
    4TMC2    O513930   3.494   3.102  13.299  0.1403  0.2769 -0.0255
    4TMC2    H513931   3.498   3.024  13.358 -2.4292 -0.7877 -1.2690
    5MPD2     C13932   2.757   3.327  13.730 -0.5106 -0.3342 -0.0817
    5MPD2    C113933   2.785   3.244  13.625  0.2421 -0.2385  0.3641
    5MPD2    C213934   2.914   3.210  13.601  0.2718 -0.5549  0.5044
    5MPD2    C313935   3.018   3.247  13.685  0.4517 -0.5569  0.1704
    5MPD2    C413936   2.989   3.332  13.793 -0.4983 -0.4366  0.0699
    5MPD2    C513937   2.857   3.367  13.811  0.2652  0.2492 -0.7819
    5MPD2     H13938   2.933   3.146  13.515  0.3715 -2.7414  2.1334
    5MPD2    H113939   3.060   3.386  13.854 -0.8133 -1.1969  1.0999
    5MPD2    H213940   2.656   3.359  13.747 -1.2731 -2.4570 -0.5525
    5MPD2    H313941   2.847   3.424  13.903 -1.7250  0.5546 -1.1964
    5MPD2     N13942   3.148   3.210  13.660  0.4635  0.1780 -0.2278
    5MPD2    H513943   3.172   3.174  13.568  2.0206 -1.3085  0.7557
    5MPD2    N113944   2.671   3.205  13.535 -0.6309 -0.1065 -0.1351
    5MPD2    H713945   2.578   3.225  13.571 -0.5522  0.4620 -0.2421
    6MPD1     C13946   1.376   2.198  13.218 -0.0112 -0.1659 -0.4839
    6MPD1    C113947   1.384   2.275  13.103  0.5173 -1.1842  0.2137
    6MPD1    C213948   1.497   2.260  13.028 -0.2080 -0.0091 -0.4234
    6MPD1    C313949   1.612   2.198  13.078 -0.2794  1.0888 -0.1495
    6MPD1    C413950   1.592   2.116  13.192  0.6652  0.3921 -0.0634
    6MPD1    C513951   1.473   2.114  13.259 -0.3250 -0.5011 -0.6690
    6MPD1     H13952   1.501   2.322  12.939 -0.7013  0.0496 -0.4066
    6MPD1    H113953   1.658   2.040  13.232  1.4506 -0.3192 -2.6765
    6MPD1    H213954   1.280   2.192  13.268 -0.1001  0.1979 -0.6046
    6MPD1    H313955   1.458   2.047  13.344 -0.4230  0.8828  0.4021
    6MPD1     N13956   1.744   2.214  13.022  0.0899 -0.1307 -0.8946
    6MPD1    H513957   1.812   2.144  13.050  2.9767  3.0450  0.0554
    6MPD1    N113958   1.273   2.337  13.050 -0.0116  0.0898  0.1065
    6MPD1    H613959   1.197   2.365  13.112  0.4620  0.6060  0.4526
    6MPD1    H713960   1.288   2.392  12.966  1.3343 -1.5901 -0.7635
    7MPD2     C13961   2.049   2.504  13.467  0.3537 -0.1574  0.8338
    7MPD2    C113962   2.104   2.532  13.348 -0.2462 -0.0154  0.2526
    7MPD2    C213963   2.161   2.658  13.333 -0.6385  0.4205 -0.0237
    7MPD2    C313964   2.164   2.753  13.439  0.0202 -0.7911 -1.0791
    7MPD2    C413965   2.104   2.720  13.560  0.4682 -0.7019 -0.2607
    7MPD2    C513966   2.041   2.596  13.566 -0.3326  0.1592 -0.3226
    7MPD2     H13967   2.214   2.693  13.245 -0.6066 -0.2935 -0.2877
    7MPD2    H113968   2.110   2.788  13.644  0.4162 -1.2725  0.2054
    7MPD2    H213969   1.996   2.411  13.487  0.7124 -0.5517 -0.0258
    7MPD2    H313970   1.984   2.580  13.657 -0.3930  0.5553 -0.2909
    7MPD2     N13971   2.232   2.873  13.408  0.4925 -0.1001  0.7598
    7MPD2    H513972   2.273   2.878  13.315  0.3409  1.9109  0.7940
    7MPD2    N113973   2.096   2.435  13.248  0.2132  0.1847 -0.5526
    7MPD2    H713974   2.057   2.348  13.282 -1.5346  1.0466 -0.3533
    8TMC3    C113975   2.311   3.093  13.404  0.3779 -0.4701 -0.2668
    8TMC3    C213976   2.436   3.109  13.463 -0.5335 -0.7349  0.0939
    8TMC3    C313977   2.545   3.090  13.379  0.1297 -0.8800 -0.8501
    8TMC3    C413978   2.292   3.079  13.265 -0.5431  0.1919  0.3159
    8TMC3    C513979   2.402   3.076  13.182 -0.3419  0.1146 -0.1456
    8TMC3    C613980   2.528   3.079  13.244  0.6204  0.6845  0.2477
    8TMC3     C13981   2.242   2.991  13.477 -0.3411 -0.5748 -0.6321
    8TMC3     O13982   2.232   3.006  13.601 -0.2280  0.5022  0.2557
    8TMC3     H13983   2.442   3.099  13.571  1.0777 -0.1130  0.0483
    8TMC3    H113984   2.195   3.053  13.222 -0.1468  0.5241 -0.7842
    8TMC3    H213985   2.610   3.045  13.181  0.2168  2.2155 -1.1052
    8TMC3    C713986   2.380   2.970  13.092  0.0816 -0.7514 -0.1134
    8TMC3    C813987   2.678   3.137  13.418  0.6112 -0.3639 -0.6557
    8TMC3    O113988   2.355   2.868  13.150  0.5898 -0.4068 -0.4631
    8TMC3    O213989   2.777   3.108  13.351  0.3187  0.0215 -0.1427
    9TMC3    C113990   1.927   2.310  12.923 -0.2545 -0.6217 -0.4218
    9TMC3    C213991   1.985   2.343  12.803  0.3871  0.2766  0.8470
    9TMC3    C313992   2.117   2.365  12.796 -0.3862 -0.0730  0.3109
    9TMC3    C413993   2.006   2.303  13.036 -0.3085 -0.3717  0.2106
    9TMC3    C513994   2.132   2.332  13.034  0.0789 -0.3718  0.1743
    9TMC3    C613995   2.198   2.352  12.911  0.0347 -0.5872 -1.1769
    9TMC3     C13996   1.780   2.309  12.933  1.1665 -0.5414 -0.0502
    9TMC3     O13997   1.716   2.391  12.879  0.1424  0.4441 -0.2820
    9TMC3     H13998   1.927   2.348  12.711  2.7418 -0.7803 -0.7200
    9TMC3    H113999   1.968   2.265  13.130  0.5787  0.5532  0.9462
    9TMC3    H214000   2.306   2.363  12.910 -0.0881  1.0665  1.2522
    9TMC3    C714001   2.160   2.438  13.124  0.7778 -0.9164  0.4523
    9TMC3    C814002   2.147   2.492  12.725  0.1589 -0.8925 -0.1598
    9TMC3    O114003   2.239   2.518  13.075  0.7416 -0.4540  0.0470
    9TMC3    O214004   2.097   2.517  12.618 -0.1270  0.1091 -0.0666
   10MPD2     C14005   2.289   2.990  12.733  0.3137  0.1448 -0.6319
   10MPD2    C114006   2.298   2.931  12.856  0.4846 -0.7901 -0.4657
   10MPD2    C214007   2.283   2.801  12.878 -0.1311  0.0400  0.1124
   10MPD2    C314008   2.232   2.720  12.775 -0.4239 -0.3480  0.2956
   10MPD2    C414009   2.224   2.773  12.650 -0.6042  0.5160 -0.0482
   10MPD2    C514010   2.234   2.909  12.634 -0.4569 -0.5828  0.2536
   10MPD2     H14011   2.302   2.759  12.976  1.3961 -0.7011 -0.4905
   10MPD2    H114012   2.182   2.719  12.566 -1.4759 -0.3327  0.9371
   10MPD2    H214013   2.314   3.095  12.723 -0.8646  0.6448  1.5955
   10MPD2    H314014   2.218   2.946  12.533 -1.7835  0.1905  0.7581
   10MPD2     N14015   2.218   2.579  12.799  0.0594 -0.5898  0.7006
   10MPD2    H514016   2.240   2.555  12.895  1.1466 -0.5078  0.4659
   10MPD2    N114017   2.333   3.018  12.965 -0.3222 -0.8694 -0.5503
   10MPD2    H714018   2.336   3.116  12.941  0.6547 -0.7593 -0.0033
   11MPD2     C14019   3.920   2.538  13.752  0.2787 -0.5986 -0.3091
   11MPD2    C114020   3.885   2.622  13.855 -0.1495 -0.3500 -0.1654
   11MPD2    C214021   3.824   2.743  13.827 -0.5883 -0.5324  0.1917
   11MPD2    C314022   3.787   2.769  13.698  0.7014 -0.3607  0.3349
   11MPD2    C414023   3.825   2.685  13.597 -0.0063 -0.1208 -0.1213
   11MPD2    C514024   3.891   2.575  13.625 -0.0651 -0.2430  0.4516
   11MPD2     H14025   3.809   2.814  13.907  2.9649  0.7199 -0.2377
   11MPD2    H114026   3.783   2.697  13.498  0.4914  1.7479 -0.0931
   11MPD2    H214027   3.962   2.441  13.777  0.8760 -0.5768 -1.2140
   11MPD2    H314028   3.916   2.508  13.543 -1.2941 -0.0723 -0.0576
   11MPD2     N14029   3.722   2.891  13.654 -0.0076 -0.4541  0.4293
   11MPD2    H514030   3.713   2.910  13.555  2.1202  0.2533  0.3789
   11MPD2    N114031   3.897   2.591  13.995  0.3397 -0.2554  1.2757
   11MPD2    H714032   3.845   2.644  14.063  1.5033  1.3762  0.8850
    1MPD1     C14033   1.568   0.569  16.548 -0.4422  0.6902 -0.1450
    1MPD1    C114034   1.494   0.455  16.547  0.1970 -0.0341  0.4594
    1MPD1    C214035   1.553   0.339  16.561  0.2603  0.0813 -0.0575
    1MPD1    C314036   1.686   0.332  16.611 -0.7230  0.8676 -0.8457
    1MPD1    C414037   1.750   0.448  16.631 -0.4108  0.3358  0.0687
    1MPD1    C514038   1.697   0.564  16.595  0.3185 -1.0517  0.8036
    1MPD1     H14039   1.492   0.256  16.528 -1.3191  1.3301 -0.2615
    1MPD1    H114040   1.849   0.462  16.674 -1.7714  3.2474  2.2660
    1MPD1    H214041   1.525   0.666  16.527 -0.1286  1.0614  0.9461
    1MPD1    H314042   1.750   0.656  16.616  1.1993 -1.4337  0.2696
    1MPD1     N14043   1.739   0.209  16.664  0.0581  0.6062  0.5822
    1MPD1    H514044   1.830   0.223  16.707  0.0137 -0.1787  0.9294
    1MPD1    N114045   1.367   0.464  16.491 -0.0779  0.5724  0.4367
    1MPD1    H614046   1.312   0.382  16.516 -1.0022  1.6786  2.0915
    1MPD1    H714047   1.311   0.540  16.530 -1.9679 -1.4610  1.6861
    2MPD1     C14048   2.510   4.326  16.920 -1.0903  0.1003  0.5631
    2MPD1    C114049   2.488   4.408  16.812 -0.2872  0.5050 -0.8006
    2MPD1    C214050   2.360   4.462  16.798  0.3835  0.3326 -0.3939
    2MPD1    C314051   2.266   4.456  16.898 -0.4668  0.0417  0.4510
    2MPD1    C414052   2.298   4.396  17.014 -0.9993 -0.5023  0.1151
    2MPD1    C514053   2.421   4.332  17.027 -0.0917 -0.3406  0.8073
    2MPD1     H14054   2.333   4.521  16.712  4.2287  0.8916 -1.1805
    2MPD1    H114055   2.244   4.395  17.108 -1.0396 -1.3791  0.0892
    2MPD1    H214056   2.608   4.280  16.925 -1.8664 -1.5777  0.0889
    2MPD1    H314057   2.443   4.293  17.125  1.3164  2.5591  1.6394
    2MPD1     N14058   2.139   4.524  16.895  0.3744  0.5698  0.0231
    2MPD1    H514059   2.092   4.534  16.984 -1.0380 -2.2201 -0.4292
    2MPD1    N114060   2.579   4.399  16.704 -0.0566  0.2374  0.0770
    2MPD1    H614061   2.573   4.484  16.648 -1.2210 -1.4521 -2.3249
    2MPD1    H714062   2.669   4.395  16.751 -0.0977 -0.0856  0.1266
    3TMC3    C114063   1.949   4.645  16.833  0.5380  0.4746 -0.1864
    3TMC3    C214064   1.874   4.559  16.909  0.0056  0.2224  0.9186
    3TMC3    C314065   1.739   4.577  16.920  0.1720  0.5715  0.3304
    3TMC3    C414066   1.895   0.003  16.756  0.4476  0.6424  0.2454
    3TMC3    C514067   1.752   0.003  16.761  0.3121 -0.0446 -0.3333
    3TMC3    C614068   1.673   4.676  16.852 -0.8313 -0.7165 -0.1645
    3TMC3     C14069   2.086   4.606  16.798 -0.6671 -0.4006 -0.0910
    3TMC3     O14070   2.136   4.643  16.694  0.1659 -0.2989 -0.5189
    3TMC3     H14071   1.924   4.479  16.963  0.2982  1.8848  3.1067
    3TMC3    H114072   1.945   0.055  16.676 -1.3855 -0.9146 -1.9134
    3TMC3    H214073   1.566   4.688  16.871 -0.6634  0.6453 -0.0739
    3TMC3    C714074   1.680   0.086  16.673  0.2440  0.0332 -0.0732
    3TMC3    C814075   1.656   4.483  16.994 -0.7695  0.2612  0.2311
    3TMC3    O114076   1.560   0.059  16.665 -0.0907 -0.2213  0.0203
    3TMC3    O214077   1.532   4.483  16.989 -0.0383 -0.1452 -0.5789
    4MPD1     C14078   1.607   4.057  17.287  0.2107  0.1886  0.0173
    4MPD1    C114079   1.723   4.123  17.319 -0.1290 -0.1106 -0.7217
    4MPD1    C214080   1.759   4.230  17.238  0.0008  0.0825 -0.1573
    4MPD1    C314081   1.672   4.292  17.157 -0.2989 -0.4973  0.2175
    4MPD1    C414082   1.553   4.232  17.135  0.1080 -0.1400 -0.4127
    4MPD1    C514083   1.518   4.116  17.204  0.1661 -0.2683 -0.3663
    4MPD1     H14084   1.845   4.292  17.258  0.1296 -0.0364 -0.3443
    4MPD1    H114085   1.488   4.278  17.061  1.6945 -0.4363 -2.0083
    4MPD1    H214086   1.563   3.970  17.333 -0.5648  0.1483 -0.8148
    4MPD1    H314087   1.424   4.068  17.180 -0.5008  0.3154  1.0916
    4MPD1     N14088   1.726   4.408  17.089  0.1397 -0.1008  0.5388
    4MPD1    H514089   1.826   4.425  17.097  0.0045  0.6042  0.6741
    4MPD1    N114090   1.805   4.068  17.421  0.1424  0.1245  0.1885
    4MPD1    H614091   1.857   4.141  17.471 -0.2517 -1.1967  2.5227
    4MPD1    H714092   1.750   4.019  17.491  0.0133 -0.5486 -0.3798
    1TCq1    O114093   3.166   3.744  11.203 -0.4534  0.2936  0.4593
    1TCq1    C114094   3.044   3.742  11.263 -0.1405  1.1014 -0.6970
    1TCq1    O214095   3.026   3.775  11.381 -0.0678 -0.0257  0.6214
    1TCq1    C214096   2.930   3.723  11.172  1.1543 -0.4652  0.1769
    1TCq1    C314097   2.935   3.651  11.054  0.0371  0.6486  0.2081
    1TCq1    C414098   2.820   3.647  10.973 -0.6388 -0.0815  0.5879
    1TCq1    C514099   2.703   3.697  11.026  0.3576 -0.3417  0.1853
    1TCq1    C614100   2.708   3.779  11.137 -0.4862 -0.0835  0.2686
    1TCq1    C714101   2.821   3.793  11.210 -0.3596  0.3575 -0.7992
    1TCq1    C814102   2.609   3.872  11.155 -0.7975  0.3979 -0.4988
    1TCq1    O414103   2.598   3.927  11.264  0.4880 -0.6522 -0.0778
    1TCq1    C914104   2.815   3.534  10.885  0.3695 -0.1104  0.5045
    1TCq1    O514105   2.701   3.481  10.858  0.5287 -1.0269 -0.0656
    1TCq1    O614106   2.926   3.500  10.840  0.8395 -0.1445 -0.0966
    1TCq1    H114107   3.161   3.734  11.106 -1.3012 -1.2075  0.6571
    1TCq1    H214108   3.022   3.591  11.030 -0.7695  0.2841 -1.7855
    1TCq1    H314109   2.614   3.688  10.964 -0.5160 -1.4136  1.6153
    1TCq1    H414110   2.833   3.855  11.298  1.1016  0.6143 -1.1924
    2MPD1     C14111   2.247   4.205  10.999  0.6524  0.3258 -0.1455
    2MPD1    C114112   2.281   4.126  10.889  0.5041  0.1426  0.5094
    2MPD1    C214113   2.363   4.012  10.919  0.2864 -0.8200 -0.1094
    2MPD1    C314114   2.436   4.000  11.038  0.2287 -0.5072  0.1964
    2MPD1    C414115   2.410   4.083  11.148 -0.3471 -0.3372 -0.1269
    2MPD1    C514116   2.312   4.185  11.121  0.2009  0.0949  0.4715
    2MPD1     H14117   2.384   3.942  10.839 -0.7783 -1.5464  0.2288
    2MPD1    H114118   2.472   4.096  11.236 -1.3932  1.6255  0.3183
    2MPD1    H214119   2.188   4.295  10.994  0.9769  0.5372 -0.1674
    2MPD1    H314120   2.284   4.257  11.197 -0.2001  0.0187  0.3936
    2MPD1     N14121   2.541   3.908  11.040  0.3357  0.2331 -0.3308
    2MPD1    H514122   2.564   3.855  10.957 -0.0043  0.4222 -0.5438
    2MPD1    N114123   2.206   4.139  10.772  0.1796  0.0506 -0.1976
    2MPD1    H614124   2.184   4.233  10.741 -1.8290 -0.3256  0.1345
    2MPD1    H714125   2.256   4.091  10.697  1.1093 -1.5412  1.4330
    1TMC1    C114126   1.096   3.358   1.278  0.2198 -0.7145 -0.1043
    1TMC1    C214127   1.158   3.241   1.323  1.0996 -0.5116 -0.3833
    1TMC1    C314128   1.266   3.190   1.263  0.2201 -0.3123  0.6045
    1TMC1    C414129   1.136   3.409   1.155 -1.0249  0.0515  0.2297
    1TMC1    C514130   1.241   3.344   1.091 -1.0554  0.4085 -0.0257
    1TMC1    C614131   1.303   3.244   1.148  0.1051 -0.1978  0.2992
    1TMC1     C14132   0.988   3.406   1.362  0.1480 -0.0921  0.5021
    1TMC1     O14133   0.945   3.342   1.454  0.3552 -0.2334  0.5263
    1TMC1     H14134   1.119   3.197   1.414  0.0466 -0.2187 -0.6922
    1TMC1    H114135   1.067   3.478   1.107 -1.0418 -0.4418 -0.4489
    1TMC1    H214136   1.394   3.212   1.098  0.9193  1.8122  0.4786
    1TMC1    C714137   1.269   3.385   0.959 -0.4841 -0.5710  0.7373
    1TMC1    C814138   1.347   3.087   1.324  0.3822 -0.9968 -0.0847
    1TMC1    O114139   1.223   3.482   0.902 -0.1565  0.0047  0.0928
    1TMC1    O214140   1.429   3.025   1.255  0.0998 -0.4761  0.1110
    1TMC1    O314141   1.297   3.278   0.882  0.0687 -0.1308 -0.5002
    1TMC1    H314142   1.288   3.195   0.933 -0.9589 -0.1362 -0.6936
    1TMC1    O514143   1.354   3.107   1.459 -0.2792  0.0378 -0.0242
    1TMC1    H514144   1.293   3.176   1.494 -1.5368 -1.2678  0.3806
    2MPD1     C14145   0.646   3.768   1.471  0.3429 -0.3512 -0.1739
    2MPD1    C114146   0.741   3.822   1.385  0.2398 -0.4181 -0.8710
    2MPD1    C214147   0.822   3.739   1.324  0.5252 -0.0865  0.0890
    2MPD1    C314148   0.843   3.609   1.374  0.1007 -0.1163 -0.2727
    2MPD1    C414149   0.749   3.552   1.457  0.5748 -0.0812 -0.3780
    2MPD1    C514150   0.646   3.634   1.495  0.4337  0.3006 -0.0947
    2MPD1     H14151   0.893   3.782   1.254 -1.1840 -0.0518 -1.6087
    2MPD1    H114152   0.760   3.446   1.475  0.5498 -0.2643 -1.4182
    2MPD1    H214153   0.579   3.825   1.535 -1.5425 -0.7432 -1.7960
    2MPD1    H314154   0.579   3.598   1.572 -0.5034  2.0833 -0.0729
    2MPD1     N14155   0.953   3.536   1.322  0.4077 -0.6430  0.1650
    2MPD1    H514156   1.004   3.582   1.248 -1.0478 -0.0515 -0.4611
    2MPD1    N114157   0.727   3.956   1.348 -0.7126  0.0662  0.5930
    2MPD1    H614158   0.716   4.019   1.428  1.4208  3.4291 -1.7841
    2MPD1    H714159   0.820   3.990   1.326 -0.1357 -1.8718  0.0635
    1MPD1     C14160   4.252   2.842  11.735  0.4538 -0.0095  0.3632
    1MPD1    C114161   4.341   2.883  11.639 -0.1425 -0.6431  0.3477
    1MPD1    C214162   4.363   3.022  11.630 -0.3712  0.0893  0.3623
    1MPD1    C314163   4.301   3.109  11.714 -0.5948 -0.4959  0.1860
    1MPD1    C414164   4.211   3.063  11.808 -0.2080  0.8246  0.4203
    1MPD1    C514165   4.177   2.931  11.811 -0.3158  0.1128  0.2167
    1MPD1     H14166   4.429   3.064  11.554  0.7353 -3.2639 -0.5132
    1MPD1    H114167   4.159   3.128  11.878 -3.2821 -1.6854  0.4646
    1MPD1    H214168   4.241   2.737  11.761  0.3359  0.5440  2.5203
    1MPD1    H314169   4.107   2.887  11.882 -1.0925  0.3587 -0.3946
    1MPD1     N14170   4.332   3.239  11.680 -0.0338  0.3398  0.1397
    1MPD1    H514171   4.397   3.255  11.603  0.1192  2.0030  0.6032
    1MPD1    N114172   4.399   2.802  11.545 -0.1366  0.5718 -0.1281
    1MPD1    H614173   4.421   2.708  11.578 -0.4151  0.0640 -1.3725
    1MPD1    H714174   4.488   2.840  11.513  0.1208 -0.1309 -0.2548
    2MPD1     C14175   3.663   3.976  10.645  0.5995  0.3856  0.3039
    2MPD1    C114176   3.692   3.972  10.509 -1.0748 -0.3627  0.6330
    2MPD1    C214177   3.801   4.042  10.461  0.0648  0.0370 -0.2869
    2MPD1    C314178   3.894   4.106  10.543  0.5814 -0.3944 -1.2506
    2MPD1    C414179   3.878   4.097  10.678 -0.5447  0.2986  1.2490
    2MPD1    C514180   3.764   4.030  10.726 -0.2113 -0.0607 -0.0586
    2MPD1     H14181   3.823   4.027  10.356  0.3513  0.3195 -0.2684
    2MPD1    H114182   3.954   4.143  10.740 -2.1996  0.1546  3.3837
    2MPD1    H214183   3.577   3.925  10.686 -1.3329  2.9690 -0.5241
    2MPD1    H314184   3.753   4.023  10.834 -1.5847  0.0732 -0.1924
    2MPD1     N14185   4.008   4.184  10.496 -0.1763 -0.4078 -0.0774
    2MPD1    H514186   4.063   4.226  10.570  3.6413 -0.9861 -2.5558
    2MPD1    N114187   3.625   3.881  10.428 -0.3412 -0.0833  0.4970
    2MPD1    H614188   3.534   3.861  10.470 -0.7628  0.1064 -0.3218
    2MPD1    H714189   3.621   3.906  10.329 -1.5797 -1.4073  0.2214
    3MPD1     C14190   4.655   4.500   9.693 -0.1901 -0.5842 -0.3750
    3MPD1    C114191   4.731   4.506   9.811  0.3474  0.0340 -0.4218
    3MPD1    C214192   4.665   4.512   9.932  0.1470  0.5451 -0.1641
    3MPD1    C314193   4.526   4.490   9.938  0.3159  0.2591  0.0925
    3MPD1    C414194   4.454   4.486   9.823  0.3843  0.1357 -0.2868
    3MPD1    C514195   4.524   4.499   9.706 -0.2732  0.4262 -0.6304
    3MPD1     H14196   4.707   4.530  10.030  0.0211 -1.2856  0.2243
    3MPD1    H114197   4.346   4.483   9.822  0.3801  0.8663 -1.4904
    3MPD1    H214198   4.701   4.511   9.595  1.5934  3.1728  0.8754
    3MPD1    H314199   4.481   4.503   9.607  1.2201 -0.6453 -1.3178
    3MPD1     N14200   4.469   4.468  10.073  0.2776 -0.3524 -0.7438
    3MPD1    H514201   4.537   4.465  10.148  0.3507 -1.6269 -0.8539
    3MPD1    N114202   0.123   4.555   9.806 -0.5898  0.3193 -0.8107
    3MPD1    H614203   0.183   4.517   9.879 -2.5595  1.9149  1.6811
    3MPD1    H714204   0.174   4.544   9.719  0.1669  0.9150 -0.4368
    4MPD2     C14205   4.201   4.095  11.713  0.1289 -0.4665 -1.0699
    4MPD2    C114206   4.327   4.037  11.715 -0.3083 -0.7877 -0.6074
    4MPD2    C214207   4.432   4.108  11.665 -0.3216 -0.5041 -0.0035
    4MPD2    C314208   4.417   4.237  11.615  0.0283  0.0830  0.1679
    4MPD2    C414209   4.295   4.303  11.622 -0.3892  0.1241  1.0384
    4MPD2    C514210   4.192   4.222  11.672 -0.3778  0.8441 -0.8970
    4MPD2     H14211   4.522   4.049  11.647 -0.8341 -0.8143 -1.5607
    4MPD2    H114212   4.272   4.398  11.574  1.4053 -0.1797 -0.4218
    4MPD2    H214213   4.111   4.051  11.753  0.8664 -0.4931  0.5865
    4MPD2    H314214   4.090   4.261  11.670 -0.8536 -0.5157 -2.9766
    4MPD2     N14215   4.522   4.316  11.562 -0.4795  0.6098 -0.3640
    4MPD2    H514216   4.508   4.416  11.552  1.0874  0.9400  0.6893
    4MPD2    N114217   4.350   3.904  11.761 -0.0324  0.2564  0.2753
    4MPD2    H714218   4.446   3.872  11.764 -0.1353 -0.0053  0.8559
    5TMC3    C114219   4.311   3.685  11.832 -0.2196  0.6100 -0.1316
    5TMC3    C214220   4.250   3.571  11.779  0.6116  0.1535  0.2009
    5TMC3    C314221   4.331   3.475  11.706  0.2653  0.0640  0.2146
    5TMC3    C414222   4.445   3.695  11.842  0.3916 -0.5708 -0.2003
    5TMC3    C514223   4.523   3.604  11.773 -0.3466  0.1500 -0.0110
    5TMC3    C614224   4.468   3.499  11.702  0.4581 -0.2622  0.6088
    5TMC3     C14225   4.253   3.813  11.797 -0.3877 -0.1536 -1.1296
    5TMC3     O14226   4.131   3.822  11.781  0.5223  0.1336 -0.1347
    5TMC3     H14227   4.141   3.573  11.776  0.6800 -0.1423 -2.2319
    5TMC3    H114228   4.489   3.774  11.901 -0.3544 -0.2350 -0.0956
    5TMC3    H214229   4.532   3.419  11.667  2.2386  0.3448  2.4909
    5TMC3    C714230   4.609   3.690  11.680 -0.3605 -0.4163 -0.2706
    5TMC3    C814231   4.272   3.343  11.743 -0.5790  0.1904 -0.2780
    5TMC3    O114232   4.604   3.808  11.706  0.0167  0.0852 -0.2335
    5TMC3    O214233   4.179   3.356  11.822 -0.6262  0.1686  0.2191
    6TMC3    C114234   4.171   4.265  10.362  0.2337  1.0173  0.3413
    6TMC3    C214235   4.202   4.313  10.241  0.1477 -0.2717 -0.2337
    6TMC3    C314236   4.311   4.396  10.230 -0.5694  0.0263 -0.5596
    6TMC3    C414237   4.251   4.284  10.469 -0.3557  0.2633 -0.2048
    6TMC3    C514238   4.371   4.349  10.451  0.1945 -0.5466 -0.2264
    6TMC3    C614239   4.401   4.415  10.336  0.1394 -0.5648 -0.1034
    6TMC3     C14240   4.050   4.190  10.366 -0.2259 -0.0524  0.1603
    6TMC3     O14241   3.998   4.144  10.265 -0.4301  0.3372 -0.4506
    6TMC3     H14242   4.148   4.306  10.147  0.2548  1.0244 -0.3866
    6TMC3    H114243   4.229   4.253  10.571  2.2624  0.1917  0.3249
    6TMC3    H214244   4.484   4.485  10.329  1.1560 -2.0175 -2.6125
    6TMC3    C714245   4.452   4.363  10.573  0.1245  0.5802  0.1522
    6TMC3    C814246   4.336   4.466  10.101 -0.5798 -0.1105  0.3683
    6TMC3    O114247   4.387   4.370  10.682  0.4334  0.1026  0.2917
    6TMC3    O214248   4.247   4.481  10.023 -0.8244 -0.0835 -0.1252
    7MPD2     C14249   0.190   3.796  11.278  0.2566 -0.2737  0.8828
    7MPD2    C114250   0.127   3.875  11.374 -0.1584  0.5503 -0.7291
    7MPD2    C214251   0.045   3.819  11.472 -0.2564  1.0211  0.3011
    7MPD2    C314252   0.018   3.683  11.482 -0.1534  0.4148  0.5168
    7MPD2    C414253   0.084   3.601  11.388  0.7068 -0.4538 -0.3434
    7MPD2    C514254   0.175   3.661  11.297 -0.1042 -0.4050 -0.7004
    7MPD2     H14255   0.002   3.889  11.542  0.1997  3.9579 -2.3476
    7MPD2    H114256   0.070   3.494  11.392 -0.2333 -0.3176  0.0454
    7MPD2    H214257   0.255   3.840  11.203  0.6536 -0.3664  1.1790
    7MPD2    H314258   0.221   3.598  11.221 -0.3469  0.6800 -1.7338
    7MPD2     N14259   4.676   3.621  11.580 -0.0772 -0.2449  0.1836
    7MPD2    H514260   4.663   3.520  11.580  1.9470 -0.5039  0.0690
    7MPD2    N114261   0.141   4.016  11.382 -0.2820 -0.6725 -0.0272
    7MPD2    H714262   0.104   4.068  11.461 -0.3422  0.7952 -1.0086
    8TMC3    C114263   0.187   4.234  11.314  0.4223  0.0586  0.6621
    8TMC3    C214264   0.138   4.297  11.203  0.0056 -0.5241 -0.0281
    8TMC3    C314265   0.017   4.367  11.215  0.5001  0.3700  0.1439
    8TMC3    C414266   0.118   4.253  11.434  0.4071 -0.5772 -0.3999
    8TMC3    C514267   0.005   4.330  11.444 -0.1424  0.1430  0.7427
    8TMC3    C614268   4.685   4.381  11.325  0.0633 -0.3977 -0.4635
    8TMC3     C14269   0.208   4.094  11.291  0.0710 -0.0288  0.6044
    8TMC3     O14270   0.266   4.070  11.185  0.1292  0.4245 -0.0577
    8TMC3     H14271   0.175   4.264  11.107 -1.9664 -2.6260 -0.0432
    8TMC3    H114272   0.167   4.226  11.527  0.6003 -1.0635 -0.6420
    8TMC3    H214273   4.584   4.420  11.322  0.7877  1.5163 -0.5609
    8TMC3    C714274   4.654   4.264  11.535 -0.7789 -0.7757 -0.2326
    8TMC3    C814275   4.683   4.401  11.088  0.1108  0.0527 -0.3374
    8TMC3    O114276   4.706   4.156  11.569  0.0971 -0.2585 -0.2483
    8TMC3    O214277   4.570   4.445  11.072  0.8235  0.2485 -0.1024
    9MPD2     C14278   0.160   4.482  10.810 -0.1320 -0.7333  0.0145
    9MPD2    C114279   0.035   4.448  10.868 -0.5436 -0.2051  0.5868
    9MPD2    C214280   4.662   4.414  10.781  0.0059  0.3623 -0.1488
    9MPD2    C314281   4.675   4.426  10.643 -0.8313  0.2485  0.0271
    9MPD2    C414282   0.061   4.457  10.594 -0.3131  0.1081 -0.1765
    9MPD2    C514283   0.173   4.474  10.675  0.1695  0.0769  0.4126
    9MPD2     H14284   4.567   4.376  10.816 -0.2208 -0.2188 -1.3981
    9MPD2    H114285   0.085   4.459  10.488 -3.5124 -0.9242 -0.9339
    9MPD2    H214286   0.247   4.497  10.872  0.4012 -1.2204 -0.6149
    9MPD2    H314287   0.266   4.507  10.631  0.1581 -0.5931 -0.1130
    9MPD2     N14288   4.582   4.392  10.549  0.8399  0.2819  0.3242
    9MPD2    H514289   4.615   4.397  10.453 -1.3713 -0.1400 -0.4544
    9MPD2    N114290   0.048   4.428  11.005  0.3496  0.4307  0.2497
    9MPD2    H714291   0.141   4.435  11.044  1.2303 -0.7654 -1.6153
    1MPD1     C14292   0.191   3.687  17.463  0.1272 -0.1130 -0.3417
    1MPD1    C114293   0.208   3.741  17.337 -0.5903 -0.2135 -0.6530
    1MPD1    C214294   0.150   3.681  17.229 -0.3720 -0.7683 -0.3215
    1MPD1    C314295   0.060   3.572  17.250  0.4270 -0.6223  0.3783
    1MPD1    C414296   0.037   3.530  17.383 -0.4392  0.2594  0.0057
    1MPD1    C514297   0.103   3.581  17.485 -0.0971  0.2025 -0.0966
    1MPD1     H14298   0.161   3.729  17.133  0.8273 -0.1401  0.1327
    1MPD1    H114299   4.699   3.454  17.402  0.7946 -0.7711  0.7252
    1MPD1    H214300   0.246   3.719  17.551 -1.3183 -0.6267  0.7508
    1MPD1    H314301   0.087   3.546  17.586 -0.7394 -1.0572 -0.6335
    1MPD1     N14302   4.724   3.506  17.150 -0.2403  0.5862 -0.4250
    1MPD1    H514303   4.656   3.440  17.185  1.2995 -1.6761 -1.6581
    1MPD1    N114304   0.308   3.836  17.313  0.7190 -0.2634  0.1975
    1MPD1    H614305   0.274   3.897  17.240 -1.2889 -1.8512 -0.1854
    1MPD1    H714306   0.303   3.897  17.394  0.5809  1.0441 -0.8014
    2TMC2    C114307   4.431   3.366  16.914  0.4528 -0.1161 -0.2197
    2TMC2    C214308   4.427   3.403  16.777  0.2530 -0.4102 -0.0372
    2TMC2    C314309   4.536   3.449  16.725  0.3915 -0.3553 -1.0419
    2TMC2    C414310   4.534   3.408  16.988 -0.2630 -0.2718 -0.2329
    2TMC2    C514311   4.630   3.479  16.930 -0.7503 -0.0923  0.2096
    2TMC2    C614312   4.647   3.490  16.796 -0.6412  0.8513  0.3336
    2TMC2     C14313   4.313   3.290  16.975 -0.5217 -0.5599 -0.2555
    2TMC2     O14314   4.332   3.251  17.090 -0.1505  0.0529 -0.0612
    2TMC2     H14315   4.340   3.391  16.713  0.7359  0.7861 -0.9221
    2TMC2    H114316   4.533   3.401  17.096 -0.1256 -0.6667 -0.2558
    2TMC2    H214317   4.734   3.534  16.748 -0.8127 -0.2378 -0.9947
    2TMC2    C714318   0.003   3.530  17.013 -0.0585  0.2961  0.1918
    2TMC2    C814319   4.528   3.465  16.580 -0.4595 -0.4629 -0.6163
    2TMC2    O114320   0.092   3.596  16.951 -0.0288 -0.6166  0.1701
    2TMC2    O214321   4.429   3.484  16.513  0.3044  0.0751 -0.2321
    2TMC2    O514322   4.652   3.464  16.537  0.2505 -0.0026 -0.0789
    2TMC2    H514323   4.722   3.452  16.605 -0.4615 -0.9850  0.4883
    3MPD1     C14324   3.925   2.959  16.910 -0.5939 -0.4178  1.0324
    3MPD1    C114325   3.979   2.996  16.789  0.3162 -0.9859  0.0693
    3MPD1    C214326   4.070   3.102  16.784  0.4451 -0.2077 -0.1180
    3MPD1    C314327   4.121   3.154  16.902 -0.9635 -0.7701  0.1724
    3MPD1    C414328   4.082   3.103  17.024 -0.4830 -0.3395 -0.5166
    3MPD1    C514329   3.977   3.008  17.023 -0.1820  0.0958 -0.4980
    3MPD1     H14330   4.095   3.149  16.689 -0.0309  0.1476 -0.0675
    3MPD1    H114331   4.130   3.125  17.119  2.2806 -1.4170 -1.6637
    3MPD1    H214332   3.850   2.881  16.907 -1.2099  0.1697  0.8849
    3MPD1    H314333   3.938   2.969  17.116  0.5456  2.5887  0.8353
    3MPD1     N14334   4.228   3.247  16.879 -0.2164  0.2929  0.2910
    3MPD1    H514335   4.243   3.288  16.788 -1.4156 -0.7870 -0.3938
    3MPD1    N114336   3.924   2.935  16.672 -0.4531 -0.0844  0.8209
    3MPD1    H614337   3.905   2.836  16.683 -0.1742 -0.0819  1.2967
    3MPD1    H714338   3.991   2.943  16.596 -1.7921 -1.4073 -0.5001
    1TMC1    C114339   2.230   1.383  13.057 -0.7611 -0.0786 -0.0967
    1TMC1    C214340   2.183   1.286  12.971  0.0248  0.9681 -0.5759
    1TMC1    C314341   2.052   1.248  12.996 -0.2771  0.0805  0.3615
    1TMC1    C414342   2.158   1.427  13.167 -0.1244  0.1432  0.7274
    1TMC1    C514343   2.030   1.378  13.189 -0.0374 -0.2149 -0.6410
    1TMC1    C614344   1.979   1.289  13.102 -0.0582 -0.3876 -0.5325
    1TMC1     C14345   2.339   1.464  13.017  0.8762 -0.3178  0.4679
    1TMC1     O14346   2.371   1.463  12.902 -0.5798  0.3444  0.1210
    1TMC1     H14347   2.237   1.267  12.879  0.4026  0.3931 -0.2365
    1TMC1    H114348   2.193   1.500  13.239 -2.9902  0.0310  2.2159
    1TMC1    H214349   1.871   1.291  13.087 -0.0860  0.5322 -0.2307
    1TMC1    C714350   1.932   1.438  13.275  0.2139 -0.2174  0.4779
    1TMC1    C814351   1.975   1.187  12.889  0.1225 -0.2337 -0.1039
    1TMC1    O114352   1.932   1.555  13.301 -0.5755  0.3611 -0.2511
    1TMC1    O214353   1.856   1.180  12.873 -0.0287  0.7877 -0.0898
    1TMC1    O314354   1.847   1.341  13.319 -0.3538 -0.3538 -0.1997
    1TMC1    H314355   1.866   1.249  13.291  1.8557 -0.1963  0.8239
    1TMC1    O514356   2.070   1.125  12.809 -0.0500  0.7559  0.2390
    1TMC1    H514357   2.148   1.112  12.866  0.9209 -2.6287 -1.8417
    2MPD2     C14358   2.538   1.685  12.983  0.5343 -0.0254 -0.1435
    2MPD2    C114359   2.462   1.668  13.096 -0.9685 -0.6694 -0.4786
    2MPD2    C214360   2.483   1.749  13.199  0.0189 -0.1695 -1.2377
    2MPD2    C314361   2.582   1.843  13.195 -0.4320  0.1388  0.6004
    2MPD2    C414362   2.654   1.861  13.078 -0.6434  0.4356  0.4892
    2MPD2    C514363   2.633   1.790  12.969 -0.0063  0.1810 -0.2441
    2MPD2     H14364   2.425   1.740  13.290 -1.6957  0.1999 -2.2901
    2MPD2    H114365   2.716   1.949  13.075  0.1114 -0.2067 -2.4276
    2MPD2    H214366   2.540   1.611  12.904 -0.6953 -0.7283  0.4698
    2MPD2    H314367   2.689   1.810  12.879  1.8055  1.8833  1.2753
    2MPD2     N14368   2.610   1.909  13.320  0.3474  0.0189 -0.1586
    2MPD2    H514369   2.557   1.873  13.398  0.1433 -1.5074 -1.0032
    2MPD2    N114370   2.375   1.557  13.111 -0.0539  0.1451  0.4747
    2MPD2    H714371   2.324   1.550  13.198 -1.2548  2.1782 -0.0810
    3TCq1    O114372   2.588   2.041  13.916  0.6909  0.0661 -0.2078
    3TCq1    C114373   2.572   1.972  13.795  0.3883 -0.5230  0.3370
    3TCq1    O214374   2.523   1.864  13.785  0.5008  0.0336 -0.0360
    3TCq1    C214375   2.665   2.029  13.699 -0.1663 -0.1731  0.4731
    3TCq1    C314376   2.758   2.121  13.731 -0.5579  0.2795  0.6421
    3TCq1    C414377   2.837   2.174  13.638  0.1600  0.4569 -0.1230
    3TCq1    C514378   2.828   2.137  13.502  0.9046  0.4081  0.4296
    3TCq1    C614379   2.730   2.048  13.473 -0.2550  0.1782  0.3218
    3TCq1    C714380   2.647   1.992  13.570  0.1378 -0.1720  0.0520
    3TCq1    C814381   2.702   2.013  13.332 -0.2924  0.0549 -0.8627
    3TCq1    O414382   2.779   2.068  13.251 -0.0709  0.2148 -0.3037
    3TCq1    C914383   2.935   2.261  13.683  0.1388  0.4984 -0.1651
    3TCq1    O514384   2.992   2.241  13.794  0.0972  0.5102  0.2250
    3TCq1    O614385   2.979   2.337  13.592 -0.3697  0.5806  0.3052
    3TCq1    H114386   2.624   2.130  13.896 -0.6869  0.1755 -2.2114
    3TCq1    H214387   2.780   2.159  13.831 -1.6473 -1.1922  1.4344
    3TCq1    H314388   2.906   2.165  13.432  2.2249 -0.0760  1.7121
    3TCq1    H414389   2.580   1.909  13.548  0.7755 -0.3203 -1.3479
    1MPD2     C14390   1.705   3.340  15.108 -0.1435 -0.6355 -0.7274
    1MPD2    C114391   1.586   3.278  15.075 -0.4903 -0.5156 -0.3545
    1MPD2    C214392   1.575   3.141  15.093 -0.0894 -0.7065  0.0236
    1MPD2    C314393   1.676   3.074  15.166 -0.5893  0.3619 -0.0648
    1MPD2    C414394   1.779   3.147  15.219 -1.0166 -0.2578  0.5929
    1MPD2    C514395   1.791   3.277  15.200  0.0938  0.3672  0.7321
    1MPD2     H14396   1.484   3.089  15.066 -1.3662  0.9929  1.0353
    1MPD2    H114397   1.863   3.099  15.268  0.1132  1.2346  0.0748
    1MPD2    H214398   1.727   3.444  15.090  1.2489 -1.1857 -2.1703
    1MPD2    H314399   1.879   3.333  15.230  0.3100 -0.8319  2.3207
    1MPD2     N14400   1.678   2.935  15.187  0.0564  0.1138  0.0299
    1MPD2    H514401   1.742   2.895  15.255 -2.4987  0.0876  2.4132
    1MPD2    N114402   1.481   3.339  15.005 -0.2264 -0.5259 -0.5260
    1MPD2    H714403   1.404   3.277  14.982 -1.8530  0.4071  2.3408
    2TMC3    C114404   1.333   3.504  14.918 -1.3297 -0.3907 -0.3611
    2TMC3    C214405   1.245   3.401  14.929 -0.1976  0.3279  0.9277
    2TMC3    C314406   1.144   3.410  14.834 -0.2862 -0.1464 -0.2230
    2TMC3    C414407   1.323   3.608  14.826  0.6360  0.3939 -0.1535
    2TMC3    C514408   1.224   3.606  14.729 -0.4988 -0.1607 -0.3422
    2TMC3    C614409   1.131   3.500  14.735 -0.5766 -0.1081  0.1354
    2TMC3     C14410   1.469   3.468  14.967  0.4782  0.6067 -0.6862
    2TMC3     O14411   1.551   3.556  14.990  0.1381  0.1324 -0.1874
    2TMC3     H14412   1.230   3.343  15.019  3.1733 -0.1539  1.1746
    2TMC3    H114413   1.390   3.693  14.826  2.9336 -1.4527 -0.8124
    2TMC3    H214414   1.048   3.487  14.666  0.7468  2.4860 -1.9348
    2TMC3    C714415   1.206   3.706  14.622 -0.2144 -0.7078  1.0232
    2TMC3    C814416   1.064   3.288  14.830  0.0714  0.2254  0.4540
    2TMC3    O114417   1.100   3.704  14.564 -0.3650  0.6896  0.0848
    2TMC3    O214418   0.947   3.295  14.800  0.3753 -0.0977 -0.3870
    3TCq1    O114419   1.939   4.552  14.107 -0.0461 -0.5961 -0.2632
    3TCq1    C114420   2.013   4.442  14.119  0.0424  0.1661 -0.3876
    3TCq1    O214421   2.130   4.430  14.092  0.4649 -0.0486 -0.0471
    3TCq1    C214422   1.956   4.358  14.218  0.5347 -0.3490 -0.6616
    3TCq1    C314423   2.035   4.315  14.324 -0.2512 -0.7064 -0.3402
    3TCq1    C414424   1.974   4.265  14.436 -0.4438 -1.0536  0.9226
    3TCq1    C514425   1.839   4.251  14.447 -0.7376  0.2936  0.2680
    3TCq1    C614426   1.768   4.274  14.333  0.2991  0.0560  0.3416
    3TCq1    C714427   1.821   4.330  14.217  0.0737  0.2041  1.0183
    3TCq1    C814428   1.638   4.218  14.313  0.1974  0.3446  0.5913
    3TCq1    O414429   1.579   4.255  14.212 -0.2914  0.1993 -0.6670
    3TCq1    C914430   2.050   4.225  14.547 -0.2929  0.2047  0.4592
    3TCq1    O514431   1.986   4.185  14.648  0.1932  0.4219 -0.4634
    3TCq1    O614432   2.175   4.230  14.530 -0.2466  0.3060 -0.0768
    3TCq1    H114433   1.860   4.554  14.165 -1.4867  2.0070 -2.3290
    3TCq1    H214434   2.141   4.337  14.332 -0.8113  0.7855  3.1393
    3TCq1    H314435   1.796   4.227  14.544 -0.2248 -1.4725  0.0606
    3TCq1    H414436   1.758   4.359  14.133  0.0567  0.0410  0.9746
    4MPD2     C14437   1.363   4.133  14.374 -0.3305  0.6172  0.2170
    4MPD2    C114438   1.470   4.068  14.427  0.3433 -0.1887 -0.1968
    4MPD2    C214439   1.461   3.955  14.511 -0.2498 -0.1356 -0.7604
    4MPD2    C314440   1.337   3.896  14.524 -0.3995  1.2080 -0.6400
    4MPD2    C414441   1.224   3.960  14.468  0.3123  0.0023 -0.4934
    4MPD2    C514442   1.239   4.082  14.396 -0.2636 -0.1178 -0.3182
    4MPD2     H14443   1.550   3.918  14.561 -2.1495 -2.9148  0.5805
    4MPD2    H114444   1.123   3.921  14.470  0.0367  0.7196 -0.4380
    4MPD2    H214445   1.368   4.217  14.306 -0.0684  0.7109  0.3559
    4MPD2    H314446   1.150   4.118  14.345  0.1914 -1.8103 -2.3174
    4MPD2     N14447   1.324   3.779  14.597  0.4406 -1.0068  0.0746
    4MPD2    H514448   1.402   3.733  14.642 -0.7599 -1.8329  1.3212
    4MPD2    N114449   1.604   4.116  14.397  0.3655 -0.4907  0.1852
    4MPD2    H714450   1.684   4.076  14.445  0.6481  1.1738  1.1005
    5TMC2    C114451   1.381   2.608  15.197 -0.8459 -0.6393  0.2195
    5TMC2    C214452   1.394   2.611  15.335  0.0572  0.4306 -0.8489
    5TMC2    C314453   1.506   2.672  15.383 -0.4077  0.6532 -0.2846
    5TMC2    C414454   1.485   2.658  15.121 -0.3067 -0.5637 -0.1227
    5TMC2    C514455   1.596   2.713  15.175 -0.0243 -0.4771  0.0377
    5TMC2    C614456   1.612   2.722  15.314 -0.7454  0.2053  0.0886
    5TMC2     C14457   1.253   2.667  15.159 -0.1676  0.5244 -0.6943
    5TMC2     O14458   1.152   2.620  15.214 -0.0188 -0.0994  0.3939
    5TMC2     H14459   1.319   2.574  15.404 -0.5552  0.1541 -1.6606
    5TMC2    H114460   1.486   2.645  15.013  0.4828  0.9019 -0.2884
    5TMC2    H214461   1.702   2.755  15.366  0.9999 -1.2198 -2.0069
    5TMC2    C714462   1.607   2.843  15.117  0.4664  0.7026 -0.9009
    5TMC2    C814463   1.530   2.675  15.528 -0.1058 -0.2142  0.5167
    5TMC2    O114464   1.533   2.853  15.023 -0.0651  0.0961  0.1440
    5TMC2    O214465   1.464   2.752  15.600 -0.5577  0.1960  0.2905
    5TMC2    O514466   1.575   2.551  15.554  0.3589 -0.4618 -0.0127
    5TMC2    H514467   1.574   2.506  15.467 -0.3024 -1.4905  0.5300
    6MPD2     C14468   0.969   3.014  14.931  0.0035 -0.8923  0.4429
    6MPD2    C114469   1.102   3.052  14.917  0.6222  0.2129 -0.0843
    6MPD2    C214470   1.198   2.971  14.964  0.3712 -0.4649  0.4469
    6MPD2    C314471   1.164   2.849  15.024 -0.1147 -0.2084 -0.4615
    6MPD2    C414472   1.035   2.799  15.019 -1.0055  0.0577  0.4871
    6MPD2    C514473   0.942   2.880  14.963 -0.0810 -0.8738  0.3222
    6MPD2     H14474   1.301   2.998  14.980 -0.6010  2.6796  1.4708
    6MPD2    H114475   1.015   2.701  15.059 -0.7444 -0.2968 -0.2460
    6MPD2    H214476   0.892   3.079  14.892  2.1490 -0.4317 -3.0248
    6MPD2    H314477   0.840   2.844  14.966  0.1640 -1.5855  0.0901
    6MPD2     N14478   1.271   2.779  15.082  0.3788 -0.2317  0.5325
    6MPD2    H514479   1.364   2.819  15.070 -0.0377  0.6007  0.0896
    6MPD2    N114480   1.141   3.178  14.865  0.1141  0.0565 -0.5076
    6MPD2    H714481   1.241   3.194  14.876  0.0021  0.8758 -0.6769
  945NH4     N114482   3.307   0.967   8.132 -0.0572  0.4059 -0.8779
  945NH4     H214483   3.292   0.910   8.045 -0.6498  1.6793 -1.6121
  945NH4     H314484   3.408   0.987   8.140  0.1163 -1.2571  1.0584
  945NH4     H414485   3.261   0.909   8.205  1.1444  0.6749  0.0864
  945NH4     H514486   3.265   1.061   8.116 -3.4088 -1.2099 -1.7626
  946SOD     NA14487   1.178   0.391   0.455 -0.0992  0.2444  0.0226
  947SOD     NA14488   1.309   1.308  14.283 -0.4233 -0.5882  0.0107
  948SOD     NA14489   3.823   3.083  15.999 -0.0524 -0.3389  0.2565
  949SOD     NA14490   3.367   0.917  16.925 -0.5431  0.3605 -0.0581
  950SOD     NA14491   2.251   2.036  11.861  0.0356 -0.3808  0.1420
  951SOD     NA14492   1.736   1.292  11.743  0.3855  0.2238  0.5869
  952SOD     NA14493   3.199   2.360  13.781  0.3481 -0.0813 -0.0150
  953SOL     OW14494   0.895   3.561   4.221 -0.0332  0.5283  0.1662
  953SOL    HW114495   0.838   3.638   4.216  0.2861  0.7771  0.3836
  953SOL    HW214496   0.975   3.602   4.189  0.9838  0.0873  2.1640
  954SOL     OW14497   3.887   4.243   2.972 -0.4107  0.3465  0.7433
  954SOL    HW114498   3.945   4.319   2.962 -2.9528  2.3004  0.9013
  954SOL    HW214499   3.955   4.175   2.963 -1.4735 -0.4439 -1.1883
  955SOL     OW14500   1.800   1.109  12.619  0.7128  0.2137 -0.3750
  955SOL    HW114501   1.804   1.189  12.565  2.0703 -0.4936 -1.3226
  955SOL    HW214502   1.795   1.159  12.700  1.0273 -1.1189  0.4569
  956SOL     OW14503   1.099   0.281  14.444 -0.0881  0.6387 -0.0616
  956SOL    HW114504   1.131   0.335  14.371  1.3869  0.1678  0.2303
  956SOL    HW214505   1.012   0.321  14.437 -0.0938  0.9986  2.1799
  957SOL     OW14506   3.267   2.042   2.015 -0.0423  0.2690  0.6647
  957SOL    HW114507   3.182   2.002   1.996 -0.7046  1.5219  1.0398
  957SOL    HW214508   3.241   2.103   2.083 -2.3907 -0.6627  0.6024
  958SOL     OW14509   2.793   1.576   4.821  0.7831 -0.4183 -0.2563
  958SOL    HW114510   2.858   1.567   4.890  0.7109 -1.4793 -0.3239
  958SOL    HW214511   2.804   1.491   4.777 -1.0575 -1.1297  0.6321
  959SOL     OW14512   1.791   3.798   4.012  0.2477 -0.3869  0.2826
  959SOL    HW114513   1.874   3.813   4.057 -0.0813  1.4280  0.2700
  959SOL    HW214514   1.768   3.889   3.993  1.5573 -0.6359 -2.4847
  960SOL     OW14515   0.427   2.416  11.604  0.2325 -0.1301  0.2510
  960SOL    HW114516   0.417   2.480  11.533 -0.1823 -0.2637  0.1900
  960SOL    HW214517   0.373   2.347  11.565 -0.2186 -1.1255  2.6509
  961SOL     OW14518   1.291   3.477  10.872  0.7096 -0.0938  0.1032
  961SOL    HW114519   1.333   3.427  10.802  2.4000  3.4816 -1.4517
  961SOL    HW214520   1.245   3.424  10.937 -0.1102  2.4856  1.6240
  962SOL     OW14521   3.417   2.025   6.187  0.2166 -0.2442  0.6048
  962SOL    HW114522   3.413   2.091   6.256  2.2627  1.0897 -0.5616
  962SOL    HW214523   3.490   1.973   6.219 -0.2725  0.0559  2.2235
  963SOL     OW14524   0.297   1.177  10.950  0.2007 -0.3726  0.1301
  963SOL    HW114525   0.222   1.148  10.898  0.7273  0.2378 -0.9516
  963SOL    HW214526   0.322   1.258  10.906 -0.6551 -0.8369 -1.2209
  964SOL     OW14527   4.407   2.545  15.146  0.8905  0.1696  0.2099
  964SOL    HW114528   4.479   2.529  15.208  0.5564  0.4392  0.6613
  964SOL    HW214529   4.332   2.532  15.205  1.4457 -0.1916  0.8463
  965SOL     OW14530   0.200   4.138   2.260 -0.6262 -0.0262  0.0639
  965SOL    HW114531   0.142   4.157   2.334 -2.7275  0.1308 -1.6048
  965SOL    HW214532   0.279   4.184   2.287 -0.6159 -0.7172  1.2245
  966SOL     OW14533   2.721   3.610   5.603  0.5202 -0.9132  0.1243
  966SOL    HW114534   2.702   3.533   5.550 -0.5035 -0.3735 -0.2989
  966SOL    HW214535   2.787   3.656   5.552 -2.1037  0.8321 -1.7360
  967SOL     OW14536   3.178   4.219   5.303 -0.3071  0.1476  0.0107
  967SOL    HW114537   3.244   4.221   5.371 -0.3281  1.5791 -0.0056
  967SOL    HW214538   3.121   4.283   5.344 -1.0277 -1.2777  1.2155
  968SOL     OW14539   1.867   1.692   3.259 -0.0886 -0.8135  0.0402
  968SOL    HW114540   1.931   1.645   3.205  0.5680 -0.8340  0.8397
  968SOL    HW214541   1.913   1.741   3.327  0.5725  0.3898 -1.2596
  969SOL     OW14542   1.731   2.239   6.903 -0.6298  0.0677  0.5312
  969SOL    HW114543   1.761   2.175   6.838 -1.0069  1.1981 -0.7457
  969SOL    HW214544   1.816   2.242   6.947  0.0972  0.7463 -0.9055
  970SOL     OW14545   2.731   4.480  15.543 -0.7519 -0.0573  0.0800
  970SOL    HW114546   2.655   4.487  15.601  0.4403 -0.2476  1.6755
  970SOL    HW214547   2.694   4.428  15.472  2.0306 -1.0084 -0.6893
  971SOL     OW14548   1.976   3.374   0.173 -0.0696 -0.6418  0.2548
  971SOL    HW114549   2.006   3.460   0.142 -3.3068 -1.0719 -4.0488
  971SOL    HW214550   1.987   3.328   0.090  1.2196 -1.5287  0.9155
  972SOL     OW14551   2.734   2.637   6.352  0.2456 -0.1287 -0.0984
  972SOL    HW114552   2.807   2.592   6.309 -0.5568 -2.2787  0.7624
  972SOL    HW214553   2.723   2.706   6.288  1.4578 -0.9560 -1.2016
  973SOL     OW14554   0.108   3.583   8.147  0.5331  0.3272  0.1054
  973SOL    HW114555   0.184   3.612   8.197 -0.8086  2.7036  0.8157
  973SOL    HW214556   0.120   3.488   8.145  0.0572  0.2750 -0.2195
  974SOL     OW14557   2.324   3.858   2.946 -0.0078 -0.6967  0.4048
  974SOL    HW114558   2.301   3.814   3.028 -0.7318 -1.8058 -0.3820
  974SOL    HW214559   2.350   3.783   2.894 -2.4574 -0.9827 -0.4227
  975SOL     OW14560   3.655   4.733   9.640  0.1502 -0.4176 -0.0351
  975SOL    HW114561   3.580   0.013   9.583  0.0991  0.5275  0.2974
  975SOL    HW214562   3.625   0.018   9.729  1.2348  0.7725  0.0392
  976SOL     OW14563   1.021   0.960  12.262 -0.4161 -0.2595  0.1719
  976SOL    HW114564   1.062   0.886  12.307 -1.2470 -1.3626 -0.8636
  976SOL    HW214565   1.020   0.933  12.170 -0.2384  0.2396  0.0237
  977SOL     OW14566   4.331   1.860  12.158  0.2762 -0.3434  0.1947
  977SOL    HW114567   4.376   1.878  12.240 -1.9181  1.3925  1.0369
  977SOL    HW214568   4.403   1.860  12.096  0.5966 -0.9086  0.5664
  978SOL     OW14569   1.375   0.684   3.770  0.2219  0.4180 -0.3252
  978SOL    HW114570   1.413   0.607   3.812 -1.8340 -0.2363  0.3199
  978SOL    HW214571   1.382   0.750   3.839 -0.7638 -0.2114  0.3579
  979SOL     OW14572   2.214   2.005   9.118  0.1592  0.0416  0.0182
  979SOL    HW114573   2.202   1.910   9.114  1.8973 -0.1841  0.5389
  979SOL    HW214574   2.151   2.038   9.183 -0.6262 -0.6638 -0.3877
  980SOL     OW14575   0.173   1.695   6.029  0.0028 -0.5660 -0.6053
  980SOL    HW114576   0.221   1.703   5.946 -0.7509  1.9545 -0.7778
  980SOL    HW214577   0.081   1.710   6.009 -0.5896 -0.7456  2.0382
  981SOL     OW14578   0.495   1.775   0.696  0.6280  0.0769 -0.0044
  981SOL    HW114579   0.584   1.741   0.687  0.8582  0.9462 -1.1553
  981SOL    HW214580   0.489   1.849   0.635  1.0758 -0.2514 -0.4462
  982SOL     OW14581   3.676   0.747  15.160  0.1094  0.1846  0.2498
  982SOL    HW114582   3.731   0.757  15.083  0.9688 -0.1387  0.8278
  982SOL    HW214583   3.737   0.701  15.217 -0.2286 -0.5680  0.0153
  983SOL     OW14584   3.064   3.735  14.735  0.0266  0.2165  0.2881
  983SOL    HW114585   3.086   3.796  14.805 -1.5789 -1.0820  1.9224
  983SOL    HW214586   3.113   3.779  14.665 -1.2181 -0.6913 -1.1630
  984SOL     OW14587   1.271   2.819   7.274 -0.5130 -0.3969 -0.4213
  984SOL    HW114588   1.224   2.736   7.278 -0.5346 -0.4835 -2.5268
  984SOL    HW214589   1.197   2.869   7.309  0.7858  1.4062 -0.2337
  985SOL     OW14590   0.539   0.872  14.805  0.2085 -0.1262  0.2883
  985SOL    HW114591   0.633   0.873  14.785  0.4133 -0.5042  1.2416
  985SOL    HW214592   0.509   0.864  14.714 -3.0325  2.0845  1.1665
  986SOL     OW14593   4.442   2.758   7.293  0.6400  0.1064  0.3662
  986SOL    HW114594   4.400   2.681   7.331 -0.9849  1.8347  2.0593
  986SOL    HW214595   4.533   2.744   7.318  0.1848  0.7667  2.3705
  987SOL     OW14596   3.891   0.219   1.879 -0.4964  0.4680 -0.0720
  987SOL    HW114597   3.857   0.140   1.922 -2.1618  0.9131 -0.5677
  987SOL    HW214598   3.807   0.265   1.883 -1.4091 -1.0885 -1.2863
  988SOL     OW14599   2.205   1.507   5.249  0.1015 -0.3015 -0.1325
  988SOL    HW114600   2.222   1.589   5.202 -0.5791 -0.3595 -0.4865
  988SOL    HW214601   2.248   1.519   5.333  1.8347  1.4893 -1.2803
  989SOL     OW14602   1.852   1.654   2.654 -0.3401  0.3863  0.0846
  989SOL    HW114603   1.838   1.576   2.600  0.6918 -0.1467  0.5915
  989SOL    HW214604   1.797   1.632   2.729  0.8051 -0.6508  0.6248
  990SOL     OW14605   3.758   0.693  10.657  0.1183  0.0106  0.3506
  990SOL    HW114606   3.697   0.740  10.602 -0.0820 -1.3961 -0.6308
  990SOL    HW214607   3.846   0.724  10.633  0.5437 -0.8355  0.7942
  991SOL     OW14608   3.781   2.385   3.661 -0.5826 -0.2612 -0.2048
  991SOL    HW114609   3.857   2.438   3.638 -0.2267 -0.3267  0.8048
  991SOL    HW214610   3.777   2.326   3.585 -0.0463 -0.7588  0.1492
  992SOL     OW14611   0.716   0.156  14.229  0.4487  0.1831  0.2992
  992SOL    HW114612   0.717   0.190  14.319 -0.2597 -0.0157  0.3832
  992SOL    HW214613   0.622   0.154  14.209  0.0856  0.3089  1.9895
  993SOL     OW14614   1.190   3.400   5.595  0.0309  0.0973  0.4056
  993SOL    HW114615   1.239   3.330   5.637  0.7872 -0.8159 -1.9813
  993SOL    HW214616   1.233   3.408   5.510 -0.4251  1.3228  0.2812
  994SOL     OW14617   1.620   2.139  13.951 -0.0603 -0.2344  0.4778
  994SOL    HW114618   1.702   2.115  13.995 -1.2197 -1.6120  1.8736
  994SOL    HW214619   1.658   2.190  13.879 -0.2194  0.7366  1.0739
  995SOL     OW14620   0.750   1.225   1.325 -1.0544  0.2378 -0.0142
  995SOL    HW114621   0.699   1.281   1.383  2.4335  1.5625  1.7373
  995SOL    HW214622   0.688   1.173   1.273 -0.3211  0.4773 -1.1224
  996SOL     OW14623   3.722   2.706   5.329  0.2445 -0.2017  0.4345
  996SOL    HW114624   3.715   2.797   5.298  0.4313  0.5996  2.7484
  996SOL    HW214625   3.817   2.695   5.320  0.3812  1.4720 -0.1264
  997SOL     OW14626   1.814   0.831   6.645 -0.0052  0.7409  0.0008
  997SOL    HW114627   1.744   0.829   6.711 -0.4287  0.3650 -0.4634
  997SOL    HW214628   1.890   0.799   6.694  0.3807 -1.0196 -1.7682
  998SOL     OW14629   1.047   3.688  12.542 -0.5699  0.2695 -0.4124
  998SOL    HW114630   1.125   3.729  12.580 -2.0339  0.7848  1.9758
  998SOL    HW214631   0.979   3.706  12.606  0.4231 -0.6382  0.8859
  999SOL     OW14632   4.486   0.566   9.011  0.2703  0.1206  0.3779
  999SOL    HW114633   4.426   0.617   9.066 -0.9344 -0.3505 -0.4860
  999SOL    HW214634   4.528   0.511   9.078  2.5718 -1.0311 -2.0310
 1000SOL     OW14635   3.149   0.514  16.435  0.2009 -0.1264  0.1457
 1000SOL    HW114636   3.053   0.509  16.439  0.1834 -1.1762 -1.6138
 1000SOL    HW214637   3.167   0.420  16.436  0.3953 -0.0783  0.9043
 1001SOL     OW14638   1.149   3.957   7.321 -0.3975  0.9119  0.4317
 1001SOL    HW114639   1.179   3.906   7.246 -0.7490 -1.1781  1.6927
 1001SOL    HW214640   1.153   3.888   7.388 -1.6809  0.5556  0.1312
 1002SOL     OW14641   4.095   2.576  14.640  0.3543  0.4065 -1.0806
 1002SOL    HW114642   4.099   2.598  14.547 -0.9381  0.5711 -1.1045
 1002SOL    HW214643   4.174   2.524  14.653 -0.7478 -1.0122  0.0281
 1003SOL     OW14644   3.467   2.508   6.304 -0.2319 -0.3363  0.1370
 1003SOL    HW114645   3.523   2.446   6.351 -1.3157 -2.2263 -1.0338
 1003SOL    HW214646   3.397   2.452   6.271  1.4201 -2.9460  1.0432
 1004SOL     OW14647   4.401   2.489  16.211  0.4301 -0.2751 -0.2862
 1004SOL    HW114648   4.379   2.435  16.287 -0.2023  0.5060  0.0787
 1004SOL    HW214649   4.315   2.512  16.176  1.8601  0.1039 -3.5397
 1005SOL     OW14650   3.046   4.388  17.112  0.4039 -0.1753 -0.2709
 1005SOL    HW114651   3.029   4.301  17.075 -0.0031  0.3787 -1.3780
 1005SOL    HW214652   3.068   4.438  17.034 -0.5635 -0.5097 -0.7539
 1006SOL     OW14653   3.461   2.575   0.328 -0.2143 -0.2040  0.1591
 1006SOL    HW114654   3.469   2.664   0.362  3.1414  0.1879 -1.6419
 1006SOL    HW214655   3.422   2.526   0.401 -2.2001  0.8379 -0.2223
 1007SOL     OW14656   1.688   0.101   7.931  0.7205  0.0660 -0.0640
 1007SOL    HW114657   1.651   0.170   7.985  0.8607  0.1059 -0.0194
 1007SOL    HW214658   1.700   0.034   7.999 -3.2563 -2.7227 -2.1341
 1008SOL     OW14659   0.510   0.603  10.595 -0.0527 -0.1093  0.0916
 1008SOL    HW114660   0.528   0.697  10.602  0.6484 -0.1693 -0.8941
 1008SOL    HW214661   0.598   0.580  10.563  0.6988  3.2906 -0.2929
 1009SOL     OW14662   1.695   2.423   3.082  0.1174 -0.0715  0.3886
 1009SOL    HW114663   1.756   2.497   3.082  1.5056 -1.2216  1.2292
 1009SOL    HW214664   1.738   2.356   3.136  1.6183  0.2877 -0.3735
 1010SOL     OW14665   2.628   1.447   3.958 -0.1106 -0.3924  0.0903
 1010SOL    HW114666   2.681   1.472   3.882 -2.3526  0.0580 -1.3456
 1010SOL    HW214667   2.660   1.505   4.027 -0.7524  1.8374 -1.4796
 1011SOL     OW14668   1.386   1.990   5.469  0.7312  0.4469 -0.1610
 1011SOL    HW114669   1.362   1.988   5.376  0.4544  1.5896 -0.1069
 1011SOL    HW214670   1.381   1.897   5.492 -0.7654  0.5507 -0.0875
 1012SOL     OW14671   1.708   4.280   1.568 -0.1917  0.3269 -0.1431
 1012SOL    HW114672   1.757   4.360   1.586 -1.9809  1.5215 -0.5618
 1012SOL    HW214673   1.618   4.307   1.550 -0.3763  0.5689  1.1550
 1013SOL     OW14674   1.925   2.195   6.310 -0.2192  0.3125 -0.3754
 1013SOL    HW114675   2.005   2.247   6.317  0.0309  0.1622 -2.0669
 1013SOL    HW214676   1.869   2.244   6.370 -0.2273  0.0960 -0.2077
 1014SOL     OW14677   1.235   3.759   7.148  0.4517  0.4145 -0.0584
 1014SOL    HW114678   1.205   3.732   7.061 -0.2174  0.7541  0.0729
 1014SOL    HW214679   1.330   3.748   7.139  0.3105  0.6499 -1.8969
 1015SOL     OW14680   1.451   3.609   7.369 -0.2008  0.6962 -0.4105
 1015SOL    HW114681   1.428   3.565   7.451 -0.7746  1.0270 -0.3873
 1015SOL    HW214682   1.377   3.595   7.309 -0.7264 -0.7328  0.5885
 1016SOL     OW14683   2.393   0.794   4.127  0.1342  0.5793  0.9721
 1016SOL    HW114684   2.442   0.713   4.112  0.8907  0.6790  2.9590
 1016SOL    HW214685   2.412   0.847   4.049 -0.0086  1.0699  1.2751
 1017SOL     OW14686   3.028   2.501   8.127  0.0084  0.0149  0.2928
 1017SOL    HW114687   3.007   2.554   8.204  0.7718 -0.4302  0.8115
 1017SOL    HW214688   2.950   2.447   8.123 -1.2252  1.8184 -0.1357
 1018SOL     OW14689   3.293   4.433   4.828  0.5144  0.2813 -0.7224
 1018SOL    HW114690   3.250   4.370   4.885  2.1024  0.1019  0.2760
 1018SOL    HW214691   3.386   4.413   4.836  0.5766  0.0696 -1.9897
 1019SOL     OW14692   3.115   1.848   6.032  0.3137 -0.1191 -0.2511
 1019SOL    HW114693   3.188   1.811   5.983 -0.6952 -1.6789 -0.5817
 1019SOL    HW214694   3.151   1.835   6.120 -3.5254 -1.6641  1.1116
 1020SOL     OW14695   0.049   1.038   7.188  0.6124  0.7906 -0.3306
 1020SOL    HW114696   0.030   1.131   7.177  0.2121  0.5285 -1.8934
 1020SOL    HW214697   0.125   1.035   7.245  0.6402  2.0167 -0.2886
 1021SOL     OW14698   0.292   0.803   9.823 -0.1201  1.0311 -0.9171
 1021SOL    HW114699   0.283   0.866   9.895  0.4010  1.1011 -0.9083
 1021SOL    HW214700   0.314   0.863   9.752 -0.4091 -0.5763 -2.3593
 1022SOL     OW14701   2.628   4.211   0.274 -0.2232  0.1637  0.0781
 1022SOL    HW114702   2.608   4.257   0.356  1.2837  0.1157  0.4729
 1022SOL    HW214703   2.692   4.152   0.314 -1.3482 -3.0493 -2.9444
 1023SOL     OW14704   2.010   1.709   0.931  0.3290  0.0180 -0.1658
 1023SOL    HW114705   1.947   1.767   0.975 -0.4668  0.2080 -1.5522
 1023SOL    HW214706   2.077   1.689   0.996  0.5087  0.7764 -0.1101
 1024SOL     OW14707   3.464   3.336  15.164  0.5953 -0.0851 -0.3821
 1024SOL    HW114708   3.380   3.364  15.128  1.4508  0.4570 -1.9375
 1024SOL    HW214709   3.515   3.416  15.151  0.4829 -0.0129 -0.3823
 1025SOL     OW14710   1.320   3.164   0.605 -0.5762 -0.1330  0.0496
 1025SOL    HW114711   1.276   3.185   0.687 -0.6371  0.5905 -0.1745
 1025SOL    HW214712   1.334   3.071   0.623  0.8087  0.3424  1.4870
 1026SOL     OW14713   3.090   1.477  11.850  0.5670 -0.0729 -0.3908
 1026SOL    HW114714   3.185   1.483  11.839  0.6226 -0.3388 -0.0673
 1026SOL    HW214715   3.090   1.424  11.929  1.0974 -0.7330 -0.8339
 1027SOL     OW14716   2.331   2.431   9.099 -0.4724  0.0934  0.1722
 1027SOL    HW114717   2.314   2.521   9.125 -2.9765 -0.2646 -0.2223
 1027SOL    HW214718   2.419   2.439   9.061  0.0082  0.5098  1.3749
 1028SOL     OW14719   2.369   2.499   0.504 -0.7157  0.0546 -0.0518
 1028SOL    HW114720   2.365   2.555   0.582  1.1787  3.1000 -2.1643
 1028SOL    HW214721   2.426   2.546   0.444 -0.5387  0.2776  0.2946
 1029SOL     OW14722   3.440   4.444   3.198  0.2196  0.2582  0.4817
 1029SOL    HW114723   3.500   4.519   3.194  2.5498 -1.5423  1.2697
 1029SOL    HW214724   3.510   4.380   3.210 -0.7525 -0.5953  1.5603
 1030SOL     OW14725   1.146   1.048   2.046  0.6228  0.6327 -0.1183
 1030SOL    HW114726   1.059   1.062   2.010  0.5842 -1.4642 -0.8324
 1030SOL    HW214727   1.139   1.035   2.141  0.6189 -1.1147 -0.3615
 1031SOL     OW14728   2.943   0.240   5.993 -0.0265 -0.0631  0.1217
 1031SOL    HW114729   2.948   0.211   5.902 -2.8230 -1.1253  0.2799
 1031SOL    HW214730   2.859   0.285   5.991 -0.4818 -0.9784 -1.7874
 1032SOL     OW14731   0.257   2.704  14.038  0.1823 -0.3430  0.6072
 1032SOL    HW114732   0.271   2.692  13.944  1.0658 -0.9797  0.8191
 1032SOL    HW214733   0.336   2.757  14.053 -1.0491  1.8898 -0.7230
 1033SOL     OW14734   4.590   2.170   7.551  0.0434  0.3417  0.0785
 1033SOL    HW114735   4.644   2.102   7.511  0.1184  1.0148 -0.9942
 1033SOL    HW214736   4.570   2.133   7.637  0.3662  0.8186  0.3618
 1034SOL     OW14737   2.420   4.456   7.798  0.4976 -0.0093  0.3888
 1034SOL    HW114738   2.406   4.528   7.736  1.2889 -1.0899 -1.0446
 1034SOL    HW214739   2.511   4.464   7.825  0.6206 -0.9960  0.2682
 1035SOL     OW14740   2.677   2.967   4.717  0.5996 -0.2389  0.3496
 1035SOL    HW114741   2.749   2.972   4.779  0.7225  0.0126  0.1850
 1035SOL    HW214742   2.714   3.032   4.657  0.5917 -0.2986  0.2798
 1036SOL     OW14743   1.541   4.133   1.801 -0.0685  0.0874  0.1506
 1036SOL    HW114744   1.537   4.040   1.780  1.4582 -0.4484  2.1363
 1036SOL    HW214745   1.451   4.153   1.828  0.4610  2.4655  0.1435
 1037SOL     OW14746   0.670   1.598   2.183  0.4471  0.0070 -0.2959
 1037SOL    HW114747   0.729   1.669   2.208  2.8745 -1.7279 -1.0725
 1037SOL    HW214748   0.694   1.545   2.259 -1.8004  0.5838  0.8213
 1038SOL     OW14749   1.443   1.459   6.495  0.1256  0.3044  0.0025
 1038SOL    HW114750   1.387   1.510   6.554 -0.9676 -0.2936 -0.5298
 1038SOL    HW214751   1.479   1.403   6.564 -2.4753 -2.0770 -0.5986
 1039SOL     OW14752   0.336   2.854   0.048 -0.9305  0.4773 -0.3731
 1039SOL    HW114753   0.265   2.909   0.015 -0.5250  0.2166 -1.6523
 1039SOL    HW214754   0.303   2.764   0.052 -0.3914  0.2747 -0.5620
 1040SOL     OW14755   1.324   0.429   2.399 -0.6169 -0.3587  0.7967
 1040SOL    HW114756   1.385   0.372   2.352 -1.2368 -1.5211  1.4114
 1040SOL    HW214757   1.265   0.366   2.440 -0.0786 -0.0772  2.0110
 1041SOL     OW14758   1.018   1.330   2.521 -0.0784  0.5622  0.0082
 1041SOL    HW114759   0.993   1.317   2.613  0.4973 -0.7109 -0.0173
 1041SOL    HW214760   1.106   1.294   2.534 -1.4422 -2.7440  0.2897
 1042SOL     OW14761   1.192   0.155   4.585 -0.0604  0.1764  0.2249
 1042SOL    HW114762   1.256   0.123   4.649 -1.2535 -1.4740  0.6065
 1042SOL    HW214763   1.114   0.142   4.640 -0.6678  2.3364 -0.1083
 1043SOL     OW14764   4.575   2.356   9.041 -0.1315 -0.1123 -0.4745
 1043SOL    HW114765   4.488   2.342   9.003 -0.7716 -0.5687  1.1456
 1043SOL    HW214766   4.612   2.268   9.047 -0.9210 -0.3612  0.7405
 1044SOL     OW14767   0.124   1.642   9.219  0.0386 -0.3099  0.6004
 1044SOL    HW114768   0.147   1.664   9.310  1.4827  1.8869 -0.3156
 1044SOL    HW214769   0.093   1.553   9.238  1.0635 -0.6907  0.4509
 1045SOL     OW14770   1.800   0.318   2.841 -0.1218 -0.0699  0.0782
 1045SOL    HW114771   1.731   0.382   2.858 -0.9650 -0.9279 -0.1504
 1045SOL    HW214772   1.842   0.356   2.763  0.2919 -3.1526 -1.2127
 1046SOL     OW14773   1.179   1.323   4.351  0.0559 -0.5393 -0.3293
 1046SOL    HW114774   1.192   1.291   4.262 -1.0373 -0.1579 -0.6351
 1046SOL    HW214775   1.084   1.314   4.360 -0.0039  1.1132  0.7618
 1047SOL     OW14776   1.091   3.449  10.599 -0.0194 -0.8257 -0.2784
 1047SOL    HW114777   1.180   3.470  10.625 -1.1251  1.8067  1.2627
 1047SOL    HW214778   1.090   3.358  10.628  0.4715 -1.2319 -1.5036
 1048SOL     OW14779   0.553   4.721  10.718 -0.6061  0.0432 -1.5757
 1048SOL    HW114780   0.477   4.705  10.774  1.8781 -0.0399  1.8192
 1048SOL    HW214781   0.610   0.035  10.777 -0.9856 -0.4469 -0.7847
 1049SOL     OW14782   2.987   3.860  17.417  0.1065 -0.1359 -0.2854
 1049SOL    HW114783   3.064   3.883  17.365 -0.4122 -0.0869 -1.0224
 1049SOL    HW214784   2.918   3.864  17.351  0.2065  2.4880 -0.2490
 1050SOL     OW14785   2.028   2.574   6.219 -0.1349 -0.2663 -0.3773
 1050SOL    HW114786   2.106   2.540   6.263 -0.8587 -1.3619  0.0626
 1050SOL    HW214787   2.065   2.656   6.186  0.8781 -1.0639 -1.1990
 1051SOL     OW14788   0.297   3.667   5.669  0.4447 -0.4088 -0.7343
 1051SOL    HW114789   0.363   3.735   5.682  0.6197 -1.4382  3.9808
 1051SOL    HW214790   0.336   3.616   5.599  0.5045 -0.3100 -0.7732
 1052SOL     OW14791   0.859   3.224   6.263 -0.5128  0.7752  0.3060
 1052SOL    HW114792   0.864   3.233   6.168  0.3202  0.4697  0.3261
 1052SOL    HW214793   0.844   3.130   6.275  0.4684  0.7174  1.0591
 1053SOL     OW14794   2.029   4.512  17.167 -0.1137  0.4788  0.2948
 1053SOL    HW114795   2.000   4.574  17.234  1.2575 -3.2643  4.4050
 1053SOL    HW214796   2.077   4.447  17.219 -0.1238  0.6574  0.5275
 1054SOL     OW14797   4.408   1.283   6.322  0.5314 -0.5690  0.3582
 1054SOL    HW114798   4.491   1.311   6.359  0.8607 -1.3321  0.2103
 1054SOL    HW214799   4.419   1.305   6.230  0.1640 -0.4061  0.3514
 1055SOL     OW14800   1.799   3.587   1.773  0.3621 -0.3206  0.3417
 1055SOL    HW114801   1.820   3.493   1.774 -0.1245 -0.4439 -0.8056
 1055SOL    HW214802   1.728   3.564   1.832 -0.3903 -2.6075 -1.4494
 1056SOL     OW14803   3.574   2.791  17.492 -0.4139  0.5531  0.1913
 1056SOL    HW114804   3.553   2.703  17.523  1.9469  0.0319  0.3175
 1056SOL    HW214805   3.629   2.831  17.559 -0.0874  1.3415 -0.5423
 1057SOL     OW14806   2.121   3.474   2.289  0.4567  0.2368 -0.5002
 1057SOL    HW114807   2.212   3.504   2.292 -0.1523  1.9273  0.4910
 1057SOL    HW214808   2.102   3.428   2.370 -2.0644  0.7778 -0.7684
 1058SOL     OW14809   1.149   4.675   5.016  0.1574  0.1431  0.3624
 1058SOL    HW114810   1.184   4.587   5.026 -3.3578 -1.5376 -2.5461
 1058SOL    HW214811   1.212   4.720   4.959 -0.0796 -0.4406 -0.3583
 1059SOL     OW14812   1.443   2.146   8.807 -0.0995 -0.1832 -0.2667
 1059SOL    HW114813   1.419   2.140   8.899  2.7528 -1.0136  0.4268
 1059SOL    HW214814   1.518   2.087   8.811  0.6883  0.9939  2.3869
 1060SOL     OW14815   1.841   2.790   4.594 -0.3874  0.0214 -0.0663
 1060SOL    HW114816   1.882   2.867   4.634  0.7574 -0.2876 -0.6729
 1060SOL    HW214817   1.771   2.841   4.552 -0.9128  0.6994  1.6328
 1061SOL     OW14818   2.211   2.929   2.173  0.2327  0.2224 -0.5812
 1061SOL    HW114819   2.139   2.902   2.230  1.4779 -0.9258  0.4598
 1061SOL    HW214820   2.283   2.910   2.233  0.0344  1.5870  0.0889
 1062SOL     OW14821   1.295   0.064  16.687 -0.3488 -0.1321  0.0007
 1062SOL    HW114822   1.389   0.069  16.700 -0.5057 -0.0293  1.1024
 1062SOL    HW214823   1.271   0.111  16.607 -0.6197 -0.9014 -0.3746
 1063SOL     OW14824   0.221   1.254   6.651  0.0299 -0.4639 -0.0636
 1063SOL    HW114825   0.306   1.289   6.624 -0.3330  0.8978  0.5688
 1063SOL    HW214826   0.164   1.332   6.644 -0.4498 -1.0108 -2.2923
 1064SOL     OW14827   1.422   0.015   0.987  0.3422  0.0613  0.5802
 1064SOL    HW114828   1.419   0.031   1.081  0.4036 -2.0610  0.9347
 1064SOL    HW214829   1.453   4.662   0.972 -0.2255  0.2093 -1.5594
 1065SOL     OW14830   1.650   4.503   5.904 -0.6482  0.2408 -0.5854
 1065SOL    HW114831   1.636   4.587   5.948 -1.7391 -0.6270  0.7362
 1065SOL    HW214832   1.736   4.523   5.866 -1.1299  0.7244 -1.4196
 1066SOL     OW14833   1.186   3.593   5.315  0.5171 -0.2994  0.4215
 1066SOL    HW114834   1.141   3.674   5.289  1.6338  0.4314  0.7389
 1066SOL    HW214835   1.247   3.588   5.240  1.0701  1.9879  0.7078
 1067SOL     OW14836   3.521   1.637   8.874  0.1623  0.4243  0.1590
 1067SOL    HW114837   3.481   1.724   8.869  0.2724  0.5572  1.6715
 1067SOL    HW214838   3.480   1.591   8.801 -1.5890  0.4307  1.1162
 1068SOL     OW14839   2.794   2.866   0.506 -0.0889 -0.4292 -1.0469
 1068SOL    HW114840   2.792   2.959   0.525 -0.2621 -0.2274 -2.0219
 1068SOL    HW214841   2.776   2.827   0.591  3.2000 -0.8411 -0.5606
 1069SOL     OW14842   1.850   0.418   7.125  0.2238 -0.4834  0.0481
 1069SOL    HW114843   1.935   0.377   7.140  0.4508 -0.3914 -0.9300
 1069SOL    HW214844   1.866   0.467   7.044 -1.7131 -2.5448 -1.5916
 1070SOL     OW14845   0.505   2.486   8.416  0.1356 -0.4627 -0.3281
 1070SOL    HW114846   0.417   2.524   8.406 -0.1742 -1.5835 -1.8421
 1070SOL    HW214847   0.498   2.433   8.496  0.1037 -1.2150 -0.8233
 1071SOL     OW14848   2.795   1.180  11.245 -0.0943 -0.1511  0.0869
 1071SOL    HW114849   2.829   1.175  11.156  3.8332 -0.6985  1.6359
 1071SOL    HW214850   2.804   1.274  11.264 -1.6510 -0.4497  2.3248
 1072SOL     OW14851   3.231   0.053  13.099 -0.3335 -0.2553  0.2233
 1072SOL    HW114852   3.179   0.063  13.179  0.8960  0.6642  0.9002
 1072SOL    HW214853   3.224   4.697  13.078  1.7903 -0.1480 -0.9126
 1073SOL     OW14854   3.403   3.337   9.610  0.1006 -0.3920 -0.2309
 1073SOL    HW114855   3.436   3.287   9.685  4.3373  0.0924 -1.7531
 1073SOL    HW214856   3.444   3.422   9.629 -1.6326  0.2592  0.6487
 1074SOL     OW14857   0.626   4.484   1.882  0.0939  0.1199 -0.1824
 1074SOL    HW114858   0.643   4.560   1.938  2.0926 -0.7791  0.4042
 1074SOL    HW214859   0.532   4.473   1.897  0.2881 -0.6904  0.4462
 1075SOL     OW14860   3.311   3.964   6.179 -0.3331  0.3146 -0.5915
 1075SOL    HW114861   3.255   4.010   6.242 -0.9072 -1.8311  0.4649
 1075SOL    HW214862   3.330   4.030   6.113  3.8269  1.0487  1.3474
 1076SOL     OW14863   3.257   1.074   3.662 -0.3060 -0.0098 -0.4034
 1076SOL    HW114864   3.232   1.123   3.741 -1.2635 -2.1003  0.6006
 1076SOL    HW214865   3.181   1.018   3.648  0.8667 -1.9925  1.1324
 1077SOL     OW14866   3.027   1.612   5.703 -0.3693 -0.2735 -0.0498
 1077SOL    HW114867   3.039   1.587   5.611 -2.9312  2.0192 -0.9849
 1077SOL    HW214868   3.116   1.627   5.736 -0.2864 -1.5235  0.2919
 1078SOL     OW14869   3.428   0.234   2.239  0.2578 -0.4608 -0.1396
 1078SOL    HW114870   3.409   0.299   2.307 -0.7243 -0.7003 -0.1973
 1078SOL    HW214871   3.375   0.161   2.269  0.9557 -0.2392  1.6310
 1079SOL     OW14872   1.626   0.765  10.790 -0.3729  0.2842 -0.2126
 1079SOL    HW114873   1.642   0.829  10.860  0.6282  0.4408 -0.5886
 1079SOL    HW214874   1.531   0.768  10.784 -0.2906 -3.0769 -2.8601
 1080SOL     OW14875   4.426   2.289  12.906  0.2669 -0.5291 -0.0832
 1080SOL    HW114876   4.432   2.372  12.953  3.5015 -1.0296  0.4254
 1080SOL    HW214877   4.343   2.248  12.929  0.4613  0.9093  3.1789
 1081SOL     OW14878   3.806   0.794   6.585  0.4159  0.2103  0.1750
 1081SOL    HW114879   3.816   0.724   6.520  0.3232 -0.5604  0.9818
 1081SOL    HW214880   3.734   0.769   6.644 -1.9810  2.1852 -1.9005
 1082SOL     OW14881   2.869   3.749   2.527  0.9041  0.4687 -0.2385
 1082SOL    HW114882   2.915   3.700   2.459  0.5937 -0.3407  0.1417
 1082SOL    HW214883   2.876   3.834   2.483 -1.8996  0.6138 -0.3685
 1083SOL     OW14884   2.673   3.469   7.994 -0.4571 -0.1453 -0.4181
 1083SOL    HW114885   2.654   3.492   8.085  0.2014 -0.1991 -0.2610
 1083SOL    HW214886   2.713   3.383   8.004  0.2051  0.0705 -1.1599
 1084SOL     OW14887   3.625   3.113   4.834  0.0371  0.0282 -0.3829
 1084SOL    HW114888   3.568   3.173   4.786 -0.0741 -0.0539 -0.3555
 1084SOL    HW214889   3.619   3.044   4.768  1.2198  0.7196 -1.1916
 1085SOL     OW14890   3.900   0.908   5.998  0.2579 -0.2006 -0.2540
 1085SOL    HW114891   3.931   0.987   5.954  0.2310 -1.2747 -2.2002
 1085SOL    HW214892   3.940   0.929   6.082  0.1997  0.8205 -0.4866
 1086SOL     OW14893   1.953   2.685  14.428 -0.0562 -0.1801  0.1025
 1086SOL    HW114894   1.877   2.743  14.437  0.3255  0.3834 -0.3441
 1086SOL    HW214895   2.001   2.708  14.507 -0.2186  1.8343 -0.3919
 1087SOL     OW14896   4.488   3.460   3.544  0.7268  0.0758 -0.2762
 1087SOL    HW114897   4.412   3.510   3.517  2.5458  2.8753 -0.2264
 1087SOL    HW214898   4.499   3.495   3.632  1.1191  1.3823 -0.8390
 1088SOL     OW14899   1.926   3.363   0.949  0.7447 -0.6962  0.0013
 1088SOL    HW114900   1.973   3.406   0.877  2.2624 -2.6034 -0.1323
 1088SOL    HW214901   1.945   3.425   1.020  0.0469  0.3197 -0.6898
 1089SOL     OW14902   0.394   1.693   7.204  0.1057 -0.6454 -0.2631
 1089SOL    HW114903   0.484   1.726   7.201 -0.8993  2.0184 -1.5845
 1089SOL    HW214904   0.346   1.766   7.243  0.6173 -0.5202  0.1490
 1090SOL     OW14905   0.925   0.346   6.914 -0.0337 -0.0555  0.1513
 1090SOL    HW114906   0.887   0.289   6.847  0.3241 -2.2292  1.7767
 1090SOL    HW214907   0.997   0.289   6.941  0.2000 -0.0432 -0.4381
 1091SOL     OW14908   3.723   2.636   7.944 -0.5082  0.0249 -0.2361
 1091SOL    HW114909   3.634   2.604   7.934 -0.4797 -0.5384  1.3593
 1091SOL    HW214910   3.778   2.559   7.959  0.0373  0.7987  1.6515
 1092SOL     OW14911   2.465   0.445  10.410  0.6124  0.4868 -0.1578
 1092SOL    HW114912   2.509   0.464  10.493 -0.9091  0.3374  0.6794
 1092SOL    HW214913   2.386   0.498  10.411  2.0076  2.5742 -1.6048
 1093SOL     OW14914   1.557   0.130  14.775  0.0428 -0.0357  0.4026
 1093SOL    HW114915   1.466   0.158  14.769 -0.1220 -0.3838  1.2683
 1093SOL    HW214916   1.554   0.034  14.766 -3.8663 -0.0862  2.5134
 1094SOL     OW14917   1.613   1.076   7.120  0.1590 -0.0046  0.0024
 1094SOL    HW114918   1.695   1.035   7.092  1.3866  1.1936  1.8162
 1094SOL    HW214919   1.615   1.159   7.073 -2.2498  1.1729  1.9961
 1095SOL     OW14920   0.720   2.328   1.846  0.1774  0.2350  0.0499
 1095SOL    HW114921   0.805   2.285   1.845  0.9627  1.7965 -2.4037
 1095SOL    HW214922   0.743   2.414   1.881  0.5651  0.6691 -1.2500
 1096SOL     OW14923   3.002   3.094  13.215 -0.5485  0.0284  0.6119
 1096SOL    HW114924   2.924   3.095  13.271 -1.8878 -0.3365 -1.2387
 1096SOL    HW214925   3.021   3.187  13.206  1.3574 -0.5037 -0.9899
 1097SOL     OW14926   0.554   4.580  11.309  0.4416 -0.4935 -0.0958
 1097SOL    HW114927   0.614   4.627  11.251 -1.1155  2.8974  1.0733
 1097SOL    HW214928   0.567   4.490  11.277  1.7460 -0.1192 -0.6388
 1098SOL     OW14929   1.435   3.155   2.947 -0.7994 -0.5243 -0.4142
 1098SOL    HW114930   1.501   3.218   2.976  1.0195 -2.7195  0.2135
 1098SOL    HW214931   1.445   3.175   2.854  1.4099  0.6736  0.0833
 1099SOL     OW14932   0.845   3.910   7.158 -0.0041  0.7321  0.1304
 1099SOL    HW114933   0.907   3.847   7.124 -0.5033 -0.3631  1.2607
 1099SOL    HW214934   0.845   3.964   7.079 -0.3213  1.2589  0.4896
 1100SOL     OW14935   4.394   3.329  17.431 -0.0572 -0.1241  0.4603
 1100SOL    HW114936   4.315   3.294  17.472  0.6584 -1.8183  0.3895
 1100SOL    HW214937   4.395   3.404  17.491 -0.0322 -1.7037  2.4205
 1101SOL     OW14938   2.541   0.044   0.612 -0.0910  0.0603  0.6177
 1101SOL    HW114939   2.577   0.133   0.605  1.0925 -0.4696  0.0163
 1101SOL    HW214940   2.461   0.060   0.561 -0.0942 -0.9092  0.3262
 1102SOL     OW14941   2.119   3.815   5.918  0.0481  0.1174 -0.1333
 1102SOL    HW114942   2.089   3.906   5.927  0.1874  0.1454  0.0521
 1102SOL    HW214943   2.213   3.823   5.934 -0.0684  0.7906  0.2478
 1103SOL     OW14944   0.668   3.086   7.023  0.1778  0.4954 -0.3018
 1103SOL    HW114945   0.646   3.175   7.050  2.6546  1.1929 -0.6207
 1103SOL    HW214946   0.750   3.094   6.974 -1.1217 -1.1164 -2.7069
 1104SOL     OW14947   0.134   0.851   9.028  0.1769  0.1395 -0.4061
 1104SOL    HW114948   0.114   0.845   8.935 -1.7298  0.4862 -0.0138
 1104SOL    HW214949   0.043   0.847   9.057  0.1269  0.7918 -0.4820
 1105SOL     OW14950   0.110   1.357  17.366  0.0435  0.0729 -0.2563
 1105SOL    HW114951   0.060   1.284  17.402 -1.7288  2.0811  1.2586
 1105SOL    HW214952   0.166   1.314  17.300 -0.9389 -1.2354 -0.2464
 1106SOL     OW14953   4.516   0.223  14.644  0.4001  0.5279 -0.5769
 1106SOL    HW114954   4.555   0.295  14.694 -1.0417  1.0953 -0.2523
 1106SOL    HW214955   4.581   0.155  14.654 -0.7046 -0.3732  0.4444
 1107SOL     OW14956   3.664   0.805   0.246 -0.0529  0.0110 -0.4056
 1107SOL    HW114957   3.701   0.832   0.330  0.5961 -1.4860 -0.1951
 1107SOL    HW214958   3.708   0.723   0.223  1.0866  0.2259  1.0043
 1108SOL     OW14959   4.691   3.062  11.753  0.0114 -0.0898  0.0071
 1108SOL    HW114960   0.041   3.031  11.778  0.1800 -0.9562 -1.6711
 1108SOL    HW214961   4.718   3.146  11.715  0.7081  0.3087  1.3693
 1109SOL     OW14962   0.477   0.386   6.974 -0.1283  0.0122 -0.0685
 1109SOL    HW114963   0.544   0.323   6.948 -0.4891 -1.2762  2.1395
 1109SOL    HW214964   0.437   0.337   7.045 -0.1627 -0.0738 -0.1474
 1110SOL     OW14965   1.705   0.635   6.395 -0.2322  0.6109  0.8511
 1110SOL    HW114966   1.730   0.545   6.415 -1.7437 -0.2720 -1.2546
 1110SOL    HW214967   1.640   0.641   6.464 -0.7638 -1.4835  0.5414
 1111SOL     OW14968   1.715   3.011   8.512 -0.1313 -0.1902  0.3789
 1111SOL    HW114969   1.779   2.994   8.580  0.5972 -0.1904 -0.3066
 1111SOL    HW214970   1.636   2.998   8.566  0.7101  1.4318  1.9889
 1112SOL     OW14971   4.162   1.080   8.802  0.7516  0.1792 -0.3049
 1112SOL    HW114972   4.098   1.101   8.870  1.4542  3.3836 -0.5863
 1112SOL    HW214973   4.213   1.161   8.788  0.4650  0.8870  2.8061
 1113SOL     OW14974   2.658   2.258   7.493 -0.1577 -0.1053 -0.1719
 1113SOL    HW114975   2.642   2.167   7.519 -1.3428  0.0600 -0.3104
 1113SOL    HW214976   2.651   2.301   7.578 -1.6933 -0.3144 -0.1920
 1114SOL     OW14977   3.296   4.153  17.470  0.5977  0.2327  0.5871
 1114SOL    HW114978   3.252   4.135  17.387  0.5452  0.1623  0.6302
 1114SOL    HW214979   3.280   4.081  17.531 -0.8832  1.1501  1.2544
 1115SOL     OW14980   3.250   2.949   4.137 -0.3764 -0.3626 -0.4091
 1115SOL    HW114981   3.328   2.997   4.108 -0.0906  0.5779  1.9408
 1115SOL    HW214982   3.196   3.021   4.168 -1.2163 -0.9722 -0.4697
 1116SOL     OW14983   3.597   2.589  16.809  0.7838 -0.1184  0.1913
 1116SOL    HW114984   3.622   2.652  16.877  1.1219 -1.7573  1.5820
 1116SOL    HW214985   3.654   2.621  16.739  0.9093  0.1439  0.4132
 1117SOL     OW14986   1.569   2.812   2.192 -0.0480  0.2625 -0.2581
 1117SOL    HW114987   1.487   2.811   2.144  0.7131 -0.8585 -1.5339
 1117SOL    HW214988   1.568   2.723   2.228  1.3933 -0.0489 -0.9843
 1118SOL     OW14989   2.123   4.134   6.299 -0.1179  0.0717  0.1555
 1118SOL    HW114990   2.083   4.048   6.291 -3.7591  1.6472  1.8109
 1118SOL    HW214991   2.110   4.162   6.209 -0.4416  0.4273  0.3138
 1119SOL     OW14992   1.567   2.995   6.586  0.4161  0.0514 -0.4140
 1119SOL    HW114993   1.612   3.076   6.608 -0.0204 -0.1400  1.2063
 1119SOL    HW214994   1.482   3.021   6.549 -0.0905  0.2091  0.8294
 1120SOL     OW14995   4.604   0.406   6.025 -0.1390  0.3227 -0.3860
 1120SOL    HW114996   4.532   0.433   6.083  1.6828 -1.3008  2.6344
 1120SOL    HW214997   4.561   0.343   5.968 -2.8261  1.1524  0.7135
 1121SOL     OW14998   4.215   3.148   3.671 -0.5192 -0.4533  0.6861
 1121SOL    HW114999   4.120   3.158   3.670 -0.4403  0.2464  0.4096
 1121SOL    HW215000   4.231   3.065   3.717 -1.8775 -0.8316  0.4948
 1122SOL     OW15001   3.386   3.049   7.318 -0.9799 -0.0026  0.3387
 1122SOL    HW115002   3.345   2.965   7.302  0.6616 -0.8628  0.5818
 1122SOL    HW215003   3.439   3.055   7.239  0.1816 -2.4191  0.9329
 1123SOL     OW15004   1.448   2.353   6.436  0.0685 -0.7783  0.1163
 1123SOL    HW115005   1.418   2.421   6.375  0.0325 -2.0511 -1.2794
 1123SOL    HW215006   1.374   2.353   6.497  0.5090 -0.9818  0.6455
 1124SOL     OW15007   0.090   1.860  10.197 -0.3204  0.0651 -0.2574
 1124SOL    HW115008   0.055   1.782  10.153 -1.7753  0.1668  0.7136
 1124SOL    HW215009   0.103   1.828  10.286 -0.3400  1.9378  0.4170
 1125SOL     OW15010   0.278   4.339   0.455  0.3851 -0.1357 -0.2133
 1125SOL    HW115011   0.271   4.270   0.389  2.5632 -1.2386  0.6971
 1125SOL    HW215012   0.204   4.397   0.437  0.1405  0.0056  1.2496
 1126SOL     OW15013   4.303   0.137   0.907 -0.2974  0.1311  0.0003
 1126SOL    HW115014   4.235   0.069   0.905 -1.0441  0.8546  0.8666
 1126SOL    HW215015   4.318   0.148   0.813  0.9257 -0.2225  0.1613
 1127SOL     OW15016   1.283   3.791  12.682  0.0307  0.1608 -0.4611
 1127SOL    HW115017   1.267   3.863  12.622 -0.2886  0.0699 -0.4828
 1127SOL    HW215018   1.340   3.843  12.739  2.8826 -1.1325 -2.1520
 1128SOL     OW15019   3.098   3.056   3.404  0.0949 -0.1564 -0.2703
 1128SOL    HW115020   3.147   2.975   3.391 -2.8597 -2.1958  1.2436
 1128SOL    HW215021   3.120   3.111   3.329  0.8025  0.3902  0.3290
 1129SOL     OW15022   0.754   4.030  10.940 -0.3087  0.6788  0.0940
 1129SOL    HW115023   0.785   4.078  11.017 -0.3102 -0.1929  0.6377
 1129SOL    HW215024   0.839   4.001  10.906  1.1628  1.6156  2.9473
 1130SOL     OW15025   2.124   1.798   1.644 -0.1340  0.7562  0.4946
 1130SOL    HW115026   2.096   1.887   1.665  0.6371  1.0549  0.2632
 1130SOL    HW215027   2.112   1.795   1.549  2.1836  1.0810  0.1989
 1131SOL     OW15028   0.974   2.612  10.369  0.6166  0.6065  1.1902
 1131SOL    HW115029   0.941   2.631  10.280 -0.3440 -3.4709  0.6742
 1131SOL    HW215030   0.984   2.701  10.403  0.2809  0.1891  2.3475
 1132SOL     OW15031   0.071   0.055   5.538 -0.4377  0.6996 -0.4670
 1132SOL    HW115032   4.714   0.056   5.520 -1.0425 -0.6122  2.6404
 1132SOL    HW215033   0.078   4.705   5.577  0.2906  0.6887 -0.6260
 1133SOL     OW15034   0.456   3.396  16.439 -0.3225  0.3509  0.4527
 1133SOL    HW115035   0.520   3.324  16.444 -0.9779 -0.1402  1.7663
 1133SOL    HW215036   0.434   3.403  16.532 -1.2393  0.5717  0.2158
 1134SOL     OW15037   3.863   3.640   7.862 -0.3481  0.3425 -0.9734
 1134SOL    HW115038   3.858   3.559   7.811 -0.2473 -0.2932  0.0315
 1134SOL    HW215039   3.920   3.607   7.931 -1.2940 -1.5795 -1.1130
 1135SOL     OW15040   2.893   1.863   5.830 -0.9954  0.1554 -0.5562
 1135SOL    HW115041   2.902   1.775   5.793  1.2716  0.9721 -1.9565
 1135SOL    HW215042   2.982   1.888   5.855 -0.8817 -2.2640  1.4339
 1136SOL     OW15043   0.286   3.590   2.786  0.2004  0.1566 -0.5441
 1136SOL    HW115044   0.320   3.515   2.737 -0.7867  0.4496 -1.6651
 1136SOL    HW215045   0.298   3.567   2.878  0.9469 -0.6046 -0.8375
 1137SOL     OW15046   2.193   0.991   7.338  0.3044  0.4763 -0.0443
 1137SOL    HW115047   2.246   1.053   7.288  0.8475  0.2066  0.1966
 1137SOL    HW215048   2.259   0.963   7.402  0.5987  4.2707  1.2710
 1138SOL     OW15049   3.264   1.701   7.735 -0.2857 -0.0744 -0.1024
 1138SOL    HW115050   3.258   1.610   7.706  2.5548 -0.8420  1.6938
 1138SOL    HW215051   3.210   1.745   7.669  0.1895  2.5619  1.2401
 1139SOL     OW15052   1.630   1.957   6.719 -0.5138  0.2762 -0.3462
 1139SOL    HW115053   1.538   1.972   6.693 -1.3261 -2.1249  1.1303
 1139SOL    HW215054   1.677   2.034   6.688 -1.4187  0.2171 -1.9365
 1140SOL     OW15055   1.042   1.848  16.994 -0.6388 -0.2543  0.2150
 1140SOL    HW115056   0.985   1.825  17.067  2.1518  0.5627  2.6606
 1140SOL    HW215057   0.979   1.892  16.937 -1.5698 -0.0746  1.3871
 1141SOL     OW15058   2.556   0.390   3.818  0.6818  0.2091 -0.3888
 1141SOL    HW115059   2.651   0.399   3.821  0.7238 -0.5611  0.4368
 1141SOL    HW215060   2.538   0.303   3.781 -1.4233  0.4147  0.1147
 1142SOL     OW15061   4.333   0.696  10.547 -0.1826 -0.6155  0.3688
 1142SOL    HW115062   4.412   0.703  10.600  0.0064  1.0712 -0.1360
 1142SOL    HW215063   4.368   0.747  10.474 -1.1258 -2.3877 -1.3226
 1143SOL     OW15064   2.400   4.228   2.027 -0.3647 -0.0742  0.3087
 1143SOL    HW115065   2.434   4.283   1.957  0.5558 -0.1796  0.6710
 1143SOL    HW215066   2.373   4.295   2.090 -1.3682  1.0391 -1.3007
 1144SOL     OW15067   3.958   3.744   4.451 -0.7587 -0.4470  0.3057
 1144SOL    HW115068   3.938   3.734   4.544 -1.0022 -0.1708  0.2830
 1144SOL    HW215069   4.049   3.714   4.444 -0.8655 -0.4011 -1.2051
 1145SOL     OW15070   2.703   2.245   7.911 -0.2379  0.2171 -0.3746
 1145SOL    HW115071   2.759   2.209   7.980 -0.1343  0.1010 -0.5220
 1145SOL    HW215072   2.715   2.339   7.924  0.8489  0.5100 -3.6236
 1146SOL     OW15073   0.371   3.634   9.542  0.4679 -0.3345 -0.2360
 1146SOL    HW115074   0.369   3.652   9.448  1.2565  0.7618 -0.0477
 1146SOL    HW215075   0.357   3.725   9.568  3.0171 -1.0500  3.6216
 1147SOL     OW15076   1.485   4.005   8.070  0.3551  0.3657 -0.1294
 1147SOL    HW115077   1.486   4.097   8.043  0.2764  0.7414  1.1397
 1147SOL    HW215078   1.439   3.972   7.992 -0.0159 -0.0808  0.2801
 1148SOL     OW15079   4.487   3.857   4.166 -0.5411 -0.2600 -0.0912
 1148SOL    HW115080   4.483   3.912   4.088 -0.1916 -0.0556  0.0312
 1148SOL    HW215081   4.497   3.916   4.241  0.7327 -0.5724  0.0007
 1149SOL     OW15082   4.643   0.381   5.235 -0.3089 -0.0470  0.3602
 1149SOL    HW115083   4.560   0.335   5.245 -0.1747 -0.4208 -0.2454
 1149SOL    HW215084   4.703   0.310   5.214  1.0582  0.6225  1.9781
 1150SOL     OW15085   4.092   2.532   7.300  0.3484 -0.1618 -0.0963
 1150SOL    HW115086   4.077   2.442   7.273  1.4855  0.1350 -1.7291
 1150SOL    HW215087   4.145   2.521   7.378 -0.9389 -0.5534  0.7125
 1151SOL     OW15088   4.092   2.602   7.757 -0.0122  0.3864 -0.1286
 1151SOL    HW115089   4.127   2.561   7.678  1.2050 -1.6419  1.4684
 1151SOL    HW215090   4.086   2.532   7.821  0.4167  1.3465  0.9680
 1152SOL     OW15091   3.046   0.144  10.644  0.2062 -0.3204 -0.1548
 1152SOL    HW115092   3.104   0.216  10.618 -2.2293  0.9964 -1.9660
 1152SOL    HW215093   3.119   0.091  10.676 -0.3516 -1.0084 -0.0077
 1153SOL     OW15094   2.488   3.998  15.849  0.3489 -0.6433 -0.5322
 1153SOL    HW115095   2.403   4.039  15.834  0.7889  0.1671 -0.8188
 1153SOL    HW215096   2.534   4.082  15.845 -0.4328 -0.2219 -0.7096
 1154SOL     OW15097   2.452   4.262   3.326 -0.2507 -0.1311  0.0836
 1154SOL    HW115098   2.485   4.178   3.357 -1.8715 -1.1071 -0.8489
 1154SOL    HW215099   2.364   4.233   3.303 -0.2197 -0.1433 -0.0205
 1155SOL     OW15100   2.975   3.924   7.437 -0.2637 -0.3613 -0.5345
 1155SOL    HW115101   2.944   3.964   7.518  0.9821  0.5254 -0.5006
 1155SOL    HW215102   2.938   3.987   7.375 -1.4681  0.7127  1.2991
 1156SOL     OW15103   1.134   1.061   8.847  0.0137  0.3514  0.3404
 1156SOL    HW115104   1.071   1.052   8.775  0.2539  1.0386  0.0448
 1156SOL    HW215105   1.186   1.134   8.814  0.0764 -0.1538 -0.7043
 1157SOL     OW15106   0.740   0.323   4.029  0.4304  0.0809  0.3713
 1157SOL    HW115107   0.718   0.294   3.940  2.2420 -1.1374  0.3209
 1157SOL    HW215108   0.829   0.296   4.048 -0.1453 -2.0305  0.1190
 1158SOL     OW15109   3.293   2.123   4.813 -0.6692 -0.0984  0.5563
 1158SOL    HW115110   3.277   2.203   4.863  1.0366 -0.4714  1.6765
 1158SOL    HW215111   3.257   2.062   4.878  0.3418 -1.8247 -0.4983
 1159SOL     OW15112   1.288   2.628   8.027 -0.6652  0.7756 -0.2573
 1159SOL    HW115113   1.320   2.716   8.010  1.1569  0.2372  0.3708
 1159SOL    HW215114   1.196   2.643   8.007 -0.9129 -1.2607 -0.6879
 1160SOL     OW15115   2.464   0.838   6.575  0.1974 -0.3205 -0.6763
 1160SOL    HW115116   2.509   0.857   6.657 -1.5480 -2.4064  0.7389
 1160SOL    HW215117   2.534   0.796   6.524  0.0415 -0.1470 -1.0403
 1161SOL     OW15118   2.066   3.561   4.022  0.0734  0.5677  0.1062
 1161SOL    HW115119   2.049   3.651   4.052  0.0085  1.0149 -1.2941
 1161SOL    HW215120   2.139   3.577   3.963  1.7048  2.0233  2.5048
 1162SOL     OW15121   1.770   3.225  13.228  0.4090 -0.4011  0.5822
 1162SOL    HW115122   1.768   3.168  13.150 -1.5468  2.0781 -1.1641
 1162SOL    HW215123   1.861   3.207  13.254  0.4525  1.2888  1.5743
 1163SOL     OW15124   1.722   2.304   3.784 -0.3882 -0.3617  0.0612
 1163SOL    HW115125   1.727   2.365   3.858 -1.4890  0.7279 -0.7724
 1163SOL    HW215126   1.626   2.294   3.788 -0.6138  1.9401  0.5015
 1164SOL     OW15127   2.049   3.656   0.544  0.2544  0.5391  0.9365
 1164SOL    HW115128   1.983   3.643   0.477  1.4839  0.1794 -0.2025
 1164SOL    HW215129   2.023   3.743   0.573  4.0596  1.3925  1.7846
 1165SOL     OW15130   0.667   2.548   8.870 -0.3878  0.2981 -0.2093
 1165SOL    HW115131   0.657   2.639   8.898  0.6940  1.0676 -2.3710
 1165SOL    HW215132   0.655   2.556   8.776 -1.1136 -1.7619 -0.2965
 1166SOL     OW15133   3.706   2.728   8.740  0.6613 -0.3694 -0.4435
 1166SOL    HW115134   3.701   2.649   8.794  2.6216  0.5682  1.1446
 1166SOL    HW215135   3.787   2.767   8.773  0.1243  0.0245  0.4220
 1167SOL     OW15136   2.790   2.335   5.785 -0.3565 -0.0457 -0.3948
 1167SOL    HW115137   2.825   2.418   5.820 -1.7104  0.6771 -0.7760
 1167SOL    HW215138   2.737   2.374   5.716  0.6129  1.5709 -0.2358
 1168SOL     OW15139   2.858   3.708   5.393 -0.2232 -0.1924 -0.6735
 1168SOL    HW115140   2.901   3.627   5.416 -3.2510 -1.5147  0.3663
 1168SOL    HW215141   2.939   3.755   5.374  0.3193 -1.3891 -1.2675
 1169SOL     OW15142   2.637   0.435  10.181 -0.2375  0.1462 -0.1444
 1169SOL    HW115143   2.609   0.343  10.179  2.4896 -0.7016  0.1154
 1169SOL    HW215144   2.575   0.453  10.251  0.3484  2.5553 -0.2596
 1170SOL     OW15145   3.391   0.827  14.624 -0.5043  0.1124 -0.0232
 1170SOL    HW115146   3.425   0.805  14.537 -1.1426 -1.6613  0.1814
 1170SOL    HW215147   3.471   0.861  14.663  0.0118 -1.2085  0.0460
 1171SOL     OW15148   0.333   2.235  12.391  0.4491  0.2839  0.2996
 1171SOL    HW115149   0.248   2.275  12.409 -0.1116 -0.2147 -1.1757
 1171SOL    HW215150   0.321   2.184  12.311  0.6367  1.2253 -0.3279
 1172SOL     OW15151   4.573   2.537  15.335  0.9902  0.5277 -0.7811
 1172SOL    HW115152   4.619   2.484  15.399 -0.7217  0.1897  0.1840
 1172SOL    HW215153   4.613   2.619  15.363 -1.1668  0.2785  3.0566
 1173SOL     OW15154   0.533   3.884   6.058  0.1474 -0.5576  0.1672
 1173SOL    HW115155   0.515   3.978   6.061  1.6209 -0.2898  0.7666
 1173SOL    HW215156   0.473   3.855   6.127  0.1990  2.2913  1.4156
 1174SOL     OW15157   0.994   4.184   9.052 -0.2628 -0.2151 -0.4818
 1174SOL    HW115158   0.983   4.156   8.961 -0.7567  1.3242 -0.8881
 1174SOL    HW215159   0.987   4.097   9.090  2.0593 -0.0743  0.2819
 1175SOL     OW15160   0.562   3.036  15.269 -0.1054  0.7073 -0.1624
 1175SOL    HW115161   0.610   3.119  15.273  1.8903 -0.3905 -1.3952
 1175SOL    HW215162   0.544   3.037  15.363 -1.2144 -1.7512 -0.3531
 1176SOL     OW15163   4.418   2.777   6.585  0.1875  0.2423 -0.0029
 1176SOL    HW115164   4.367   2.853   6.558 -0.0376 -0.4650 -1.5950
 1176SOL    HW215165   4.494   2.831   6.607  2.0272 -2.1777 -0.4173
 1177SOL     OW15166   4.060   4.375   1.743 -0.2495  0.0111 -0.5908
 1177SOL    HW115167   4.094   4.456   1.781 -0.2001 -0.0187 -0.5710
 1177SOL    HW215168   3.966   4.395   1.740 -0.1974  0.4578  1.1089
 1178SOL     OW15169   1.135   0.649   1.579 -0.4135 -0.4476  0.2237
 1178SOL    HW115170   1.086   0.731   1.579 -1.0269 -0.8188 -1.4611
 1178SOL    HW215171   1.075   0.598   1.634 -0.9890  0.1720  0.1658
 1179SOL     OW15172   1.079   1.174   7.562  0.2520 -0.2675  0.4969
 1179SOL    HW115173   1.044   1.203   7.477 -2.5683 -1.9867  1.0780
 1179SOL    HW215174   1.114   1.251   7.606  1.1615 -0.4633  0.1093
 1180SOL     OW15175   1.935   0.466   5.141  0.1078  0.5869  0.2031
 1180SOL    HW115176   1.995   0.537   5.117  0.5653  0.0804 -0.1302
 1180SOL    HW215177   1.881   0.513   5.205 -1.5951 -1.3146  0.1577
 1181SOL     OW15178   2.491   2.294   0.774 -0.6946  0.0079  0.0062
 1181SOL    HW115179   2.544   2.221   0.741  0.2175  2.0600 -2.9472
 1181SOL    HW215180   2.423   2.303   0.707  2.9738 -1.9819 -3.9588
 1182SOL     OW15181   0.030   3.450  13.238 -0.2055  0.0133 -0.5037
 1182SOL    HW115182   0.016   3.545  13.241  3.0432  0.4586 -0.2765
 1182SOL    HW215183   4.674   3.425  13.238 -0.4344  0.8825  0.2707
 1183SOL     OW15184   2.779   0.402  13.861  0.2898  0.1521  0.0590
 1183SOL    HW115185   2.710   0.467  13.874  0.8314  0.7663 -0.1352
 1183SOL    HW215186   2.859   0.446  13.834  1.6328 -1.6184  1.1719
 1184SOL     OW15187   1.789   2.310   8.762 -0.1615  0.0009  0.3499
 1184SOL    HW115188   1.852   2.336   8.695 -0.4852  0.2681  0.1467
 1184SOL    HW215189   1.784   2.391   8.814  2.0233 -0.1170  0.7702
 1185SOL     OW15190   3.658   0.996   3.824 -0.9486  0.9048 -0.0074
 1185SOL    HW115191   3.740   1.033   3.792 -0.7257  0.0998 -0.3702
 1185SOL    HW215192   3.632   0.928   3.761  0.1324  0.1218  0.3828
 1186SOL     OW15193   0.882   4.693   0.550  0.0258 -0.6531  0.5853
 1186SOL    HW115194   0.912   0.007   0.626 -0.6442  0.5308  0.0654
 1186SOL    HW215195   0.882   4.608   0.593 -1.6806 -0.0809  1.6810
 1187SOL     OW15196   3.927   1.190   4.302  0.0560 -0.3837 -0.3013
 1187SOL    HW115197   3.913   1.212   4.210 -2.9267  0.1667  0.2718
 1187SOL    HW215198   4.004   1.135   4.294 -0.4982 -0.9106 -1.8186
 1188SOL     OW15199   3.924   2.917   2.895 -0.3162 -0.6094  0.1670
 1188SOL    HW115200   3.878   2.883   2.972  2.0988 -2.1796  0.9143
 1188SOL    HW215201   3.851   2.935   2.837  0.7035 -0.4768 -1.0696
 1189SOL     OW15202   0.974   3.893   7.729  0.0996  0.3729 -0.1908
 1189SOL    HW115203   1.043   3.861   7.671 -0.1758 -0.4505 -0.0743
 1189SOL    HW215204   0.955   3.981   7.698 -2.1636 -0.4745 -1.2613
 1190SOL     OW15205   1.892   2.371   5.362 -0.9353  0.3304 -0.5436
 1190SOL    HW115206   1.847   2.319   5.428 -0.5123  0.9109  0.2016
 1190SOL    HW215207   1.826   2.439   5.349 -1.1519  0.1474 -0.4080
 1191SOL     OW15208   3.552   4.402   4.409  0.2089 -0.2922  0.4016
 1191SOL    HW115209   3.510   4.457   4.343 -0.9779 -2.9525 -1.0611
 1191SOL    HW215210   3.594   4.456   4.475 -0.7775 -0.3091  1.0439
 1192SOL     OW15211   0.331   3.096   6.523  0.1801 -0.1106 -0.2614
 1192SOL    HW115212   0.312   3.189   6.522  0.9852  0.0660  0.2017
 1192SOL    HW215213   0.417   3.101   6.566  0.0076 -0.9493  0.1898
 1193SOL     OW15214   2.276   3.048  11.488  0.3277 -0.2645  0.0228
 1193SOL    HW115215   2.293   2.961  11.525 -0.6108 -0.2715  0.4220
 1193SOL    HW215216   2.324   3.103  11.550  1.4115 -1.5084  0.3159
 1194SOL     OW15217   1.285   0.809  12.105  0.2616  0.4906 -0.3945
 1194SOL    HW115218   1.277   0.819  12.200  1.6064  0.8970 -0.3244
 1194SOL    HW215219   1.221   0.739  12.095  0.5275 -0.0620  1.8163
 1195SOL     OW15220   0.214   3.335   8.167  0.1820 -0.6081  0.0693
 1195SOL    HW115221   0.300   3.375   8.181 -0.1981  0.5411 -0.8592
 1195SOL    HW215222   0.231   3.248   8.202  0.8696 -0.1801  0.7972
 1196SOL     OW15223   0.351   0.145   5.532  0.2577  0.2828  0.3356
 1196SOL    HW115224   0.342   0.236   5.504 -0.7510  0.2584  0.5717
 1196SOL    HW215225   0.260   0.115   5.536  0.9452 -1.9752 -0.4799
 1197SOL     OW15226   1.821   4.052  12.920 -0.6111  0.2447  0.6745
 1197SOL    HW115227   1.734   4.077  12.951 -0.5564 -1.0270  1.8763
 1197SOL    HW215228   1.816   4.107  12.842  1.4112 -0.1229  0.2778
 1198SOL     OW15229   0.531   1.864   8.326 -0.3546 -0.6648 -0.9820
 1198SOL    HW115230   0.449   1.828   8.358 -0.1032 -1.3741 -1.1318
 1198SOL    HW215231   0.540   1.845   8.233  1.2040 -1.4465 -0.6671
 1199SOL     OW15232   4.232   3.473   2.085 -0.2922 -0.5566  0.1148
 1199SOL    HW115233   4.154   3.521   2.111 -0.1836 -0.4880  0.3178
 1199SOL    HW215234   4.293   3.475   2.159  0.1676 -0.6162 -0.2651
 1200SOL     OW15235   0.039   4.420   8.499 -0.6344 -0.3628 -0.2734
 1200SOL    HW115236   0.098   4.422   8.424  0.1756 -1.0890  0.3484
 1200SOL    HW215237   0.029   4.512   8.523 -2.2225 -0.6333  0.1054
 1201SOL     OW15238   0.023   2.997   8.410 -0.7953 -0.4946 -0.6505
 1201SOL    HW115239   4.706   3.072   8.436  1.0833  0.7696 -0.4290
 1201SOL    HW215240   0.104   3.045   8.394 -0.2013 -0.9905  0.8153
 1202SOL     OW15241   3.547   4.120   4.458 -0.4576 -0.3482  0.1988
 1202SOL    HW115242   3.618   4.128   4.522 -2.3412  1.3895  2.0453
 1202SOL    HW215243   3.540   4.212   4.434 -1.3839 -0.4377  0.1124
 1203SOL     OW15244   0.902   0.600  15.860 -0.6508  0.3889  0.5044
 1203SOL    HW115245   0.843   0.644  15.922  0.9430  1.9975  0.8819
 1203SOL    HW215246   0.970   0.590  15.926 -1.0428  0.1155  0.8644
 1204SOL     OW15247   3.328   0.434   1.743  0.3008  0.3941 -0.2872
 1204SOL    HW115248   3.341   0.339   1.751 -1.3972  0.1894 -0.1217
 1204SOL    HW215249   3.285   0.442   1.658  3.3269 -1.6747 -2.0584
 1205SOL     OW15250   2.431   4.249   2.361  0.2272  0.6713  0.6203
 1205SOL    HW115251   2.347   4.295   2.352  0.6425  1.1496 -0.7156
 1205SOL    HW215252   2.421   4.200   2.443 -1.8042 -0.7900 -0.5049
 1206SOL     OW15253   0.570   3.816  10.929  0.3038 -0.0809 -0.3998
 1206SOL    HW115254   0.489   3.861  10.953  1.6419  1.3217  1.5644
 1206SOL    HW215255   0.628   3.890  10.909 -1.1842  0.9645 -0.8333
 1207SOL     OW15256   0.978   4.151   7.135  0.5865 -0.0739 -0.0106
 1207SOL    HW115257   1.067   4.181   7.114  1.5187 -2.3407  0.7388
 1207SOL    HW215258   0.986   4.086   7.205 -2.1721 -1.2175 -0.7776
 1208SOL     OW15259   1.287   3.660   8.396  0.2620 -0.0079  0.8972
 1208SOL    HW115260   1.281   3.566   8.380  2.9745 -0.0883  0.4239
 1208SOL    HW215261   1.266   3.690   8.308  0.0142 -0.4826  0.7940
 1209SOL     OW15262   3.894   2.367   6.598  0.0229  0.1294  0.0867
 1209SOL    HW115263   3.981   2.375   6.636  0.3150 -0.7443 -0.3908
 1209SOL    HW215264   3.897   2.438   6.534  1.4133  1.2846  1.4597
 1210SOL     OW15265   3.922   0.004   2.075 -0.4858 -0.3753 -0.3328
 1210SOL    HW115266   3.828   0.011   2.094 -0.3365 -2.2108  1.1206
 1210SOL    HW215267   3.944   4.693   2.155 -0.5296  1.3722  0.7162
 1211SOL     OW15268   0.067   3.484   4.497  0.3143  0.1712 -0.4434
 1211SOL    HW115269   0.077   3.558   4.557  0.7463  1.5399 -2.2007
 1211SOL    HW215270   0.035   3.420   4.561 -1.0378  0.6667 -0.6258
 1212SOL     OW15271   3.814   0.041   1.619  0.1293  0.2209 -0.5375
 1212SOL    HW115272   3.736   0.045   1.675  0.3708 -2.3324 -0.0001
 1212SOL    HW215273   3.771   0.045   1.533  0.7174 -1.7855 -0.9226
 1213SOL     OW15274   0.365   1.567   7.807 -0.2757  0.3973 -0.1560
 1213SOL    HW115275   0.343   1.650   7.766  0.3182  0.5001 -0.2670
 1213SOL    HW215276   0.313   1.506   7.755 -1.1351  1.0769 -0.0928
 1214SOL     OW15277   3.634   4.410  12.400 -0.7462  0.6880 -0.1869
 1214SOL    HW115278   3.583   4.462  12.338  0.0362  0.4578 -1.0308
 1214SOL    HW215279   3.703   4.476  12.412  0.3958 -0.9221  2.1439
 1215SOL     OW15280   1.129   1.143  11.005 -0.6474 -0.9886  0.3002
 1215SOL    HW115281   1.160   1.088  11.077  0.9812  1.1246  1.2326
 1215SOL    HW215282   1.108   1.225  11.050 -1.2636  0.4627 -2.6418
 1216SOL     OW15283   2.349   2.738   5.077 -0.0910  0.1431  0.2261
 1216SOL    HW115284   2.392   2.728   5.162  0.1977 -0.5948 -0.0108
 1216SOL    HW215285   2.265   2.692   5.085 -0.8316  1.3960 -0.2636
 1217SOL     OW15286   2.179   0.652   8.431 -0.6927  0.4213  0.0461
 1217SOL    HW115287   2.113   0.678   8.495 -0.4561 -0.9998  0.8871
 1217SOL    HW215288   2.229   0.595   8.490  2.4551  1.1113 -1.9570
 1218SOL     OW15289   3.178   2.380  10.622 -0.0080 -0.7622  0.0017
 1218SOL    HW115290   3.251   2.347  10.568 -0.4833  0.3023 -1.2849
 1218SOL    HW215291   3.114   2.402  10.554  1.6101 -2.2147 -2.0144
 1219SOL     OW15292   0.232   3.380  14.577 -0.2123 -0.3078  0.1073
 1219SOL    HW115293   0.248   3.373  14.672  2.9353  1.8022 -0.2537
 1219SOL    HW215294   0.246   3.475  14.568  1.5710 -0.3650  2.1116
 1220SOL     OW15295   1.579   2.268  10.057 -0.3234 -0.0767  0.0548
 1220SOL    HW115296   1.502   2.317  10.028 -0.0529 -0.2364 -0.9319
 1220SOL    HW215297   1.605   2.227   9.974 -0.6287  1.0864 -0.6156
 1221SOL     OW15298   3.931   4.033   6.359 -0.1398 -0.4746 -0.6435
 1221SOL    HW115299   4.013   3.990   6.335  1.4573  0.7285  2.6685
 1221SOL    HW215300   3.879   3.954   6.376  0.0370 -0.2813  0.7824
 1222SOL     OW15301   4.097   3.002   4.835 -0.2185 -0.5117 -0.1422
 1222SOL    HW115302   4.169   3.027   4.777 -1.4686  2.3347 -0.4716
 1222SOL    HW215303   4.035   3.070   4.811 -0.4580 -1.2375 -1.5540
 1223SOL     OW15304   4.268   0.999   3.559  0.0719  0.1602  0.6631
 1223SOL    HW115305   4.244   1.084   3.521  0.2830 -1.2434 -2.6468
 1223SOL    HW215306   4.348   0.978   3.511  0.4482 -0.2696  1.4733
 1224SOL     OW15307   2.721   3.596   0.221 -0.2824 -0.1152 -0.5536
 1224SOL    HW115308   2.648   3.655   0.202  0.5690  1.5704  1.3557
 1224SOL    HW215309   2.714   3.559   0.134 -0.3966 -0.0540 -0.5704
 1225SOL     OW15310   1.798   3.575  15.352 -0.1459 -0.6680 -0.1385
 1225SOL    HW115311   1.876   3.532  15.387  0.1064  0.6947  0.9773
 1225SOL    HW215312   1.790   3.646  15.416  2.3114  1.3828 -2.0991
 1226SOL     OW15313   4.595   0.135   6.704  0.6075  0.6776  0.3294
 1226SOL    HW115314   4.658   0.152   6.634 -0.2336 -1.8459 -1.0180
 1226SOL    HW215315   4.581   0.224   6.737 -0.8751  0.9041 -0.9095
 1227SOL     OW15316   1.948   0.900   5.540  0.0174  1.0015 -0.3494
 1227SOL    HW115317   1.979   0.972   5.595  0.1848 -0.0294  0.8898
 1227SOL    HW215318   1.920   0.841   5.610  0.1420  2.0631  0.6068
 1228SOL     OW15319   0.748   0.822   3.394 -0.0769  0.3435 -0.0743
 1228SOL    HW115320   0.783   0.734   3.381  1.0737  0.6987  0.5755
 1228SOL    HW215321   0.813   0.856   3.455 -0.1415 -2.5875  1.6170
 1229SOL     OW15322   2.209   3.269  14.088  0.2004  0.0603 -0.1981
 1229SOL    HW115323   2.249   3.300  14.007  1.7581  0.0884  0.5813
 1229SOL    HW215324   2.159   3.191  14.065  0.8756 -1.2982  2.8547
 1230SOL     OW15325   1.407   2.863   7.695 -0.0207 -0.0924 -0.3915
 1230SOL    HW115326   1.320   2.824   7.683 -0.9121  1.8317 -0.2354
 1230SOL    HW215327   1.456   2.818   7.626  0.2961  2.1040 -1.5753
 1231SOL     OW15328   2.296   4.370  16.471 -0.2158 -0.6201 -0.0671
 1231SOL    HW115329   2.365   4.385  16.535 -1.6113  0.8242  1.0768
 1231SOL    HW215330   2.337   4.402  16.390  2.5630 -2.7495  0.5106
 1232SOL     OW15331   1.103   1.803   2.714  0.3162  0.4951  0.2000
 1232SOL    HW115332   1.148   1.840   2.790  0.1826  1.4191 -0.1769
 1232SOL    HW215333   1.172   1.749   2.675  0.4129  0.4142  0.4880
 1233SOL     OW15334   1.372   0.144   7.502 -0.4064  0.0892 -0.0294
 1233SOL    HW115335   1.299   0.095   7.463 -0.3847 -1.2180  1.6151
 1233SOL    HW215336   1.348   0.132   7.593 -0.0753 -0.1757  0.0241
 1234SOL     OW15337   0.306   2.826   4.610 -0.3120 -0.3442  0.2556
 1234SOL    HW115338   0.321   2.815   4.704 -0.3022 -2.9837 -0.0585
 1234SOL    HW215339   0.394   2.820   4.573 -0.3310  2.0769 -0.2332
 1235SOL     OW15340   1.667   2.132   8.582 -0.1478  0.1305 -0.6422
 1235SOL    HW115341   1.662   2.066   8.652 -0.5000  0.2079 -0.5938
 1235SOL    HW215342   1.692   2.209   8.632 -0.9550 -0.5742  0.8689
 1236SOL     OW15343   3.105   3.186   1.346 -0.1035 -0.0771 -0.0984
 1236SOL    HW115344   3.120   3.187   1.441  1.0052 -0.5564 -0.2693
 1236SOL    HW215345   3.015   3.155   1.333 -1.1581  1.9973  2.1432
 1237SOL     OW15346   4.381   0.610   5.998 -0.1881 -0.1050  0.0417
 1237SOL    HW115347   4.441   0.663   5.945 -0.2878  1.3724  1.4221
 1237SOL    HW215348   4.298   0.641   5.961 -1.4158 -1.3937  1.7431
 1238SOL     OW15349   2.450   3.153   7.115  0.0924  0.7384 -0.5374
 1238SOL    HW115350   2.493   3.234   7.142  1.5740 -0.4569  0.6432
 1238SOL    HW215351   2.522   3.093   7.098 -2.3638 -1.4369 -3.4127
 1239SOL     OW15352   0.106   2.657   4.504 -0.0421 -0.1723  0.5310
 1239SOL    HW115353   0.177   2.713   4.534 -0.6101  1.1829 -0.6819
 1239SOL    HW215354   0.158   2.586   4.465  1.4004 -0.3504  2.7839
 1240SOL     OW15355   2.361   4.360   1.399  0.2203  0.2308  0.0425
 1240SOL    HW115356   2.428   4.420   1.366  1.1561 -0.8608 -0.0750
 1240SOL    HW215357   2.321   4.325   1.319  1.0916 -0.8925  0.0873
 1241SOL     OW15358   1.520   3.679   5.693  0.0120 -0.1263  0.1801
 1241SOL    HW115359   1.451   3.744   5.677  2.3503  2.5469  0.9979
 1241SOL    HW215360   1.541   3.643   5.607 -1.0671 -0.0516 -0.1273
 1242SOL     OW15361   0.609   2.218   4.127 -0.2788 -0.3909  0.2765
 1242SOL    HW115362   0.591   2.135   4.171 -1.3316 -1.4026 -2.0051
 1242SOL    HW215363   0.633   2.190   4.039 -0.2830 -0.4869  0.3065
 1243SOL     OW15364   3.963   2.146   4.621 -0.8180  0.0697  0.0949
 1243SOL    HW115365   3.896   2.090   4.659 -2.3426  0.8238 -1.4979
 1243SOL    HW215366   3.945   2.134   4.527 -0.7306 -1.7535  0.3143
 1244SOL     OW15367   1.576   3.171   5.349  0.6585  0.5686 -0.1275
 1244SOL    HW115368   1.525   3.110   5.294 -0.9787  0.9958  0.9272
 1244SOL    HW215369   1.507   3.231   5.376  1.1409  0.0423  2.2237
 1245SOL     OW15370   2.399   3.347   3.334  0.7626  0.0312  0.1535
 1245SOL    HW115371   2.463   3.283   3.303  0.3502 -0.1669 -0.3032
 1245SOL    HW215372   2.459   3.391   3.394 -0.3448  1.1971  0.4064
 1246SOL     OW15373   1.225   3.822   9.194  0.5300  0.2969  0.2955
 1246SOL    HW115374   1.139   3.857   9.170  0.2175 -0.8103 -0.2190
 1246SOL    HW215375   1.260   3.893   9.247  0.9490 -0.2707  0.7883
 1247SOL     OW15376   4.314   2.952   3.494  0.5969  0.1840  0.0528
 1247SOL    HW115377   4.331   3.027   3.551 -2.6005  0.2851  0.8389
 1247SOL    HW215378   4.242   2.992   3.445  0.2035  0.7425  1.0764
 1248SOL     OW15379   2.588   0.098   6.997  0.8967  0.0611  0.8179
 1248SOL    HW115380   2.634   0.176   6.966  0.7614  0.3198  1.2735
 1248SOL    HW215381   2.651   0.027   6.983  1.0787  0.0277  1.8206
 1249SOL     OW15382   1.099   0.053   9.679  0.0560 -0.5578  0.4643
 1249SOL    HW115383   1.145   0.018   9.602 -0.0661  1.4932 -0.5552
 1249SOL    HW215384   1.139   0.013   9.756 -0.2835 -2.3216 -0.2742
 1250SOL     OW15385   0.812   3.351  16.083 -0.2341  0.5165 -0.2229
 1250SOL    HW115386   0.858   3.332  16.001  0.8580 -1.2003  0.7684
 1250SOL    HW215387   0.733   3.387  16.044 -1.1610 -2.1758 -0.8115
 1251SOL     OW15388   3.093   2.198   8.827  0.0553 -0.1186  0.1997
 1251SOL    HW115389   3.064   2.145   8.901 -1.2407 -0.9665 -0.9015
 1251SOL    HW215390   3.098   2.122   8.768 -0.7465 -0.8249  1.0434
 1252SOL     OW15391   4.212   2.599   3.730 -0.2326  0.9524 -0.3640
 1252SOL    HW115392   4.212   2.668   3.797 -0.4998  1.5050 -0.9267
 1252SOL    HW215393   4.202   2.526   3.791  1.2231  0.2617 -0.9498
 1253SOL     OW15394   1.476   1.611   4.019  0.6770 -0.0533 -0.2928
 1253SOL    HW115395   1.510   1.637   4.106  0.6535  0.7304 -0.5128
 1253SOL    HW215396   1.431   1.691   3.992  0.4497 -0.4164 -0.9619
 1254SOL     OW15397   1.129   4.409   9.021 -0.5391 -0.0065 -0.5613
 1254SOL    HW115398   1.083   4.329   9.048  0.9799 -0.0545  1.9377
 1254SOL    HW215399   1.166   4.379   8.937 -1.1652 -1.7752 -0.2063
 1255SOL     OW15400   0.374   0.266   8.857  0.5811 -0.1568 -0.1523
 1255SOL    HW115401   0.359   0.289   8.949  0.9968  0.1105 -0.1529
 1255SOL    HW215402   0.465   0.293   8.849  1.8262 -3.8818  1.5426
 1256SOL     OW15403   2.719   2.013   2.480 -0.1393  0.0020 -0.0648
 1256SOL    HW115404   2.636   2.062   2.476  0.0654  0.5051  1.4594
 1256SOL    HW215405   2.747   2.032   2.570 -0.9260  1.4726 -0.1118
 1257SOL     OW15406   2.367   4.193   4.818  0.0476  0.0227  0.3188
 1257SOL    HW115407   2.343   4.267   4.763 -1.0154 -0.5663 -0.0054
 1257SOL    HW215408   2.462   4.189   4.818  0.0496 -0.0892  1.1371
 1258SOL     OW15409   3.394   0.109   5.239 -0.2064  0.1567 -0.1693
 1258SOL    HW115410   3.306   0.101   5.200  0.0297 -1.5269 -0.3719
 1258SOL    HW215411   3.416   0.193   5.198 -0.2482  0.3512  0.2115
 1259SOL     OW15412   1.495   2.460  11.439 -0.2176 -0.2072  0.2742
 1259SOL    HW115413   1.548   2.472  11.518  0.4658  1.4580 -0.4429
 1259SOL    HW215414   1.511   2.535  11.383 -1.4532  0.5920  0.9867
 1260SOL     OW15415   2.280   2.548  12.268  0.1610 -0.6409  0.0999
 1260SOL    HW115416   2.191   2.552  12.303 -0.7747 -0.0250 -2.3436
 1260SOL    HW215417   2.267   2.596  12.185 -0.7654 -1.2765 -0.1189
 1261SOL     OW15418   2.176   1.576   7.991  0.3769 -0.7268  0.6193
 1261SOL    HW115419   2.234   1.579   7.915 -2.6442  1.1214 -1.6159
 1261SOL    HW215420   2.250   1.589   8.050  2.3643  0.2619 -2.0810
 1262SOL     OW15421   2.993   1.446   6.901 -0.0496 -0.2087  0.3253
 1262SOL    HW115422   3.055   1.519   6.895 -0.5383  0.2303  0.5996
 1262SOL    HW215423   2.913   1.485   6.865 -0.3515 -2.1375 -1.0853
 1263SOL     OW15424   0.601   0.129  10.993 -0.3024  0.7390 -0.1783
 1263SOL    HW115425   0.553   0.211  11.011 -2.0147 -0.5504  1.1438
 1263SOL    HW215426   0.526   0.080  10.961  0.3629  1.0852 -2.2808
 1264SOL     OW15427   3.551   0.703  12.829 -0.4788 -0.1431 -0.4564
 1264SOL    HW115428   3.644   0.685  12.814 -0.4255  0.2668 -0.6150
 1264SOL    HW215429   3.556   0.798  12.820 -0.4177 -0.0814  0.1762
 1265SOL     OW15430   0.195   1.946   8.210  0.1579 -0.5637  0.4083
 1265SOL    HW115431   0.216   1.891   8.134  0.5438  1.1972 -0.7676
 1265SOL    HW215432   0.183   1.881   8.279 -0.4257 -0.2359  0.6153
 1266SOL     OW15433   2.149   0.236   8.889 -0.0558  0.5156  0.3022
 1266SOL    HW115434   2.177   0.178   8.960  0.2427  0.5412  0.2053
 1266SOL    HW215435   2.212   0.308   8.899 -0.0456  0.7334 -1.4838
 1267SOL     OW15436   3.790   0.092   1.353  0.2189 -0.3664  0.0029
 1267SOL    HW115437   3.720   0.038   1.315  0.0180 -0.8766  1.0954
 1267SOL    HW215438   3.756   0.179   1.372 -1.3646 -1.2980  1.4397
 1268SOL     OW15439   3.346   0.120   5.878  0.3662 -0.6628  0.4693
 1268SOL    HW115440   3.350   0.164   5.793 -0.6768  0.8541  1.2100
 1268SOL    HW215441   3.433   0.100   5.913  0.4993 -3.1228 -1.2632
 1269SOL     OW15442   3.582   2.814  14.164  0.3023 -0.1907 -0.1265
 1269SOL    HW115443   3.550   2.837  14.252  0.3631 -0.3961 -0.0499
 1269SOL    HW215444   3.606   2.903  14.141  1.1803  0.0381  1.6309
 1270SOL     OW15445   2.401   1.331   7.548  0.0454  0.1174  0.2197
 1270SOL    HW115446   2.478   1.274   7.552 -0.2766 -0.2266  1.4283
 1270SOL    HW215447   2.382   1.358   7.637 -2.1752  1.1367 -0.5661
 1271SOL     OW15448   2.763   2.816   7.701  0.1457  0.2940 -0.6289
 1271SOL    HW115449   2.785   2.723   7.709 -0.2524 -0.0998 -4.1192
 1271SOL    HW215450   2.786   2.826   7.608  1.9585  1.0995 -0.1028
 1272SOL     OW15451   0.604   0.909   8.931  0.1991 -0.2591 -0.0125
 1272SOL    HW115452   0.679   0.933   8.985 -0.9468  1.6967  0.6996
 1272SOL    HW215453   0.592   0.996   8.893 -0.2458  0.2550  1.3112
 1273SOL     OW15454   2.570   0.768   5.475  0.0103  0.1475 -0.2320
 1273SOL    HW115455   2.664   0.783   5.474  0.5536 -3.5232 -4.7571
 1273SOL    HW215456   2.545   0.807   5.559 -1.0999 -1.0964  0.0231
 1274SOL     OW15457   1.608   2.631  13.235 -0.2457  0.4225 -0.2477
 1274SOL    HW115458   1.521   2.603  13.205  1.2587 -2.3321 -2.0897
 1274SOL    HW215459   1.593   2.725  13.245 -0.3852  0.3992 -0.2368
 1275SOL     OW15460   2.398   0.494  11.869 -0.0819 -0.2480  0.2424
 1275SOL    HW115461   2.353   0.410  11.870  1.1846 -0.9479 -0.8308
 1275SOL    HW215462   2.449   0.482  11.949  0.0913 -1.5542 -0.0587
 1276SOL     OW15463   2.806   2.934   5.881  0.3453  0.4393  0.4371
 1276SOL    HW115464   2.711   2.921   5.878  0.2655  1.2325 -0.4707
 1276SOL    HW215465   2.833   2.866   5.819 -0.1415  0.8894 -0.2771
 1277SOL     OW15466   2.497   1.614   6.548 -0.8965  0.3926  0.0750
 1277SOL    HW115467   2.423   1.602   6.607 -0.7131  1.3614  0.4964
 1277SOL    HW215468   2.554   1.547   6.585  0.2276  1.5861  0.4940
 1278SOL     OW15469   4.000   2.796  14.766 -0.0993 -0.2117  0.5907
 1278SOL    HW115470   4.054   2.730  14.723 -0.1172 -0.2400  0.6117
 1278SOL    HW215471   4.017   2.760  14.853 -1.1507  0.1494  0.9495
 1279SOL     OW15472   4.735   3.309  11.594  0.2529 -0.6479 -0.2891
 1279SOL    HW115473   0.085   3.289  11.559  0.3772 -1.1570  0.2986
 1279SOL    HW215474   4.673   3.269  11.533 -0.4345  0.7770 -0.5439
 1280SOL     OW15475   3.001   0.732   4.405  0.6845  0.1687  0.4513
 1280SOL    HW115476   3.011   0.764   4.494 -0.4932  0.2983  0.5395
 1280SOL    HW215477   3.091   0.735   4.372  1.2463  0.7608  2.0445
 1281SOL     OW15478   2.193   2.923   2.962 -0.1621 -0.1469  0.1690
 1281SOL    HW115479   2.178   2.999   3.020 -2.9376 -0.0339 -0.6785
 1281SOL    HW215480   2.178   2.965   2.877  1.5568 -0.6576 -0.3745
 1282SOL     OW15481   0.604   2.073   3.146  0.1540  0.3154 -0.6311
 1282SOL    HW115482   0.523   2.069   3.197 -0.0544 -0.1485 -0.9941
 1282SOL    HW215483   0.584   2.154   3.099  0.2276  0.6781 -0.0381
 1283SOL     OW15484   4.680   0.179   4.376 -0.4077  0.0467  0.6382
 1283SOL    HW115485   4.606   0.241   4.373  0.1683  0.6249 -1.4917
 1283SOL    HW215486   4.635   0.094   4.382 -0.8548  0.0569 -2.5106
 1284SOL     OW15487   0.093   4.456   7.243  0.3734  0.5599  0.2991
 1284SOL    HW115488   0.070   4.456   7.336 -1.5661 -0.3061 -0.1910
 1284SOL    HW215489   0.015   4.423   7.198  1.2157  1.1780 -1.6344
 1285SOL     OW15490   1.645   4.369   8.471  0.8578  0.6369 -0.2068
 1285SOL    HW115491   1.570   4.427   8.458  1.2942  1.2364 -0.0295
 1285SOL    HW215492   1.670   4.384   8.562 -1.2318  0.8740  0.3338
 1286SOL     OW15493   2.752   4.546   3.309  0.2813  0.3738 -0.1577
 1286SOL    HW115494   2.696   4.491   3.363  1.4828 -3.8919 -3.2766
 1286SOL    HW215495   2.690   4.577   3.242 -1.0499 -2.0753 -0.0719
 1287SOL     OW15496   0.448   4.616  12.889  0.6322  0.0513  0.0240
 1287SOL    HW115497   0.488   4.702  12.898  2.5289 -0.9120  1.0225
 1287SOL    HW215498   0.394   4.624  12.811  0.0058  1.0288  0.5708
 1288SOL     OW15499   2.920   3.910   6.195  0.0162  0.1780  0.1975
 1288SOL    HW115500   2.979   3.931   6.123  0.6555 -1.4681  0.2300
 1288SOL    HW215501   2.862   3.986   6.193  1.4809  1.2820 -0.0855
 1289SOL     OW15502   3.101   4.318   4.178 -0.3319 -0.0317  0.3403
 1289SOL    HW115503   3.196   4.308   4.186 -0.2480  0.4556 -0.0681
 1289SOL    HW215504   3.087   4.345   4.087  0.8193 -0.4667  0.0344
 1290SOL     OW15505   2.747   1.086   5.754 -0.5022  0.3301  0.3036
 1290SOL    HW115506   2.790   1.035   5.822 -1.6390 -0.3842  0.4937
 1290SOL    HW215507   2.821   1.142   5.733 -0.0828  0.3413  1.8067
 1291SOL     OW15508   0.968   4.160   6.725 -0.4824 -0.7680  0.2551
 1291SOL    HW115509   0.958   4.163   6.630  0.8959  2.0244  0.1840
 1291SOL    HW215510   1.060   4.143   6.744 -0.4789 -1.2049 -0.1596
 1292SOL     OW15511   3.616   0.399   3.494  0.3128 -0.1432  0.1872
 1292SOL    HW115512   3.611   0.392   3.589 -0.3051 -0.2437  0.1426
 1292SOL    HW215513   3.595   0.492   3.482  0.3167 -0.4428 -2.2623
 1293SOL     OW15514   0.318   4.252   1.792  0.3410  0.0679 -0.6516
 1293SOL    HW115515   0.335   4.344   1.811  1.2877  0.1769 -2.0397
 1293SOL    HW215516   0.267   4.234   1.871 -0.3909  0.7248 -0.9707
 1294SOL     OW15517   1.476   1.364  13.653  0.0782  0.0035  0.3570
 1294SOL    HW115518   1.545   1.399  13.596 -0.3234 -0.2148 -0.2685
 1294SOL    HW215519   1.426   1.446  13.652  1.4145  0.8262  1.5781
 1295SOL     OW15520   3.340   3.890   8.253 -0.2419 -0.0948  0.7672
 1295SOL    HW115521   3.398   3.822   8.219  0.2120 -1.0113  3.3412
 1295SOL    HW215522   3.391   3.917   8.330 -0.0733 -0.9750  0.9624
 1296SOL     OW15523   4.687   2.086   3.875  0.0169 -0.1155 -0.1538
 1296SOL    HW115524   4.700   2.042   3.791  0.8718 -0.7628  0.3164
 1296SOL    HW215525   4.707   2.017   3.939 -0.5391 -0.4299 -0.3204
 1297SOL     OW15526   3.495   2.572  14.031 -0.5420 -0.0237  0.1116
 1297SOL    HW115527   3.538   2.643  14.080  2.1259 -2.1228  0.8226
 1297SOL    HW215528   3.490   2.503  14.097  0.0615  1.0712  1.3086
 1298SOL     OW15529   2.151   1.412  11.712  0.7674  0.2320  0.4835
 1298SOL    HW115530   2.199   1.332  11.688  0.3093  0.4198 -1.0383
 1298SOL    HW215531   2.202   1.451  11.783  1.3293  1.1415 -0.4212
 1299SOL     OW15532   0.333   1.442   3.272 -0.4696 -0.3375  0.2155
 1299SOL    HW115533   0.378   1.377   3.327 -1.0508 -1.2712 -0.4215
 1299SOL    HW215534   0.288   1.380   3.214  1.0849  0.5899 -1.9279
 1300SOL     OW15535   1.971   4.653   5.363 -0.0375 -0.3751  0.0439
 1300SOL    HW115536   1.961   4.704   5.443 -0.8388  0.9175 -0.8771
 1300SOL    HW215537   1.919   4.705   5.300 -0.3746  0.6104  1.1407
 1301SOL     OW15538   1.987   0.745   1.870  0.2137  0.1809 -0.4952
 1301SOL    HW115539   2.022   0.658   1.887  0.9571  0.2997 -1.4410
 1301SOL    HW215540   2.063   0.795   1.840  1.3697 -2.4628 -1.9318
 1302SOL     OW15541   3.567   0.204   4.015  0.8112  0.2232  0.1347
 1302SOL    HW115542   3.602   0.151   4.087  0.0392 -0.3404  0.0983
 1302SOL    HW215543   3.584   0.291   4.049 -2.5169  0.1629  2.0092
 1303SOL     OW15544   1.224   1.499  17.674  0.1503 -0.4572 -0.3873
 1303SOL    HW115545   1.139   1.528  17.642  0.2392 -0.8468 -0.9702
 1303SOL    HW215546   1.199   1.455   0.010  0.4968 -0.4213 -0.2579
 1304SOL     OW15547   0.766   4.558   4.398  0.3054 -0.5169  0.3883
 1304SOL    HW115548   0.827   4.496   4.359  2.7883  0.6850  2.3763
 1304SOL    HW215549   0.764   4.542   4.492 -0.5608 -0.2432  0.4198
 1305SOL     OW15550   4.244   2.133   4.855 -0.0932  0.3958 -0.1009
 1305SOL    HW115551   4.228   2.170   4.768  1.0699 -0.8639 -0.8613
 1305SOL    HW215552   4.227   2.040   4.840 -0.0747  0.3723  0.0230
 1306SOL     OW15553   4.645   2.555   9.202 -0.1944  0.2395  0.0427
 1306SOL    HW115554   4.589   2.580   9.276  1.5211  2.1409  0.6998
 1306SOL    HW215555   4.614   2.487   9.143  1.0367 -0.5588  0.3214
 1307SOL     OW15556   1.723   3.945   8.868 -0.0766 -0.1410  0.0817
 1307SOL    HW115557   1.774   3.990   8.936 -0.0768  1.5970 -1.0692
 1307SOL    HW215558   1.724   3.853   8.895 -0.2090  0.3588  1.7932
 1308SOL     OW15559   0.729   0.992  11.216 -0.0715 -0.3928 -0.1232
 1308SOL    HW115560   0.660   1.053  11.188 -0.2776 -0.2791  0.6347
 1308SOL    HW215561   0.747   0.940  11.138  1.9423  0.5897 -0.3087
 1309SOL     OW15562   2.171   1.433   6.375 -0.2196  0.4246  0.5304
 1309SOL    HW115563   2.239   1.426   6.307 -0.7314  0.8299 -0.0285
 1309SOL    HW215564   2.146   1.522   6.351  1.7831  0.2394 -2.2480
 1310SOL     OW15565   0.156   3.353  16.608 -0.1355  0.0802 -0.0078
 1310SOL    HW115566   0.244   3.351  16.645 -1.2413  0.8143  2.6118
 1310SOL    HW215567   0.162   3.274  16.554 -0.2335 -0.1692  0.3413
 1311SOL     OW15568   3.050   0.288  10.235 -0.1779 -0.5246 -0.2803
 1311SOL    HW115569   3.003   0.306  10.317  2.0047  0.4648  0.7466
 1311SOL    HW215570   2.990   0.221  10.203 -0.4013 -0.6598  0.4186
 1312SOL     OW15571   3.044   4.277   5.827 -0.5473 -0.2908 -0.5862
 1312SOL    HW115572   3.051   4.219   5.750  0.2189  0.3255 -0.9793
 1312SOL    HW215573   3.090   4.356   5.800  1.2349 -0.7756  1.0498
 1313SOL     OW15574   1.096   2.860  16.394  0.3277 -0.3886  0.3797
 1313SOL    HW115575   1.001   2.868  16.386  0.6190  0.9341 -1.7180
 1313SOL    HW215576   1.109   2.919  16.468 -0.4890  1.1941 -0.7459
 1314SOL     OW15577   4.477   0.657   9.264  0.3630 -0.1709  0.1180
 1314SOL    HW115578   4.530   0.599   9.319 -0.4789 -0.3831  0.7083
 1314SOL    HW215579   4.431   0.715   9.324  0.6370  0.5273 -0.3529
 1315SOL     OW15580   4.644   2.908   7.660  0.1189  0.8164 -0.5182
 1315SOL    HW115581   4.649   2.982   7.722 -2.2691  2.0229 -1.7763
 1315SOL    HW215582   4.550   2.890   7.668  0.0428  1.5613  0.3346
 1316SOL     OW15583   0.164   3.126   5.980 -1.1630  0.2541 -0.3978
 1316SOL    HW115584   0.210   3.175   6.048 -0.2943 -0.5660 -0.3928
 1316SOL    HW215585   0.170   3.044   6.030  2.3297 -0.1479 -1.5194
 1317SOL     OW15586   2.150   3.526   7.835  0.0946 -0.0160 -0.2215
 1317SOL    HW115587   2.241   3.509   7.858 -0.5907 -0.1175  2.4270
 1317SOL    HW215588   2.113   3.437   7.831  0.8388 -0.2982 -0.7839
 1318SOL     OW15589   3.577   0.954  12.770 -0.0163  0.3723 -0.7308
 1318SOL    HW115590   3.525   1.033  12.754 -0.8104 -0.1847 -0.9209
 1318SOL    HW215591   3.664   0.985  12.794  0.7341 -1.7836 -0.6227
 1319SOL     OW15592   2.828   0.803   9.768  0.1038 -0.7680  0.1044
 1319SOL    HW115593   2.736   0.787   9.750 -0.2740 -0.0006  1.3867
 1319SOL    HW215594   2.824   0.859   9.846 -0.7874  1.1457 -1.3369
 1320SOL     OW15595   3.136   3.420  15.173  0.1398 -0.2663 -0.5878
 1320SOL    HW115596   3.137   3.338  15.223 -1.4213  0.9259  1.4017
 1320SOL    HW215597   3.090   3.387  15.096 -1.5394 -1.3427  0.8676
 1321SOL     OW15598   0.279   3.361   9.320  0.3215 -0.4399  0.2385
 1321SOL    HW115599   0.306   3.452   9.331 -1.1551  0.1286 -0.8154
 1321SOL    HW215600   0.358   3.333   9.275 -0.1950  0.6099 -1.3190
 1322SOL     OW15601   1.410   1.667   4.706 -0.2589  0.0064 -0.1290
 1322SOL    HW115602   1.505   1.664   4.696 -0.4227 -1.3270 -1.2149
 1322SOL    HW215603   1.398   1.584   4.752 -0.3772 -0.5128 -1.1054
 1323SOL     OW15604   4.581   4.308   5.632 -0.5878  0.6738  0.4500
 1323SOL    HW115605   4.582   4.280   5.723  2.3315  0.1374  0.2664
 1323SOL    HW215606   4.665   4.273   5.601  0.1898  1.1069  2.0453
 1324SOL     OW15607   4.205   4.684   7.534  0.3700 -0.0858  0.3937
 1324SOL    HW115608   4.147   0.015   7.498  1.5942 -0.7355 -2.8324
 1324SOL    HW215609   4.158   4.650   7.609  0.1303 -2.0492 -0.6609
 1325SOL     OW15610   4.655   2.941  11.470 -0.4306 -0.6735  0.1414
 1325SOL    HW115611   4.645   2.971  11.561 -2.0816  3.3230 -1.3157
 1325SOL    HW215612   4.700   3.017  11.433  1.1549  0.2109  3.8277
 1326SOL     OW15613   3.904   3.899   7.764 -0.0560 -0.6939  0.1021
 1326SOL    HW115614   3.840   3.915   7.694 -0.0954  1.8019  0.7032
 1326SOL    HW215615   3.888   3.813   7.803  0.8495 -0.7085  0.4301
 1327SOL     OW15616   4.017   3.098   8.870  0.1881 -0.0976  0.2062
 1327SOL    HW115617   4.089   3.036   8.856 -0.4357 -1.0346  1.1948
 1327SOL    HW215618   4.069   3.139   8.940 -1.2378  1.3191  0.4334
 1328SOL     OW15619   2.181   1.646   2.012  0.1365 -0.7936  0.1010
 1328SOL    HW115620   2.242   1.678   1.945 -0.8939 -1.6418 -1.2387
 1328SOL    HW215621   2.230   1.568   2.036  0.0323 -1.4482 -1.8694
 1329SOL     OW15622   4.522   2.752   5.695 -0.4174 -0.1573  0.0663
 1329SOL    HW115623   4.431   2.761   5.667 -0.5763  0.5807  0.8182
 1329SOL    HW215624   4.500   2.709   5.777  0.6520  1.2292  1.0634
 1330SOL     OW15625   0.453   2.715   8.013 -0.4861  0.5286  0.6881
 1330SOL    HW115626   0.357   2.720   8.014 -0.4514  1.2123 -0.3144
 1330SOL    HW215627   0.471   2.655   8.086 -2.5278 -1.1622 -0.1916
 1331SOL     OW15628   2.811   0.843   7.966  0.0702 -0.0618 -0.3567
 1331SOL    HW115629   2.729   0.866   8.009  1.6196  1.0866  2.0504
 1331SOL    HW215630   2.768   0.811   7.887 -0.6410 -1.6502  0.6788
 1332SOL     OW15631   3.143   4.232  16.748 -0.2452  0.3700 -0.0185
 1332SOL    HW115632   3.080   4.193  16.688  1.0007 -1.4690 -0.1118
 1332SOL    HW215633   3.218   4.247  16.691  0.9785  0.8219  1.7223
 1333SOL     OW15634   2.019   2.931   7.961  0.5012 -0.4729 -0.0747
 1333SOL    HW115635   1.989   2.922   7.871 -1.7784  0.7714  0.5550
 1333SOL    HW215636   2.107   2.967   7.953  0.9100 -1.8576 -1.6214
 1334SOL     OW15637   0.498   4.193   8.421 -0.3492  0.1061  0.1799
 1334SOL    HW115638   0.590   4.181   8.443 -0.3670  1.6812  1.1092
 1334SOL    HW215639   0.517   4.253   8.349 -1.4495  1.8736  1.3899
 1335SOL     OW15640   1.814   3.337   5.169  0.3060  0.8239 -0.1593
 1335SOL    HW115641   1.781   3.251   5.194 -0.0409  0.6821 -1.1154
 1335SOL    HW215642   1.906   3.318   5.189  0.4513  0.3515 -1.2819
 1336SOL     OW15643   1.299   0.585   0.028  0.0518 -0.1749 -0.0436
 1336SOL    HW115644   1.362   0.621   0.090 -0.0878  0.7527 -0.4424
 1336SOL    HW215645   1.345   0.571  17.690 -0.1772 -0.9210 -0.0473
 1337SOL     OW15646   2.427   2.286   4.439 -0.4835 -0.1098 -0.5486
 1337SOL    HW115647   2.346   2.330   4.463 -0.1074  0.4415 -0.3017
 1337SOL    HW215648   2.494   2.352   4.458 -1.9995  1.4539 -0.7086
 1338SOL     OW15649   4.628   2.049   7.795  0.7560  0.1666  0.0743
 1338SOL    HW115650   4.709   2.045   7.744  0.9118 -0.5855  0.3791
 1338SOL    HW215651   4.672   2.068   7.878  2.2019  0.3910 -0.7375
 1339SOL     OW15652   0.770   2.954   9.688 -0.5479 -0.0940 -0.2012
 1339SOL    HW115653   0.726   2.993   9.612 -2.2002 -3.3648 -0.8917
 1339SOL    HW215654   0.832   2.895   9.646 -1.3707 -1.3595  0.3788
 1340SOL     OW15655   0.573   1.482   3.119 -0.4833  0.3555 -0.4166
 1340SOL    HW115656   0.622   1.412   3.163 -2.2057 -0.7966 -0.3373
 1340SOL    HW215657   0.499   1.481   3.180 -0.1872  0.9567 -0.0490
 1341SOL     OW15658   0.330   0.112   7.089 -0.3038 -0.2036 -0.0889
 1341SOL    HW115659   0.334   0.018   7.106  1.5556 -0.1748 -0.3169
 1341SOL    HW215660   0.235   0.109   7.078 -0.3225  0.2799 -0.0717
 1342SOL     OW15661   0.508   0.089  12.474  1.0333 -0.4060  0.2213
 1342SOL    HW115662   0.479   0.136  12.552 -3.2950 -2.1044 -0.3770
 1342SOL    HW215663   0.602   0.100  12.484  1.1138 -0.8515 -0.0147
 1343SOL     OW15664   4.249   1.334   8.759  0.4984  0.0917 -0.0402
 1343SOL    HW115665   4.332   1.381   8.760  0.1915  0.6155  1.5584
 1343SOL    HW215666   4.204   1.362   8.839 -0.6049  1.5768 -1.1755
 1344SOL     OW15667   3.920   1.008  10.152 -0.4788  0.3579 -0.4988
 1344SOL    HW115668   3.906   1.103  10.158 -0.3780  0.2417  1.6747
 1344SOL    HW215669   3.834   0.979  10.124 -0.5235  1.5847 -1.6595
 1345SOL     OW15670   1.424   0.233   1.864  0.1467 -0.0916 -0.2607
 1345SOL    HW115671   1.400   0.316   1.906  0.8168 -0.1298  0.1879
 1345SOL    HW215672   1.517   0.252   1.854  0.6037 -2.5926 -0.7073
 1346SOL     OW15673   3.214   2.785  17.160 -0.0755  0.4723 -0.3173
 1346SOL    HW115674   3.197   2.691  17.151 -0.8687  0.6051 -0.2025
 1346SOL    HW215675   3.127   2.824  17.152 -0.2176 -0.3621 -2.8851
 1347SOL     OW15676   4.401   1.860  11.434 -0.3637 -0.4226 -0.8012
 1347SOL    HW115677   4.313   1.825  11.420 -0.1166 -1.6203  0.6516
 1347SOL    HW215678   4.425   1.811  11.513 -1.5872  0.5579  0.1730
 1348SOL     OW15679   1.753   1.760  13.279  0.7468 -0.2392 -0.1466
 1348SOL    HW115680   1.709   1.763  13.364 -1.3840  1.0037 -1.2906
 1348SOL    HW215681   1.800   1.677  13.282 -0.1126 -0.8005 -2.2995
 1349SOL     OW15682   2.459   2.728   6.679 -0.6580  0.4346  0.0386
 1349SOL    HW115683   2.416   2.811   6.695 -2.4427 -0.4796  0.0147
 1349SOL    HW215684   2.501   2.720   6.765  1.1207 -1.6002 -0.9946
 1350SOL     OW15685   0.064   1.659   7.391 -0.2054 -0.2866  0.3926
 1350SOL    HW115686   4.725   1.688   7.440  0.3765  1.2115  0.4006
 1350SOL    HW215687   0.048   1.565   7.383  1.9471 -0.7957  1.8512
 1351SOL     OW15688   1.644   3.019   1.085 -0.1909 -1.0384  0.1311
 1351SOL    HW115689   1.620   3.064   1.004  1.6775  0.7075  0.5513
 1351SOL    HW215690   1.563   3.034   1.134 -0.5422  2.4645 -1.4902
 1352SOL     OW15691   1.778   3.224   0.599 -0.0198  0.6612 -0.3702
 1352SOL    HW115692   1.787   3.251   0.508  0.3225  1.3748 -0.1203
 1352SOL    HW215693   1.871   3.211   0.616  0.2893 -0.3375 -2.7738
 1353SOL     OW15694   0.672   2.572   0.752  0.0184 -0.0167  0.0738
 1353SOL    HW115695   0.753   2.542   0.792 -1.3461 -1.6720  1.5573
 1353SOL    HW215696   0.630   2.488   0.732  1.1811 -0.6239  0.2072
 1354SOL     OW15697   2.047   2.467  16.831 -0.0681 -0.6509 -0.3121
 1354SOL    HW115698   1.967   2.420  16.854 -1.3566  0.8700 -1.7144
 1354SOL    HW215699   2.028   2.497  16.742  0.3582  0.2147 -0.1037
 1355SOL     OW15700   3.550   3.245   0.479 -0.1580 -0.2550 -0.2647
 1355SOL    HW115701   3.475   3.187   0.489  0.3045 -0.4916  1.7517
 1355SOL    HW215702   3.575   3.221   0.390 -1.3638  1.4448 -1.0658
 1356SOL     OW15703   0.804   3.205   8.138 -0.4154  0.1244 -0.0865
 1356SOL    HW115704   0.717   3.174   8.114 -0.3425 -1.2152  1.3257
 1356SOL    HW215705   0.855   3.130   8.108  0.1744  1.2538 -1.9187
 1357SOL     OW15706   0.758   4.165   7.748 -0.1528 -0.4490  0.0373
 1357SOL    HW115707   0.793   4.245   7.787 -0.8363 -0.4637  0.6774
 1357SOL    HW215708   0.747   4.193   7.658  0.8609  1.2906  0.4631
 1358SOL     OW15709   0.035   0.987  12.798  0.0911 -0.0114  0.1102
 1358SOL    HW115710   0.093   0.964  12.870  2.3556  0.4369 -1.5976
 1358SOL    HW215711   0.075   0.946  12.721  0.1336  0.2539 -0.0110
 1359SOL     OW15712   3.026   0.377  13.179 -0.1753  0.2773 -0.0001
 1359SOL    HW115713   3.071   0.368  13.095 -1.5748  0.1503 -0.7400
 1359SOL    HW215714   2.977   0.459  13.170  0.6440  0.9070  1.2045
 1360SOL     OW15715   0.017   4.423   6.877  0.3762 -0.9342 -0.6738
 1360SOL    HW115716   4.677   4.416   6.933  0.2040 -1.7036 -1.0147
 1360SOL    HW215717   0.035   4.517   6.873 -1.2914 -0.6328 -0.9181
 1361SOL     OW15718   2.263   0.204   5.710  0.5778  0.0478 -0.5123
 1361SOL    HW115719   2.220   0.236   5.789 -1.1537 -3.2573 -0.1090
 1361SOL    HW215720   2.269   0.111   5.730 -0.2578 -0.0407 -0.6782
 1362SOL     OW15721   2.643   3.765   5.231  0.0186  0.0025 -0.1817
 1362SOL    HW115722   2.730   3.749   5.266 -0.1307 -1.8392 -0.6647
 1362SOL    HW215723   2.616   3.831   5.294  1.9840  1.0460 -0.4436
 1363SOL     OW15724   4.467   0.591  14.826 -0.5457  0.2419 -0.0729
 1363SOL    HW115725   4.388   0.538  14.818 -1.5190  1.5794  0.6149
 1363SOL    HW215726   4.440   0.679  14.799  1.1659  1.1138  1.1102
 1364SOL     OW15727   2.911   0.944   9.560 -0.4617 -0.2415  0.5955
 1364SOL    HW115728   3.006   0.939   9.551 -0.7117 -1.7256 -1.0400
 1364SOL    HW215729   2.901   0.897   9.643 -2.4195  0.5384  0.7976
 1365SOL     OW15730   2.496   2.365   5.509 -0.1393 -0.5068  0.4424
 1365SOL    HW115731   2.463   2.290   5.558  0.1971 -1.2802 -0.5280
 1365SOL    HW215732   2.550   2.410   5.575  1.4113 -0.9889 -0.4974
 1366SOL     OW15733   1.213   3.051   2.607  0.1715  0.0492 -0.5183
 1366SOL    HW115734   1.275   3.113   2.645  0.6200 -0.2105 -0.8351
 1366SOL    HW215735   1.137   3.105   2.586  0.4154  0.4723 -0.3218
 1367SOL     OW15736   4.552   3.628   5.788  0.1239  0.4024 -0.1897
 1367SOL    HW115737   4.549   3.567   5.861  1.5315 -0.7381 -1.0619
 1367SOL    HW215738   4.485   3.695   5.800 -1.2002 -0.4863 -2.4551
 1368SOL     OW15739   4.656   1.066   4.267 -0.3723 -0.2918  0.4708
 1368SOL    HW115740   4.638   1.157   4.291  0.0005  0.2715 -1.4667
 1368SOL    HW215741   4.632   1.060   4.175  0.5651  0.6779  0.1727
 1369SOL     OW15742   4.657   2.534   7.201  0.5363  0.1642  0.3236
 1369SOL    HW115743   4.680   2.625   7.216  1.3380  0.0972 -0.5208
 1369SOL    HW215744   0.010   2.503   7.210  0.1140 -0.6825  1.6736
 1370SOL     OW15745   2.619   3.133  16.860  0.6700 -0.0341 -0.2575
 1370SOL    HW115746   2.710   3.162  16.863  1.6821 -3.2050  0.2969
 1370SOL    HW215747   2.606   3.161  16.769 -0.8692 -0.0832 -0.0634
 1371SOL     OW15748   4.717   1.883   7.043  0.2022  0.3212  0.0724
 1371SOL    HW115749   4.630   1.893   7.081  0.5112 -0.2223  0.9117
 1371SOL    HW215750   0.024   1.968   7.054 -0.3166  0.6346 -0.2668
 1372SOL     OW15751   2.148   0.024   6.138 -0.0364  0.1590  0.0798
 1372SOL    HW115752   2.171   4.688   6.197  2.8450  0.8520 -0.1782
 1372SOL    HW215753   2.234   0.031   6.096 -0.9396  0.3635 -1.7486
 1373SOL     OW15754   0.061   4.676   6.307  0.2574 -0.3878 -0.0693
 1373SOL    HW115755   0.035   4.587   6.284  1.7234 -0.8560  0.0935
 1373SOL    HW215756   0.069   4.704   6.216 -0.6200  2.9211  0.8861
 1374SOL     OW15757   0.441   1.490   7.528  0.1006 -0.5417 -0.6265
 1374SOL    HW115758   0.396   1.573   7.545  1.6495  0.6202 -2.2247
 1374SOL    HW215759   0.372   1.427   7.547 -0.0230  0.0230  0.8425
 1375SOL     OW15760   3.207   0.578  10.397 -0.7878 -0.1021 -0.2433
 1375SOL    HW115761   3.113   0.586  10.412 -0.6102  1.6380  0.0011
 1375SOL    HW215762   3.232   0.657  10.444  3.2809 -0.4818 -1.7067
 1376SOL     OW15763   4.708   1.234   4.843 -0.2212 -0.8297 -0.4509
 1376SOL    HW115764   4.691   1.303   4.908  1.2810 -1.8150  0.9779
 1376SOL    HW215765   0.004   1.282   4.767 -0.3494  3.1121  1.9784
 1377SOL     OW15766   4.426   2.847   8.086  0.6933  0.0314  0.2291
 1377SOL    HW115767   4.421   2.900   8.006  1.0239 -1.2072 -0.6145
 1377SOL    HW215768   4.512   2.873   8.116  1.3071  1.1624 -2.4987
 1378SOL     OW15769   2.449   1.139   6.590  0.4462 -0.6568  0.0081
 1378SOL    HW115770   2.459   1.049   6.561 -0.7541 -1.1611  1.1454
 1378SOL    HW215771   2.398   1.183   6.522 -0.1966 -1.2585  0.1035
 1379SOL     OW15772   2.089   1.927   6.931 -0.0421 -0.7030  0.2762
 1379SOL    HW115773   2.094   1.963   7.019  0.6566 -4.2901  1.7020
 1379SOL    HW215774   1.994   1.919   6.922  0.0103 -1.3724  0.3481
 1380SOL     OW15775   1.404   2.574   3.831  0.1042 -0.5611  0.5572
 1380SOL    HW115776   1.368   2.626   3.760 -1.9604 -2.1649  0.4558
 1380SOL    HW215777   1.332   2.576   3.893 -1.0728 -0.1870 -0.8292
 1381SOL     OW15778   3.750   4.550   3.701 -0.1449  0.0537  0.2832
 1381SOL    HW115779   3.659   4.546   3.732  0.1151  0.0360  1.0487
 1381SOL    HW215780   3.754   4.459   3.732 -2.5374  0.4685  1.8179
 1382SOL     OW15781   0.112   2.260  11.351  0.1447  0.2073 -0.1410
 1382SOL    HW115782   0.164   2.303  11.283 -0.0634 -2.4867 -1.9894
 1382SOL    HW215783   0.020   2.266  11.322  0.3722 -0.4073 -0.9977
 1383SOL     OW15784   3.613   2.962   1.651 -0.5176 -0.0415 -0.3121
 1383SOL    HW115785   3.561   2.910   1.713 -0.1127  0.0293  0.0935
 1383SOL    HW215786   3.534   2.987   1.604 -0.5950  0.2812 -0.0093
 1384SOL     OW15787   2.614   2.340   2.181 -0.4912 -0.0087  0.5225
 1384SOL    HW115788   2.659   2.424   2.194 -1.3079  0.8622 -2.2889
 1384SOL    HW215789   2.690   2.283   2.193  0.1382  1.0103  1.4373
 1385SOL     OW15790   4.250   0.101  15.709  0.1573 -0.1413  0.1313
 1385SOL    HW115791   4.292   0.168  15.655  1.7650 -2.6376 -1.6625
 1385SOL    HW215792   4.157   0.114  15.689 -0.4997 -2.9238  1.4159
 1386SOL     OW15793   4.261   3.140   2.025  0.9457 -0.1335 -0.0575
 1386SOL    HW115794   4.211   3.161   1.947  0.8064 -0.0752  0.0481
 1386SOL    HW215795   4.352   3.134   1.996  1.8426 -0.7862  2.8367
 1387SOL     OW15796   3.834   3.415   2.710  0.3394 -0.4510 -0.0940
 1387SOL    HW115797   3.840   3.319   2.712 -1.8243 -0.5892 -0.5944
 1387SOL    HW215798   3.879   3.441   2.791 -1.1105  0.2487  0.4877
 1388SOL     OW15799   4.728   2.785   7.075 -0.0763  0.7402 -0.6535
 1388SOL    HW115800   0.078   2.761   7.042 -0.1343  0.2557 -0.4565
 1388SOL    HW215801   4.672   2.761   7.001 -1.0847 -3.2141  1.3380
 1389SOL     OW15802   4.303   3.964  13.063 -0.1157  0.3794 -0.8848
 1389SOL    HW115803   4.275   4.051  13.089  2.1642  1.1835 -1.1685
 1389SOL    HW215804   4.232   3.947  13.001 -1.2810  1.0299  0.2864
 1390SOL     OW15805   3.583   2.429  14.875  0.2093 -0.3838  0.3411
 1390SOL    HW115806   3.592   2.511  14.922 -1.9687 -0.4318  0.8380
 1390SOL    HW215807   3.568   2.366  14.945  3.4907  0.2159  1.5889
 1391SOL     OW15808   2.854   1.484   7.394 -0.1713 -0.6121 -0.2610
 1391SOL    HW115809   2.917   1.415   7.373  3.8454  2.0739  2.7902
 1391SOL    HW215810   2.795   1.477   7.319  2.1948 -1.6058 -2.0288
 1392SOL     OW15811   1.364   3.818  11.109  0.0153 -0.5291  0.3406
 1392SOL    HW115812   1.344   3.869  11.187 -1.1831 -0.4246 -0.0197
 1392SOL    HW215813   1.391   3.734  11.146  1.4508 -0.2952 -0.1940
 1393SOL     OW15814   3.306   2.685   5.811 -0.3651 -0.1609  0.1936
 1393SOL    HW115815   3.238   2.698   5.877 -2.1059 -0.4754 -1.5033
 1393SOL    HW215816   3.317   2.595   5.840 -0.5456  0.0806  1.0170
 1394SOL     OW15817   2.866   1.726   3.240  0.4490 -0.6595 -0.0679
 1394SOL    HW115818   2.789   1.683   3.278  1.0484 -1.3672  0.3379
 1394SOL    HW215819   2.876   1.660   3.170 -2.2393 -1.3682  0.2139
 1395SOL     OW15820   4.315   3.784   6.105  0.4005 -0.3677  0.2121
 1395SOL    HW115821   4.386   3.747   6.158 -1.9956 -4.1250  0.8758
 1395SOL    HW215822   4.359   3.776   6.021  0.8847  0.7062  0.3700
 1396SOL     OW15823   1.297   0.156   5.599 -0.0200  0.0565 -0.5229
 1396SOL    HW115824   1.202   0.164   5.609 -0.1137 -1.4507 -0.2766
 1396SOL    HW215825   1.298   0.158   5.504  1.3573 -0.3762 -0.5106
 1397SOL     OW15826   4.700   2.522  12.319  0.4199 -0.8217  0.5402
 1397SOL    HW115827   4.707   2.427  12.313  0.7087 -0.7655  0.0289
 1397SOL    HW215828   0.025   2.546  12.250 -0.7564  2.6916  0.7081
 1398SOL     OW15829   3.120   3.928  15.027 -0.1129 -0.3641  0.2335
 1398SOL    HW115830   3.042   3.911  15.079 -0.5933  0.8319 -0.0938
 1398SOL    HW215831   3.164   3.845  15.044 -1.4965 -1.1996 -0.3125
 1399SOL     OW15832   1.363   1.867   1.796  0.1049 -0.1842  0.0353
 1399SOL    HW115833   1.441   1.832   1.839 -0.1690 -1.7562 -0.7752
 1399SOL    HW215834   1.414   1.907   1.726  1.8398 -0.3922  1.1817
 1400SOL     OW15835   1.041   4.378  12.438  0.1865  0.5867  0.4114
 1400SOL    HW115836   0.974   4.330  12.487  0.9197 -0.5532  0.2939
 1400SOL    HW215837   1.013   4.366  12.347  3.0149  2.6275 -0.7336
 1401SOL     OW15838   4.490   4.348   5.354  0.2065  0.2075 -0.1477
 1401SOL    HW115839   4.564   4.351   5.294 -1.1085 -2.4756 -1.8425
 1401SOL    HW215840   4.533   4.326   5.437  0.2711  4.1746  0.8928
 1402SOL     OW15841   1.168   3.209  15.183 -0.2063 -0.7175 -0.1679
 1402SOL    HW115842   1.145   3.134  15.237  3.3060 -1.1879  0.6469
 1402SOL    HW215843   1.235   3.242  15.243 -1.5432 -1.5808  1.8130
 1403SOL     OW15844   1.316   0.316   6.272  0.2784 -0.3477  0.0336
 1403SOL    HW115845   1.361   0.346   6.193 -1.1818 -0.3604 -0.8172
 1403SOL    HW215846   1.303   0.399   6.318  0.6046 -0.6584  0.6844
 1404SOL     OW15847   0.946   0.589   8.617 -0.0933  0.4005 -0.3325
 1404SOL    HW115848   0.853   0.596   8.639 -0.1035  1.2546 -0.6606
 1404SOL    HW215849   0.939   0.523   8.548 -0.0793 -1.1468  1.1306
 1405SOL     OW15850   0.954   3.378   3.669 -0.4397  0.1944 -0.2959
 1405SOL    HW115851   0.883   3.438   3.645 -0.5805  0.6622  1.2702
 1405SOL    HW215852   0.916   3.297   3.635 -0.2180  0.0116 -0.1098
 1406SOL     OW15853   2.559   1.719   5.430  0.3646  0.0291  0.3166
 1406SOL    HW115854   2.654   1.714   5.420  0.3891  0.7440  0.2033
 1406SOL    HW215855   2.539   1.797   5.379 -1.0638  0.3724  1.4029
 1407SOL     OW15856   2.611   1.226   8.427 -0.4079 -0.3520  0.0908
 1407SOL    HW115857   2.618   1.312   8.385  0.9816 -1.2672 -1.5766
 1407SOL    HW215858   2.611   1.250   8.519  0.4599 -0.4390  0.1195
 1408SOL     OW15859   2.184   2.180  17.092  0.0707  0.4329 -0.6203
 1408SOL    HW115860   2.120   2.157  17.159 -1.0493 -0.6996 -2.0713
 1408SOL    HW215861   2.149   2.150  17.008 -1.0256 -4.3328  1.5608
 1409SOL     OW15862   1.163   2.989   6.795 -0.4365  0.3676 -0.8827
 1409SOL    HW115863   1.204   2.921   6.742 -1.8794 -1.6958  0.6187
 1409SOL    HW215864   1.180   2.947   6.879 -3.2148  2.1708  0.5823
 1410SOL     OW15865   0.494   0.084   5.767  0.3906  0.0407 -0.6891
 1410SOL    HW115866   0.449   0.094   5.684 -0.0293  1.9438 -0.2188
 1410SOL    HW215867   0.562   0.026   5.732  0.3623  0.1436 -0.9088
 1411SOL     OW15868   2.480   4.104   3.000  0.1298  0.4679  0.0355
 1411SOL    HW115869   2.536   4.092   3.076  0.9201  0.2485 -0.5845
 1411SOL    HW215870   2.463   4.011   2.983 -0.6003  0.0377  3.1100
 1412SOL     OW15871   0.513   3.179  11.980 -0.0530 -0.4968  0.3734
 1412SOL    HW115872   0.541   3.143  12.064  0.7801  0.1044  0.3543
 1412SOL    HW215873   0.494   3.093  11.942  1.8298 -1.8209  2.4169
 1413SOL     OW15874   1.528   4.268  11.112  0.1456  0.7737 -0.2063
 1413SOL    HW115875   1.623   4.263  11.123  0.4456  2.2478 -2.0483
 1413SOL    HW215876   1.523   4.362  11.094 -0.0279  0.9995  1.0832
 1414SOL     OW15877   0.437   0.768  11.830 -0.2276  0.5241  0.1227
 1414SOL    HW115878   0.363   0.708  11.841 -0.7544  1.3865  1.2411
 1414SOL    HW215879   0.437   0.823  11.908 -1.0651  3.5641 -2.0461
 1415SOL     OW15880   0.130   1.738   6.879 -0.2247  0.8267 -0.5012
 1415SOL    HW115881   0.085   1.785   6.949 -1.4524 -2.1288  0.6560
 1415SOL    HW215882   0.107   1.791   6.802  1.0052 -0.9658 -2.1029
 1416SOL     OW15883   0.753   1.548   8.822  0.2867 -0.0204 -0.6127
 1416SOL    HW115884   0.786   1.467   8.860 -0.2803 -0.0413 -0.1695
 1416SOL    HW215885   0.671   1.549   8.870 -0.0475 -1.5578 -1.1597
 1417SOL     OW15886   2.391   1.462   2.044 -0.1286  0.0273  0.0740
 1417SOL    HW115887   2.478   1.433   2.070  1.2608  3.2216 -0.8855
 1417SOL    HW215888   2.370   1.397   1.977 -1.0000 -0.7691  1.1358
 1418SOL     OW15889   3.963   0.253   3.044 -0.1496 -0.6206 -0.6207
 1418SOL    HW115890   3.922   0.250   2.957 -0.0952  0.0389 -0.6717
 1418SOL    HW215891   3.891   0.279   3.102 -0.3054 -0.6580 -0.7975
 1419SOL     OW15892   0.885   4.670  10.230 -0.4946 -0.1389 -0.0897
 1419SOL    HW115893   0.853   4.680  10.319 -0.2486  0.1688 -0.0373
 1419SOL    HW215894   0.888   0.025  10.203 -0.0800  0.3766  1.7458
 1420SOL     OW15895   1.497   1.016   9.240 -0.1563 -0.0655  0.3263
 1420SOL    HW115896   1.426   1.041   9.181 -1.0478 -0.0920  1.3839
 1420SOL    HW215897   1.461   0.929   9.252  1.0379 -0.3445  1.8835
 1421SOL     OW15898   1.955   3.732   8.192  0.3655  0.5658  0.3235
 1421SOL    HW115899   1.947   3.801   8.126  2.0205  1.8882  1.5084
 1421SOL    HW215900   1.909   3.766   8.268  2.7911  1.6500  1.3022
 1422SOL     OW15901   3.559   0.623  10.339 -0.2304 -0.5728  0.0404
 1422SOL    HW115902   3.524   0.696  10.391 -1.4232  0.0014 -1.5574
 1422SOL    HW215903   3.651   0.647  10.333 -0.3474 -0.2229 -0.4511
 1423SOL     OW15904   2.631   0.448   2.853 -0.0341  0.3258 -0.4860
 1423SOL    HW115905   2.709   0.398   2.878  2.0084  2.9208 -1.8104
 1423SOL    HW215906   2.610   0.403   2.771  0.7556 -2.2718  0.7273
 1424SOL     OW15907   2.574   4.545  17.632  1.1844  0.1425  0.1540
 1424SOL    HW115908   2.651   4.602  17.630  1.3196 -0.0182  1.2212
 1424SOL    HW215909   2.598   4.484  17.562  0.6112  0.2912 -0.1753
 1425SOL     OW15910   2.743   4.356  11.669 -0.3283  0.4841  0.2248
 1425SOL    HW115911   2.785   4.309  11.741 -1.5916 -1.6343 -0.4249
 1425SOL    HW215912   2.725   4.439  11.714 -0.1195  0.3571  0.5438
 1426SOL     OW15913   3.217   2.954   0.240  0.4756 -0.4651  0.2392
 1426SOL    HW115914   3.168   2.966   0.159 -0.9213 -0.1079  1.1379
 1426SOL    HW215915   3.149   2.938   0.305 -0.1146  1.2911  0.0632
 1427SOL     OW15916   1.949   2.683  10.638  0.7131 -0.1167  0.1853
 1427SOL    HW115917   1.921   2.774  10.628  0.5751 -0.0028  1.5686
 1427SOL    HW215918   1.889   2.642  10.576 -1.2641  0.5922  1.6356
 1428SOL     OW15919   3.283   3.451   7.483  0.3643 -0.2283  0.5744
 1428SOL    HW115920   3.218   3.400   7.434 -0.8863  0.6760  1.3261
 1428SOL    HW215921   3.238   3.460   7.566  0.8798  0.4264  0.7836
 1429SOL     OW15922   1.608   2.460  16.274  0.1845  0.1482  0.0417
 1429SOL    HW115923   1.579   2.512  16.348 -1.1429 -2.3179  1.2618
 1429SOL    HW215924   1.527   2.417  16.245  0.0777 -0.9525  1.9731
 1430SOL     OW15925   4.592   3.680   6.482 -0.7696 -0.4592  0.5449
 1430SOL    HW115926   4.585   3.751   6.546 -0.7906  0.0179  0.0044
 1430SOL    HW215927   4.544   3.611   6.528 -1.1420  0.1021  1.0005
 1431SOL     OW15928   1.078   0.112  11.519  0.4002  0.1515 -0.7331
 1431SOL    HW115929   1.006   0.119  11.457  0.4215  1.3613 -0.6214
 1431SOL    HW215930   1.148   0.075  11.465  0.0906 -2.1783  0.4851
 1432SOL     OW15931   0.156   1.113   9.699  0.4387  0.5516  0.8924
 1432SOL    HW115932   0.089   1.121   9.631  0.0981 -1.6763  0.9816
 1432SOL    HW215933   0.214   1.045   9.664  1.6143  1.6683  0.6690
 1433SOL     OW15934   2.877   0.620   8.133  0.6555 -0.0852  0.2124
 1433SOL    HW115935   2.964   0.604   8.096 -0.3249  0.6720 -2.3986
 1433SOL    HW215936   2.835   0.663   8.058  1.3105 -0.8070 -0.5743
 1434SOL     OW15937   1.561   3.132  12.569 -0.3946 -0.1581  0.1766
 1434SOL    HW115938   1.495   3.177  12.515  3.1862  0.7933 -3.4073
 1434SOL    HW215939   1.602   3.066  12.512 -0.8162  0.6341 -1.0488
 1435SOL     OW15940   0.138   4.153   3.000  0.2468  0.1504  0.3420
 1435SOL    HW115941   0.066   4.124   3.056  0.1161 -0.8567 -0.3434
 1435SOL    HW215942   0.155   4.073   2.950  1.9571  0.7293 -0.0224
 1436SOL     OW15943   4.490   3.831   7.781  0.0839 -0.2691 -0.2680
 1436SOL    HW115944   4.551   3.797   7.847  0.9598  0.4048 -0.7331
 1436SOL    HW215945   4.481   3.751   7.728  2.0018 -1.6024  1.4256
 1437SOL     OW15946   2.848   0.757   3.381 -0.5435 -0.2131  0.1130
 1437SOL    HW115947   2.886   0.838   3.414 -0.0998 -0.9824  1.5053
 1437SOL    HW215948   2.772   0.787   3.332 -0.8387 -1.1670 -0.0228
 1438SOL     OW15949   2.954   0.461   5.147  0.4527  0.5007 -0.1088
 1438SOL    HW115950   2.896   0.427   5.079 -0.9401 -0.2780  1.4624
 1438SOL    HW215951   3.016   0.389   5.160  0.7110  0.3326 -2.1953
 1439SOL     OW15952   2.675   0.268  17.091 -0.1197 -0.1157 -0.4084
 1439SOL    HW115953   2.729   0.195  17.060  0.9780  0.6780 -0.3479
 1439SOL    HW215954   2.740   0.304  17.152 -3.4685  0.8291  2.5930
 1440SOL     OW15955   2.975   1.516   8.380  0.1178  0.4388 -0.5262
 1440SOL    HW115956   3.024   1.566   8.444  1.8672 -0.9401 -0.7930
 1440SOL    HW215957   3.004   1.427   8.402 -2.6729 -1.1423 -3.2426
 1441SOL     OW15958   0.498   1.658   2.860 -0.3275  0.0768 -0.3664
 1441SOL    HW115959   0.542   1.700   2.934 -0.3433 -0.9071  0.1949
 1441SOL    HW215960   0.465   1.579   2.903  0.1086 -0.4868 -1.0587
 1442SOL     OW15961   4.370   4.592  13.242  0.4370 -0.0209 -0.3561
 1442SOL    HW115962   4.282   4.560  13.264  1.1172 -1.8823 -0.3753
 1442SOL    HW215963   4.353   4.685  13.232 -2.9583 -0.6336 -0.2499
 1443SOL     OW15964   1.095   3.406   6.175  0.4082  0.6335  0.2965
 1443SOL    HW115965   1.091   3.312   6.157  1.0077  1.1333 -2.4205
 1443SOL    HW215966   1.179   3.428   6.136 -0.3977  1.5148 -0.9672
 1444SOL     OW15967   0.062   1.977   5.544 -0.3818  0.1648  0.1547
 1444SOL    HW115968   0.091   1.886   5.550  0.1951  0.1651 -2.4127
 1444SOL    HW215969   4.705   1.969   5.557 -0.6800  0.0560 -2.0642
 1445SOL     OW15970   0.727   2.906   5.708 -0.1459 -0.3314  0.0828
 1445SOL    HW115971   0.659   2.960   5.667 -1.1298 -1.9025 -0.3406
 1445SOL    HW215972   0.678   2.842   5.761 -3.4507 -0.0893 -2.6569
 1446SOL     OW15973   2.162   4.281  12.546  0.2623 -0.3085  0.4344
 1446SOL    HW115974   2.118   4.334  12.479  0.2280 -1.5068 -0.4845
 1446SOL    HW215975   2.203   4.212  12.494  2.9480  1.6511 -0.0228
 1447SOL     OW15976   0.135   3.971   8.810 -0.1167 -0.0403  0.1434
 1447SOL    HW115977   0.128   4.066   8.801  1.6879  0.1414  0.6337
 1447SOL    HW215978   0.043   3.943   8.813 -0.1407  0.1955  1.8853
 1448SOL     OW15979   0.898   0.383   7.678 -0.3003  0.2739 -0.3262
 1448SOL    HW115980   0.828   0.324   7.649  0.5309 -0.5573 -0.6379
 1448SOL    HW215981   0.964   0.341   7.623 -0.4459 -0.9343  0.4195
 1449SOL     OW15982   1.287   3.262   6.769  0.0586  0.3259 -0.3611
 1449SOL    HW115983   1.374   3.275   6.808 -0.6982 -0.0018  1.4674
 1449SOL    HW215984   1.268   3.171   6.788  2.7289  0.3409  2.5231
 1450SOL     OW15985   2.738   1.260   4.263 -0.1935 -0.1798 -0.7272
 1450SOL    HW115986   2.689   1.177   4.270 -1.6153  0.9086  2.4769
 1450SOL    HW215987   2.779   1.254   4.177 -1.8000  0.4730 -1.5420
 1451SOL     OW15988   1.354   0.528  14.244  0.5517  0.2167  0.4787
 1451SOL    HW115989   1.282   0.466  14.230  1.0334 -0.3467  0.5301
 1451SOL    HW215990   1.395   0.475  14.311  0.2322 -0.2784  0.2818
 1452SOL     OW15991   2.640   2.652   4.043 -0.5452 -0.0796 -0.4980
 1452SOL    HW115992   2.707   2.595   4.081 -1.7964 -0.7457  0.7019
 1452SOL    HW215993   2.628   2.717   4.112 -0.5338  0.1010 -0.6669
 1453SOL     OW15994   1.586   0.251  10.540 -0.2289 -0.1129  0.5435
 1453SOL    HW115995   1.501   0.256  10.583 -0.9200 -0.5665 -0.7707
 1453SOL    HW215996   1.640   0.284  10.611 -1.7347  2.4333  0.5027
 1454SOL     OW15997   0.922   4.173   6.006 -0.2063  0.0376  0.2624
 1454SOL    HW115998   0.912   4.088   5.962  1.1875 -0.7140  1.4192
 1454SOL    HW215999   0.968   4.225   5.940 -1.1528  0.6802  0.1123
 1455SOL     OW16000   0.904   1.730   2.284  0.2010 -0.0695  0.5419
 1455SOL    HW116001   0.913   1.645   2.326  0.1213 -0.8439 -1.0324
 1455SOL    HW216002   0.943   1.786   2.352 -0.9235  1.1354  0.2033
 1456SOL     OW16003   1.391   1.939  16.822  0.0728  0.0557  0.0134
 1456SOL    HW116004   1.406   1.986  16.904  0.3830 -1.4041  0.7895
 1456SOL    HW216005   1.448   1.866  16.843 -0.6213  0.0453  1.8750
 1457SOL     OW16006   4.107   0.625   7.147 -0.3039  0.3385 -0.8845
 1457SOL    HW116007   4.026   0.676   7.140 -0.8287 -0.8301 -3.3477
 1457SOL    HW216008   4.159   0.666   7.078 -0.8220 -0.6653 -1.8683
 1458SOL     OW16009   3.188   2.779   7.044 -0.5930 -0.2613 -0.1871
 1458SOL    HW116010   3.118   2.763   6.981 -2.9503  2.4655  1.6760
 1458SOL    HW216011   3.251   2.823   6.988  0.6362  0.8890  2.0961
 1459SOL     OW16012   4.597   3.861   6.681  0.1834 -0.0919 -0.2187
 1459SOL    HW116013   4.649   3.902   6.750 -2.2978  2.0805  0.3423
 1459SOL    HW216014   4.514   3.904   6.697  1.0579  0.9942  1.3557
 1460SOL     OW16015   2.827   0.403   3.858  0.1694  0.6840 -0.3997
 1460SOL    HW116016   2.906   0.364   3.819  0.7180  2.0467 -0.6639
 1460SOL    HW216017   2.808   0.341   3.928 -2.0737 -1.7874 -3.2085
 1461SOL     OW16018   1.457   4.142   8.721  0.3648 -0.1703  0.0441
 1461SOL    HW116019   1.379   4.105   8.763  1.6224 -2.1629  0.6194
 1461SOL    HW216020   1.487   4.205   8.787 -0.1385  1.0127 -0.8505
 1462SOL     OW16021   4.299   1.590  16.149 -0.0164  0.6613  0.2846
 1462SOL    HW116022   4.320   1.651  16.220 -0.1424 -0.1846  1.0657
 1462SOL    HW216023   4.307   1.516  16.210 -2.7133  0.5162  0.4663
 1463SOL     OW16024   4.160   2.493  16.819 -0.1510  0.4141  0.1831
 1463SOL    HW116025   4.246   2.489  16.776 -0.5824 -0.2785 -0.6090
 1463SOL    HW216026   4.156   2.403  16.852  1.2740 -0.6539 -2.5537
 1464SOL     OW16027   3.667   4.309   0.343  0.1635 -0.0483  0.0995
 1464SOL    HW116028   3.607   4.314   0.417  1.1752 -0.8192  0.9667
 1464SOL    HW216029   3.690   4.401   0.331 -0.0223  0.1082  0.9445
 1465SOL     OW16030   4.609   3.762   7.395 -0.2441 -0.3310 -0.0692
 1465SOL    HW116031   4.603   3.852   7.427  0.0952 -1.3639  2.9724
 1465SOL    HW216032   4.689   3.782   7.347 -0.6072  0.9644 -0.1204
 1466SOL     OW16033   3.469   2.157  16.063 -0.5063  0.6898  0.0623
 1466SOL    HW116034   3.451   2.068  16.090  0.5824  0.7735  1.0084
 1466SOL    HW216035   3.548   2.176  16.113 -0.4796  0.5454  0.0728
 1467SOL     OW16036   0.762   3.186   3.877 -1.1341 -0.1400 -0.4559
 1467SOL    HW116037   0.669   3.174   3.860 -0.8557 -1.8341 -0.8130
 1467SOL    HW216038   0.756   3.279   3.899 -0.7547  0.3621 -2.4745
 1468SOL     OW16039   4.464   3.553  11.336 -0.1363  0.6678  0.0307
 1468SOL    HW116040   4.490   3.570  11.245 -2.8508 -1.2267 -1.0792
 1468SOL    HW216041   4.458   3.645  11.364  0.7377  0.2384  1.6393
 1469SOL     OW16042   0.780   2.727   2.554 -0.5411 -0.2267 -0.4085
 1469SOL    HW116043   0.852   2.759   2.499 -0.2635 -0.9943 -0.4985
 1469SOL    HW216044   0.790   2.632   2.543 -2.4021 -0.4502 -0.1326
 1470SOL     OW16045   3.410   1.410   3.721  0.0693 -0.8461  0.1475
 1470SOL    HW116046   3.427   1.491   3.769 -0.8638 -1.1933  1.0781
 1470SOL    HW216047   3.400   1.348   3.794  0.3165 -0.1474  0.7741
 1471SOL     OW16048   3.394   2.040   7.831 -0.4593 -0.2212 -0.5956
 1471SOL    HW116049   3.449   1.967   7.858  0.2506  0.0442 -1.3267
 1471SOL    HW216050   3.388   2.016   7.739 -0.7681  1.1533 -0.9408
 1472SOL     OW16051   3.939   2.050   7.964  0.5707  0.3395 -0.4822
 1472SOL    HW116052   4.029   2.045   7.997  0.2364  0.7227  0.5032
 1472SOL    HW216053   3.936   1.968   7.914  1.1946  1.9486 -3.1334
 1473SOL     OW16054   2.999   2.879   6.325  0.1414  0.1256 -0.4072
 1473SOL    HW116055   2.933   2.938   6.362  1.4323 -0.5412  2.9105
 1473SOL    HW216056   3.036   2.845   6.406 -0.2734  2.4578  0.7862
 1474SOL     OW16057   4.593   3.238   6.615  0.4141 -0.2687  0.6880
 1474SOL    HW116058   4.590   3.320   6.567  1.7351  1.0071  2.8019
 1474SOL    HW216059   4.596   3.260   6.708 -0.0845 -2.1992  1.1608
 1475SOL     OW16060   2.559   1.254  10.615 -0.1900  0.0787  0.2306
 1475SOL    HW116061   2.647   1.223  10.591 -0.3294  0.2278 -0.4704
 1475SOL    HW216062   2.547   1.333  10.562 -1.7807 -0.3776 -0.0747
 1476SOL     OW16063   2.902   2.845   3.076 -0.0475  0.5856 -0.3078
 1476SOL    HW116064   2.971   2.785   3.048  0.1442  0.1031  1.1644
 1476SOL    HW216065   2.890   2.819   3.167 -0.8173  2.3220  0.0891
 1477SOL     OW16066   1.536   3.247   8.040 -0.7840 -0.6837 -0.1753
 1477SOL    HW116067   1.598   3.319   8.028 -1.2517 -0.5779 -1.9455
 1477SOL    HW216068   1.459   3.273   7.990 -0.8743 -0.7053 -0.0483
 1478SOL     OW16069   2.485   0.084   7.257 -0.6307  0.2292 -0.0755
 1478SOL    HW116070   2.391   0.079   7.269 -0.5176 -0.4570  0.5202
 1478SOL    HW216071   2.484   0.085   7.161  2.0324 -1.2659 -0.1191
 1479SOL     OW16072   0.715   3.347  16.786  0.0768 -0.2674 -0.4893
 1479SOL    HW116073   0.689   3.378  16.872  0.0304  0.1226 -0.6432
 1479SOL    HW216074   0.630   3.345  16.741  1.2275  1.2998 -2.7263
 1480SOL     OW16075   0.175   3.886   6.418 -0.1136  0.0084  0.4820
 1480SOL    HW116076   0.204   3.945   6.487 -1.5164 -1.7744  2.6025
 1480SOL    HW216077   0.096   3.935   6.395  1.1226  0.7188 -2.2607
 1481SOL     OW16078   1.898   2.552  15.566  0.7013  0.5300 -0.3354
 1481SOL    HW116079   1.853   2.543  15.650  0.1679  0.0161 -0.6787
 1481SOL    HW216080   1.961   2.615  15.601  1.0439 -0.1442  0.2469
 1482SOL     OW16081   2.871   0.035   8.811 -0.2485  0.4268 -0.4525
 1482SOL    HW116082   2.886   0.115   8.862  1.9050  0.3096 -0.9275
 1482SOL    HW216083   2.909   4.703   8.866  0.0363 -1.3047 -2.7945
 1483SOL     OW16084   3.930   1.581   7.138 -0.9597 -0.2570  0.3262
 1483SOL    HW116085   4.006   1.525   7.121 -0.4750  0.7391 -0.7464
 1483SOL    HW216086   3.911   1.596   7.045  0.0511 -1.3398 -0.0482
 1484SOL     OW16087   1.559   0.029   0.405 -0.1236  0.1602  0.6733
 1484SOL    HW116088   1.647   0.056   0.379  0.4492 -2.8716 -0.5848
 1484SOL    HW216089   1.522   4.716   0.332  2.3835 -0.0680 -0.4288
 1485SOL     OW16090   3.892   4.227   6.149 -0.1132 -0.3640  0.2228
 1485SOL    HW116091   3.919   4.166   6.218 -0.0650 -1.4562 -0.7573
 1485SOL    HW216092   3.845   4.290   6.204  0.8966  1.3451 -0.8986
 1486SOL     OW16093   4.547   1.591   2.758  0.1460  0.1755  0.3988
 1486SOL    HW116094   4.561   1.655   2.827 -0.8306 -0.9169  1.6213
 1486SOL    HW216095   4.453   1.596   2.741  0.6216  0.0154 -2.2645
 1487SOL     OW16096   2.235   4.276   5.561  0.1133 -0.3094  0.5223
 1487SOL    HW116097   2.300   4.291   5.492  0.2638 -0.8946  0.5370
 1487SOL    HW216098   2.259   4.190   5.595 -0.9872 -1.0823 -0.6983
 1488SOL     OW16099   4.256   2.072   5.196  0.2304  0.2232  0.4642
 1488SOL    HW116100   4.240   2.158   5.156  1.8966  1.1396  1.7340
 1488SOL    HW216101   4.348   2.084   5.221  0.2751 -1.5070  1.1107
 1489SOL     OW16102   4.724   2.612   6.862  0.2487 -0.3204 -0.4417
 1489SOL    HW116103   0.047   2.538   6.851 -0.0529 -0.7802  1.0707
 1489SOL    HW216104   0.042   2.677   6.818  0.1746 -0.6559 -1.0291
 1490SOL     OW16105   0.305   1.169   8.338  0.4136  0.2132  0.2949
 1490SOL    HW116106   0.356   1.210   8.268 -0.5104 -0.2853 -0.6558
 1490SOL    HW216107   0.224   1.219   8.328 -0.7091 -1.8487 -0.8024
 1491SOL     OW16108   2.870   3.282   5.729  0.3972 -0.2731  0.1822
 1491SOL    HW116109   2.798   3.302   5.669  0.1806  0.6179  0.7453
 1491SOL    HW216110   2.925   3.225   5.676  1.9225  1.5168 -0.1329
 1492SOL     OW16111   1.771   1.833   4.088 -0.5658 -0.8451  0.0572
 1492SOL    HW116112   1.760   1.776   4.012 -0.8973  0.2365 -0.6929
 1492SOL    HW216113   1.862   1.837   4.116 -0.2224  1.6620 -1.4806
 1493SOL     OW16114   0.271   1.101  15.070 -0.5767 -1.0011 -0.0394
 1493SOL    HW116115   0.180   1.089  15.097 -1.1105  1.6813 -0.6520
 1493SOL    HW216116   0.259   1.122  14.978 -0.5903  2.6448  0.7882
 1494SOL     OW16117   2.378   3.532   6.632 -0.0064  0.5862  0.0314
 1494SOL    HW116118   2.432   3.543   6.711  0.2133  1.3928 -0.2280
 1494SOL    HW216119   2.303   3.479   6.659  0.3786  0.8180  1.5712
 1495SOL     OW16120   2.459   3.114  14.005 -0.3792  0.1402  0.0600
 1495SOL    HW116121   2.551   3.086  14.009 -0.2396  0.3810 -1.5437
 1495SOL    HW216122   2.425   3.059  13.935 -0.9261 -3.3319  3.0903
 1496SOL     OW16123   4.475   1.907   7.192  0.1994  0.2665  0.4774
 1496SOL    HW116124   4.440   1.828   7.234  2.6586 -1.4267 -0.6558
 1496SOL    HW216125   4.400   1.925   7.136  0.0099 -2.1547 -0.0120
 1497SOL     OW16126   2.314   2.962  10.038  0.0335  0.1945  0.4924
 1497SOL    HW116127   2.373   3.007  10.098  2.0451 -2.7113  0.6933
 1497SOL    HW216128   2.371   2.896   9.998  2.1180  1.6394  1.0435
 1498SOL     OW16129   2.446   1.200   2.231 -0.0701 -0.1998 -0.5339
 1498SOL    HW116130   2.389   1.192   2.154 -1.5103 -0.2663  0.5260
 1498SOL    HW216131   2.471   1.112   2.260  1.6112 -0.0189 -1.4592
 1499SOL     OW16132   2.847   1.982   3.157 -0.0154 -0.3639  0.3769
 1499SOL    HW116133   2.853   1.889   3.178  0.1941  0.0339  2.0129
 1499SOL    HW216134   2.937   2.015   3.157 -0.4930  0.9693  0.7635
 1500SOL     OW16135   3.178   1.824   2.277  0.4885  0.1478  0.3416
 1500SOL    HW116136   3.190   1.730   2.290 -0.1603 -0.1098 -0.9090
 1500SOL    HW216137   3.256   1.846   2.226  0.5120 -1.1050 -0.1550
 1501SOL     OW16138   1.328   0.866   5.286  0.1765 -0.2804  0.2760
 1501SOL    HW116139   1.350   0.784   5.331  2.4336  0.4882  0.5674
 1501SOL    HW216140   1.332   0.923   5.363  2.2573 -1.5397  1.0925
 1502SOL     OW16141   3.173   1.665  13.587 -0.6111  0.0954 -0.1856
 1502SOL    HW116142   3.239   1.691  13.652  0.5602 -0.8805 -0.9770
 1502SOL    HW216143   3.108   1.622  13.643  0.8853 -0.4714  1.1276
 1503SOL     OW16144   4.541   1.232   8.973 -0.1469  0.3038  0.2505
 1503SOL    HW116145   4.528   1.303   8.910 -1.1682  0.9108  1.1526
 1503SOL    HW216146   4.450   1.206   8.981 -0.3828  1.6456  1.7547
 1504SOL     OW16147   3.503   1.165   8.685  0.0031 -0.1848  0.1229
 1504SOL    HW116148   3.413   1.196   8.699 -0.6745 -2.1058  0.1140
 1504SOL    HW216149   3.556   1.244   8.693  0.9177 -0.7921 -0.0477
 1505SOL     OW16150   4.493   0.922   7.505  0.7525 -0.0695 -0.1400
 1505SOL    HW116151   4.429   0.993   7.496 -0.6640 -0.7766  4.0984
 1505SOL    HW216152   4.539   0.916   7.422 -0.0171  1.0471 -0.6571
 1506SOL     OW16153   2.494   2.659  13.116 -0.5729  0.1785  0.0339
 1506SOL    HW116154   2.447   2.578  13.137 -0.8210  0.4046  0.3400
 1506SOL    HW216155   2.424   2.720  13.140 -0.7027  0.1268 -0.2042
 1507SOL     OW16156   2.822   4.458   4.132  0.1618 -0.3091 -0.4451
 1507SOL    HW116157   2.808   4.552   4.135  0.3803 -0.2635 -0.8443
 1507SOL    HW216158   2.867   4.441   4.215 -1.4906  0.5920  0.6282
 1508SOL     OW16159   4.240   0.574   7.408 -0.1182  0.0368 -0.3475
 1508SOL    HW116160   4.180   0.587   7.334 -0.3684  0.6927 -0.0344
 1508SOL    HW216161   4.322   0.607   7.370 -0.3066 -0.9496 -1.6023
 1509SOL     OW16162   3.412   4.362  14.862 -0.7889 -0.0143  0.8515
 1509SOL    HW116163   3.377   4.317  14.939  1.7577 -2.3865  0.6690
 1509SOL    HW216164   3.385   4.305  14.790  1.7063  0.7643 -0.6947
 1510SOL     OW16165   3.648   0.597   1.936  0.2334 -0.4707 -0.0497
 1510SOL    HW116166   3.595   0.519   1.923  0.3414 -0.6897  0.8257
 1510SOL    HW216167   3.734   0.560   1.954 -0.0050 -1.2611 -0.5414
 1511SOL     OW16168   3.221   0.368   6.819  0.1680  0.5327  0.2421
 1511SOL    HW116169   3.251   0.393   6.906  2.2470  1.8485 -0.8445
 1511SOL    HW216170   3.238   0.274   6.826 -0.7879  0.2874 -0.6492
 1512SOL     OW16171   4.201   4.702  11.540 -0.4854 -0.3353 -0.6505
 1512SOL    HW116172   4.255   0.017  11.600 -1.7420  1.3006 -0.9336
 1512SOL    HW216173   4.259   4.633  11.506  1.6341  0.3819  1.5163
 1513SOL     OW16174   3.432   0.126   8.484 -0.3480 -0.4227 -0.2564
 1513SOL    HW116175   3.493   0.196   8.506 -0.5666 -0.9505  2.0111
 1513SOL    HW216176   3.467   0.088   8.403 -1.9649 -0.2820 -1.0230
 1514SOL     OW16177   3.425   2.992   5.484 -0.3332  0.4592  0.5213
 1514SOL    HW116178   3.398   2.980   5.575  1.1060 -0.7107  0.8045
 1514SOL    HW216179   3.391   3.078   5.460 -1.4125 -0.8105 -2.4344
 1515SOL     OW16180   0.501   0.771   7.439 -0.2344 -0.2351  0.4704
 1515SOL    HW116181   0.476   0.682   7.414 -0.5104 -0.4982  1.6815
 1515SOL    HW216182   0.474   0.816   7.359 -0.6870 -1.2978  0.0352
 1516SOL     OW16183   2.567   2.073   5.086 -0.0614 -0.0091 -0.0862
 1516SOL    HW116184   2.629   2.052   5.156  1.1771 -0.6060 -1.3540
 1516SOL    HW216185   2.503   2.125   5.135 -0.4952 -0.7772  0.1617
 1517SOL     OW16186   3.436   0.849   2.860  0.2304 -0.1553 -0.2847
 1517SOL    HW116187   3.487   0.857   2.941  0.1712  0.5676 -0.3175
 1517SOL    HW216188   3.472   0.769   2.823 -2.0257 -0.4921 -1.7948
 1518SOL     OW16189   0.709   2.960  15.666 -0.1829 -0.3726 -0.2569
 1518SOL    HW116190   0.762   2.975  15.745 -3.1107  1.6801  1.3087
 1518SOL    HW216191   0.778   2.962  15.600 -0.2445  1.8791 -0.2613
 1519SOL     OW16192   2.539   3.538   6.861 -0.2387 -0.6249  0.2691
 1519SOL    HW116193   2.502   3.529   6.949  0.5672 -0.1871  0.6586
 1519SOL    HW216194   2.575   3.626   6.872  2.1306 -1.7139  1.1338
 1520SOL     OW16195   0.581   3.615   7.480 -0.2321  0.3273  0.0282
 1520SOL    HW116196   0.500   3.635   7.526 -1.1134 -2.1962 -0.4375
 1520SOL    HW216197   0.582   3.672   7.403 -0.5167  0.4171  0.0936
 1521SOL     OW16198   4.712   3.569  12.609 -0.5669  0.2906 -0.0983
 1521SOL    HW116199   4.691   3.617  12.690  2.1122 -0.8479  1.2451
 1521SOL    HW216200   4.715   3.476  12.630  2.8466  0.5826  0.6250
 1522SOL     OW16201   0.825   3.630   3.568  0.0964  0.4709  0.6052
 1522SOL    HW116202   0.847   3.576   3.492 -1.1011  2.2926 -1.0397
 1522SOL    HW216203   0.811   3.714   3.525 -1.2324  0.0913  0.3030
 1523SOL     OW16204   0.815   3.568  13.367 -0.2990 -0.3326  0.4024
 1523SOL    HW116205   0.899   3.545  13.407 -0.7015 -0.4705  1.1878
 1523SOL    HW216206   0.767   3.486  13.376 -0.6729 -0.2060 -0.5187
 1524SOL     OW16207   0.164   1.975   9.956  0.0991  0.5460  0.6582
 1524SOL    HW116208   0.161   1.945  10.046  0.0796 -2.6203 -0.3904
 1524SOL    HW216209   0.223   1.912   9.915  0.5920  2.2757 -1.3435
 1525SOL     OW16210   3.203   4.680  14.646  0.4951  0.3085 -0.1551
 1525SOL    HW116211   3.221   0.028  14.688 -0.5239 -0.0369  0.9539
 1525SOL    HW216212   3.215   4.702  14.553 -0.4889 -2.9672 -1.0486
 1526SOL     OW16213   2.373   1.316  16.524  0.1300 -0.3625  0.1813
 1526SOL    HW116214   2.467   1.334  16.533 -0.1822  0.7356  1.3384
 1526SOL    HW216215   2.332   1.385  16.577  3.8988  3.0290 -1.3329
 1527SOL     OW16216   1.868   0.390   8.669  0.1804  0.0583 -0.1878
 1527SOL    HW116217   1.963   0.392   8.659  0.1236  3.6378  0.0828
 1527SOL    HW216218   1.856   0.468   8.722 -1.0230 -1.1286  1.3007
 1528SOL     OW16219   1.086   4.536   2.757 -0.3420  0.2513  0.7320
 1528SOL    HW116220   1.165   4.588   2.746 -0.6813  0.3847 -1.0132
 1528SOL    HW216221   1.101   4.509   2.848  1.0804 -0.1169  0.3913
 1529SOL     OW16222   3.751   3.975   5.127 -0.1781  0.1213  0.2002
 1529SOL    HW116223   3.724   3.906   5.068  0.3725  0.5566 -0.5626
 1529SOL    HW216224   3.786   3.935   5.207 -1.1775  0.2688  0.7167
 1530SOL     OW16225   4.526   3.791  17.573 -0.3612  0.6292  0.1627
 1530SOL    HW116226   4.493   3.871  17.614  0.5936  0.9304  0.3426
 1530SOL    HW216227   4.520   3.812  17.480 -0.0500  0.0948  0.0249
 1531SOL     OW16228   3.779   1.213  15.838  0.1542  0.1698 -0.4854
 1531SOL    HW116229   3.856   1.178  15.792  1.5124  0.6296  1.4293
 1531SOL    HW216230   3.715   1.224  15.768 -0.5320  2.7769  0.5460
 1532SOL     OW16231   2.989   3.881   7.055 -0.1906 -0.1491 -0.4499
 1532SOL    HW116232   2.926   3.950   7.076 -3.7313 -3.3411 -0.6972
 1532SOL    HW216233   3.002   3.890   6.960 -1.2877  1.3711 -0.4718
 1533SOL     OW16234   1.707   1.202   3.105  0.8224 -0.1024  0.1882
 1533SOL    HW116235   1.730   1.251   3.025 -1.4663  1.8757  0.7440
 1533SOL    HW216236   1.777   1.137   3.108  1.2102  0.3419  0.6180
 1534SOL     OW16237   3.564   3.586   0.752 -0.4750  0.6959  0.2121
 1534SOL    HW116238   3.585   3.628   0.669 -0.4983  2.2083  0.9583
 1534SOL    HW216239   3.625   3.620   0.819 -1.0590  0.1634  1.0066
 1535SOL     OW16240   0.510   3.383  13.045 -0.8028 -0.1449  0.2091
 1535SOL    HW116241   0.503   3.300  13.091 -0.8736 -1.3619 -2.0391
 1535SOL    HW216242   0.532   3.358  12.956  0.2961 -1.4040  0.8359
 1536SOL     OW16243   1.371   4.548   9.091 -0.3254  0.3778 -0.0769
 1536SOL    HW116244   1.416   4.468   9.119 -0.7610  0.6729  1.4562
 1536SOL    HW216245   1.284   4.511   9.076 -1.4907  2.3435  1.9039
 1537SOL     OW16246   2.597   1.175  16.385 -0.2704 -0.2518  0.3983
 1537SOL    HW116247   2.644   1.147  16.463  0.1916 -1.2083 -0.2182
 1537SOL    HW216248   2.612   1.269  16.395  1.5888 -0.4107 -0.9096
 1538SOL     OW16249   2.334   3.275   6.741 -0.4622 -0.4504  0.0693
 1538SOL    HW116250   2.400   3.330   6.783 -0.1996  0.0813 -1.0402
 1538SOL    HW216251   2.376   3.190   6.738  2.9184  1.1648  1.3521
 1539SOL     OW16252   4.349   4.234   4.248 -0.3809 -0.2592  0.2413
 1539SOL    HW116253   4.395   4.154   4.274  1.8575  0.6735 -0.8427
 1539SOL    HW216254   4.315   4.269   4.330  1.4282 -1.9982  1.7292
 1540SOL     OW16255   3.680   3.982   9.708 -0.3958  0.5738 -0.1610
 1540SOL    HW116256   3.741   4.018   9.772 -1.2972 -0.3327  1.2071
 1540SOL    HW216257   3.680   4.044   9.635  1.9533  1.2886  0.4504
 1541SOL     OW16258   1.469   1.340   4.041 -0.4446 -0.2140 -0.3520
 1541SOL    HW116259   1.436   1.429   4.053 -2.1021 -1.1432  2.1782
 1541SOL    HW216260   1.531   1.351   3.970 -0.2482 -1.4581 -0.3636
 1542SOL     OW16261   3.027   0.651   8.679  0.5378 -0.6557  0.9155
 1542SOL    HW116262   2.978   0.732   8.663  0.8009 -0.5653  0.5462
 1542SOL    HW216263   3.042   0.625   8.588  2.1285 -1.8383  1.5089
 1543SOL     OW16264   1.542   3.245   8.526  0.0791 -0.3058 -0.3384
 1543SOL    HW116265   1.567   3.314   8.464 -0.8870  2.8201  2.8284
 1543SOL    HW216266   1.622   3.196   8.505 -0.5480 -1.1642 -0.7379
 1544SOL     OW16267   4.450   1.973  16.429  0.2629  0.0976  0.3182
 1544SOL    HW116268   4.543   1.952  16.439 -0.0628 -1.4009  0.1767
 1544SOL    HW216269   4.444   2.063  16.461  0.2053  0.0309  0.4932
 1545SOL     OW16270   2.812   0.214   3.529  0.1198  0.0140  0.6953
 1545SOL    HW116271   2.813   0.307   3.503  4.1777 -0.6692 -1.6640
 1545SOL    HW216272   2.795   0.186   3.439 -2.0430 -3.2755  2.1811
 1546SOL     OW16273   0.092   1.558  11.300  0.6251 -0.0258  0.2662
 1546SOL    HW116274   0.106   1.479  11.352  0.2344  0.2169  0.7465
 1546SOL    HW216275   0.058   1.524  11.218  2.1325  1.6331 -1.0361
 1547SOL     OW16276   4.277   3.938   0.612 -0.3602  0.8759 -0.0471
 1547SOL    HW116277   4.305   3.907   0.699  1.4670  0.4035 -0.8051
 1547SOL    HW216278   4.269   3.862   0.555  0.1104  1.7929 -1.3330
 1548SOL     OW16279   0.785   0.104   8.169 -0.1412  0.0020  0.4569
 1548SOL    HW116280   0.752   0.052   8.243  1.4708  1.8916  2.5087
 1548SOL    HW216281   0.833   0.036   8.121 -2.6820 -0.7604 -1.0122
 1549SOL     OW16282   3.229   2.395   2.476 -0.3072 -0.0856  0.1592
 1549SOL    HW116283   3.214   2.316   2.528  0.3483 -0.6353 -0.4827
 1549SOL    HW216284   3.140   2.398   2.442 -0.1332  0.6149 -0.2258
 1550SOL     OW16285   4.419   1.177   7.945  0.2291  0.4213  0.3628
 1550SOL    HW116286   4.368   1.122   8.004  2.0379 -1.0234  0.6070
 1550SOL    HW216287   4.511   1.148   7.946 -0.1852 -0.9581 -0.6793
 1551SOL     OW16288   3.266   4.155  13.201 -0.1938 -0.1696 -0.0935
 1551SOL    HW116289   3.186   4.168  13.149 -1.1326  1.0935  1.6770
 1551SOL    HW216290   3.285   4.068  13.166  0.5333  0.0636 -0.2633
 1552SOL     OW16291   2.533   1.843   3.998  0.4757 -0.0686 -0.2291
 1552SOL    HW116292   2.492   1.926   4.025  3.2325  1.0141  0.7071
 1552SOL    HW216293   2.516   1.794   4.079 -0.4557 -0.9907 -1.0021
 1553SOL     OW16294   3.366   0.922   2.519 -0.0921  0.7387  0.2336
 1553SOL    HW116295   3.439   0.934   2.459 -0.8996 -0.2757 -0.9358
 1553SOL    HW216296   3.365   0.829   2.542 -1.1725  1.1915  2.0542
 1554SOL     OW16297   0.859   1.285   8.896 -0.4587 -0.1168 -0.0542
 1554SOL    HW116298   0.821   1.236   8.969 -1.1307 -0.1741 -0.4383
 1554SOL    HW216299   0.892   1.215   8.839  0.6614  2.2951 -2.3812
 1555SOL     OW16300   0.295   2.872  15.515  0.4252 -0.4593  0.1613
 1555SOL    HW116301   0.354   2.948  15.519 -0.2031  0.1014 -1.4016
 1555SOL    HW216302   0.214   2.877  15.566 -0.3162  0.3749 -1.1188
 1556SOL     OW16303   2.443   3.415  16.813  0.2483 -0.3320  0.2539
 1556SOL    HW116304   2.456   3.367  16.895  0.0286 -0.5437  0.1624
 1556SOL    HW216305   2.348   3.426  16.811  0.3722  0.7580 -0.2295
 1557SOL     OW16306   3.289   0.089   0.424  0.0440 -0.1598  0.5281
 1557SOL    HW116307   3.225   0.069   0.492 -2.7559  0.1045 -2.0614
 1557SOL    HW216308   3.254   0.163   0.373  0.2070  0.0210  0.6784
 1558SOL     OW16309   3.307   1.656   5.048 -0.3833 -0.0715 -0.0055
 1558SOL    HW116310   3.245   1.681   4.979 -0.2312 -0.2526 -0.2090
 1558SOL    HW216311   3.266   1.688   5.128  1.5682  2.5570 -0.0838
 1559SOL     OW16312   1.214   1.228   6.932 -0.2445  0.2573  0.0280
 1559SOL    HW116313   1.187   1.182   7.013  0.4336  1.4127  0.9017
 1559SOL    HW216314   1.258   1.300   6.977  0.7749  0.2104 -0.9050
 1560SOL     OW16315   3.205   3.738   2.660 -0.2114 -0.1232  0.2617
 1560SOL    HW116316   3.162   3.823   2.649 -1.5853 -0.5836  1.9979
 1560SOL    HW216317   3.163   3.710   2.742 -1.5681  0.5365 -0.2111
 1561SOL     OW16318   2.019   3.403   9.043 -0.8564 -0.0972 -0.6074
 1561SOL    HW116319   1.975   3.423   9.126 -0.5632 -0.2568 -0.4159
 1561SOL    HW216320   2.069   3.323   9.056  2.0046  1.4830 -1.9832
 1562SOL     OW16321   3.673   0.875  13.537  0.5444  0.1965  0.1500
 1562SOL    HW116322   3.612   0.909  13.602  1.6602  0.0743  1.2672
 1562SOL    HW216323   3.728   0.952  13.525  0.1889  0.2556 -1.1605
 1563SOL     OW16324   2.173   2.007  10.008 -0.0728 -0.2718  0.2380
 1563SOL    HW116325   2.181   1.937  10.072  0.7447  0.1390  0.5940
 1563SOL    HW216326   2.249   2.065  10.016 -0.1562 -0.0446 -0.5998
 1564SOL     OW16327   3.182   4.451   1.285 -0.2620  0.6951 -0.3158
 1564SOL    HW116328   3.159   4.384   1.349  1.3844  0.7990  0.3872
 1564SOL    HW216329   3.103   4.503   1.298 -0.8760 -0.5560  0.9640
 1565SOL     OW16330   3.759   1.820  14.424 -0.3037 -0.1431  0.4822
 1565SOL    HW116331   3.852   1.797  14.420 -0.4534 -0.5339 -0.8604
 1565SOL    HW216332   3.746   1.821  14.329  2.9568  1.1441  0.0437
 1566SOL     OW16333   3.056   3.485  11.902  0.1718  0.1124 -0.0515
 1566SOL    HW116334   2.987   3.551  11.897 -0.5355 -0.7939 -2.1672
 1566SOL    HW216335   3.023   3.423  11.967  2.8808 -0.4230  0.8305
 1567SOL     OW16336   1.200   1.031   2.348 -0.0650 -0.0066 -0.5224
 1567SOL    HW116337   1.270   1.096   2.358  1.1653 -1.3129 -0.6643
 1567SOL    HW216338   1.136   1.054   2.416 -1.5981  0.2949 -2.0600
 1568SOL     OW16339   2.151   0.861   7.663  0.2719 -0.0133  0.3653
 1568SOL    HW116340   2.064   0.883   7.695 -0.1970 -1.7648  0.2462
 1568SOL    HW216341   2.149   0.766   7.672  1.1110 -0.4724 -4.4552
 1569SOL     OW16342   0.221   0.293   8.418 -0.3432 -0.3523 -0.2007
 1569SOL    HW116343   0.260   0.357   8.478 -0.2537 -2.5805  2.1353
 1569SOL    HW216344   0.179   0.239   8.485  0.5986  0.7237  1.2658
 1570SOL     OW16345   1.307   3.531   3.556  0.5362  0.4469 -0.0685
 1570SOL    HW116346   1.255   3.599   3.599  0.0515 -0.0682  0.1434
 1570SOL    HW216347   1.396   3.549   3.587  0.5298  0.1921  0.0916
 1571SOL     OW16348   0.933   2.855   5.533 -0.2012  0.6488  0.1496
 1571SOL    HW116349   0.993   2.902   5.591 -0.3850 -1.9914  2.4882
 1571SOL    HW216350   0.851   2.853   5.583 -0.2180  2.2080  0.1848
 1572SOL     OW16351   1.161   4.250  17.203  0.5336 -0.4398 -0.5244
 1572SOL    HW116352   1.174   4.200  17.122  0.7573  0.7228 -1.2235
 1572SOL    HW216353   1.214   4.328  17.184  0.5935 -0.5357 -0.7613
 1573SOL     OW16354   4.143   0.787   3.884  0.1023 -0.0438  0.4651
 1573SOL    HW116355   4.152   0.693   3.864 -1.4352 -0.1033  0.0406
 1573SOL    HW216356   4.136   0.780   3.979 -0.9009  0.2835  0.4211
 1574SOL     OW16357   1.938   0.507   6.895  0.1232  0.1710 -0.0267
 1574SOL    HW116358   2.011   0.460   6.936 -0.9170 -0.8704  0.6543
 1574SOL    HW216359   1.922   0.454   6.817  0.8097  1.4338 -1.0168
 1575SOL     OW16360   2.582   1.732   2.018 -0.9642  0.1660 -0.2051
 1575SOL    HW116361   2.630   1.655   2.048  0.9649  1.9387  1.2599
 1575SOL    HW216362   2.508   1.724   2.078  0.0331  2.3377  1.2862
 1576SOL     OW16363   0.662   2.283   2.396 -0.3092  0.1143  0.5636
 1576SOL    HW116364   0.686   2.215   2.333 -3.3795 -0.4050 -0.0713
 1576SOL    HW216365   0.586   2.323   2.354  0.0657  1.4101  1.1355
 1577SOL     OW16366   1.192   3.166   1.864 -0.3782  0.1582 -0.5051
 1577SOL    HW116367   1.177   3.235   1.928 -1.3122  1.0042 -1.6489
 1577SOL    HW216368   1.141   3.091   1.895  0.9665 -1.5316 -2.4247
 1578SOL     OW16369   0.297   0.643  15.520  0.0415  0.4049  0.5956
 1578SOL    HW116370   0.366   0.668  15.458 -0.6036 -0.6163 -0.5348
 1578SOL    HW216371   0.338   0.633  15.606  2.6637 -1.7303 -0.8887
 1579SOL     OW16372   1.987   1.198   1.698 -0.2398  0.1298 -0.1492
 1579SOL    HW116373   2.032   1.274   1.664  0.2564  0.6931  1.7888
 1579SOL    HW216374   1.929   1.180   1.623 -0.1051 -2.7411  0.4090
 1580SOL     OW16375   0.468   0.696   8.846 -0.0363 -0.4798  0.1142
 1580SOL    HW116376   0.512   0.774   8.879 -1.9214  1.0344 -0.9433
 1580SOL    HW216377   0.400   0.728   8.786 -0.2351 -1.3942 -0.1521
 1581SOL     OW16378   0.487   3.133   3.918  0.7395 -0.2845 -0.9468
 1581SOL    HW116379   0.530   3.190   3.982 -0.8327 -1.8485  1.5090
 1581SOL    HW216380   0.397   3.133   3.949  1.2616 -0.3129  0.5673
 1582SOL     OW16381   1.221   1.436   6.333  0.0366  0.4502  0.1371
 1582SOL    HW116382   1.312   1.443   6.364  0.5858 -0.8958 -1.1508
 1582SOL    HW216383   1.215   1.494   6.257 -2.5790  3.0339  2.3548
 1583SOL     OW16384   4.644   2.307   4.629  0.2064 -1.0028 -0.0663
 1583SOL    HW116385   4.643   2.265   4.542  2.4639 -0.7331 -0.2215
 1583SOL    HW216386   4.624   2.230   4.682  0.7797 -0.5734  0.7765
 1584SOL     OW16387   0.949   3.337   9.673 -0.0108  0.2362  0.7608
 1584SOL    HW116388   0.986   3.399   9.736 -0.6632 -0.0777  1.4435
 1584SOL    HW216389   1.001   3.259   9.690 -0.4197  0.1259  1.4816
 1585SOL     OW16390   3.240   1.143   2.410  0.0333 -0.0333  0.3915
 1585SOL    HW116391   3.249   1.093   2.329 -0.8441 -2.3447  1.7110
 1585SOL    HW216392   3.289   1.089   2.472  0.5116 -1.0410 -0.8715
 1586SOL     OW16393   0.751   0.069   9.086  0.4303 -0.5014  0.0486
 1586SOL    HW116394   0.738   0.022   9.004 -0.1235  0.0937 -0.2041
 1586SOL    HW216395   0.698   0.012   9.142 -0.3558 -0.2892 -0.4919
 1587SOL     OW16396   2.411   0.992  16.289 -0.3428  0.7345  0.7574
 1587SOL    HW116397   2.424   0.917  16.348 -0.1406  0.8364  0.8447
 1587SOL    HW216398   2.445   1.064  16.343 -0.3447  0.3775  1.2399
 1588SOL     OW16399   2.917   2.657   4.872 -0.4963 -0.2143  0.0896
 1588SOL    HW116400   2.999   2.706   4.867 -0.9489  0.4435 -0.8483
 1588SOL    HW216401   2.938   2.603   4.948 -0.1978 -2.6370 -1.6819
 1589SOL     OW16402   0.770   4.724   1.570 -0.7154  0.6338  0.8396
 1589SOL    HW116403   0.843   0.040   1.535 -1.9999  0.7036 -1.7066
 1589SOL    HW216404   0.694   0.042   1.553  1.3898  2.3106 -3.3201
 1590SOL     OW16405   4.133   0.499  14.937  0.3921  0.0021  0.1019
 1590SOL    HW116406   4.186   0.436  14.985  0.5166 -0.4771 -0.6603
 1590SOL    HW216407   4.146   0.573  14.997 -1.6530  0.1232  0.4101
 1591SOL     OW16408   1.946   4.728   1.167  0.3815 -0.3787 -0.3435
 1591SOL    HW116409   1.949   4.646   1.218 -0.4635 -0.0064  0.3087
 1591SOL    HW216410   2.040   0.007   1.165  0.0914  1.5423  1.0202
 1592SOL     OW16411   0.462   4.318   7.351  0.0118  0.3669  0.6462
 1592SOL    HW116412   0.404   4.376   7.302 -0.2646 -0.6720 -0.2398
 1592SOL    HW216413   0.433   4.336   7.441 -0.8619  2.1506 -0.0077
 1593SOL     OW16414   1.574   1.921   8.191  0.5981  0.2201 -0.1921
 1593SOL    HW116415   1.497   1.971   8.218 -0.9543 -0.1352 -4.0074
 1593SOL    HW216416   1.618   1.911   8.275 -0.1670 -1.1167  0.0344
 1594SOL     OW16417   2.095   3.202   2.905 -0.6402  0.4166 -0.1218
 1594SOL    HW116418   2.081   3.150   2.826 -1.0450  0.4124 -0.0436
 1594SOL    HW216419   2.019   3.165   2.950  1.1630 -0.7739  1.9361
 1595SOL     OW16420   4.531   1.961   5.825  0.0527  0.3471  0.1695
 1595SOL    HW116421   4.590   2.032   5.851 -0.8556  1.1253  0.1529
 1595SOL    HW216422   4.489   1.933   5.907 -1.1801 -1.1365 -0.9683
 1596SOL     OW16423   4.701   1.078   7.889  0.0779  0.2990 -0.1772
 1596SOL    HW116424   4.714   1.046   7.799  1.1916  2.3083 -0.7376
 1596SOL    HW216425   4.687   0.991   7.925 -0.5605  1.0447  1.3763
 1597SOL     OW16426   2.201   0.382   9.148 -0.2041 -0.5918  0.0753
 1597SOL    HW116427   2.214   0.401   9.056 -2.7134  0.1194 -0.1298
 1597SOL    HW216428   2.106   0.370   9.149 -0.2496 -0.0628  2.0950
 1598SOL     OW16429   3.617   3.147   0.217  0.0585  0.0825 -0.0374
 1598SOL    HW116430   3.574   3.075   0.171 -0.2389  0.6538 -0.6441
 1598SOL    HW216431   3.631   3.211   0.148 -3.2919  0.3818 -0.4306
 1599SOL     OW16432   3.624   3.692  12.013 -0.1138 -0.6171 -0.0507
 1599SOL    HW116433   3.578   3.640  11.947 -0.6890 -0.2055  0.0302
 1599SOL    HW216434   3.713   3.662  11.992 -0.4415 -1.0818 -0.7850
 1600SOL     OW16435   0.237   4.502   5.440  0.1958 -0.2936 -0.1646
 1600SOL    HW116436   0.219   4.584   5.394  1.4174 -0.2015 -0.4670
 1600SOL    HW216437   0.274   4.448   5.370 -0.8310 -0.5405 -0.5222
 1601SOL     OW16438   1.687   4.380   7.079  0.1872  0.2299  0.0893
 1601SOL    HW116439   1.695   4.375   6.984  0.4247 -1.4396  0.1947
 1601SOL    HW216440   1.634   4.300   7.089  0.0213  0.1649 -1.3289
 1602SOL     OW16441   3.425   2.360   2.896  0.3433  0.5132 -0.2596
 1602SOL    HW116442   3.486   2.412   2.843  0.2762  1.4022  0.5436
 1602SOL    HW216443   3.388   2.305   2.827 -1.1857 -0.7718  1.5968
 1603SOL     OW16444   2.292   0.355  10.159 -0.4267  0.1512  0.2647
 1603SOL    HW116445   2.370   0.335  10.211  1.6710  1.3326 -2.4007
 1603SOL    HW216446   2.275   0.273  10.113  0.9435 -0.1281  0.2544
 1604SOL     OW16447   0.722   3.116   2.386 -0.4738 -0.0845  0.1297
 1604SOL    HW116448   0.764   3.042   2.342  1.8933  1.7628 -0.7116
 1604SOL    HW216449   0.640   3.079   2.420 -0.3628  0.7258  1.2483
 1605SOL     OW16450   4.000   4.599   7.737 -0.3201  0.0007  0.0546
 1605SOL    HW116451   3.996   4.530   7.803 -0.2323  0.1304  0.1973
 1605SOL    HW216452   3.918   4.578   7.694 -0.3937 -0.1736  0.2780
 1606SOL     OW16453   3.712   0.084  17.078 -0.5826 -0.1641 -0.3629
 1606SOL    HW116454   3.681   0.156  17.133  0.1014 -0.4156  0.3515
 1606SOL    HW216455   3.797   0.112  17.042 -0.2623 -0.5908  0.0624
 1607SOL     OW16456   1.707   4.627  13.501  0.2672 -0.1000 -0.0020
 1607SOL    HW116457   1.799   4.633  13.472 -0.8776  2.0986 -3.1854
 1607SOL    HW216458   1.711   4.621  13.596 -1.8219 -1.8134 -0.0188
 1608SOL     OW16459   1.372   3.340  10.658  0.3034 -0.3476 -0.2421
 1608SOL    HW116460   1.449   3.346  10.602  0.7835  0.8190  0.5336
 1608SOL    HW216461   1.346   3.252  10.630 -0.6294 -0.9551  2.5836
 1609SOL     OW16462   2.547   3.858   5.639  0.1582 -0.2861  0.2875
 1609SOL    HW116463   2.589   3.779   5.604 -0.7264  0.2241 -1.9167
 1609SOL    HW216464   2.606   3.870   5.713  0.6961 -0.1314 -0.1632
 1610SOL     OW16465   4.704   4.462   4.113 -0.4334 -0.5955  0.5610
 1610SOL    HW116466   0.035   4.398   4.095  1.1236  0.8476  1.2875
 1610SOL    HW216467   4.635   4.448   4.048  1.2305 -1.7695 -0.9414
 1611SOL     OW16468   2.356   2.197  10.075 -0.4264  0.6125  0.0259
 1611SOL    HW116469   2.405   2.240  10.145  0.6930  2.0758 -1.6419
 1611SOL    HW216470   2.297   2.266  10.042 -0.2822  0.4467 -0.5732
 1612SOL     OW16471   3.117   3.124  17.645  0.0635  0.5938 -0.0754
 1612SOL    HW116472   3.067   3.204  17.663 -0.6265  0.1763 -0.1603
 1612SOL    HW216473   3.051   3.071  17.602  0.1436  0.1496  0.3521
 1613SOL     OW16474   2.152   3.831  12.169  0.3667 -0.0233 -0.1585
 1613SOL    HW116475   2.191   3.809  12.085  1.0227 -1.7207  0.5742
 1613SOL    HW216476   2.069   3.876  12.151  0.9099  0.6936 -0.8198
 1614SOL     OW16477   2.392   2.192  11.318  0.9303 -0.3581  0.1252
 1614SOL    HW116478   2.445   2.242  11.256  1.4335 -2.5790 -1.2227
 1614SOL    HW216479   2.315   2.158  11.273 -0.0446  1.2971  0.5505
 1615SOL     OW16480   3.956   1.328   5.141 -0.3597  0.0028 -0.1191
 1615SOL    HW116481   3.890   1.309   5.074  0.3661  0.1381 -0.8618
 1615SOL    HW216482   4.039   1.338   5.096 -0.3049 -0.1683 -0.0583
 1616SOL     OW16483   2.862   2.882   2.796 -0.0756  0.0704  0.5224
 1616SOL    HW116484   2.883   2.894   2.889 -2.1128 -0.7764  1.1113
 1616SOL    HW216485   2.915   2.811   2.761  1.5965  1.8390 -0.5177
 1617SOL     OW16486   1.373   1.538   2.778 -0.1041  0.5190 -0.1505
 1617SOL    HW116487   1.338   1.584   2.702 -1.5136 -0.3698 -0.0467
 1617SOL    HW216488   1.464   1.521   2.756 -0.1854  1.8641 -1.5558
 1618SOL     OW16489   0.604   1.057  13.534 -0.0675  0.3821 -0.2020
 1618SOL    HW116490   0.515   1.039  13.505 -0.2470  2.1755 -0.7660
 1618SOL    HW216491   0.641   1.117  13.470  1.2717 -2.0244 -1.6837
 1619SOL     OW16492   1.932   0.951  14.747 -0.7053 -0.3426 -0.5529
 1619SOL    HW116493   1.985   0.873  14.731 -2.3735 -1.2666 -1.6680
 1619SOL    HW216494   1.978   1.006  14.685  0.5355 -1.0414 -0.2540
 1620SOL     OW16495   2.550   4.413   5.213 -0.2552  0.6555 -0.1275
 1620SOL    HW116496   2.485   4.387   5.148  0.8280 -2.7172  0.1442
 1620SOL    HW216497   2.598   4.480   5.163 -0.5058  0.2646 -0.8868
 1621SOL     OW16498   3.567   1.621   5.039  0.3107 -0.0476  0.1593
 1621SOL    HW116499   3.590   1.709   5.010 -0.0036 -0.3744 -1.1123
 1621SOL    HW216500   3.472   1.630   5.047  0.5908  0.5620  2.5618
 1622SOL     OW16501   3.705   0.673   4.434 -0.3944 -0.5598 -0.6223
 1622SOL    HW116502   3.791   0.713   4.419 -1.6102  2.6583  1.0125
 1622SOL    HW216503   3.718   0.671   4.528 -0.1311  4.2351 -0.5262
 1623SOL     OW16504   1.869   1.785   4.909  0.5519 -0.3525 -0.0002
 1623SOL    HW116505   1.853   1.859   4.968 -3.0260 -0.6602 -0.5857
 1623SOL    HW216506   1.940   1.828   4.861  0.8848  0.2251  1.0151
 1624SOL     OW16507   0.833   3.172   8.416 -0.2648 -0.2111 -0.6623
 1624SOL    HW116508   0.845   3.213   8.330 -1.5137  0.5023 -0.4904
 1624SOL    HW216509   0.845   3.078   8.401  0.6583 -0.5331  2.0266
 1625SOL     OW16510   2.316   2.374   2.136 -0.9969  0.7507  0.1447
 1625SOL    HW116511   2.266   2.301   2.173  0.6272 -1.4945 -2.1123
 1625SOL    HW216512   2.376   2.310   2.099  0.5276  1.7766  0.8770
 1626SOL     OW16513   0.949   0.966   6.283 -0.3673 -0.0909  0.2915
 1626SOL    HW116514   1.027   0.998   6.237  0.3404 -1.2535  0.6828
 1626SOL    HW216515   0.985   0.942   6.368 -1.1153 -1.1936  0.2931
 1627SOL     OW16516   4.321   2.189   7.304  0.6177  0.1276  1.1550
 1627SOL    HW116517   4.346   2.270   7.258  2.5855 -0.1980  1.6822
 1627SOL    HW216518   4.393   2.129   7.288  0.0688 -0.3807  0.5853
 1628SOL     OW16519   3.836   4.438  10.315 -0.3626 -0.3452  0.7853
 1628SOL    HW116520   3.792   4.390  10.245 -0.9477  1.4051 -0.0516
 1628SOL    HW216521   3.882   4.503  10.262 -1.0071  0.5923  1.3700
 1629SOL     OW16522   4.177   0.187   2.436  0.5119 -0.1306 -0.0606
 1629SOL    HW116523   4.138   0.154   2.517  0.5668 -0.1822 -0.0561
 1629SOL    HW216524   4.172   0.103   2.392 -0.0038 -0.2800  0.2732
 1630SOL     OW16525   3.632   4.469   5.726 -0.3951  0.5794 -0.0495
 1630SOL    HW116526   3.715   4.486   5.682 -0.1073 -0.9290 -0.0581
 1630SOL    HW216527   3.667   4.480   5.814 -2.0124 -1.2549  0.8158
 1631SOL     OW16528   1.114   4.651   3.813  0.2964  0.3887  0.4020
 1631SOL    HW116529   1.076   4.650   3.901 -1.7533 -1.1386 -0.4956
 1631SOL    HW216530   1.124   0.010   3.812 -1.2689  0.5377 -1.2871
 1632SOL     OW16531   0.376   1.867  16.427 -0.3040  0.0299  0.2628
 1632SOL    HW116532   0.400   1.826  16.509  0.3473 -4.0324 -1.9425
 1632SOL    HW216533   0.317   1.798  16.395 -1.2876  1.6719 -1.4834
 1633SOL     OW16534   1.171   3.276  11.025 -0.0397  0.4390 -0.4503
 1633SOL    HW116535   1.104   3.336  11.057 -0.9128  1.2887 -3.8231
 1633SOL    HW216536   1.225   3.247  11.099  0.3989  1.6423 -0.2949
 1634SOL     OW16537   1.170   0.401   7.752  0.0107 -0.2974  0.2234
 1634SOL    HW116538   1.077   0.420   7.754  0.7614  3.3218  0.2259
 1634SOL    HW216539   1.169   0.305   7.751 -1.6875 -0.2538 -2.0249
 1635SOL     OW16540   2.654   1.234   5.128  0.1500  0.0805  1.1127
 1635SOL    HW116541   2.585   1.300   5.131 -0.9029 -0.9520 -0.3157
 1635SOL    HW216542   2.646   1.194   5.215 -0.4916  1.1041  1.5350
 1636SOL     OW16543   3.886   1.790   5.741  0.1579  0.0266  0.0387
 1636SOL    HW116544   3.816   1.849   5.711  1.2508  1.2112 -0.1642
 1636SOL    HW216545   3.963   1.843   5.758 -1.0978  1.6315  0.7500
 1637SOL     OW16546   2.083   3.273  12.469  0.1473 -0.1071 -0.0727
 1637SOL    HW116547   2.049   3.189  12.439 -1.2626  0.8522 -1.1219
 1637SOL    HW216548   2.074   3.249  12.562  0.4816  0.4332  0.0989
 1638SOL     OW16549   1.171   4.627   9.461 -0.1042  0.3530 -0.6707
 1638SOL    HW116550   1.230   4.552   9.471 -2.5639 -1.4691  0.1204
 1638SOL    HW216551   1.121   4.600   9.384 -0.0698 -0.0852 -0.5395
 1639SOL     OW16552   0.568   2.437  16.477  0.4959  0.1805  0.8097
 1639SOL    HW116553   0.535   2.347  16.481 -0.0095  0.3230 -0.2828
 1639SOL    HW216554   0.652   2.423  16.434  1.3490  0.5618  2.3326
 1640SOL     OW16555   0.027   4.204   3.872  0.7431  0.5247  0.3389
 1640SOL    HW116556   0.078   4.150   3.811  1.0911 -1.3494  2.2623
 1640SOL    HW216557   4.707   4.135   3.906  1.5171  0.0391  0.6436
 1641SOL     OW16558   4.398   3.535   2.345 -0.4235  0.5683 -0.1863
 1641SOL    HW116559   4.444   3.583   2.413  2.4880  0.8647 -2.3615
 1641SOL    HW216560   4.304   3.545   2.362 -0.2827  3.3338 -1.0328
 1642SOL     OW16561   4.380   0.799  15.143  0.0556  0.2438  0.2775
 1642SOL    HW116562   4.417   0.719  15.105 -1.7140 -0.0911 -0.7128
 1642SOL    HW216563   4.289   0.798  15.114  0.1920 -1.4559 -0.1065
 1643SOL     OW16564   2.746   3.075   1.146 -0.6728  0.3859  0.3804
 1643SOL    HW116565   2.785   3.052   1.062 -0.4772 -0.9952  0.8579
 1643SOL    HW216566   2.658   3.096   1.115  0.4235 -0.6046 -3.3280
 1644SOL     OW16567   0.810   0.064   3.691 -0.1801  0.4295  0.6041
 1644SOL    HW116568   0.739   0.045   3.753 -1.7858 -2.9008 -2.2718
 1644SOL    HW216569   0.775   0.065   3.602 -0.8124 -0.6556  0.8410
 1645SOL     OW16570   2.094   0.526   7.791 -0.2244  0.1805  1.0531
 1645SOL    HW116571   2.032   0.555   7.859 -1.0438 -0.8954  0.7697
 1645SOL    HW216572   2.037   0.453   7.767  1.3101  0.2570 -2.7308
 1646SOL     OW16573   3.713   3.465   3.603 -0.1055  0.5883  0.1394
 1646SOL    HW116574   3.724   3.541   3.660  0.7677  1.6712 -1.4792
 1646SOL    HW216575   3.700   3.508   3.518 -0.6531 -0.2551 -0.2032
 1647SOL     OW16576   0.971   1.488   7.060  0.2072 -0.4680  0.6060
 1647SOL    HW116577   1.054   1.536   7.063  1.1178 -2.0065  0.4369
 1647SOL    HW216578   0.913   1.541   7.115  1.1186  0.5270  0.6236
 1648SOL     OW16579   1.838   0.401   3.877 -0.2115 -0.0637  0.0832
 1648SOL    HW116580   1.906   0.423   3.941 -1.4410 -3.4835  2.5773
 1648SOL    HW216581   1.864   0.459   3.806 -0.8106  0.3981  0.2427
 1649SOL     OW16582   1.852   0.823   3.452 -0.7883 -0.3224 -0.5592
 1649SOL    HW116583   1.791   0.897   3.454  0.2519  0.5421 -0.8066
 1649SOL    HW216584   1.824   0.776   3.531  0.5131  1.3731  0.8965
 1650SOL     OW16585   0.984   2.151   3.079  0.5445  0.3441 -0.1786
 1650SOL    HW116586   0.954   2.061   3.086 -0.6157  0.6159 -1.7291
 1650SOL    HW216587   0.933   2.201   3.143 -2.1781 -1.6339 -0.8387
 1651SOL     OW16588   3.118   1.442   3.663  0.0822 -0.1093 -0.0745
 1651SOL    HW116589   3.126   1.536   3.679 -0.9512 -0.1366  0.6255
 1651SOL    HW216590   3.204   1.421   3.626 -0.5648  1.1583 -2.3161
 1652SOL     OW16591   4.081   1.052   4.838 -0.1627 -0.0701 -0.0478
 1652SOL    HW116592   4.002   1.033   4.888 -0.3119  0.7214  0.0056
 1652SOL    HW216593   4.059   1.016   4.753 -0.7102  0.1340  0.0083
 1653SOL     OW16594   4.667   3.763   4.973 -0.4580 -0.0865 -0.0449
 1653SOL    HW116595   4.711   3.818   5.039  2.0564 -1.9945 -0.1442
 1653SOL    HW216596   4.578   3.749   5.007 -1.3705  2.1643 -1.5527
 1654SOL     OW16597   1.413   0.484   9.793 -0.4730 -0.2801  0.1086
 1654SOL    HW116598   1.445   0.500   9.705  0.8661 -0.2342  0.6095
 1654SOL    HW216599   1.389   0.571   9.825 -2.3456 -0.8562  0.2843
 1655SOL     OW16600   1.272   1.523   2.282 -0.1499  0.3492  0.0844
 1655SOL    HW116601   1.328   1.560   2.351  1.0661 -2.0480  0.3702
 1655SOL    HW216602   1.293   1.567   2.200  1.1963 -0.1645  0.1559
 1656SOL     OW16603   4.405   3.967   5.173  0.9586 -0.1836 -0.4348
 1656SOL    HW116604   4.335   3.927   5.225  0.8010  0.0325 -0.4829
 1656SOL    HW216605   4.393   3.928   5.086 -0.8447  1.3462 -0.8739
 1657SOL     OW16606   2.876   2.855   1.755 -0.6206 -0.0402  0.4531
 1657SOL    HW116607   2.810   2.811   1.702  1.9269 -1.3257 -1.6811
 1657SOL    HW216608   2.916   2.781   1.802 -0.4380  1.1355  2.1200
 1658SOL     OW16609   1.955   4.282   4.669 -0.1544  0.2877  0.2627
 1658SOL    HW116610   2.035   4.327   4.641  0.4326 -1.0386 -0.2054
 1658SOL    HW216611   1.961   4.193   4.634 -1.5900  0.0013  0.7559
 1659SOL     OW16612   2.132   0.054  17.144 -0.4927  0.1507 -0.5056
 1659SOL    HW116613   2.094   0.137  17.115  2.0892  0.9061 -1.7137
 1659SOL    HW216614   2.048   0.006  17.142 -1.1097  1.1865  1.0732
 1660SOL     OW16615   4.481   1.873   4.722  0.4424 -0.4009 -0.1367
 1660SOL    HW116616   4.492   1.779   4.706  0.6364 -0.6235  1.3563
 1660SOL    HW216617   4.386   1.880   4.710  0.3683 -1.1808 -0.0053
 1661SOL     OW16618   3.029   3.557  13.439 -0.4199  0.2297  0.0125
 1661SOL    HW116619   2.982   3.600  13.510 -0.9525 -0.2705 -0.0414
 1661SOL    HW216620   2.998   3.468  13.459  1.6804 -0.5065  0.0769
 1662SOL     OW16621   3.799   3.627  15.310  0.5249  0.4469  0.4889
 1662SOL    HW116622   3.792   3.544  15.357  1.6221 -0.8812 -1.6859
 1662SOL    HW216623   3.791   3.690  15.381  3.6140 -0.7831  1.9680
 1663SOL     OW16624   0.047   4.318   6.029  0.1944 -0.2675  0.8106
 1663SOL    HW116625   4.713   4.285   5.973  1.3539  3.6588 -2.9611
 1663SOL    HW216626   0.123   4.285   5.982 -0.8490 -1.7773  0.1515
 1664SOL     OW16627   0.740   2.556   8.520  0.3752 -0.3955  0.3190
 1664SOL    HW116628   0.804   2.554   8.449  1.2695  1.9877  1.0449
 1664SOL    HW216629   0.660   2.522   8.479  1.4322 -1.2721 -0.9798
 1665SOL     OW16630   0.504   0.726   9.477  0.2853  0.2767  0.4237
 1665SOL    HW116631   0.541   0.639   9.464 -2.0861 -0.6547 -0.1023
 1665SOL    HW216632   0.476   0.756   9.390  2.1161 -3.8641 -1.5727
 1666SOL     OW16633   0.864   3.932   3.171  0.1296 -0.2924  0.5714
 1666SOL    HW116634   0.921   3.855   3.176 -0.0268 -0.5567 -2.0731
 1666SOL    HW216635   0.904   3.994   3.234 -1.5197 -1.5524  2.8557
 1667SOL     OW16636   3.766   2.843   8.133  0.2442 -0.2997  0.2294
 1667SOL    HW116637   3.754   2.772   8.069 -3.4100  1.2350 -0.7869
 1667SOL    HW216638   3.689   2.899   8.126  0.1745 -0.4393 -0.1311
 1668SOL     OW16639   2.957   0.411  10.752  0.2195  0.7796 -0.5005
 1668SOL    HW116640   2.990   0.413  10.662  0.5698 -0.2471 -0.3978
 1668SOL    HW216641   2.973   0.504  10.768  0.7197  0.4086  1.1786
 1669SOL     OW16642   3.001   4.544   4.374 -0.2391  0.0732  0.3817
 1669SOL    HW116643   2.952   4.626   4.380 -0.0839  0.1873  0.0616
 1669SOL    HW216644   3.087   4.584   4.392  0.5182 -0.1626 -2.6783
 1670SOL     OW16645   0.451   3.809   0.771 -0.4531 -0.1330 -0.6435
 1670SOL    HW116646   0.441   3.767   0.857 -0.0393 -0.1629 -0.6074
 1670SOL    HW216647   0.415   3.895   0.793 -2.7314 -2.0740  3.2722
 1671SOL     OW16648   3.420   1.220   9.202 -0.1357 -0.5216 -0.0191
 1671SOL    HW116649   3.385   1.275   9.272  1.0409  2.6105 -1.8387
 1671SOL    HW216650   3.347   1.158   9.194 -0.0650 -0.7161  0.8699
 1672SOL     OW16651   4.547   2.072   5.329 -0.2642 -0.0713 -0.2935
 1672SOL    HW116652   4.607   2.022   5.273  1.7951  1.3268  0.6754
 1672SOL    HW216653   4.528   2.020   5.407 -0.3713  0.4535  0.0283
 1673SOL     OW16654   4.437   3.081   0.073 -0.5074 -0.1297  0.3862
 1673SOL    HW116655   4.491   3.125   0.139 -0.3969 -1.8648  1.4765
 1673SOL    HW216656   4.498   3.012   0.048  0.3549 -0.2472  2.8040
 1674SOL     OW16657   1.262   0.242  11.687 -0.3139 -0.0715 -0.7833
 1674SOL    HW116658   1.349   0.232  11.648  0.9982  1.5771  1.6434
 1674SOL    HW216659   1.213   0.210  11.612  0.2075 -3.0375  0.1652
 1675SOL     OW16660   4.239   1.375  12.922 -0.0839 -0.0028 -0.6337
 1675SOL    HW116661   4.245   1.310  12.852 -0.5579 -0.9458  0.2005
 1675SOL    HW216662   4.324   1.354  12.960 -0.6710 -0.0126  0.6882
 1676SOL     OW16663   0.107   2.752   7.783  0.2600 -0.4803 -0.0489
 1676SOL    HW116664   0.166   2.805   7.730 -0.0283  0.3874  0.4963
 1676SOL    HW216665   0.026   2.777   7.738  0.3866 -0.7658 -0.4427
 1677SOL     OW16666   1.614   1.421   6.154  0.1137  0.0534 -0.0661
 1677SOL    HW116667   1.633   1.400   6.245  0.0696  1.4707  0.2812
 1677SOL    HW216668   1.547   1.357   6.130 -0.3216  0.3303  0.4142
 1678SOL     OW16669   3.213   0.492   2.012  0.1930  0.4285  0.0163
 1678SOL    HW116670   3.253   0.503   1.926 -1.5056  0.2646 -0.7974
 1678SOL    HW216671   3.177   0.404   1.999  1.1364  0.0444  0.0254
 1679SOL     OW16672   2.069   4.576   3.022  0.3761  0.3089 -0.4127
 1679SOL    HW116673   2.107   4.585   3.109  1.6470 -0.0814 -0.9203
 1679SOL    HW216674   1.980   4.610   3.033  0.1195 -0.4722 -0.0740
 1680SOL     OW16675   4.182   0.082   3.088 -0.4515 -0.1642  0.2362
 1680SOL    HW116676   4.201   0.122   3.173 -1.3344  1.6653 -0.4219
 1680SOL    HW216677   4.121   0.151   3.062  1.0126  1.3270  0.7279
 1681SOL     OW16678   2.481   4.393   8.229 -0.1536  0.1906 -0.3764
 1681SOL    HW116679   2.441   4.317   8.271  1.0420 -1.0509 -1.4811
 1681SOL    HW216680   2.512   4.452   8.298  1.0793  0.3593 -1.0725
 1682SOL     OW16681   1.917   1.976  13.181  0.5939  0.3548  0.3726
 1682SOL    HW116682   1.862   1.916  13.232 -0.0862  3.3636  3.1507
 1682SOL    HW216683   1.911   2.053  13.236 -0.7314 -1.8560  3.3319
 1683SOL     OW16684   4.218   1.666   3.790 -0.4179 -0.1800  0.4185
 1683SOL    HW116685   4.246   1.645   3.879 -1.3090  1.0991  1.0080
 1683SOL    HW216686   4.175   1.749   3.813  1.3238  0.9251 -0.3965
 1684SOL     OW16687   3.691   0.342   6.559 -0.1788 -0.6776  0.3343
 1684SOL    HW116688   3.749   0.274   6.524  0.2958 -0.3120  0.4096
 1684SOL    HW216689   3.646   0.369   6.479  0.0323 -3.0199 -0.5771
 1685SOL     OW16690   1.686   1.418   4.275 -0.2758 -0.0485 -0.0739
 1685SOL    HW116691   1.706   1.460   4.191 -0.7762  4.2002  1.9572
 1685SOL    HW216692   1.619   1.474   4.313  2.9368  3.3297  0.5889
 1686SOL     OW16693   1.635   3.557  11.417  0.3093  0.3482 -0.3133
 1686SOL    HW116694   1.666   3.539  11.505 -1.7853  0.5571  0.4621
 1686SOL    HW216695   1.672   3.645  11.410 -0.3796  0.6607 -0.0233
 1687SOL     OW16696   2.149   2.515   2.908  0.3840 -0.3415 -0.4263
 1687SOL    HW116697   2.107   2.499   2.823  0.5600 -3.5057  0.0925
 1687SOL    HW216698   2.114   2.442   2.958 -0.3766  0.4730  0.2321
 1688SOL     OW16699   0.209   1.648  16.374 -0.3275 -0.5025 -0.1281
 1688SOL    HW116700   0.236   1.559  16.397  1.1015  0.1989  0.9040
 1688SOL    HW216701   0.120   1.627  16.346 -1.0031  0.8967  0.9239
 1689SOL     OW16702   0.914   0.126   9.431  0.2173  0.2681 -0.2747
 1689SOL    HW116703   0.973   0.075   9.487 -0.3877  0.1631  0.2665
 1689SOL    HW216704   0.933   0.085   9.346 -1.8881  0.4658 -0.8384
 1690SOL     OW16705   2.060   3.337  13.247  0.4599 -0.0212 -0.3447
 1690SOL    HW116706   2.032   3.428  13.243  1.1286  0.1348 -1.3408
 1690SOL    HW216707   2.144   3.336  13.293  1.0799  1.4189 -1.4783
 1691SOL     OW16708   4.014   0.062  12.830 -0.0972  0.2321  0.1780
 1691SOL    HW116709   4.012   0.141  12.776  1.9685  0.1381 -0.0116
 1691SOL    HW216710   3.926   0.072  12.868 -0.0720  0.0288  0.2913
 1692SOL     OW16711   0.138   0.279   8.162  0.1593  0.0570 -0.4026
 1692SOL    HW116712   0.150   0.263   8.256  3.0621  1.3821 -0.5435
 1692SOL    HW216713   0.230   0.291   8.140 -0.3096  0.1091 -2.2811
 1693SOL     OW16714   0.699   0.042  15.146  0.3292  0.5690  0.1177
 1693SOL    HW116715   0.733   0.050  15.057  0.2191  3.4130  0.3316
 1693SOL    HW216716   0.764   0.092  15.195  3.0504 -0.0877 -2.8159
 1694SOL     OW16717   3.936   2.391  15.253  0.9309 -0.4922 -0.2130
 1694SOL    HW116718   3.933   2.351  15.340 -0.8689  1.2679  0.5284
 1694SOL    HW216719   3.860   2.448  15.262  0.2023 -1.4785 -0.1028
 1695SOL     OW16720   4.173   3.693   7.436  0.0968 -0.0351 -0.7722
 1695SOL    HW116721   4.251   3.647   7.468 -1.7202 -0.9683  2.2622
 1695SOL    HW216722   4.156   3.756   7.505 -0.1323  0.4970 -1.3074
 1696SOL     OW16723   1.758   0.103   5.274  0.2330 -0.0479 -0.8368
 1696SOL    HW116724   1.695   0.076   5.341  0.0676  0.4278 -0.8026
 1696SOL    HW216725   1.804   0.174   5.317 -2.3073  1.0770  0.0445
 1697SOL     OW16726   1.883   0.991   3.063  0.1162  0.2275 -0.1184
 1697SOL    HW116727   1.837   0.914   3.096  0.3356  0.2750  0.2898
 1697SOL    HW216728   1.955   0.995   3.126  0.6022 -2.9381 -0.5017
 1698SOL     OW16729   0.157   0.097   9.851 -0.8734 -0.0824 -0.7091
 1698SOL    HW116730   0.089   0.112   9.917 -2.1860 -1.5546 -1.7179
 1698SOL    HW216731   0.152   0.003   9.835 -0.8848  0.0853 -1.6607
 1699SOL     OW16732   2.991   2.777   0.162  0.7431  1.0156  0.0435
 1699SOL    HW116733   2.903   2.780   0.124  1.5428  1.3136 -1.7894
 1699SOL    HW216734   3.040   2.747   0.085  1.3774  1.0842  0.4239
 1700SOL     OW16735   2.800   3.122   3.320 -0.0021  0.1785  0.0620
 1700SOL    HW116736   2.822   3.208   3.357  1.6749  0.0571 -0.6304
 1700SOL    HW216737   2.886   3.081   3.334  0.1695  0.8446  0.9648
 1701SOL     OW16738   0.395   2.610   3.967 -0.4981 -0.1781 -0.4366
 1701SOL    HW116739   0.407   2.704   3.955  2.0058 -0.5016 -0.4427
 1701SOL    HW216740   0.465   2.597   4.031 -1.9402  1.4516  1.4539
 1702SOL     OW16741   4.234   3.476  13.135 -0.0552  0.2103  0.2308
 1702SOL    HW116742   4.215   3.560  13.092 -0.7292  0.7253  1.5291
 1702SOL    HW216743   4.169   3.416  13.099  0.7737  1.6604 -3.7288
 1703SOL     OW16744   4.331   2.987   3.132 -0.3246  0.3123  0.7668
 1703SOL    HW116745   4.298   2.957   3.047 -1.2589  0.5495  1.0467
 1703SOL    HW216746   4.298   2.920   3.192 -0.8647  0.3682  0.5237
 1704SOL     OW16747   0.457   0.487   9.286  0.5143 -0.6696 -0.1494
 1704SOL    HW116748   0.522   0.431   9.243  1.2521 -0.3344  0.5340
 1704SOL    HW216749   0.410   0.529   9.214  0.5883 -0.8363 -0.2958
 1705SOL     OW16750   0.838   4.253   2.475 -0.0614 -0.2879 -0.3596
 1705SOL    HW116751   0.851   4.324   2.411 -3.2599 -0.7487 -1.5049
 1705SOL    HW216752   0.929   4.226   2.462  1.1129  3.5906 -0.2488
 1706SOL     OW16753   3.792   4.650  14.280  0.1714  0.3762  0.2442
 1706SOL    HW116754   3.820   4.702  14.355 -1.5994  2.2016 -0.3676
 1706SOL    HW216755   3.798   4.719  14.214  0.5759  0.7638  0.6857
 1707SOL     OW16756   2.505   0.014  11.542  0.3134  0.3382 -0.4499
 1707SOL    HW116757   2.478   4.684  11.605  1.0445 -0.9005 -1.4496
 1707SOL    HW216758   2.593   0.019  11.580  0.9578  0.9829 -2.0313
 1708SOL     OW16759   2.064   1.543   3.112 -0.5004  0.4962  0.1646
 1708SOL    HW116760   2.076   1.464   3.059 -1.1489 -0.4464  1.4277
 1708SOL    HW216761   2.122   1.610   3.077 -1.3679 -0.5678 -3.3965
 1709SOL     OW16762   0.793   4.296   3.296  0.0570 -0.1448  0.9192
 1709SOL    HW116763   0.829   4.347   3.223  1.9786  1.0324  2.6855
 1709SOL    HW216764   0.734   4.239   3.247 -1.2186  0.7738  1.3917
 1710SOL     OW16765   2.683   2.165   8.933 -0.2527  0.4982  0.0661
 1710SOL    HW116766   2.699   2.248   8.887  1.5009  0.2003  0.1466
 1710SOL    HW216767   2.610   2.182   8.992  2.3037  3.9084  2.2738
 1711SOL     OW16768   0.811   1.877   3.384 -0.0303 -0.1612  0.1069
 1711SOL    HW116769   0.717   1.872   3.400 -0.3514 -0.4018 -1.9397
 1711SOL    HW216770   0.819   1.896   3.291  1.4169  1.4176  0.5487
 1712SOL     OW16771   1.629   3.668   5.043  0.0326 -0.6427 -0.0808
 1712SOL    HW116772   1.691   3.609   5.000 -0.1953 -0.7863 -0.2124
 1712SOL    HW216773   1.668   3.704   5.123  0.4188 -1.3111  0.0353
 1713SOL     OW16774   3.030   1.300  15.070  0.1335  0.0665  0.3623
 1713SOL    HW116775   2.983   1.368  15.119 -2.2569 -0.9414 -0.5024
 1713SOL    HW216776   3.030   1.338  14.982 -0.1297  0.1950  0.4169
 1714SOL     OW16777   0.813   2.539   2.000 -0.1131  0.0940 -0.6079
 1714SOL    HW116778   0.861   2.620   1.985  2.2318 -1.3533 -0.8838
 1714SOL    HW216779   0.769   2.564   2.081  0.3231 -1.8527  0.2237
 1715SOL     OW16780   1.643   0.447   7.419  0.1121 -0.4344 -0.6374
 1715SOL    HW116781   1.576   0.456   7.487  0.6243  0.3771 -0.2372
 1715SOL    HW216782   1.593   0.403   7.350 -2.4225 -1.8703  2.1047
 1716SOL     OW16783   1.637   0.754  14.482 -0.5911 -0.1180  0.0856
 1716SOL    HW116784   1.725   0.718  14.477 -0.6898 -0.0587 -2.0699
 1716SOL    HW216785   1.600   0.678  14.528 -2.2569  2.0615  2.3139
 1717SOL     OW16786   0.416   2.878   8.865  0.2499 -0.0257  0.3792
 1717SOL    HW116787   0.370   2.962   8.855  0.8379  0.4625  1.6704
 1717SOL    HW216788   0.490   2.895   8.808 -2.0212  0.7808 -2.3419
 1718SOL     OW16789   3.498   2.278  12.079  0.8539 -0.8636  0.0845
 1718SOL    HW116790   3.523   2.199  12.129  1.9490 -0.2959  0.4299
 1718SOL    HW216791   3.581   2.324  12.091  1.1654 -1.0688 -1.3761
 1719SOL     OW16792   2.794   2.207   0.889  0.3147 -0.3039 -0.0901
 1719SOL    HW116793   2.765   2.245   0.805  0.6546  1.3620  0.5375
 1719SOL    HW216794   2.843   2.136   0.847  0.6590  0.8421 -1.6710
 1720SOL     OW16795   2.860   0.847   8.627 -0.1768 -0.0351  0.2020
 1720SOL    HW116796   2.783   0.831   8.681 -2.1192  0.3832 -2.4309
 1720SOL    HW216797   2.821   0.913   8.570 -1.4818 -0.7117  0.3148
 1721SOL     OW16798   1.000   2.190   5.691  0.2491 -0.4885  0.3000
 1721SOL    HW116799   0.999   2.280   5.658  2.5744 -1.6433 -3.0045
 1721SOL    HW216800   1.093   2.171   5.676  0.7665  0.5979  2.1139
 1722SOL     OW16801   2.647   2.164  11.181  0.3232 -0.4777  0.7550
 1722SOL    HW116802   2.625   2.243  11.130 -3.5316 -1.5575  0.7169
 1722SOL    HW216803   2.727   2.139  11.135 -0.3632 -1.6098  0.1612
 1723SOL     OW16804   3.151   1.113   6.975  0.2697  0.3450 -0.1915
 1723SOL    HW116805   3.173   1.117   6.882  1.3249  1.4972  0.1139
 1723SOL    HW216806   3.124   1.203   6.992  0.5596  0.2923  0.5408
 1724SOL     OW16807   1.581   1.161   7.556  0.5160  0.9936 -0.8027
 1724SOL    HW116808   1.639   1.097   7.514 -1.1260 -1.6363  0.9395
 1724SOL    HW216809   1.496   1.118   7.548  0.8189  0.3856 -0.7956
 1725SOL     OW16810   2.716   2.541   7.072 -0.5431  0.0354 -0.3805
 1725SOL    HW116811   2.667   2.469   7.112 -2.1044 -0.1899 -2.7012
 1725SOL    HW216812   2.714   2.505   6.983 -0.9516 -3.1689  0.9115
 1726SOL     OW16813   3.518   4.052  16.851  0.2949  0.3053 -0.0757
 1726SOL    HW116814   3.593   4.044  16.910  0.4241 -0.9205 -0.4061
 1726SOL    HW216815   3.493   4.144  16.862 -4.0639 -0.9783  1.0263
 1727SOL     OW16816   3.732   2.339   4.947 -0.0677  0.4182 -0.3433
 1727SOL    HW116817   3.737   2.432   4.926 -1.3337  0.1571 -1.8333
 1727SOL    HW216818   3.691   2.342   5.033 -2.4756  0.7608 -1.4754
 1728SOL     OW16819   2.901   2.765  14.293 -0.5639 -0.1886 -0.1940
 1728SOL    HW116820   2.813   2.790  14.264 -0.9042  1.4509  2.2214
 1728SOL    HW216821   2.936   2.709  14.225  2.9724 -0.9514  2.2340
 1729SOL     OW16822   1.069   0.493   6.716  0.0478  0.4250  0.1989
 1729SOL    HW116823   1.007   0.523   6.649  1.8507  3.7702  0.0267
 1729SOL    HW216824   1.014   0.465   6.789  0.9442  0.2500  0.8024
 1730SOL     OW16825   2.691   1.520   2.595  0.4405  0.3903  0.6933
 1730SOL    HW116826   2.747   1.598   2.594  1.2744 -0.2392 -0.4490
 1730SOL    HW216827   2.614   1.574   2.580 -0.6411 -1.3006  0.1999
 1731SOL     OW16828   2.264   0.522   9.362 -0.2609  0.7386  0.0170
 1731SOL    HW116829   2.267   0.455   9.294 -1.7294  0.0122  0.6681
 1731SOL    HW216830   2.185   0.571   9.340  0.4524  0.9103 -2.1308
 1732SOL     OW16831   3.794   1.536   8.879 -0.4009  0.0469  0.0497
 1732SOL    HW116832   3.712   1.584   8.891 -0.4616  0.2063 -1.0050
 1732SOL    HW216833   3.798   1.485   8.960  1.2907 -1.1620 -0.7972
 1733SOL     OW16834   1.122   2.356   3.814 -0.6131  0.0802  0.0194
 1733SOL    HW116835   1.101   2.360   3.721 -2.5128  1.2659  0.4986
 1733SOL    HW216836   1.055   2.307   3.860 -0.8601 -0.8656 -1.3715
 1734SOL     OW16837   3.084   2.212   1.841  0.7685  0.0640  0.0920
 1734SOL    HW116838   3.034   2.131   1.848  1.5477 -0.3787  0.5126
 1734SOL    HW216839   3.128   2.219   1.926 -0.9232  0.8806  0.9028
 1735SOL     OW16840   3.806   3.814   1.395 -0.0671 -0.2061  0.7095
 1735SOL    HW116841   3.892   3.840   1.362 -0.7395  1.6441  0.3988
 1735SOL    HW216842   3.825   3.829   1.488  0.9626 -2.2648  0.8207
 1736SOL     OW16843   1.339   2.353  16.174 -0.2914 -0.1623 -0.4466
 1736SOL    HW116844   1.303   2.439  16.195  0.5504 -0.3171  1.6541
 1736SOL    HW216845   1.262   2.297  16.182 -0.7893  0.4689 -0.8470
 1737SOL     OW16846   1.049   2.684   3.817 -0.0228  0.5024 -0.1349
 1737SOL    HW116847   1.062   2.772   3.780  0.2678  0.1709 -0.8295
 1737SOL    HW216848   1.032   2.634   3.737 -0.8119  2.4376 -1.1724
 1738SOL     OW16849   3.200   2.228   5.253 -0.5311 -0.2177 -0.7483
 1738SOL    HW116850   3.242   2.292   5.311  0.0640 -0.1907 -1.2034
 1738SOL    HW216851   3.110   2.226   5.285 -0.6337 -0.5603 -1.0644
 1739SOL     OW16852   0.725   0.487   7.956  0.2646 -0.4347 -0.5235
 1739SOL    HW116853   0.686   0.443   7.881  0.3823  1.1807 -1.5433
 1739SOL    HW216854   0.778   0.421   8.000 -1.2691 -1.8491 -0.7885
 1740SOL     OW16855   3.585   1.791   7.328 -0.0280  0.3258 -0.5743
 1740SOL    HW116856   3.570   1.814   7.420  1.8373  0.2746 -0.2504
 1740SOL    HW216857   3.598   1.696   7.331 -0.6113  0.1463 -3.8794
 1741SOL     OW16858   1.952   1.997   8.734  0.2229 -0.4597 -0.2886
 1741SOL    HW116859   1.990   2.067   8.682 -0.2817 -0.6529 -0.9243
 1741SOL    HW216860   1.926   2.049   8.810 -0.3391 -0.6507 -0.3451
 1742SOL     OW16861   1.074   2.197   4.803 -0.2173 -0.7048 -0.0259
 1742SOL    HW116862   1.150   2.139   4.796  0.0975  0.0205 -2.4899
 1742SOL    HW216863   1.114   2.269   4.852 -0.0492  0.8360 -2.4296
 1743SOL     OW16864   4.137   1.146  11.046  0.2634  0.1059 -0.5698
 1743SOL    HW116865   4.090   1.142  11.129 -3.4833 -0.1090 -2.6546
 1743SOL    HW216866   4.083   1.097  10.983 -1.3157  0.2080  0.7181
 1744SOL     OW16867   2.704   1.816   6.526  0.5675  1.1638  1.0524
 1744SOL    HW116868   2.625   1.768   6.500  0.2536  1.8472  0.7431
 1744SOL    HW216869   2.686   1.908   6.512  1.6382  1.3132  0.6447
 1745SOL     OW16870   1.135   1.640   4.639  0.1758  0.0893 -0.2708
 1745SOL    HW116871   1.171   1.681   4.560  0.9693 -1.1870 -0.5761
 1745SOL    HW216872   1.214   1.602   4.677 -1.9108 -1.8361  2.1242
 1746SOL     OW16873   2.897   3.178   5.988 -0.0626 -0.6396 -0.0602
 1746SOL    HW116874   2.898   3.233   5.909  0.9801 -1.2210 -0.4412
 1746SOL    HW216875   2.868   3.096   5.948  3.3095 -1.2044 -1.3506
 1747SOL     OW16876   2.869   2.746   8.130  0.2424 -0.3227 -0.0273
 1747SOL    HW116877   2.891   2.798   8.207 -1.3034  0.7468 -0.3085
 1747SOL    HW216878   2.890   2.798   8.052  1.5369  2.9734  2.5096
 1748SOL     OW16879   2.697   0.961   8.438  0.3376 -0.0453 -0.0443
 1748SOL    HW116880   2.662   1.048   8.422 -0.6128 -0.6325 -1.1239
 1748SOL    HW216881   2.655   0.908   8.370 -0.6013 -0.3609  0.7808
 1749SOL     OW16882   3.357   3.455   0.905 -0.1957 -0.0334  0.0199
 1749SOL    HW116883   3.275   3.483   0.864  0.6823  0.5097 -1.3888
 1749SOL    HW216884   3.431   3.494   0.858  0.1323 -0.2382  0.3661
 1750SOL     OW16885   1.437   1.438  14.134 -0.0928  0.4125 -0.4267
 1750SOL    HW116886   1.434   1.385  14.054 -0.0379  0.7983 -0.6845
 1750SOL    HW216887   1.440   1.529  14.103  1.3722  0.3726 -0.3706
 1751SOL     OW16888   1.375   0.132   0.740  0.2537 -0.6007  0.2338
 1751SOL    HW116889   1.400   0.117   0.832  0.3052 -2.0691 -0.0173
 1751SOL    HW216890   1.421   0.055   0.707  0.8440  0.7262 -2.0317
 1752SOL     OW16891   4.491   2.540   3.731 -0.3357  0.2471 -0.4774
 1752SOL    HW116892   4.544   2.593   3.671 -1.4895  1.3186 -0.5470
 1752SOL    HW216893   4.416   2.599   3.741 -1.2329 -0.9362 -0.3309
 1753SOL     OW16894   1.641   1.439  11.903 -0.3643  0.1679  0.5763
 1753SOL    HW116895   1.546   1.438  11.901 -0.3239 -0.6979 -0.3470
 1753SOL    HW216896   1.648   1.479  11.990 -2.0074 -1.3281  1.3828
 1754SOL     OW16897   2.119   1.521  15.748  0.5998 -1.0066  0.3730
 1754SOL    HW116898   2.128   1.459  15.820 -1.2093 -0.3915  1.1397
 1754SOL    HW216899   2.033   1.556  15.771 -0.1041 -1.3908 -1.6739
 1755SOL     OW16900   4.452   2.200  10.351 -0.1445  0.1782 -0.3490
 1755SOL    HW116901   4.511   2.142  10.399 -0.1588 -0.0219 -0.5702
 1755SOL    HW216902   4.470   2.182  10.259  1.4249  1.3388 -0.2692
 1756SOL     OW16903   3.147   2.593   1.409 -0.5349  0.1894  0.3262
 1756SOL    HW116904   3.221   2.644   1.376 -1.0836  0.4650 -0.4982
 1756SOL    HW216905   3.077   2.658   1.422  0.1835  1.1972 -0.8498
 1757SOL     OW16906   3.148   1.677  12.354  0.1283  0.3232  0.5270
 1757SOL    HW116907   3.121   1.752  12.406  0.5914  0.6742  0.2602
 1757SOL    HW216908   3.243   1.687  12.354  0.2403 -0.6605 -0.9558
 1758SOL     OW16909   0.309   0.886  11.227  0.5830 -0.0166 -0.2722
 1758SOL    HW116910   0.366   0.963  11.219  0.8575  0.0654  2.7815
 1758SOL    HW216911   0.314   0.879  11.322  2.3427 -0.7937 -0.4148
 1759SOL     OW16912   1.098   4.071  17.559 -0.3708 -0.6248 -0.1085
 1759SOL    HW116913   1.036   4.131  17.518  2.7956  1.0356 -2.4655
 1759SOL    HW216914   1.181   4.087  17.514 -0.9923 -2.2871 -1.8210
 1760SOL     OW16915   1.159   0.148  14.878 -0.0891  0.0993 -0.0018
 1760SOL    HW116916   1.211   0.090  14.823  0.5005  0.1027  0.5562
 1760SOL    HW216917   1.144   0.210  14.806  1.7583 -0.7577 -1.1260
 1761SOL     OW16918   1.213   3.545   4.754 -0.7015  0.4015 -0.1467
 1761SOL    HW116919   1.309   3.547   4.750 -0.6424  1.3596  1.7195
 1761SOL    HW216920   1.202   3.452   4.773 -1.8471  0.2031 -1.8147
 1762SOL     OW16921   1.657   4.678   9.962 -0.3246 -0.1388 -0.1577
 1762SOL    HW116922   1.577   4.632   9.989 -0.7018  0.1158 -0.8367
 1762SOL    HW216923   1.692   4.689  10.050 -3.0169 -0.8653  1.0043
 1763SOL     OW16924   3.379   2.812  13.916 -0.0984 -0.5041 -0.3048
 1763SOL    HW116925   3.444   2.870  13.955 -0.7266  0.6199 -0.9651
 1763SOL    HW216926   3.406   2.728  13.955  0.5668 -1.2733 -2.4404
 1764SOL     OW16927   4.140   0.832   6.643  0.0187  0.4908 -0.4150
 1764SOL    HW116928   4.138   0.755   6.585 -1.4589 -0.6229  1.0949
 1764SOL    HW216929   4.232   0.850   6.627  0.5937 -0.1029  2.1317
 1765SOL     OW16930   3.212   0.072  11.052  0.0792  0.2359 -0.4623
 1765SOL    HW116931   3.147   0.126  11.007  1.3685  0.3899 -2.1431
 1765SOL    HW216932   3.180   4.725  11.016 -1.5022  0.0334  1.3846
 1766SOL     OW16933   3.417   1.734  15.236  0.5461  0.0193 -0.9723
 1766SOL    HW116934   3.397   1.820  15.275  0.8945 -0.7644  0.9544
 1766SOL    HW216935   3.332   1.699  15.212  0.7438 -1.1304  0.0187
 1767SOL     OW16936   0.683   3.060   7.295 -0.2336  0.0085  0.2934
 1767SOL    HW116937   0.682   3.056   7.199  0.7823  0.9765  0.2438
 1767SOL    HW216938   0.660   3.152   7.307 -0.2261  0.0111  0.2880
 1768SOL     OW16939   0.144   3.837   2.263 -0.0126  0.3823 -0.3634
 1768SOL    HW116940   0.154   3.809   2.172 -0.1294  0.6285 -0.4526
 1768SOL    HW216941   0.196   3.917   2.263 -0.4051  0.6377 -0.6730
 1769SOL     OW16942   0.419   3.789   1.044 -1.0793 -0.3682  0.6268
 1769SOL    HW116943   0.451   3.863   1.097  0.2605 -0.9222  0.6097
 1769SOL    HW216944   0.324   3.796   1.042 -0.9985  0.2653 -1.4159
 1770SOL     OW16945   1.835   0.686  10.662  0.5232 -0.4220  0.2567
 1770SOL    HW116946   1.769   0.732  10.713 -1.0286 -1.0616 -1.1884
 1770SOL    HW216947   1.784   0.681  10.581  1.7498  0.9566 -0.5961
 1771SOL     OW16948   1.791   0.604   9.182  0.2433  0.0317  0.3558
 1771SOL    HW116949   1.741   0.637   9.257 -0.6005 -0.1856 -0.1142
 1771SOL    HW216950   1.751   0.650   9.108  4.6369  0.2834 -1.8546
 1772SOL     OW16951   0.224   0.937  16.967  0.2230  0.1114  0.1251
 1772SOL    HW116952   0.270   1.014  16.935 -1.8077  0.9974 -0.6568
 1772SOL    HW216953   0.137   0.974  16.955 -0.2920 -1.0802  0.1808
 1773SOL     OW16954   2.691   3.597   0.803  0.2432 -0.0752  0.3831
 1773SOL    HW116955   2.670   3.647   0.724 -2.0208  1.5577  2.0241
 1773SOL    HW216956   2.786   3.593   0.811  0.1212 -2.8217  0.6742
 1774SOL     OW16957   1.307   2.551   8.624  0.0475 -0.3290  0.0230
 1774SOL    HW116958   1.320   2.630   8.571 -0.0722  1.1814  2.2280
 1774SOL    HW216959   1.401   2.532   8.631 -0.1524 -0.2538  3.0515
 1775SOL     OW16960   3.559   3.303   7.356  0.0872  0.0240  0.5245
 1775SOL    HW116961   3.558   3.317   7.451 -0.6648  0.7781  0.4116
 1775SOL    HW216962   3.508   3.224   7.341 -0.2777  0.9990 -3.5172
 1776SOL     OW16963   0.793   0.034  11.828  0.1532  0.0972 -0.2904
 1776SOL    HW116964   0.729   0.103  11.846 -1.7427 -1.9286  0.6854
 1776SOL    HW216965   0.770   4.700  11.889 -1.7019 -0.5520 -1.7561
 1777SOL     OW16966   0.646   1.589   3.547 -0.0228  0.0654 -0.5621
 1777SOL    HW116967   0.689   1.661   3.594 -0.0724  1.4439 -2.6352
 1777SOL    HW216968   0.562   1.632   3.532  0.3421  0.8099 -0.4902
 1778SOL     OW16969   4.533   1.280   7.588 -0.3514  0.5005  0.0609
 1778SOL    HW116970   4.471   1.341   7.629 -0.5343  0.2988  0.0824
 1778SOL    HW216971   4.469   1.220   7.550 -0.5782  0.9270 -0.2399
 1779SOL     OW16972   1.960   1.681   5.746  0.2528  0.1062 -0.3662
 1779SOL    HW116973   2.050   1.716   5.750  0.4982 -0.5416 -0.3003
 1779SOL    HW216974   1.959   1.605   5.688  2.7565 -0.2177  0.0077
 1780SOL     OW16975   0.987   2.121   2.750  0.5509  0.2809 -0.1486
 1780SOL    HW116976   0.944   2.101   2.667 -2.9013  0.6392  1.5394
 1780SOL    HW216977   0.921   2.104   2.818 -1.1050  3.3290 -0.9680
 1781SOL     OW16978   1.545   4.447   2.659  0.3893 -0.0266  0.2414
 1781SOL    HW116979   1.520   4.477   2.747 -0.5061  1.4659 -0.5241
 1781SOL    HW216980   1.457   4.440   2.622  0.7292 -1.7037 -0.2489
 1782SOL     OW16981   0.480   3.986   1.229 -0.0754  0.0832  0.0566
 1782SOL    HW116982   0.508   4.077   1.216  0.0308  0.5230  3.3613
 1782SOL    HW216983   0.559   3.960   1.276 -0.7887 -0.4507  0.9520
 1783SOL     OW16984   1.466   2.844   5.239  0.0650 -0.0819  0.4928
 1783SOL    HW116985   1.391   2.815   5.292 -0.2247  1.9804  1.2276
 1783SOL    HW216986   1.425   2.887   5.164  0.2419 -1.5155 -0.4212
 1784SOL     OW16987   4.368   3.648  12.285  0.3841 -0.5589  0.1032
 1784SOL    HW116988   4.422   3.602  12.221 -0.2483  1.3716 -1.8039
 1784SOL    HW216989   4.312   3.579  12.321 -0.0788  1.0678  2.5665
 1785SOL     OW16990   2.064   3.245   6.617 -0.5796  0.4046 -0.2872
 1785SOL    HW116991   2.015   3.211   6.691 -2.3791 -0.3120 -1.8207
 1785SOL    HW216992   2.151   3.259   6.654 -1.2786  1.6191  0.8829
 1786SOL     OW16993   3.544   0.760   4.221 -0.1631 -0.4021 -0.2362
 1786SOL    HW116994   3.581   0.765   4.309  0.8512 -2.6102 -0.5334
 1786SOL    HW216995   3.580   0.840   4.183 -2.4061  1.3678  1.3647
 1787SOL     OW16996   3.029   1.981  17.448  0.2616  0.1143 -0.0329
 1787SOL    HW116997   3.098   2.037  17.413  2.4020 -2.7006 -0.4147
 1787SOL    HW216998   2.965   2.038  17.489 -0.0093  0.3126 -0.7302
 1788SOL     OW16999   2.295   1.210  12.075 -0.5970  0.2144 -0.0680
 1788SOL    HW117000   2.279   1.118  12.056  2.0764 -0.1673 -0.4954
 1788SOL    HW217001   2.279   1.221  12.169  1.7259 -0.1964  0.3804
 1789SOL     OW17002   4.563   0.163   2.149  0.7736  0.2408  0.1663
 1789SOL    HW117003   4.490   0.189   2.093  1.6003  3.8749  0.7753
 1789SOL    HW217004   4.526   0.170   2.237  0.7071 -0.4261  0.1915
 1790SOL     OW17005   4.354   3.221  12.395  0.0214  0.1048  0.2465
 1790SOL    HW117006   4.303   3.142  12.379 -0.6328  0.3611  1.1064
 1790SOL    HW217007   4.398   3.204  12.478  0.4345 -2.0548 -0.4357
 1791SOL     OW17008   0.566   0.940  16.983  0.6770 -0.2186  0.3153
 1791SOL    HW117009   0.540   1.018  17.033  0.4979 -0.9691  1.3869
 1791SOL    HW217010   0.495   0.928  16.920 -0.2177  0.1755  1.2474
 1792SOL     OW17011   1.127   4.404   2.142  0.3537  0.1471 -0.1281
 1792SOL    HW117012   1.133   4.317   2.101 -0.2854  0.4910 -0.9545
 1792SOL    HW217013   1.150   4.453   2.063  2.1503  0.7561  0.7756
 1793SOL     OW17014   0.486   1.868  10.078  0.2935 -0.1885  0.2994
 1793SOL    HW117015   0.498   1.938  10.013  1.2150  3.1344  4.0438
 1793SOL    HW217016   0.560   1.891  10.134 -0.2973  2.8198 -0.1211
 1794SOL     OW17017   0.210   3.332  15.753  0.1202  0.0300 -0.1787
 1794SOL    HW117018   0.304   3.351  15.749 -0.3222  2.2219 -0.4700
 1794SOL    HW217019   0.181   3.354  15.665  1.7010  2.7181 -0.0376
 1795SOL     OW17020   0.288   1.088   2.467  0.2551  0.6333 -0.0399
 1795SOL    HW117021   0.264   1.065   2.557 -0.1096 -0.5429 -0.4438
 1795SOL    HW217022   0.218   1.151   2.449  0.7907  0.3928 -2.8985
 1796SOL     OW17023   2.780   3.181   9.627  0.4817 -0.4577  0.0671
 1796SOL    HW117024   2.763   3.267   9.589 -0.4490 -0.4423  0.5233
 1796SOL    HW217025   2.875   3.170   9.619  0.1672 -2.5511 -0.5439
 1797SOL     OW17026   1.364   0.225   3.084 -0.1560 -0.3484 -0.0924
 1797SOL    HW117027   1.356   0.242   2.990 -3.4019 -2.7037 -0.2261
 1797SOL    HW217028   1.459   0.214   3.094 -0.1151 -0.0845 -0.1955
 1798SOL     OW17029   1.807   2.283   2.698 -0.1212  0.0769 -0.2471
 1798SOL    HW117030   1.788   2.376   2.710 -1.4335  0.0638 -2.2405
 1798SOL    HW217031   1.895   2.299   2.664 -1.0428  0.5454 -2.4248
 1799SOL     OW17032   3.910   0.558   4.626 -0.2859 -0.7845  0.1954
 1799SOL    HW117033   3.864   0.511   4.695 -0.3877  0.2801  0.8629
 1799SOL    HW217034   3.968   0.614   4.679  0.8994 -0.0132 -1.8970
 1800SOL     OW17035   0.383   3.926   9.237  0.1285 -0.2622  0.3590
 1800SOL    HW117036   0.395   4.020   9.224  1.6093 -0.4296  0.4575
 1800SOL    HW217037   0.290   3.923   9.257  0.1570  1.2453  0.6699
 1801SOL     OW17038   3.607   3.707   7.931 -0.0241  0.1231  0.1761
 1801SOL    HW117039   3.550   3.655   7.875  0.7666  0.0026 -0.5119
 1801SOL    HW217040   3.697   3.682   7.910  0.4713  1.0220  1.1828
 1802SOL     OW17041   0.161   2.042   6.806  0.2196  0.0148 -0.3358
 1802SOL    HW117042   0.253   2.027   6.783 -0.2367  0.3892 -2.3875
 1802SOL    HW217043   0.172   2.075   6.895  0.8955 -1.4809  0.1337
 1803SOL     OW17044   3.421   3.391   5.366  1.2317 -0.6304  0.2012
 1803SOL    HW117045   3.478   3.316   5.348  1.1978 -0.2915 -1.2637
 1803SOL    HW217046   3.465   3.442   5.435 -2.3428 -0.5246  2.3851
 1804SOL     OW17047   4.569   1.093  14.300  0.0998  0.1744 -0.1272
 1804SOL    HW117048   4.664   1.108  14.293  0.3945 -1.5926  0.1397
 1804SOL    HW217049   4.567   1.006  14.340 -0.3193  0.1963 -0.1065
 1805SOL     OW17050   2.270   0.882   6.857 -0.3853 -0.0465  0.6261
 1805SOL    HW117051   2.312   0.961   6.824  1.7536 -1.5024 -0.1553
 1805SOL    HW217052   2.176   0.895   6.844 -0.1016  2.6246  1.4117
 1806SOL     OW17053   1.032   4.083   5.428 -0.3540 -0.5220  0.6660
 1806SOL    HW117054   1.100   4.136   5.469 -0.3459 -0.9972  1.2796
 1806SOL    HW217055   1.075   4.046   5.350 -2.5671 -0.0953 -0.7505
 1807SOL     OW17056   3.862   1.304  16.996  0.5331 -0.3577  0.2459
 1807SOL    HW117057   3.899   1.351  17.070  1.2440  1.3137 -1.1542
 1807SOL    HW217058   3.853   1.214  17.028  0.4804  0.1492  1.6467
 1808SOL     OW17059   4.436   1.460   5.278  0.1141  0.1760 -0.3184
 1808SOL    HW117060   4.370   1.501   5.222  1.8414  0.9326 -1.8122
 1808SOL    HW217061   4.405   1.371   5.292  0.1672 -0.2056 -2.5802
 1809SOL     OW17062   0.970   1.646  11.186  0.3005  0.5646  0.2274
 1809SOL    HW117063   0.971   1.698  11.106 -3.2915  1.0362  0.5095
 1809SOL    HW217064   1.021   1.569  11.161 -1.0460 -0.4364  0.5993
 1810SOL     OW17065   2.598   2.489   8.190 -0.2482  0.1850  0.3275
 1810SOL    HW117066   2.561   2.419   8.136 -0.1273  0.1564  0.2816
 1810SOL    HW217067   2.543   2.482   8.267 -2.9207 -2.3701 -1.8316
 1811SOL     OW17068   2.313   1.247   4.897 -0.8963  0.0962 -0.2716
 1811SOL    HW117069   2.361   1.290   4.968  0.3543 -0.0901 -0.9979
 1811SOL    HW217070   2.224   1.235   4.930 -0.4395 -1.8188  0.2409
 1812SOL     OW17071   4.515   4.472   9.024  0.2960  0.1568 -0.0762
 1812SOL    HW117072   4.534   4.481   9.117  2.1825  1.7383 -0.6092
 1812SOL    HW217073   4.521   4.377   9.012  0.5884 -0.0612  1.7423
 1813SOL     OW17074   3.165   2.419   8.571  0.3582 -0.3961  0.2686
 1813SOL    HW117075   3.260   2.406   8.566  0.0711 -2.0393 -1.2563
 1813SOL    HW217076   3.146   2.418   8.664 -2.1246  1.0065 -0.2338
 1814SOL     OW17077   1.085   0.890   6.498  0.2413  0.4274  0.0164
 1814SOL    HW117078   1.018   0.911   6.563 -0.5994  0.9192 -1.0253
 1814SOL    HW217079   1.166   0.926   6.536  1.5282 -1.7389 -0.6447
 1815SOL     OW17080   0.896   4.423   5.763  0.3401  0.2290 -0.1079
 1815SOL    HW117081   0.961   4.451   5.699  0.6555  1.0003  0.5628
 1815SOL    HW217082   0.920   4.479   5.837  3.0529 -0.3019 -0.6124
 1816SOL     OW17083   3.195   1.721   4.798 -1.1385  0.5147 -0.7878
 1816SOL    HW117084   3.133   1.730   4.726  0.0143  0.0457 -1.8246
 1816SOL    HW217085   3.165   1.792   4.855  0.3199 -0.4719  1.2364
 1817SOL     OW17086   3.604   2.529   8.202 -0.1982 -0.9308 -0.0046
 1817SOL    HW117087   3.524   2.477   8.202 -0.7356 -0.0980  0.3232
 1817SOL    HW217088   3.570   2.610   8.166 -0.6874 -1.8477 -1.5854
 1818SOL     OW17089   3.248   0.454   9.232  0.7236  0.0452 -0.6563
 1818SOL    HW117090   3.184   0.483   9.166 -0.5257  2.9511  1.8477
 1818SOL    HW217091   3.194   0.383   9.267 -1.0092  1.2266 -0.8749
 1819SOL     OW17092   3.456   3.606   6.628 -0.3754  0.1415  0.8491
 1819SOL    HW117093   3.551   3.592   6.619 -0.4931  1.1745 -1.9898
 1819SOL    HW217094   3.449   3.625   6.722 -1.2784  0.9339  0.6198
 1820SOL     OW17095   3.035   0.119   8.273 -0.3292 -0.0606 -0.4210
 1820SOL    HW117096   3.012   0.027   8.259 -5.1447  1.1073 -0.2227
 1820SOL    HW217097   2.955   0.160   8.240  0.8104  1.6262 -1.0861
 1821SOL     OW17098   0.360   2.537  11.356 -0.4632  0.1889  0.8347
 1821SOL    HW117099   0.283   2.594  11.352  0.1969  0.9661 -0.8389
 1821SOL    HW217100   0.332   2.471  11.293 -0.9329  0.8246  0.3715
 1822SOL     OW17101   1.532   4.398   6.222  0.1108 -0.6229  0.7699
 1822SOL    HW117102   1.438   4.387   6.205  0.6185 -2.7555 -0.5832
 1822SOL    HW217103   1.560   4.309   6.202 -1.9251 -1.2109  0.4831
 1823SOL     OW17104   2.171   1.504  14.189  0.1080 -0.0033 -0.4416
 1823SOL    HW117105   2.246   1.557  14.215 -1.3110  1.5470  0.5580
 1823SOL    HW217106   2.205   1.445  14.122  2.6382  1.3520 -0.3444
 1824SOL     OW17107   4.369   0.950  17.672 -0.0788  0.0723 -0.2530
 1824SOL    HW117108   4.380   0.907  17.587  1.7123  1.2248 -0.5947
 1824SOL    HW217109   4.438   0.919  17.731  0.4027 -0.5139 -1.1321
 1825SOL     OW17110   2.001   1.575  12.657  0.5253 -0.1299  0.6112
 1825SOL    HW117111   2.036   1.487  12.642 -0.0966 -0.3401  0.4202
 1825SOL    HW217112   2.078   1.631  12.660 -0.4749  1.1522  2.1580
 1826SOL     OW17113   0.105   1.507   5.804 -1.0270 -0.0099 -0.1407
 1826SOL    HW117114   0.039   1.563   5.844 -1.5747 -0.3982 -0.4909
 1826SOL    HW217115   0.176   1.566   5.779 -2.0464  0.8135 -1.0983
 1827SOL     OW17116   0.142   1.717   6.435  0.0894 -0.2725  0.0275
 1827SOL    HW117117   0.058   1.672   6.425 -0.7423  1.0941  0.9875
 1827SOL    HW217118   0.201   1.651   6.473  0.1907  0.5004  1.1994
 1828SOL     OW17119   1.792   3.808   8.476  0.1530  0.1653 -0.0988
 1828SOL    HW117120   1.736   3.880   8.505  0.1685  0.4231 -0.7210
 1828SOL    HW217121   1.749   3.792   8.392 -1.1678  0.9825  0.4174
 1829SOL     OW17122   0.595   1.921   4.249  0.1998 -0.2452 -0.1406
 1829SOL    HW117123   0.680   1.888   4.279  1.3581 -0.0675 -3.1463
 1829SOL    HW217124   0.545   1.875   4.316  2.2213 -1.0103  0.8410
 1830SOL     OW17125   2.827   0.014   4.079  0.2601  0.3751 -0.2920
 1830SOL    HW117126   2.756   0.017   4.015 -2.0591 -1.7061  2.2061
 1830SOL    HW217127   2.836   0.108   4.094 -0.8425  0.4420  0.0176
 1831SOL     OW17128   2.000   3.821   0.280  0.3302  0.3714  0.6408
 1831SOL    HW117129   1.963   3.900   0.318 -1.8052 -0.4871  0.3377
 1831SOL    HW217130   1.926   3.760   0.280 -2.8536  4.2552  0.8099
 1832SOL     OW17131   1.765   1.742  12.049 -0.0574 -0.0735 -0.2651
 1832SOL    HW117132   1.827   1.669  12.045  0.0804 -0.0242  0.7801
 1832SOL    HW217133   1.764   1.760  11.955 -0.0941  0.9935 -0.0572
 1833SOL     OW17134   0.905   4.385   7.880  0.4114 -0.0635  0.4587
 1833SOL    HW117135   0.994   4.351   7.892  0.1747 -0.7461  0.2245
 1833SOL    HW217136   0.868   4.364   7.966  1.1808  0.6881  0.9751
 1834SOL     OW17137   0.108   1.689   8.957  0.1799 -0.3930 -0.3820
 1834SOL    HW117138   0.116   1.671   9.051 -1.1907  3.2981  0.4592
 1834SOL    HW217139   0.196   1.664   8.928  0.1412 -3.1641  1.9630
 1835SOL     OW17140   2.720   1.102   2.183  0.3818  0.1719 -0.0667
 1835SOL    HW117141   2.711   1.172   2.248 -1.3127  1.5037 -1.7603
 1835SOL    HW217142   2.665   1.138   2.114 -0.9680 -1.8842 -0.0387
 1836SOL     OW17143   1.995   2.690   2.083 -0.2183  0.9185  0.5733
 1836SOL    HW117144   2.067   2.666   2.141  1.4077  2.7959 -0.6812
 1836SOL    HW217145   1.930   2.721   2.146 -0.8022  0.3504  0.2529
 1837SOL     OW17146   1.880   4.505   1.531 -0.1630 -0.5224 -0.1455
 1837SOL    HW117147   1.975   4.507   1.540 -0.0740 -3.1143 -0.4011
 1837SOL    HW217148   1.870   4.508   1.436  0.3690 -0.4822 -0.2001
 1838SOL     OW17149   0.577   2.227  16.148 -0.2975  0.6285  0.0071
 1838SOL    HW117150   0.630   2.275  16.212 -0.0864  1.2362 -0.6255
 1838SOL    HW217151   0.643   2.183  16.095 -0.7157  0.1500 -0.1073
 1839SOL     OW17152   3.432   4.576   4.181  0.8697  0.3199 -0.1756
 1839SOL    HW117153   3.392   4.623   4.108 -0.9163 -0.9638 -0.0355
 1839SOL    HW217154   3.427   4.485   4.151 -1.1502 -0.3185  2.1127
 1840SOL     OW17155   0.193   1.343  15.644 -0.7882  0.2419 -0.6284
 1840SOL    HW117156   0.183   1.432  15.612  2.1388  1.1444  0.9962
 1840SOL    HW217157   0.253   1.313  15.575 -0.8695 -1.1179 -0.1130
 1841SOL     OW17158   4.721   3.939   5.196  0.0266 -0.0245  0.1317
 1841SOL    HW117159   4.628   3.947   5.216 -0.1019  1.3030 -1.0193
 1841SOL    HW217160   0.014   4.029   5.208  0.3217 -0.4197  2.4808
 1842SOL     OW17161   4.189   0.029  13.101 -0.7890  0.1320 -0.3159
 1842SOL    HW117162   4.122   0.025  13.032 -0.5118  0.3296 -0.5960
 1842SOL    HW217163   4.161   0.108  13.149  1.0779  1.4083 -1.3269
 1843SOL     OW17164   1.525   0.605   8.272 -0.2311  0.3809  0.6011
 1843SOL    HW117165   1.573   0.669   8.219 -1.1489  0.5154 -0.0666
 1843SOL    HW217166   1.451   0.576   8.220  0.8741 -0.9813 -0.2244
 1844SOL     OW17167   2.623   3.657   4.364 -0.0239  0.3868  0.4727
 1844SOL    HW117168   2.605   3.744   4.329  0.3399  0.6440  0.9180
 1844SOL    HW217169   2.714   3.651   4.336  0.1309  0.8070  0.8679
 1845SOL     OW17170   0.875   4.684   6.211  0.1019 -0.1275  0.0998
 1845SOL    HW117171   0.943   0.003   6.248  0.7700 -0.3391 -0.8002
 1845SOL    HW217172   0.818   4.686   6.287  0.2512  1.2232  0.1794
 1846SOL     OW17173   3.996   4.646   7.287  0.8688 -0.4076  0.0452
 1846SOL    HW117174   3.903   4.646   7.310  0.5306 -4.1434 -1.3324
 1846SOL    HW217175   4.036   4.622   7.371 -1.0191  0.3100  1.1424
 1847SOL     OW17176   4.182   1.574   5.188 -0.6517  0.4857 -0.2571
 1847SOL    HW117177   4.218   1.598   5.103 -2.1236  0.6836 -0.8207
 1847SOL    HW217178   4.092   1.606   5.184 -1.2501 -1.0939  0.6109
 1848SOL     OW17179   4.067   1.960  13.647  0.1459  0.4010  0.1920
 1848SOL    HW117180   4.116   1.927  13.572 -1.8061 -3.7574  0.7693
 1848SOL    HW217181   4.041   2.050  13.628 -1.3618  0.0654  0.6862
 1849SOL     OW17182   2.198   3.709  16.078  0.7599  0.0819 -0.5336
 1849SOL    HW117183   2.171   3.753  15.998  0.7024  0.9717 -0.0270
 1849SOL    HW217184   2.292   3.722  16.084  0.8851 -0.7155 -0.8894
 1850SOL     OW17185   1.920   1.764   6.217  0.2020  0.0395 -0.0265
 1850SOL    HW117186   1.996   1.767   6.275  0.4563  2.2526 -0.4567
 1850SOL    HW217187   1.925   1.676   6.180  0.5299 -0.4879  1.2837
 1851SOL     OW17188   3.419   2.459   8.490  0.3794 -0.0739 -0.1698
 1851SOL    HW117189   3.504   2.415   8.498  0.8528  0.8250 -0.2524
 1851SOL    HW217190   3.434   2.539   8.439  0.2536 -0.9408 -1.5856
 1852SOL     OW17191   4.100   2.167   7.520  0.1444 -0.2947  0.8794
 1852SOL    HW117192   4.008   2.146   7.501 -0.0111  0.8789  0.3408
 1852SOL    HW217193   4.131   2.167   7.429  1.0870  1.4353  1.2107
 1853SOL     OW17194   1.529   2.076   7.356 -0.0710  0.0644 -0.1940
 1853SOL    HW117195   1.463   2.130   7.401 -2.7369 -2.4625 -1.0722
 1853SOL    HW217196   1.481   2.046   7.279 -0.1026  0.6325 -0.3961
 1854SOL     OW17197   1.342   0.986   8.979  0.2257  0.2757  0.3401
 1854SOL    HW117198   1.399   0.946   8.913  0.6351  0.8287  0.3587
 1854SOL    HW217199   1.262   1.006   8.930  0.0466  1.4973  1.1473
 1855SOL     OW17200   3.289   3.451  11.727  0.8648  0.1390  0.0853
 1855SOL    HW117201   3.255   3.531  11.686  0.3259  0.0890  0.4450
 1855SOL    HW217202   3.230   3.441  11.801  0.4737 -0.5869 -0.3230
 1856SOL     OW17203   0.658   0.423  15.950 -0.0074  0.7295 -0.2435
 1856SOL    HW117204   0.719   0.466  15.890 -0.9487 -1.0817 -2.5009
 1856SOL    HW217205   0.577   0.470  15.932 -1.7092 -2.7470 -1.7198
 1857SOL     OW17206   2.032   3.615   5.462 -0.0923  0.5307 -0.0905
 1857SOL    HW117207   1.943   3.633   5.432 -0.5325 -3.3069 -1.0710
 1857SOL    HW217208   2.074   3.620   5.376  1.0288 -1.4006  0.3221
 1858SOL     OW17209   0.245   0.684   6.319 -0.2086 -0.1878  0.4075
 1858SOL    HW117210   0.250   0.615   6.253 -1.9886  0.2379 -0.1846
 1858SOL    HW217211   0.272   0.765   6.276 -0.8732  1.1022  2.3895
 1859SOL     OW17212   2.311   0.151   6.989 -0.5239 -0.3741 -0.4485
 1859SOL    HW117213   2.406   0.152   6.978 -0.3643 -1.0215  0.8500
 1859SOL    HW217214   2.296   0.057   6.983  0.3918 -0.4691 -1.2418
 1860SOL     OW17215   0.327   2.369   5.197  0.2011 -0.1304  0.3990
 1860SOL    HW117216   0.363   2.296   5.146  0.1151  0.6179 -0.7319
 1860SOL    HW217217   0.395   2.369   5.264  0.4531  2.7029  0.1408
 1861SOL     OW17218   2.046   2.452   2.667  0.0920  0.1252  0.3135
 1861SOL    HW117219   2.050   2.513   2.593 -0.4936  0.1992  0.3456
 1861SOL    HW217220   2.133   2.411   2.665 -0.0942 -0.1644 -1.6049
 1862SOL     OW17221   3.931   0.213   7.000  0.4471  0.0997 -0.1962
 1862SOL    HW117222   3.844   0.177   7.019  1.3707 -0.7916  2.3574
 1862SOL    HW217223   3.950   0.175   6.914 -1.4415 -2.5263  0.5431
 1863SOL     OW17224   3.687   0.845  13.132  0.1235  0.0688 -0.5395
 1863SOL    HW117225   3.705   0.821  13.223  1.2411  2.0225 -0.2316
 1863SOL    HW217226   3.703   0.940  13.132  0.3341  0.0330  0.5470
 1864SOL     OW17227   3.700   1.484   6.716  0.1811 -0.5623  0.8835
 1864SOL    HW117228   3.775   1.423   6.712  0.9866  0.5658 -1.4479
 1864SOL    HW217229   3.747   1.566   6.699  0.6878 -0.9622  0.3186
 1865SOL     OW17230   1.175   1.408   1.374 -0.3331 -0.6037 -0.7580
 1865SOL    HW117231   1.124   1.411   1.454 -1.6768 -2.4256 -1.5378
 1865SOL    HW217232   1.112   1.383   1.305 -1.7927  1.6658 -0.2191
 1866SOL     OW17233   3.007   2.340   6.540  0.1644  0.3960 -0.4672
 1866SOL    HW117234   2.927   2.366   6.493  0.5823  0.4090 -1.1639
 1866SOL    HW217235   3.052   2.292   6.471  2.0439  0.7604  0.5172
 1867SOL     OW17236   1.644   0.317   1.086 -0.7603  0.1265 -0.1742
 1867SOL    HW117237   1.650   0.246   1.022 -0.1638 -2.1908  2.4614
 1867SOL    HW217238   1.730   0.301   1.126  0.3036 -0.1893 -2.5744
 1868SOL     OW17239   2.455   3.388  13.599 -0.0370 -0.1874  0.6574
 1868SOL    HW117240   2.491   3.475  13.617 -2.6402  1.4666 -2.0228
 1868SOL    HW217241   2.381   3.406  13.539  0.5999 -0.5950 -0.2509
 1869SOL     OW17242   0.848   1.371   6.131  0.1401 -0.3522  0.2131
 1869SOL    HW117243   0.931   1.416   6.118 -1.2260  1.3936 -2.3462
 1869SOL    HW217244   0.782   1.419   6.081 -0.3552 -0.3867  0.8298
 1870SOL     OW17245   2.243   2.396   5.220  0.5902 -0.0467 -0.6676
 1870SOL    HW117246   2.215   2.485   5.245 -0.6207  0.1028 -2.5569
 1870SOL    HW217247   2.156   2.358   5.208 -0.5742  2.1948  0.6313
 1871SOL     OW17248   2.193   2.357   4.534 -0.0724 -0.9965 -0.1573
 1871SOL    HW117249   2.155   2.399   4.456  0.7985 -0.1837 -0.1566
 1871SOL    HW217250   2.115   2.333   4.584 -1.2630  0.2815 -1.4085
 1872SOL     OW17251   1.913   1.424  17.521  0.1444 -0.0726  0.0123
 1872SOL    HW117252   1.926   1.369  17.444  1.0338 -0.4620  0.4438
 1872SOL    HW217253   1.877   1.356  17.579 -0.3681  0.4018  0.2553
 1873SOL     OW17254   0.363   3.587   4.584 -0.2552  0.3769 -0.0364
 1873SOL    HW117255   0.348   3.600   4.490 -0.5881  0.8904  0.0869
 1873SOL    HW217256   0.459   3.590   4.586 -0.2588  1.2617 -0.7744
 1874SOL     OW17257   0.973   2.739   2.351 -0.0327  0.0155  0.1541
 1874SOL    HW117258   1.044   2.713   2.292 -1.3698  0.8540 -1.8158
 1874SOL    HW217259   1.021   2.750   2.433  0.1632  1.4290 -0.1499
 1875SOL     OW17260   1.677   1.514   7.720 -0.3047  0.1901  0.5430
 1875SOL    HW117261   1.616   1.577   7.760  0.7224 -0.0175  2.4317
 1875SOL    HW217262   1.626   1.482   7.646 -0.6737  1.0953  0.3998
 1876SOL     OW17263   1.814   2.142   0.510 -0.6314  0.2965 -0.1357
 1876SOL    HW117264   1.844   2.129   0.600 -2.6819  2.4413  0.8467
 1876SOL    HW217265   1.738   2.198   0.527 -0.8841 -0.6825  1.9835
 1877SOL     OW17266   4.664   4.056   7.125  0.0302 -0.2509  0.1071
 1877SOL    HW117267   4.607   3.979   7.132 -1.0097  0.5527  0.5195
 1877SOL    HW217268   4.600   4.127   7.114 -0.7609 -0.5140  3.0426
 1878SOL     OW17269   4.198   3.813  12.760  0.0112 -0.1525 -0.0862
 1878SOL    HW117270   4.196   3.909  12.765  0.7612 -0.0397 -1.7707
 1878SOL    HW217271   4.284   3.806  12.720  0.7468  1.7781  1.1166
 1879SOL     OW17272   1.411   4.587   9.821  0.2296 -0.7240  0.1056
 1879SOL    HW117273   1.460   4.661   9.784 -1.0146 -1.0479 -2.2063
 1879SOL    HW217274   1.451   4.514   9.774 -0.1469 -0.1393 -1.1527
 1880SOL     OW17275   1.923   1.254   9.181  0.1220  0.2688 -0.1931
 1880SOL    HW117276   1.918   1.195   9.256  0.3704 -1.1186 -1.2670
 1880SOL    HW217277   1.858   1.320   9.206  1.4481  1.6890 -0.4846
 1881SOL     OW17278   1.627   3.108  12.965  0.0756 -0.5864  0.7619
 1881SOL    HW117279   1.618   3.033  12.906 -0.7296 -0.0463  0.2055
 1881SOL    HW217280   1.701   3.153  12.924 -0.4245 -0.6824 -0.2434
 1882SOL     OW17281   1.777   0.908   1.957 -0.3029  0.0815  0.1038
 1882SOL    HW117282   1.749   0.876   1.872  0.3634  0.7511 -0.3709
 1882SOL    HW217283   1.865   0.870   1.955 -0.6909 -0.7533 -1.4913
 1883SOL     OW17284   1.563   4.646  15.439  0.3667 -0.4775 -0.1381
 1883SOL    HW117285   1.593   4.556  15.432  0.5425 -0.4865  0.7248
 1883SOL    HW217286   1.537   4.665  15.349 -0.7047  1.3907  0.5546
 1884SOL     OW17287   2.660   1.832  17.070  0.0858 -0.2394  0.0640
 1884SOL    HW117288   2.597   1.898  17.040  0.0469  0.3280  1.3794
 1884SOL    HW217289   2.736   1.888  17.086 -0.6486  0.3484  1.3936
 1885SOL     OW17290   3.333   1.164   2.008 -0.4550  0.0864 -0.2925
 1885SOL    HW117291   3.292   1.097   2.063  0.1755  0.7738  1.0149
 1885SOL    HW217292   3.420   1.178   2.045 -0.1627  0.7534 -1.2508
 1886SOL     OW17293   2.815   3.351   0.570 -0.4036  0.1049 -0.3203
 1886SOL    HW117294   2.727   3.388   0.567  0.2869  1.6259 -2.1370
 1886SOL    HW217295   2.822   3.317   0.481  1.8532 -2.0309  0.6754
 1887SOL     OW17296   4.184   2.123  17.456 -0.1918 -0.1587  0.1923
 1887SOL    HW117297   4.274   2.103  17.479  0.0272 -0.2798 -0.7478
 1887SOL    HW217298   4.189   2.201  17.400  0.0334 -0.0608  0.3534
 1888SOL     OW17299   4.158   4.273   8.819 -0.1369  0.2227 -0.2075
 1888SOL    HW117300   4.158   4.177   8.815  1.7146  0.2145  0.4382
 1888SOL    HW217301   4.081   4.287   8.764 -0.0663  0.6336 -0.2016
 1889SOL     OW17302   4.654   3.787   1.613  0.2509  0.3071  1.0225
 1889SOL    HW117303   4.672   3.867   1.662  0.1280  1.6167 -1.0581
 1889SOL    HW217304   4.713   3.724   1.654 -1.0658 -0.0540  2.4112
 1890SOL     OW17305   4.239   1.007   5.724  0.7828 -0.6279 -0.0840
 1890SOL    HW117306   4.316   1.007   5.780  0.2952 -0.2507  0.5822
 1890SOL    HW217307   4.272   1.055   5.648 -0.1387 -0.3717 -0.3263
 1891SOL     OW17308   0.126   2.962   8.011 -0.0900 -0.0710  0.3497
 1891SOL    HW117309   0.117   2.874   7.974 -0.5762 -0.4801  1.4791
 1891SOL    HW217310   0.146   3.006   7.928  1.3644 -0.1831  0.6396
 1892SOL     OW17311   3.006   2.718  14.543 -0.2031  0.3791  0.1673
 1892SOL    HW117312   2.968   2.736  14.457 -0.6713 -1.3899  0.0055
 1892SOL    HW217313   3.023   2.806  14.576  2.4094 -0.3413  0.8115
 1893SOL     OW17314   3.050   3.530   3.260  0.0554 -0.1500 -0.3577
 1893SOL    HW117315   3.132   3.554   3.304  0.0055  0.1738 -0.4484
 1893SOL    HW217316   3.075   3.459   3.200  0.5801 -1.1103  1.0065
 1894SOL     OW17317   0.855   4.688   2.428 -0.6288  0.7057 -0.7428
 1894SOL    HW117318   0.801   0.031   2.424 -3.2237 -0.9822  0.7480
 1894SOL    HW217319   0.867   4.684   2.523  0.0556 -0.0037 -0.8598
 1895SOL     OW17320   4.421   4.102   7.702  0.0805  0.2322 -0.2984
 1895SOL    HW117321   4.460   4.128   7.619 -0.2264  1.0690 -0.1825
 1895SOL    HW217322   4.441   4.011   7.721  1.2368  0.6847  0.6337
 1896SOL     OW17323   2.319   4.382  11.718  0.2929  0.2392 -0.1746
 1896SOL    HW117324   2.285   4.328  11.789  0.5302  1.2889  0.7460
 1896SOL    HW217325   2.269   4.353  11.641 -0.1850 -2.0772  1.0329
 1897SOL     OW17326   4.224   0.503   2.961  0.3247  0.0742  0.2291
 1897SOL    HW117327   4.267   0.425   2.994  0.1531  0.8655  2.2848
 1897SOL    HW217328   4.203   0.448   2.885  0.1565 -0.3638  0.5911
 1898SOL     OW17329   0.359   1.767   9.870  0.0603 -0.5667  0.2369
 1898SOL    HW117330   0.369   1.672   9.870 -0.3285 -0.6081 -0.6769
 1898SOL    HW217331   0.406   1.794   9.948  0.2763 -2.4362  0.7501
 1899SOL     OW17332   2.575   3.321   0.744 -0.0998 -0.2516  0.4681
 1899SOL    HW117333   2.664   3.289   0.730 -0.1451 -0.6081  1.0039
 1899SOL    HW217334   2.587   3.410   0.777  0.3763 -1.2284  2.9002
 1900SOL     OW17335   2.169   2.590   6.731 -0.1405  0.3369  0.1246
 1900SOL    HW117336   2.107   2.645   6.683  0.8797  1.8465  0.5406
 1900SOL    HW217337   2.205   2.644   6.802  2.7193  0.0413 -1.1100
 1901SOL     OW17338   0.747   4.378   9.831  0.0222 -0.2414 -0.5813
 1901SOL    HW117339   0.793   4.449   9.786  0.8093 -1.1569 -1.2254
 1901SOL    HW217340   0.773   4.409   9.918  1.8715 -2.9033 -0.1664
 1902SOL     OW17341   2.022   3.173   0.674  0.8195 -0.3600 -0.9189
 1902SOL    HW117342   2.045   3.157   0.765  1.8783  1.2421 -0.9114
 1902SOL    HW217343   2.099   3.215   0.638 -0.7324  3.1674 -0.1190
 1903SOL     OW17344   3.908   2.132   9.436 -0.0611  0.0227  0.3604
 1903SOL    HW117345   3.948   2.137   9.350 -1.3816 -0.3792 -0.2878
 1903SOL    HW217346   3.938   2.048   9.470  1.6387  1.0131  1.2708
 1904SOL     OW17347   0.542   0.645   4.071 -0.2412 -0.5697  0.0139
 1904SOL    HW117348   0.495   0.614   3.994 -1.5361 -0.3926  0.7335
 1904SOL    HW217349   0.577   0.727   4.036 -1.3396 -0.6412 -1.2426
 1905SOL     OW17350   3.257   3.730   7.970  0.5947 -0.1071  0.3499
 1905SOL    HW117351   3.253   3.655   7.911  1.1378 -1.5417  2.1393
 1905SOL    HW217352   3.248   3.692   8.057  2.9053  1.7957  1.4279
 1906SOL     OW17353   0.664   4.400   5.421 -0.5000 -0.0535  0.3140
 1906SOL    HW117354   0.717   4.424   5.346 -0.4340 -1.3493 -0.0559
 1906SOL    HW217355   0.587   4.456   5.408 -1.7614 -1.9273 -0.3635
 1907SOL     OW17356   4.126   0.538   5.062  0.1019  0.1521  0.0623
 1907SOL    HW117357   4.150   0.457   5.017  2.6515  0.8583  0.1585
 1907SOL    HW217358   4.175   0.598   5.005  0.0659 -0.0256 -0.1594
 1908SOL     OW17359   3.943   4.184   5.493 -0.6394 -0.9115  0.0642
 1908SOL    HW117360   4.002   4.171   5.419 -1.6110 -2.3593 -0.4582
 1908SOL    HW217361   3.993   4.242   5.551 -0.4812 -2.2504  1.2608
 1909SOL     OW17362   4.369   2.643   4.364  0.5450 -0.2937  0.5573
 1909SOL    HW117363   4.344   2.735   4.372 -0.7862 -0.7033  1.0722
 1909SOL    HW217364   4.460   2.635   4.394  1.3482 -1.2871 -2.1727
 1910SOL     OW17365   0.725   0.762   5.953 -0.1142  0.5637  0.4060
 1910SOL    HW117366   0.639   0.761   5.911  1.7222 -0.8233 -3.3428
 1910SOL    HW217367   0.707   0.801   6.038 -1.3638  0.0657  0.3677
 1911SOL     OW17368   3.589   1.042  15.013 -0.1909 -0.3613 -0.2680
 1911SOL    HW117369   3.682   1.050  15.032 -0.9919  2.1788  2.6066
 1911SOL    HW217370   3.546   1.093  15.082 -1.0990 -0.3600 -0.8344
 1912SOL     OW17371   1.550   0.316   2.314 -0.3163  0.3987  0.0853
 1912SOL    HW117372   1.567   0.222   2.301  2.1055  0.6849  1.2603
 1912SOL    HW217373   1.626   0.352   2.360 -0.5798  0.6175  0.3457
 1913SOL     OW17374   2.094   1.566  10.835 -0.3327  0.7563  0.0187
 1913SOL    HW117375   2.097   1.661  10.837  2.1950  0.6345  2.3415
 1913SOL    HW217376   2.071   1.550  10.743  2.7592 -1.3114 -0.4194
 1914SOL     OW17377   2.006   3.928   0.992  0.0847 -0.6534  0.0883
 1914SOL    HW117378   2.023   3.880   1.073  1.2951 -0.0746  0.1794
 1914SOL    HW217379   1.967   4.013   1.015 -0.7233 -1.1515  0.5576
 1915SOL     OW17380   0.555   0.864  13.835  0.1811 -0.4510 -0.0981
 1915SOL    HW117381   0.574   0.896  13.924  3.5904  0.2560 -1.1001
 1915SOL    HW217382   0.470   0.903  13.814  0.3084 -0.5280 -0.7324
 1916SOL     OW17383   2.792   2.503   0.422 -0.2968  0.0148  0.4220
 1916SOL    HW117384   2.843   2.478   0.345  0.5729  0.6573  0.7850
 1916SOL    HW217385   2.818   2.595   0.425  0.2406 -0.1597  1.1765
 1917SOL     OW17386   3.655   2.418  10.411  0.3625 -0.0521  0.0223
 1917SOL    HW117387   3.602   2.377  10.343  0.9646 -0.6678 -0.0787
 1917SOL    HW217388   3.618   2.506  10.420  2.3466  0.6557  1.3937
 1918SOL     OW17389   3.314   1.368  16.555  0.0199  0.3878 -0.0914
 1918SOL    HW117390   3.395   1.318  16.570 -1.6303 -2.5091 -0.9316
 1918SOL    HW217391   3.270   1.326  16.481 -0.8046 -0.5128  0.9113
 1919SOL     OW17392   1.492   3.168   4.904  0.4197 -0.4582  0.3311
 1919SOL    HW117393   1.581   3.146   4.931  0.8713 -0.0935 -0.8254
 1919SOL    HW217394   1.519   3.186   4.813  1.5493 -3.6149  0.0223
 1920SOL     OW17395   2.373   4.205  17.378  0.4082  0.2506 -0.1954
 1920SOL    HW117396   2.338   4.150  17.308 -0.3338 -0.7930  0.9968
 1920SOL    HW217397   2.366   4.293  17.341  0.5735  0.0448 -0.7216
 1921SOL     OW17398   3.863   2.250   7.767  0.0445 -0.1732 -0.1086
 1921SOL    HW117399   3.875   2.192   7.843 -0.4562 -1.2938 -0.8841
 1921SOL    HW217400   3.912   2.327   7.796 -1.5929  0.7297  0.2442
 1922SOL     OW17401   3.326   2.739  12.697  0.6035 -0.1530 -0.1796
 1922SOL    HW117402   3.386   2.671  12.727  0.4596  0.2188  0.9470
 1922SOL    HW217403   3.317   2.703  12.609 -0.2677 -2.2522  0.7753
 1923SOL     OW17404   2.422   1.618  11.654 -0.0129  0.2955 -0.1802
 1923SOL    HW117405   2.482   1.674  11.604 -0.4223  1.9228  1.1310
 1923SOL    HW217406   2.393   1.564  11.582 -1.9301  0.6099  0.3738
 1924SOL     OW17407   1.376   2.626   6.757 -0.2310 -0.4084  0.0952
 1924SOL    HW117408   1.433   2.563   6.802 -0.7627 -0.7552  0.2849
 1924SOL    HW217409   1.449   2.678   6.722 -1.7253  1.3500 -0.3875
 1925SOL     OW17410   0.824   0.592   6.293 -0.5034  0.1182 -0.1713
 1925SOL    HW117411   0.835   0.577   6.387 -2.0781 -0.1964 -0.0497
 1925SOL    HW217412   0.731   0.573   6.284 -0.4594 -0.7894  1.2902
 1926SOL     OW17413   2.341   0.035   2.379 -0.7076 -0.1080  0.9777
 1926SOL    HW117414   2.309   4.694   2.426  1.3832 -1.3197  0.3942
 1926SOL    HW217415   2.377   0.006   2.296  0.0009  1.3952  0.7584
 1927SOL     OW17416   1.026   4.007   1.346 -0.2110 -0.1183  0.3171
 1927SOL    HW117417   1.024   3.928   1.400 -0.4068 -0.7736 -0.6468
 1927SOL    HW217418   1.104   4.052   1.379 -0.3077  0.4299 -0.2002
 1928SOL     OW17419   1.253   3.016   0.967 -0.3138  0.4064 -0.2533
 1928SOL    HW117420   1.236   2.925   0.992 -0.6352 -0.2359 -2.7111
 1928SOL    HW217421   1.309   2.997   0.891  1.1036  0.5406  0.7601
 1929SOL     OW17422   3.895   1.688   5.270 -0.0372 -0.2422 -0.1182
 1929SOL    HW117423   3.830   1.620   5.255  0.1689 -0.4585 -0.0201
 1929SOL    HW217424   3.927   1.651   5.352 -3.6736 -0.6660  1.1033
 1930SOL     OW17425   4.428   4.523   7.618  0.2401 -0.2392 -0.5830
 1930SOL    HW117426   4.399   4.551   7.705  0.9371  1.3369 -0.8522
 1930SOL    HW217427   4.352   4.553   7.569 -0.8620 -1.5303  0.3587
 1931SOL     OW17428   1.845   2.148   6.660  0.3761  0.1949 -0.6874
 1931SOL    HW117429   1.931   2.171   6.695  0.3291  3.1387 -2.5121
 1931SOL    HW217430   1.823   2.232   6.619  2.1309  0.4316 -1.1219
 1932SOL     OW17431   0.978   1.800   4.835 -0.2463 -0.2882 -0.0794
 1932SOL    HW117432   0.999   1.753   4.754 -0.9141 -1.1448  0.2455
 1932SOL    HW217433   0.903   1.748   4.863  0.0784 -0.2895  0.8118
 1933SOL     OW17434   0.405   0.543  14.424  0.3065  0.2599 -0.6755
 1933SOL    HW117435   0.466   0.572  14.356 -0.3451  0.5505 -1.1347
 1933SOL    HW217436   0.328   0.513  14.376  0.4733 -0.3109 -0.5810
 1934SOL     OW17437   0.997   2.726   4.066 -0.0673  0.0143  0.6120
 1934SOL    HW117438   1.013   2.697   3.977 -0.0048 -0.7535  0.8770
 1934SOL    HW217439   0.943   2.799   4.035  1.7010  2.0419  2.2791
 1935SOL     OW17440   0.765   4.663  11.104  0.2796 -0.2380  0.2546
 1935SOL    HW117441   0.805   4.651  11.018 -0.0923 -0.1740  0.0733
 1935SOL    HW217442   0.708   4.736  11.081  0.1168 -0.7019 -0.8363
 1936SOL     OW17443   4.438   0.210   5.306  0.0810  0.1492 -0.2775
 1936SOL    HW117444   4.404   0.159   5.232  0.4742  2.3320 -1.9584
 1936SOL    HW217445   4.483   0.140   5.353  1.2372  0.2513 -1.2322
 1937SOL     OW17446   3.764   0.160  12.971 -0.1605 -0.5427  0.2840
 1937SOL    HW117447   3.689   0.130  13.022 -1.7618  0.4098 -1.5163
 1937SOL    HW217448   3.828   0.161  13.042 -0.6049 -3.5411  0.7419
 1938SOL     OW17449   2.275   0.285   3.744 -0.1395 -0.1244  0.2246
 1938SOL    HW117450   2.308   0.375   3.750 -0.3223 -0.0005 -0.5478
 1938SOL    HW217451   2.213   0.305   3.673  1.7917  1.1411 -1.1417
 1939SOL     OW17452   0.219   1.674  11.571  0.1863 -0.1040  0.2688
 1939SOL    HW117453   0.149   1.696  11.509  0.0668 -2.3152 -0.3522
 1939SOL    HW217454   0.239   1.581  11.562  0.0799  0.0394 -1.5741
 1940SOL     OW17455   1.089   3.258  13.513 -0.3734 -0.4998  0.2878
 1940SOL    HW117456   1.071   3.352  13.515  0.5987 -0.4013  3.7228
 1940SOL    HW217457   1.182   3.261  13.538 -0.2805 -0.4402 -0.0585
 1941SOL     OW17458   0.243   3.568   8.874  0.3674 -0.6881 -0.7232
 1941SOL    HW117459   0.179   3.576   8.803 -0.1634  1.2724 -0.0040
 1941SOL    HW217460   0.323   3.611   8.844 -0.6031  1.3638 -0.3169
 1942SOL     OW17461   2.092   4.540   3.288  0.0428 -0.2130 -0.2578
 1942SOL    HW117462   2.001   4.558   3.313  0.7778  1.9153  0.8655
 1942SOL    HW217463   2.082   4.445   3.292 -1.0871  0.0663  3.7353
 1943SOL     OW17464   4.678   0.819   8.330 -0.0065 -0.4286 -0.3241
 1943SOL    HW117465   4.714   0.780   8.250  1.1826  4.0669 -1.9821
 1943SOL    HW217466   4.630   0.891   8.290 -0.6250  0.2218  1.5870
 1944SOL     OW17467   0.972   1.795   3.833  0.8900 -0.1236  0.2108
 1944SOL    HW117468   0.998   1.826   3.919  0.5301 -0.5200  0.4671
 1944SOL    HW217469   1.032   1.723   3.814 -1.4187 -2.4814  1.8418
 1945SOL     OW17470   2.086   2.295   3.106 -0.3990  0.0415  0.0888
 1945SOL    HW117471   2.018   2.254   3.159  0.1293 -0.6288  0.2443
 1945SOL    HW217472   2.086   2.234   3.032 -1.2976  1.4290 -1.0581
 1946SOL     OW17473   0.267   1.953   3.468 -0.4982  0.1512  0.2340
 1946SOL    HW117474   0.175   1.933   3.453  0.0523 -3.0312  1.1638
 1946SOL    HW217475   0.282   2.033   3.417  1.0303 -1.1012 -1.2949
 1947SOL     OW17476   2.189   0.795   5.797  0.3575  0.2059  0.0004
 1947SOL    HW117477   2.121   0.763   5.855  1.1525  0.2578  0.9603
 1947SOL    HW217478   2.220   0.708   5.772  0.3498  0.2206 -0.0611
 1948SOL     OW17479   4.297   1.625   4.889  0.2888 -0.4173  0.1909
 1948SOL    HW117480   4.359   1.593   4.823  1.1705 -0.9344  1.2679
 1948SOL    HW217481   4.350   1.697   4.924  0.4217 -0.7368  0.6433
 1949SOL     OW17482   3.703   0.452   8.013  0.1977  0.3971  0.5201
 1949SOL    HW117483   3.631   0.457   8.076  0.0889  1.3231  0.3347
 1949SOL    HW217484   3.740   0.365   8.026  0.3301  0.6365  1.7305
 1950SOL     OW17485   2.728   0.429   5.472 -0.1476  0.3856 -0.7670
 1950SOL    HW117486   2.750   0.434   5.565 -0.6191  0.4199 -0.6579
 1950SOL    HW217487   2.687   0.343   5.471  0.7658 -0.0786  2.0423
 1951SOL     OW17488   2.332   0.596  15.054  1.1753 -0.8131  0.1309
 1951SOL    HW117489   2.363   0.686  15.069 -0.5019 -0.0396 -0.9674
 1951SOL    HW217490   2.410   0.564  15.009  1.9643  2.1964 -0.6901
 1952SOL     OW17491   4.214   4.026   7.121 -0.0935  0.4138  0.0984
 1952SOL    HW117492   4.279   4.001   7.187 -0.8015 -0.6827  0.3778
 1952SOL    HW217493   4.245   3.980   7.043 -0.2904  1.0331 -0.3400
 1953SOL     OW17494   2.516   4.205  15.656  0.5228 -0.2868 -0.7878
 1953SOL    HW117495   2.433   4.202  15.607  1.4594 -1.1932 -2.3355
 1953SOL    HW217496   2.516   4.286  15.707  0.5815  0.4915 -2.0126
 1954SOL     OW17497   1.864   1.914   1.072  0.1902  0.4030 -0.4158
 1954SOL    HW117498   1.818   1.967   1.007  0.1448  0.1203 -0.6132
 1954SOL    HW217499   1.816   1.937   1.152 -1.1889 -3.1781 -0.2262
 1955SOL     OW17500   0.284   3.016  11.361 -0.3342  0.9781  0.5612
 1955SOL    HW117501   0.289   2.955  11.288 -1.8606  0.9630  0.4756
 1955SOL    HW217502   0.206   3.069  11.345 -0.6264  0.5741  0.6335
 1956SOL     OW17503   1.288   1.918  17.208 -0.4824 -0.1215 -0.1854
 1956SOL    HW117504   1.331   1.971  17.141 -1.5858 -1.7711 -2.1994
 1956SOL    HW217505   1.234   1.861  17.153  0.2183 -1.5743  0.6473
 1957SOL     OW17506   0.792   4.476   9.209 -0.3162  0.0742  0.2615
 1957SOL    HW117507   0.841   4.413   9.262  0.7561  1.1724  0.5844
 1957SOL    HW217508   0.731   4.519   9.269 -1.8648 -0.5145 -0.9039
 1958SOL     OW17509   1.650   1.434   2.691 -0.2435  0.0092 -0.1489
 1958SOL    HW117510   1.701   1.355   2.673  1.5283  0.5499  2.5083
 1958SOL    HW217511   1.674   1.449   2.782 -0.9026 -0.9739  0.1879
 1959SOL     OW17512   2.677   4.202  15.981  0.3975  0.3451 -0.3739
 1959SOL    HW117513   2.687   4.143  16.056 -5.3957  1.4926  1.3236
 1959SOL    HW217514   2.761   4.248  15.987  1.3575 -1.8239  2.6527
 1960SOL     OW17515   0.259   2.697   8.684 -0.1087  0.2618 -0.0914
 1960SOL    HW117516   0.346   2.696   8.723 -0.0499 -2.5193 -0.2900
 1960SOL    HW217517   0.209   2.703   8.765  0.7367 -2.3074  0.6117
 1961SOL     OW17518   1.029   0.584   4.293 -0.2411 -0.0324  0.6120
 1961SOL    HW117519   0.941   0.622   4.295 -0.0450  0.5117 -2.1829
 1961SOL    HW217520   1.012   0.490   4.291 -1.8941  0.3230 -0.9699
 1962SOL     OW17521   1.057   3.219   2.275  0.2523 -0.0541  0.1105
 1962SOL    HW117522   1.121   3.181   2.335  0.8606  2.9898  1.3521
 1962SOL    HW217523   1.011   3.141   2.243  0.0304 -0.0455  0.4104
 1963SOL     OW17524   4.543   3.676   6.211 -0.1294  0.0050 -0.0320
 1963SOL    HW117525   4.626   3.708   6.174 -2.2275  2.1109 -2.8688
 1963SOL    HW217526   4.578   3.654   6.298  0.6319 -1.7267 -0.7832
 1964SOL     OW17527   0.030   2.539  12.994  0.4569 -0.6842 -0.0416
 1964SOL    HW117528   4.734   2.527  12.905 -2.4528  1.6862  0.7165
 1964SOL    HW217529   4.705   2.607  13.022  0.1831  0.1209 -2.6524
 1965SOL     OW17530   4.360   1.872   3.116 -0.1689  0.3716  0.3770
 1965SOL    HW117531   4.298   1.945   3.126 -2.5650 -1.7077  0.7959
 1965SOL    HW217532   4.427   1.907   3.175 -1.6599  1.3271  1.5325
 1966SOL     OW17533   0.649   1.045   4.735  0.3258  0.2419  0.0531
 1966SOL    HW117534   0.610   1.000   4.660 -0.7490  0.0452  0.7322
 1966SOL    HW217535   0.606   1.130   4.733  0.5410  0.4080  2.0344
 1967SOL     OW17536   3.555   3.272  17.182  0.7701  0.1713  0.1208
 1967SOL    HW117537   3.550   3.348  17.240  2.0204 -0.9958  1.7434
 1967SOL    HW217538   3.646   3.266  17.154 -0.3458 -0.6142 -3.2830
 1968SOL     OW17539   3.234   3.234   4.542 -0.1672 -0.2320  0.2485
 1968SOL    HW117540   3.220   3.166   4.477  0.2654 -0.2390  0.1635
 1968SOL    HW217541   3.148   3.273   4.560  0.4486  1.7509 -1.1124
 1969SOL     OW17542   3.703   4.082   5.529  0.0013 -0.0414  0.1886
 1969SOL    HW117543   3.792   4.116   5.522  0.0461 -0.3159 -0.5092
 1969SOL    HW217544   3.682   4.102   5.621  1.1341  1.1357  0.1943
 1970SOL     OW17545   2.568   1.848   2.801  0.0440  0.1102 -0.2291
 1970SOL    HW117546   2.643   1.907   2.815 -0.2174  0.4650 -0.3353
 1970SOL    HW217547   2.515   1.905   2.745 -0.4509  1.1688  1.3429
 1971SOL     OW17548   3.514   2.556   7.810 -0.9460  0.9563 -0.4756
 1971SOL    HW117549   3.437   2.554   7.868 -1.5571 -1.4799 -1.3537
 1971SOL    HW217550   3.473   2.538   7.725  1.3995 -2.3158 -0.9226
 1972SOL     OW17551   3.468   1.443  12.989 -0.7962  0.0815 -0.0584
 1972SOL    HW117552   3.386   1.452  13.037  0.8892  0.7036  2.7075
 1972SOL    HW217553   3.537   1.454  13.055 -2.0068 -1.1165  1.4045
 1973SOL     OW17554   3.843   3.860   6.893  0.6252 -0.2562 -0.3909
 1973SOL    HW117555   3.875   3.808   6.966 -0.0973  0.1760  0.2369
 1973SOL    HW217556   3.810   3.935   6.943 -2.9953 -1.9971 -0.1988
 1974SOL     OW17557   0.238   4.066   2.667  0.0646 -0.5011 -0.1843
 1974SOL    HW117558   0.281   4.023   2.742 -0.4069  1.4035  1.1875
 1974SOL    HW217559   0.290   4.147   2.667  1.3119 -1.3065  0.8384
 1975SOL     OW17560   2.734   2.558   7.964  0.0418  0.1327  0.3858
 1975SOL    HW117561   2.663   2.540   8.025  1.1281  0.3052  1.6920
 1975SOL    HW217562   2.801   2.604   8.013  1.2317 -1.0754 -0.0916
 1976SOL     OW17563   1.957   3.283   8.127  0.0654  0.2113  0.4036
 1976SOL    HW117564   1.923   3.199   8.158 -0.0471 -0.2265 -0.9179
 1976SOL    HW217565   1.975   3.332   8.207  2.2184 -0.2204  0.1892
 1977SOL     OW17566   0.659   2.872   2.165 -0.5807  0.2428  0.7525
 1977SOL    HW117567   0.577   2.904   2.202 -1.1392 -0.5702  0.2363
 1977SOL    HW217568   0.653   2.776   2.170  0.9325  0.1818  1.3569
 1978SOL     OW17569   0.645   0.054   5.424  0.2945 -0.4742  0.4683
 1978SOL    HW117570   0.552   0.055   5.403  0.5359 -0.6245 -0.6051
 1978SOL    HW217571   0.690   0.069   5.340  0.5404 -1.9779  0.3399
 1979SOL     OW17572   3.800   0.265   9.670  0.0992 -0.0610 -0.7116
 1979SOL    HW117573   3.712   0.226   9.670  1.1993 -2.4967  0.0663
 1979SOL    HW217574   3.851   0.193   9.706 -0.6121 -0.2003  0.0178
 1980SOL     OW17575   0.796   4.339  16.056 -0.3179 -0.1701 -0.5145
 1980SOL    HW117576   0.809   4.367  15.966  1.0424 -0.0312 -0.2747
 1980SOL    HW217577   0.835   4.415  16.099 -0.8378  0.1560 -0.6225
 1981SOL     OW17578   3.089   3.330  10.923 -0.4569  0.3292 -0.2979
 1981SOL    HW117579   3.017   3.390  10.903 -0.9292 -0.7669 -1.8956
 1981SOL    HW217580   3.119   3.297  10.838  2.6370  2.1035  0.0777
 1982SOL     OW17581   1.738   3.621  13.122  0.4356  0.2789 -0.4240
 1982SOL    HW117582   1.680   3.560  13.077  0.5127  1.1917 -1.7458
 1982SOL    HW217583   1.769   3.569  13.196 -0.4911  0.3066 -0.0195
 1983SOL     OW17584   3.979   4.286  12.677  0.0151 -0.0535 -0.4944
 1983SOL    HW117585   4.015   4.372  12.700 -5.8804  2.3409 -0.1612
 1983SOL    HW217586   4.015   4.258  12.593  0.3069  0.9876 -0.7154
 1984SOL     OW17587   2.295   2.043   1.440  0.1409 -0.0444 -0.3380
 1984SOL    HW117588   2.345   1.961   1.434 -1.5556 -1.0056 -1.2926
 1984SOL    HW217589   2.215   2.002   1.407 -1.3337  1.2318  1.7026
 1985SOL     OW17590   4.335   0.931  14.420 -0.0083 -0.4659 -0.3608
 1985SOL    HW117591   4.287   0.855  14.453  2.2086 -1.8019 -0.1647
 1985SOL    HW217592   4.428   0.911  14.432 -0.1918 -0.6192  0.7877
 1986SOL     OW17593   4.524   3.128   8.602 -0.0494 -0.1682 -0.5462
 1986SOL    HW117594   4.497   3.052   8.654 -3.2492  1.9182  0.8769
 1986SOL    HW217595   4.442   3.160   8.564 -0.1684 -0.3809 -0.4673
 1987SOL     OW17596   2.366   1.417   8.307 -0.4531  0.3145  0.3491
 1987SOL    HW117597   2.445   1.463   8.334 -0.9428  1.3241  0.0549
 1987SOL    HW217598   2.378   1.434   8.213  0.7993 -2.7293 -0.0496
 1988SOL     OW17599   3.935   0.670   8.272 -0.0512  0.2357 -0.6670
 1988SOL    HW117600   4.027   0.694   8.267 -0.3345  1.2142 -1.1454
 1988SOL    HW217601   3.902   0.684   8.183  0.8688  0.2859 -0.9951
 1989SOL     OW17602   2.123   1.590   3.478 -0.0861  0.3573  0.6577
 1989SOL    HW117603   2.156   1.607   3.566  0.5943  0.7955  0.3190
 1989SOL    HW217604   2.086   1.676   3.457 -0.3430  0.0317 -0.2449
 1990SOL     OW17605   1.159   4.271   7.883 -0.2403 -0.4537  0.3791
 1990SOL    HW117606   1.158   4.213   7.959 -1.2015 -1.5054 -0.4385
 1990SOL    HW217607   1.187   4.224   7.805  1.6424 -0.8675  1.3139
 1991SOL     OW17608   3.252   0.773   4.250  0.9001 -0.0968  0.0269
 1991SOL    HW117609   3.268   0.721   4.329 -0.8150 -2.6235 -1.2895
 1991SOL    HW217610   3.338   0.796   4.215  1.5098 -0.3079  1.3496
 1992SOL     OW17611   1.898   2.675   5.088  0.6593 -0.1072  0.3044
 1992SOL    HW117612   1.843   2.642   5.016 -1.3447  4.5933 -0.3256
 1992SOL    HW217613   1.838   2.741   5.123 -0.4803 -0.7271 -0.4782
 1993SOL     OW17614   0.251   0.990   5.199  0.4920  0.1880 -0.1865
 1993SOL    HW117615   0.208   1.055   5.254 -1.2547 -1.9319  0.9560
 1993SOL    HW217616   0.333   0.985   5.248 -0.2383  0.3723  1.0391
 1994SOL     OW17617   4.694   0.306   3.295  0.2143 -0.2708 -0.5087
 1994SOL    HW117618   0.035   0.361   3.307 -0.3554  0.0307  1.7606
 1994SOL    HW217619   4.698   0.264   3.381  0.1106 -3.3838 -2.0433
 1995SOL     OW17620   4.313   1.201   5.523 -0.5456 -0.0267 -0.0086
 1995SOL    HW117621   4.331   1.179   5.431 -1.7428  1.3060 -0.5600
 1995SOL    HW217622   4.219   1.220   5.521 -0.4522  0.5256  0.8124
 1996SOL     OW17623   4.387   4.395   4.027 -0.7497 -0.3119 -0.3140
 1996SOL    HW117624   4.357   4.332   4.092 -1.7008  2.3370  1.8215
 1996SOL    HW217625   4.375   4.474   4.081  2.3580  0.0093 -0.0697
 1997SOL     OW17626   2.804   0.989   9.960 -0.0528 -0.4175 -0.1345
 1997SOL    HW117627   2.854   1.069   9.944 -0.2602 -0.3679 -0.5334
 1997SOL    HW217628   2.790   0.977  10.054  1.1453  0.8266  0.2096
 1998SOL     OW17629   4.664   1.523   0.309 -0.1894  0.6336  0.0521
 1998SOL    HW117630   4.624   1.467   0.242 -0.4267  0.7475  0.0992
 1998SOL    HW217631   4.616   1.606   0.305 -2.6643 -0.7575  1.5247
 1999SOL     OW17632   4.160   4.321   9.118 -0.4239  0.1651  0.3068
 1999SOL    HW117633   4.069   4.346   9.098  0.2125  1.9841 -0.2852
 1999SOL    HW217634   4.191   4.315   9.028  1.2354 -1.0288  0.9669
 2000SOL     OW17635   4.626   1.741  14.933 -0.3330 -1.0015 -0.2595
 2000SOL    HW117636   4.672   1.815  14.893  0.0990 -0.7059  0.7792
 2000SOL    HW217637   4.560   1.723  14.866 -0.6206  1.9010 -0.7605
 2001SOL     OW17638   0.903   1.004   1.401  0.3790  0.2259  0.4214
 2001SOL    HW117639   0.856   1.086   1.389  3.2611  1.7282 -0.5679
 2001SOL    HW217640   0.961   1.022   1.475  1.9045  3.4388 -1.5802
 2002SOL     OW17641   2.625   0.755   2.841 -0.1833 -0.2292  0.4082
 2002SOL    HW117642   2.668   0.830   2.880 -1.0203  0.4482  0.0342
 2002SOL    HW217643   2.677   0.684   2.879 -0.6204  0.3206  2.0071
 2003SOL     OW17644   1.441   4.074   3.772  0.4589 -0.4424 -0.0363
 2003SOL    HW117645   1.477   4.161   3.756 -0.4504 -0.1653 -0.5785
 2003SOL    HW217646   1.415   4.051   3.683 -1.8325  0.8516  0.3012
 2004SOL     OW17647   0.410   3.739   2.596 -0.5195 -0.2177  0.0658
 2004SOL    HW117648   0.358   3.726   2.675 -1.2761  1.3163 -0.1829
 2004SOL    HW217649   0.346   3.716   2.528  0.8574  0.3438 -1.4203
 2005SOL     OW17650   0.887   3.064   6.876  0.4077  0.3321  0.1436
 2005SOL    HW117651   0.973   3.040   6.842 -1.0071 -2.0466 -1.8440
 2005SOL    HW217652   0.862   3.126   6.808  4.4994  3.2380  1.3273
 2006SOL     OW17653   0.555   3.325   7.496  0.6988 -0.1615 -0.3399
 2006SOL    HW117654   0.536   3.418   7.479 -1.2242 -0.2233  1.5915
 2006SOL    HW217655   0.586   3.340   7.585 -1.2593 -1.4668  0.5552
 2007SOL     OW17656   0.686   1.427   1.527  0.5940 -0.1914  0.2070
 2007SOL    HW117657   0.647   1.432   1.615 -0.8990 -1.6661 -0.3622
 2007SOL    HW217658   0.777   1.428   1.557  1.1282  1.6440 -1.4613
 2008SOL     OW17659   4.388   0.239   4.453 -0.2293 -0.0763  0.0383
 2008SOL    HW117660   4.395   0.299   4.379 -0.8218 -0.6539 -0.4827
 2008SOL    HW217661   4.362   0.299   4.523 -0.3309  0.8935 -0.8373
 2009SOL     OW17662   4.358   2.463  10.324 -0.7757  0.3366 -0.1004
 2009SOL    HW117663   4.348   2.368  10.329 -0.3929  0.1793 -2.5020
 2009SOL    HW217664   4.399   2.465  10.238  2.2857  0.1613  1.3459
 2010SOL     OW17665   1.075   0.751  10.532 -0.3476 -0.5666  0.0898
 2010SOL    HW117666   1.033   0.834  10.555 -0.2062 -0.1602 -1.1143
 2010SOL    HW217667   1.122   0.775  10.452 -0.3823 -1.8184 -0.3125
 2011SOL     OW17668   2.474   3.417   1.504 -0.8067 -0.5440  0.1281
 2011SOL    HW117669   2.507   3.360   1.573 -2.2491 -0.9793  0.4652
 2011SOL    HW217670   2.485   3.502   1.547 -1.6202  0.6504 -2.0218
 2012SOL     OW17671   4.289   2.835   3.877 -0.1351  0.6339  0.0728
 2012SOL    HW117672   4.377   2.866   3.858  0.7205 -2.0090 -0.2569
 2012SOL    HW217673   4.260   2.899   3.943  3.6491  1.5623  0.8088
 2013SOL     OW17674   0.307   1.592   6.606 -0.4550  0.1456 -0.1529
 2013SOL    HW117675   0.348   1.506   6.593  2.1161  1.2074  1.0173
 2013SOL    HW217676   0.345   1.625   6.687  3.0589 -1.0919 -1.2641
 2014SOL     OW17677   0.412   0.536   3.620 -0.0498 -0.1782  0.1455
 2014SOL    HW117678   0.462   0.616   3.633  1.2555 -1.4772  2.9707
 2014SOL    HW217679   0.347   0.576   3.561  0.0210  2.5722  1.9302
 2015SOL     OW17680   3.067   2.080  11.349 -0.2202  1.1205 -0.0548
 2015SOL    HW117681   3.121   2.130  11.410 -1.2806  0.0944  1.7303
 2015SOL    HW217682   3.115   1.997  11.351 -0.6006  0.9083  0.6897
 2016SOL     OW17683   4.113   4.324   8.344 -0.0823  0.0238 -0.5911
 2016SOL    HW117684   4.145   4.395   8.400 -0.4847 -0.8802  0.7734
 2016SOL    HW217685   4.135   4.246   8.395 -0.2386  0.4607  0.1423
 2017SOL     OW17686   3.180   3.916  10.305 -0.5008 -0.4638  0.1195
 2017SOL    HW117687   3.203   3.839  10.358 -0.7071  0.3856  1.4352
 2017SOL    HW217688   3.195   3.985  10.369  0.3352 -0.2806 -0.2726
 2018SOL     OW17689   3.375   3.041   0.485  0.2043  0.7157 -0.2534
 2018SOL    HW117690   3.313   3.023   0.415  1.0577 -2.2468 -0.2185
 2018SOL    HW217691   3.355   2.971   0.547  1.8197 -0.0035 -0.5428
 2019SOL     OW17692   4.439   0.192  13.231  0.2737 -0.2988  0.2483
 2019SOL    HW117693   4.532   0.196  13.211  0.1034  1.2554 -0.2711
 2019SOL    HW217694   4.415   0.282  13.252 -0.4567 -0.4753  0.1873
 2020SOL     OW17695   4.684   0.039   1.926  0.3307  0.4831 -0.2802
 2020SOL    HW117696   4.648   0.062   2.012 -0.1918 -1.1528 -0.0644
 2020SOL    HW217697   4.615   4.724   1.884  0.8208  0.8665 -1.5407
 2021SOL     OW17698   0.318   1.152   1.033 -0.0967  0.4535 -0.2329
 2021SOL    HW117699   0.234   1.115   1.059 -0.4022  1.2585 -0.0875
 2021SOL    HW217700   0.301   1.237   0.992  0.5455  0.4182 -0.5663
 2022SOL     OW17701   2.604   2.738  11.392 -0.1837  0.5360  0.2639
 2022SOL    HW117702   2.621   2.722  11.299  0.0075 -1.9962  0.7304
 2022SOL    HW217703   2.571   2.649  11.406  0.7221  0.0138 -0.8850
 2023SOL     OW17704   4.486   2.751   0.612  0.4534  0.1526 -0.0839
 2023SOL    HW117705   4.455   2.695   0.683  1.8554 -1.4374 -0.7190
 2023SOL    HW217706   4.461   2.840   0.636  1.7927  0.3142  0.7496
 2024SOL     OW17707   0.573   0.992   3.084  0.6999  0.3565  0.0475
 2024SOL    HW117708   0.664   1.000   3.114  0.5050 -2.3169  1.3109
 2024SOL    HW217709   0.572   0.914   3.030 -2.1650  1.0781 -0.9339
 2025SOL     OW17710   3.612   1.543  15.128  0.5875  0.0685  0.1993
 2025SOL    HW117711   3.581   1.629  15.158  2.1345  0.2025  1.4150
 2025SOL    HW217712   3.614   1.544  15.033  1.3504 -1.5328  0.2084
 2026SOL     OW17713   3.256   4.683   4.716 -0.5656  0.3772 -0.1898
 2026SOL    HW117714   3.227   4.659   4.629  1.1251  1.4209 -1.0564
 2026SOL    HW217715   3.253   4.600   4.763 -0.2026  0.8409  0.6696
 2027SOL     OW17716   0.448   1.826   4.466  0.2168  0.3774 -0.1705
 2027SOL    HW117717   0.502   1.769   4.521  1.3999  1.9037  0.2445
 2027SOL    HW217718   0.457   1.907   4.515 -0.2533  1.0084 -1.1244
 2028SOL     OW17719   0.959   3.215   7.543  0.0063 -0.0185 -0.0044
 2028SOL    HW117720   0.964   3.161   7.464 -0.7679  0.1179 -0.1501
 2028SOL    HW217721   1.031   3.277   7.527  0.7185 -0.8391  0.0136
 2029SOL     OW17722   0.260   1.044   7.615 -0.0749  0.3567 -0.4811
 2029SOL    HW117723   0.289   0.982   7.682 -0.8365 -1.4970 -1.8810
 2029SOL    HW217724   0.166   1.033   7.632 -0.1027  2.0638  0.5307
 2030SOL     OW17725   0.789   3.967   4.118  0.2448  0.3597 -0.0047
 2030SOL    HW117726   0.881   3.982   4.098  0.1513 -0.7102 -1.2154
 2030SOL    HW217727   0.764   3.903   4.051  0.6028 -1.2237  1.3932
 2031SOL     OW17728   2.946   1.583   9.679 -0.1180 -0.4246  0.4232
 2031SOL    HW117729   2.883   1.513   9.694 -0.7304  0.0658  0.1573
 2031SOL    HW217730   3.011   1.578   9.749  1.0084 -0.6340 -0.6348
 2032SOL     OW17731   2.131   1.536   9.041  0.0932 -0.4846  0.3265
 2032SOL    HW117732   2.071   1.494   8.978 -0.2255 -1.2600  1.1390
 2032SOL    HW217733   2.161   1.463   9.096 -2.5162 -0.4797  1.7829
 2033SOL     OW17734   2.213   2.179  10.896  0.1151  0.1390 -0.1134
 2033SOL    HW117735   2.169   2.168  10.981 -0.1501 -1.5761 -0.4807
 2033SOL    HW217736   2.275   2.107  10.894  1.4900  1.3202  0.2291
 2034SOL     OW17737   2.190   0.599   2.639  0.9077 -0.1609 -0.2818
 2034SOL    HW117738   2.255   0.618   2.706  0.5976  1.5793 -0.4812
 2034SOL    HW217739   2.241   0.580   2.560  1.1266  0.7691 -0.3529
 2035SOL     OW17740   3.494   0.284   7.560  0.5085  0.2003 -0.6020
 2035SOL    HW117741   3.548   0.212   7.528  0.8283  1.0454 -1.9868
 2035SOL    HW217742   3.434   0.244   7.623  1.0120  0.2182 -0.1204
 2036SOL     OW17743   1.079   4.043   4.624  0.3426  0.1832 -0.0846
 2036SOL    HW117744   1.156   4.081   4.581  0.2642  0.8667  0.3720
 2036SOL    HW217745   1.020   4.111   4.591 -0.2887 -0.1587  0.3241
 2037SOL     OW17746   4.706   0.003   9.092  0.0809 -0.3562 -0.3546
 2037SOL    HW117747   4.732   4.696   9.173 -2.5554 -0.0764  0.6759
 2037SOL    HW217748   4.732   4.670   9.033  1.8086 -1.8199  2.1278
 2038SOL     OW17749   2.463   0.695   7.372 -0.2274  0.4328  0.2801
 2038SOL    HW117750   2.408   0.732   7.441 -0.7416  0.4890 -0.1606
 2038SOL    HW217751   2.430   0.607   7.356  0.4438  0.0734  0.8478
 2039SOL     OW17752   1.641   0.290   8.986 -0.1761 -0.0073 -0.2032
 2039SOL    HW117753   1.583   0.220   8.955 -1.4047  1.2565 -0.7735
 2039SOL    HW217754   1.594   0.372   8.970 -1.0863 -0.3101  0.8938
 2040SOL     OW17755   0.886   0.113   5.839 -0.0491  0.0969  0.0228
 2040SOL    HW117756   0.800   0.099   5.799  0.0762 -3.1060  0.8953
 2040SOL    HW217757   0.948   0.128   5.767  0.3555 -1.8916 -0.0475
 2041SOL     OW17758   0.930   2.418  10.007 -0.0905  0.0868 -0.1958
 2041SOL    HW117759   1.001   2.400   9.945  0.0569  0.6721 -0.1934
 2041SOL    HW217760   0.882   2.335  10.000  0.7788 -0.4280 -0.0257
 2042SOL     OW17761   3.326   1.526   8.703 -0.6258  0.3100  0.1238
 2042SOL    HW117762   3.232   1.539   8.691 -0.4541  1.7349  0.2844
 2042SOL    HW217763   3.336   1.431   8.699 -0.3673  0.4105 -1.5956
 2043SOL     OW17764   3.311   4.124   5.941 -0.4009 -0.1542  0.2031
 2043SOL    HW117765   3.354   4.200   5.978  0.5427 -0.1544 -0.8810
 2043SOL    HW217766   3.292   4.160   5.854 -0.9213 -0.5636  0.1433
 2044SOL     OW17767   2.450   2.539   8.441  0.2844 -0.3757  0.1657
 2044SOL    HW117768   2.367   2.586   8.450  0.2309 -0.8993  2.4040
 2044SOL    HW217769   2.430   2.459   8.490  1.2604  0.7919  2.4732
 2045SOL     OW17770   1.391   1.676   7.388 -0.3802 -0.0571 -0.2339
 2045SOL    HW117771   1.371   1.703   7.477 -1.4956 -0.6532 -0.2998
 2045SOL    HW217772   1.370   1.583   7.393 -0.5126 -0.1636 -2.6170
 2046SOL     OW17773   1.239   2.489   9.285 -0.0202  0.6472  1.3697
 2046SOL    HW117774   1.311   2.553   9.285 -0.3699  1.0469 -0.0035
 2046SOL    HW217775   1.281   2.423   9.230  1.1174  2.5732 -0.0756
 2047SOL     OW17776   1.090   3.331   7.134  0.7832  0.0976 -0.2461
 2047SOL    HW117777   1.093   3.237   7.117  1.3533 -0.1523  1.2664
 2047SOL    HW217778   1.174   3.356   7.173  0.1931  0.8440  0.5515
 2048SOL     OW17779   4.060   1.173  14.992 -0.3947 -0.3321 -0.3821
 2048SOL    HW117780   4.122   1.246  14.990 -0.5722 -0.1781 -0.2352
 2048SOL    HW217781   4.120   1.102  14.970 -1.2467 -0.0355 -3.6329
 2049SOL     OW17782   2.544   0.439   2.521  0.0206  0.2035  0.5773
 2049SOL    HW117783   2.480   0.371   2.499 -1.9626  1.7300  1.6843
 2049SOL    HW217784   2.626   0.389   2.522  0.1462  0.3930  0.1098
 2050SOL     OW17785   3.940   2.374   2.567 -0.2511  0.0527 -0.4566
 2050SOL    HW117786   3.951   2.467   2.544 -1.0352  0.5084  1.0316
 2050SOL    HW217787   3.845   2.378   2.579 -0.0458  0.3237  1.0868
 2051SOL     OW17788   4.620   2.920  12.830  0.3464  0.0798  0.0371
 2051SOL    HW117789   4.676   2.898  12.756 -0.0606 -0.6891 -0.0495
 2051SOL    HW217790   4.611   2.839  12.881  0.6317 -1.1219 -1.8269
 2052SOL     OW17791   3.116   1.199  13.326 -0.1593  0.4656  0.4513
 2052SOL    HW117792   3.204   1.165  13.342 -0.3238  1.2107  2.8076
 2052SOL    HW217793   3.097   1.133  13.260 -0.4264 -0.8923  1.8926
 2053SOL     OW17794   2.648   2.561   5.643  0.7059 -0.9665 -1.0846
 2053SOL    HW117795   2.685   2.630   5.588 -0.5774  1.0419  0.5870
 2053SOL    HW217796   2.637   2.609   5.725 -1.1712 -0.1982 -1.7929
 2054SOL     OW17797   1.992   3.626   3.372  0.0353  0.0696  0.2292
 2054SOL    HW117798   2.053   3.640   3.445  0.2376  2.2300 -0.3409
 2054SOL    HW217799   1.941   3.551   3.403  0.7117 -0.1952  0.7091
 2055SOL     OW17800   3.766   2.760   6.486  0.6038  0.0131 -0.1597
 2055SOL    HW117801   3.753   2.850   6.517 -1.2639 -0.2290 -0.2440
 2055SOL    HW217802   3.682   2.719   6.508  0.7603 -0.5375 -0.5939
 2056SOL     OW17803   2.543   0.401   7.539 -0.0972  0.0587 -0.0824
 2056SOL    HW117804   2.616   0.374   7.483 -0.6045 -1.2782 -0.0998
 2056SOL    HW217805   2.590   0.465   7.592 -0.1701  1.6531 -1.9138
 2057SOL     OW17806   1.391   1.883   4.544 -0.2111  0.1528 -0.1406
 2057SOL    HW117807   1.379   1.821   4.616 -1.2464  0.3483 -0.1317
 2057SOL    HW217808   1.484   1.884   4.523 -0.1066 -2.4597  0.2649
 2058SOL     OW17809   2.063   0.706  14.719 -0.4095 -0.0740  0.2983
 2058SOL    HW117810   2.156   0.692  14.706 -0.2095  2.7634 -1.3440
 2058SOL    HW217811   2.040   0.660  14.800  1.0839  1.6386  1.7036
 2059SOL     OW17812   2.917   3.974   7.706 -0.4973  0.3877  0.5507
 2059SOL    HW117813   2.924   4.069   7.713  4.7236 -0.0227  0.7627
 2059SOL    HW217814   2.833   3.951   7.747 -0.7930 -0.1781 -0.3709
 2060SOL     OW17815   2.251   4.433  15.962 -0.0337 -0.0468  0.0021
 2060SOL    HW117816   2.332   4.402  16.000 -0.7448  1.3812  2.6955
 2060SOL    HW217817   2.219   4.354  15.918 -0.3476 -0.6612  1.3449
 2061SOL     OW17818   2.404   2.167   1.074  0.1737 -0.1566  0.1972
 2061SOL    HW117819   2.427   2.223   1.148 -0.8357  0.7999 -0.2261
 2061SOL    HW217820   2.469   2.192   1.009  0.8238  1.3344  1.4429
 2062SOL     OW17821   4.737   3.771   2.655 -0.3064 -0.3765 -0.2872
 2062SOL    HW117822   4.664   3.771   2.717  0.4891  0.6756  0.6358
 2062SOL    HW217823   0.033   3.681   2.663 -0.9405 -0.9105 -3.5479
 2063SOL     OW17824   3.649   1.527   2.055 -0.2852  0.0196  0.8804
 2063SOL    HW117825   3.635   1.518   1.961 -2.0243 -3.0195  1.4442
 2063SOL    HW217826   3.573   1.480   2.089 -1.8303  1.4555 -0.6228
 2064SOL     OW17827   4.362   4.078  12.659 -0.3773  0.0973 -0.2673
 2064SOL    HW117828   4.364   4.061  12.565 -1.0890  0.7784 -0.4086
 2064SOL    HW217829   4.447   4.048  12.690 -0.6788 -0.6025 -0.1103
 2065SOL     OW17830   0.816   2.226   4.667 -0.3432  0.3348 -0.4013
 2065SOL    HW117831   0.740   2.230   4.724  1.4174 -0.4791  1.9740
 2065SOL    HW217832   0.880   2.170   4.711 -2.3607 -1.9640 -0.3583
 2066SOL     OW17833   1.246   2.909  15.663  0.2957 -0.3060 -0.0365
 2066SOL    HW117834   1.231   2.889  15.756  0.8753 -0.0874  0.1029
 2066SOL    HW217835   1.316   2.847  15.642  1.2866  0.0635  2.1052
 2067SOL     OW17836   3.361   3.384   3.422 -0.2841 -0.4981  0.0660
 2067SOL    HW117837   3.375   3.291   3.403  2.5537  0.2568 -1.6598
 2067SOL    HW217838   3.321   3.420   3.342  1.9997 -0.1694 -0.9276
 2068SOL     OW17839   1.534   0.749   9.823  0.2312  0.3078 -0.0091
 2068SOL    HW117840   1.548   0.756   9.728  0.2000  2.2323  0.1319
 2068SOL    HW217841   1.625   0.747   9.849  0.6108 -3.2034 -1.6552
 2069SOL     OW17842   1.880   2.781  12.449  0.1504 -0.7204 -0.5914
 2069SOL    HW117843   1.899   2.699  12.405  0.4820 -0.0157 -1.7713
 2069SOL    HW217844   1.790   2.804  12.424  0.8726 -1.4254 -3.8406
 2070SOL     OW17845   0.529   2.117   5.786 -0.2197  0.2345 -0.5517
 2070SOL    HW117846   0.551   2.063   5.863  1.7617  2.2461  0.3026
 2070SOL    HW217847   0.611   2.167   5.783 -0.9472  1.4925  0.6516
 2071SOL     OW17848   4.481   4.503   1.960  0.3467 -0.0049  0.2185
 2071SOL    HW117849   4.453   4.413   1.975 -0.4333  0.3887  1.1202
 2071SOL    HW217850   4.570   4.507   1.993 -0.3754  0.5738  2.0672
 2072SOL     OW17851   2.098   3.169   5.492 -0.0360  0.2824  0.4414
 2072SOL    HW117852   2.077   3.222   5.415  0.8472 -1.1488 -0.7782
 2072SOL    HW217853   2.051   3.220   5.559  1.0493 -0.1324  1.5155
 2073SOL     OW17854   1.532   2.789  10.270 -0.1322 -0.1873  0.3007
 2073SOL    HW117855   1.570   2.866  10.229 -0.8220  0.1936  0.3783
 2073SOL    HW217856   1.536   2.808  10.363 -0.7966  0.2645  0.2423
 2074SOL     OW17857   2.163   2.783   0.557  0.3009  0.2036  0.6586
 2074SOL    HW117858   2.235   2.816   0.504  0.9695  1.4639  2.3669
 2074SOL    HW217859   2.088   2.829   0.518  0.1804 -0.8969 -0.4245
 2075SOL     OW17860   3.515   1.706   6.002  0.3809  0.2485 -0.7114
 2075SOL    HW117861   3.584   1.641   5.993 -1.2848 -1.5792 -0.2812
 2075SOL    HW217862   3.542   1.728   6.091  0.5382 -0.6789 -0.5249
 2076SOL     OW17863   3.277   0.210  12.715 -0.5418 -0.7178  0.4028
 2076SOL    HW117864   3.300   0.296  12.680 -1.4362 -0.3826  0.6428
 2076SOL    HW217865   3.332   0.149  12.667  0.4577 -0.8998  1.7564
 2077SOL     OW17866   3.294   4.529   5.135 -0.6374  0.2053 -0.1680
 2077SOL    HW117867   3.248   4.598   5.087 -1.4845 -2.0471 -2.6098
 2077SOL    HW217868   3.261   4.453   5.087 -0.4444  0.0209 -0.0083
 2078SOL     OW17869   2.585   1.630   1.259 -0.1291  0.1840  0.4296
 2078SOL    HW117870   2.606   1.717   1.226  0.6224 -0.8075 -1.6950
 2078SOL    HW217871   2.590   1.648   1.353 -1.0250  0.9160  0.3366
 2079SOL     OW17872   0.044   2.494   4.185  0.3332 -0.8092  0.0382
 2079SOL    HW117873   0.130   2.475   4.148  0.2014 -1.0852 -0.1197
 2079SOL    HW217874   0.043   2.590   4.195 -1.2917 -0.9575  1.2577
 2080SOL     OW17875   0.490   2.971   3.328  0.1320 -0.2156  0.4597
 2080SOL    HW117876   0.439   3.011   3.258 -1.6735  0.3396  2.0928
 2080SOL    HW217877   0.513   3.046   3.382  0.9230 -1.7667  2.3147
 2081SOL     OW17878   2.716   2.594  10.480 -0.3874  0.4711  0.2127
 2081SOL    HW117879   2.632   2.640  10.488 -0.2951  1.1348 -2.8055
 2081SOL    HW217880   2.718   2.560  10.570  1.0390 -2.9313 -1.1148
 2082SOL     OW17881   1.765   3.834   4.703  0.5157 -0.7429  0.2960
 2082SOL    HW117882   1.834   3.830   4.637  1.5719 -1.2139  1.4259
 2082SOL    HW217883   1.707   3.777   4.653 -2.4208  1.3868  1.2920
 2083SOL     OW17884   3.369   1.617  10.150 -0.3815  0.0449 -0.3330
 2083SOL    HW117885   3.441   1.560  10.124  0.5275  1.2516 -0.4861
 2083SOL    HW217886   3.410   1.688  10.101 -0.2121 -1.5768 -2.5524
 2084SOL     OW17887   1.074   0.390   2.271  0.2974 -0.4503 -0.3202
 2084SOL    HW117888   1.156   0.409   2.315 -0.6415 -0.2122  1.3351
 2084SOL    HW217889   1.012   0.398   2.344  0.6618  0.1315 -0.0784
 2085SOL     OW17890   1.935   2.345  10.620  0.9351  0.2639  0.3242
 2085SOL    HW117891   1.904   2.411  10.559 -0.8768 -0.4339  0.4843
 2085SOL    HW217892   2.007   2.386  10.668 -0.1281 -0.4048  2.5061
 2086SOL     OW17893   3.366   3.031   5.761  0.2820  0.1335 -0.2670
 2086SOL    HW117894   3.420   3.105   5.733 -1.2975  0.5776 -2.1311
 2086SOL    HW217895   3.394   3.015   5.851  1.1814 -1.2021 -0.7690
 2087SOL     OW17896   0.529   4.044  10.622 -0.0941 -0.1293  0.4730
 2087SOL    HW117897   0.553   3.976  10.684  1.1902  0.4772  0.6493
 2087SOL    HW217898   0.452   4.081  10.666  0.2193  2.0706 -0.8241
 2088SOL     OW17899   2.189   1.721   5.475 -0.5508  0.4200 -0.2941
 2088SOL    HW117900   2.213   1.813   5.467 -0.5567  0.3509 -1.1093
 2088SOL    HW217901   2.098   1.718   5.445  0.3715  0.3669 -3.1368
 2089SOL     OW17902   1.873   1.941   3.026  0.2340 -0.7885  0.3424
 2089SOL    HW117903   1.818   1.981   2.959  2.8616 -1.4694 -2.2000
 2089SOL    HW217904   1.962   1.944   2.993  0.4161  3.5071  1.2136
 2090SOL     OW17905   1.701   3.757  13.837 -0.3766  0.4519 -0.2141
 2090SOL    HW117906   1.622   3.791  13.878 -0.7820  1.0553 -1.5120
 2090SOL    HW217907   1.664   3.717  13.759  0.5106  0.0606 -0.4335
 2091SOL     OW17908   2.843   3.017  17.609 -0.0976 -0.0086 -0.6692
 2091SOL    HW117909   2.789   2.941  17.630 -0.2984  0.1499 -0.6049
 2091SOL    HW217910   2.774   3.062  17.560 -0.6679 -0.7475 -0.5449
 2092SOL     OW17911   2.482   4.298   3.748  0.4841  0.1578  0.2516
 2092SOL    HW117912   2.445   4.380   3.779 -2.8277 -1.2303 -0.0233
 2092SOL    HW217913   2.571   4.284   3.781  0.4475  2.1395  1.2037
 2093SOL     OW17914   1.512   0.886   1.583  0.7977  0.2257  0.2115
 2093SOL    HW117915   1.435   0.849   1.539  1.1384 -2.0271  1.5194
 2093SOL    HW217916   1.483   0.977   1.589 -1.1113 -0.4658  1.2718
 2094SOL     OW17917   4.220   4.191  15.577 -0.5787 -0.5829 -0.1919
 2094SOL    HW117918   4.144   4.183  15.634  0.7541  2.0259  1.9614
 2094SOL    HW217919   4.201   4.129  15.507 -0.9002 -2.6063  1.6762
 2095SOL     OW17920   0.666   2.438   3.844 -0.4082  0.3622  0.1864
 2095SOL    HW117921   0.718   2.504   3.798 -1.4117  0.7727 -0.3603
 2095SOL    HW217922   0.712   2.358   3.820 -0.3284  0.3973  0.2202
 2096SOL     OW17923   2.274   4.432   7.271  0.4176 -0.8607  0.2140
 2096SOL    HW117924   2.241   4.426   7.181  1.0005 -1.7437  0.0625
 2096SOL    HW217925   2.194   4.451   7.320  0.9950  1.5666  0.2209
 2097SOL     OW17926   3.267   3.542   9.384 -0.0685  0.4782 -0.3162
 2097SOL    HW117927   3.194   3.511   9.439 -0.6599 -0.4728 -1.6306
 2097SOL    HW217928   3.329   3.553   9.456 -0.4634 -0.8565  0.2291
 2098SOL     OW17929   1.468   2.140   7.841  0.3079 -0.0060 -0.8739
 2098SOL    HW117930   1.500   2.100   7.760  2.5100  0.7231 -0.3806
 2098SOL    HW217931   1.455   2.232   7.815  2.1747  0.7781  0.9431
 2099SOL     OW17932   2.873   2.935   4.907  0.4483  0.3283  0.3379
 2099SOL    HW117933   2.895   2.988   4.983  2.1099 -3.2015  2.2887
 2099SOL    HW217934   2.955   2.913   4.862  1.2339 -0.9030  2.3729
 2100SOL     OW17935   3.522   1.550   4.071 -0.2264  0.0312  0.0998
 2100SOL    HW117936   3.508   1.456   4.085  2.1315 -0.7801 -2.8436
 2100SOL    HW217937   3.578   1.567   4.147 -1.0026 -2.5414  1.2471
 2101SOL     OW17938   0.744   4.522  11.918  0.1570 -0.0316  0.6082
 2101SOL    HW117939   0.699   4.528  12.003 -0.5072 -0.7894  0.3088
 2101SOL    HW217940   0.787   4.437  11.926 -1.0206 -0.6234  0.7296
 2102SOL     OW17941   1.512   0.019   8.953  0.5272 -0.2587 -0.8215
 2102SOL    HW117942   1.434   0.060   8.916 -0.7208 -0.6055  1.4289
 2102SOL    HW217943   1.463   4.695   9.008  1.4041  0.2760  0.5411
 2103SOL     OW17944   0.827   0.289   5.438  0.2457 -0.2062  0.1263
 2103SOL    HW117945   0.756   0.225   5.437 -2.1334  2.4459 -0.4005
 2103SOL    HW217946   0.784   0.374   5.445 -1.4517 -0.9225 -1.8267
 2104SOL     OW17947   0.665   0.532   8.703 -0.5019 -0.0184  0.3058
 2104SOL    HW117948   0.653   0.455   8.759  0.4615 -1.0476 -0.9165
 2104SOL    HW217949   0.619   0.601   8.751  0.9607  0.5199  0.9385
 2105SOL     OW17950   0.551   4.432  10.787 -0.0067  0.1928  0.3307
 2105SOL    HW117951   0.534   4.503  10.725 -4.2491 -1.2717 -0.1572
 2105SOL    HW217952   0.647   4.431  10.790  0.0734 -0.5056 -2.5298
 2106SOL     OW17953   2.083   3.673   6.817  0.0305  0.0803  0.3451
 2106SOL    HW117954   2.137   3.721   6.754 -0.7239  0.4851  0.0177
 2106SOL    HW217955   2.074   3.752   6.870 -0.2501  2.2492 -2.9412
 2107SOL     OW17956   1.648   2.374  15.354 -0.0116  0.4358  0.4148
 2107SOL    HW117957   1.729   2.356  15.306 -1.2793  0.3235 -1.7004
 2107SOL    HW217958   1.588   2.365  15.280 -0.0805 -1.2232  0.6642
 2108SOL     OW17959   0.101   4.372   9.425  0.0155 -0.0529 -0.2239
 2108SOL    HW117960   0.047   4.298   9.453 -1.1221  1.3372  1.2802
 2108SOL    HW217961   0.171   4.361   9.489  0.8889 -0.1247 -1.1941
 2109SOL     OW17962   0.967   0.159   1.479 -0.0506  0.6166 -0.7263
 2109SOL    HW117963   0.998   0.246   1.501  1.8731  0.0420 -1.1208
 2109SOL    HW217964   0.974   0.160   1.383 -2.8573 -1.1620 -0.9494
 2110SOL     OW17965   4.338   0.381   5.607  0.7530 -0.3388  0.0617
 2110SOL    HW117966   4.295   0.337   5.533  1.0521 -2.0681  0.9136
 2110SOL    HW217967   4.268   0.442   5.629  0.8082 -0.1281 -0.3512
 2111SOL     OW17968   2.043   2.650   7.845 -0.0722  0.0393 -0.1432
 2111SOL    HW117969   2.056   2.743   7.860 -0.5783  0.4211 -2.1661
 2111SOL    HW217970   1.948   2.639   7.840  0.1377 -1.3612 -1.3168
 2112SOL     OW17971   1.292   0.167   3.415  0.1142  0.0167  0.4206
 2112SOL    HW117972   1.342   0.085   3.418  3.4319  1.9826 -1.3720
 2112SOL    HW217973   1.310   0.210   3.498 -0.8013  1.2948 -0.0361
 2113SOL     OW17974   1.163   3.354   2.069 -0.0950 -0.2838  0.3831
 2113SOL    HW117975   1.178   3.439   2.110 -1.5481  1.3162 -2.3595
 2113SOL    HW217976   1.137   3.300   2.143  0.2123 -0.5435  0.3021
 2114SOL     OW17977   1.193   0.342   0.700 -0.4417 -0.3735 -0.5549
 2114SOL    HW117978   1.117   0.344   0.759  0.4271 -0.8084  0.5662
 2114SOL    HW217979   1.249   0.272   0.734  1.1187  2.5043  2.7562
 2115SOL     OW17980   4.537   1.509   9.143  0.1330 -0.1562 -0.9724
 2115SOL    HW117981   4.625   1.472   9.151  0.0454 -0.2841 -0.6108
 2115SOL    HW217982   4.510   1.511   9.234  0.7653 -0.0576 -0.7889
 2116SOL     OW17983   4.462   0.539   4.998 -0.2769 -0.7730  0.1611
 2116SOL    HW117984   4.411   0.458   4.995 -1.9720  0.2833  0.7468
 2116SOL    HW217985   4.474   0.560   4.906  1.1575  0.6768  0.6787
 2117SOL     OW17986   4.160   3.808  13.671 -0.2093  0.5923  0.2700
 2117SOL    HW117987   4.226   3.877  13.668  0.2360  0.1367 -0.3468
 2117SOL    HW217988   4.111   3.804  13.589 -2.8416  0.7494  1.8017
 2118SOL     OW17989   0.942   2.705   6.763  0.2306  0.2738 -0.0240
 2118SOL    HW117990   1.013   2.701   6.827  0.2443 -3.1579 -0.2509
 2118SOL    HW217991   0.916   2.613   6.753 -1.2239  0.5348  1.3132
 2119SOL     OW17992   2.198   1.583   7.640  0.0749  0.5565 -0.2036
 2119SOL    HW117993   2.143   1.653   7.674  0.5973  0.3964  0.9692
 2119SOL    HW217994   2.130   1.521   7.615  2.0980 -1.9944  0.6412
 2120SOL     OW17995   1.015   2.993   3.353  0.8966 -0.0160  0.1231
 2120SOL    HW117996   1.104   2.970   3.327  0.7789  0.4630 -0.6896
 2120SOL    HW217997   0.964   2.918   3.323  0.0028  0.6339  0.0355
 2121SOL     OW17998   1.337   3.295  15.359  0.3993  0.1854  0.2712
 2121SOL    HW117999   1.360   3.254  15.442  0.0837 -0.5218  0.0144
 2121SOL    HW218000   1.407   3.360  15.362 -0.3152  0.8141  3.2302
 2122SOL     OW18001   2.959   1.716   1.412 -0.2117 -0.1430  0.2286
 2122SOL    HW118002   2.977   1.810   1.404  1.5516 -0.3263  1.9506
 2122SOL    HW218003   3.045   1.687   1.443  0.6622  0.9854 -1.1501
 2123SOL     OW18004   4.464   4.570  13.510 -0.6275  0.0201  0.5859
 2123SOL    HW118005   4.398   4.578  13.442 -1.1238 -0.2656  1.0378
 2123SOL    HW218006   4.543   4.594  13.461 -2.5676 -0.7449 -2.8854
 2124SOL     OW18007   4.644   0.252   0.381  0.5482  0.0895  0.6465
 2124SOL    HW118008   4.604   0.288   0.460 -3.4486  0.2511 -1.4159
 2124SOL    HW218009   4.735   0.274   0.400  0.8409 -0.4484 -0.1377
 2125SOL     OW18010   4.348   0.047   1.703 -0.4730  0.8135 -0.6207
 2125SOL    HW118011   4.259   0.013   1.691 -1.2935  2.2399  1.4469
 2125SOL    HW218012   4.343   0.117   1.638  0.5577  1.5367  0.0987
 2126SOL     OW18013   2.808   3.389   4.025 -0.5534 -0.0540  0.4059
 2126SOL    HW118014   2.843   3.301   4.010 -0.4097  0.1817 -0.6074
 2126SOL    HW218015   2.813   3.418   3.934 -1.2894 -0.4483  0.2374
 2127SOL     OW18016   3.795   0.215   7.329  0.0067  0.0499  0.4401
 2127SOL    HW118017   3.788   0.188   7.421  0.0060 -0.3740  0.3172
 2127SOL    HW218018   3.883   0.189   7.304  0.1749  0.4378  0.6270
 2128SOL     OW18019   0.352   3.054  14.027 -0.0941 -0.2698  0.2636
 2128SOL    HW118020   0.385   3.143  14.033 -1.0136  0.1987 -1.8800
 2128SOL    HW218021   0.308   3.051  14.112 -0.4554 -0.3529  0.0741
 2129SOL     OW18022   4.495   3.303  11.430 -0.2425 -0.0980  0.0119
 2129SOL    HW118023   4.482   3.393  11.401 -1.4889 -0.4672 -0.5747
 2129SOL    HW218024   4.482   3.261  11.345 -0.9666  1.5985 -0.7241
 2130SOL     OW18025   1.726   0.027   5.005  0.3662  0.1158  0.3941
 2130SOL    HW118026   1.811   0.062   4.978  0.6415  0.8917  2.2350
 2130SOL    HW218027   1.732   0.048   5.099  2.9817 -0.5822  0.3994
 2131SOL     OW18028   1.547   2.339   4.936  0.5648  0.2685  0.2365
 2131SOL    HW118029   1.538   2.378   4.849 -1.2927  0.5368  0.5336
 2131SOL    HW218030   1.528   2.417   4.989  2.2935  0.7656  0.1281
 2132SOL     OW18031   2.436   4.522   8.595 -0.0485 -0.6596  1.1082
 2132SOL    HW118032   2.520   4.568   8.588 -1.0252  1.0914  0.6823
 2132SOL    HW218033   2.408   4.515   8.686  0.5334 -2.0670  1.1659
 2133SOL     OW18034   2.977   4.320  17.422  0.5587 -0.6892 -0.0504
 2133SOL    HW118035   2.993   4.232  17.387 -2.5265 -0.2403 -2.5482
 2133SOL    HW218036   3.061   4.364  17.408  0.6473 -1.1170 -0.9337
 2134SOL     OW18037   0.578   1.788   8.067  0.3391  0.0710  0.5047
 2134SOL    HW118038   0.658   1.767   8.115  0.6403  0.6635  0.2651
 2134SOL    HW218039   0.619   1.817   7.986 -0.8003  1.0984  0.2961
 2135SOL     OW18040   3.548   0.823   5.274  0.0133 -0.8426  0.9724
 2135SOL    HW118041   3.642   0.834   5.260 -0.2488 -2.9590 -2.4713
 2135SOL    HW218042   3.516   0.799   5.187 -1.5780  1.9033  0.7805
 2136SOL     OW18043   2.729   2.010   3.640  0.3405 -0.1690  0.7629
 2136SOL    HW118044   2.710   2.104   3.635 -1.5815 -0.6216 -0.4669
 2136SOL    HW218045   2.723   1.982   3.549  1.8659  1.3237  0.2180
 2137SOL     OW18046   0.540   3.401   4.337  0.1746  0.0663  0.8283
 2137SOL    HW118047   0.502   3.487   4.321 -0.4069  0.3863  4.0267
 2137SOL    HW218048   0.468   3.347   4.304 -0.3081  0.4067  1.3212
 2138SOL     OW18049   3.450   2.515  12.760 -0.5190  0.0644 -0.4887
 2138SOL    HW118050   3.377   2.457  12.782  0.7068 -1.6018 -0.7978
 2138SOL    HW218051   3.488   2.470  12.684 -2.5599  0.6816 -1.8759
 2139SOL     OW18052   1.687   4.500   0.847  0.1053 -0.5574 -0.2381
 2139SOL    HW118053   1.770   4.546   0.836 -0.4686  0.4903 -0.1679
 2139SOL    HW218054   1.645   4.526   0.765  1.5342  1.1153 -0.4513
 2140SOL     OW18055   0.626   3.302  10.581 -0.6737  0.2305  0.6423
 2140SOL    HW118056   0.672   3.346  10.510 -1.6868  1.2097  0.5817
 2140SOL    HW218057   0.580   3.235  10.531 -0.2967 -0.9447  1.8752
 2141SOL     OW18058   4.204   2.271   9.858 -0.2046  0.6177 -0.1505
 2141SOL    HW118059   4.157   2.209   9.804  0.1164  0.2886 -0.0501
 2141SOL    HW218060   4.199   2.338   9.789  1.8356  2.2624  1.2795
 2142SOL     OW18061   1.937   4.670  15.871 -0.2115 -0.0453 -0.7551
 2142SOL    HW118062   1.964   4.673  15.779 -1.8419  0.0004 -1.2240
 2142SOL    HW218063   1.862   4.612  15.860 -1.2965  0.7361  2.8247
 2143SOL     OW18064   1.024   4.658   8.954 -0.0103  0.0170 -0.2420
 2143SOL    HW118065   0.953   4.643   8.891 -0.3919  0.8681 -0.0178
 2143SOL    HW218066   1.062   4.571   8.951 -0.3556 -0.0521 -3.2321
 2144SOL     OW18067   0.802   0.381   4.976  0.8365  0.6169  0.4969
 2144SOL    HW118068   0.816   0.439   5.052  0.4935  1.4791 -0.1006
 2144SOL    HW218069   0.879   0.324   4.981  0.1809 -0.4478 -1.9498
 2145SOL     OW18070   4.269   2.322   7.956 -0.1351 -0.4489  0.1145
 2145SOL    HW118071   4.298   2.383   8.023 -0.6233  1.9566 -1.8642
 2145SOL    HW218072   4.350   2.329   7.906 -0.3604  1.2206 -0.0105
 2146SOL     OW18073   2.532   2.906   5.435 -0.1223  0.4537 -0.4971
 2146SOL    HW118074   2.516   2.986   5.485  0.7974  0.4290 -0.1524
 2146SOL    HW218075   2.443   2.870   5.430  0.4124 -0.8181 -1.0654
 2147SOL     OW18076   2.430   1.593  11.928 -0.0999  0.1848 -0.1896
 2147SOL    HW118077   2.508   1.545  11.959  0.2755 -1.2284 -3.3062
 2147SOL    HW218078   2.439   1.585  11.833 -0.0466 -0.1496 -0.1557
 2148SOL     OW18079   1.322   2.535   6.281  0.5093 -0.4963  0.0474
 2148SOL    HW118080   1.355   2.590   6.210  0.5172 -0.5735 -0.0090
 2148SOL    HW218081   1.274   2.470   6.229  2.3218 -0.7787 -1.2700
 2149SOL     OW18082   4.576   4.646   4.331 -0.0261 -0.3207 -0.2518
 2149SOL    HW118083   4.594   4.570   4.276  1.0679  0.8227 -1.4487
 2149SOL    HW218084   4.482   4.635   4.350  0.2788 -1.0303  0.8627
 2150SOL     OW18085   4.435   0.341   7.046 -0.3166  0.2809 -0.1577
 2150SOL    HW118086   4.443   0.266   7.106 -2.6651 -0.3324 -0.6203
 2150SOL    HW218087   4.341   0.353   7.038 -0.3196  2.4873  3.1068
 2151SOL     OW18088   0.432   0.075   4.725  0.4402 -0.3771  0.5471
 2151SOL    HW118089   0.484   0.012   4.675 -0.2870  1.5383 -2.5993
 2151SOL    HW218090   0.351   0.025   4.707  1.2394 -1.8390  1.0070
 2152SOL     OW18091   3.419   2.020  11.459  0.2366  0.0995 -0.4031
 2152SOL    HW118092   3.396   1.953  11.524  2.5770 -2.0206 -1.7691
 2152SOL    HW218093   3.408   1.980  11.373  2.5715 -0.5800 -0.3770
 2153SOL     OW18094   0.857   2.442   0.906 -1.0413  0.1871 -0.4505
 2153SOL    HW118095   0.946   2.447   0.942 -0.7052 -0.9533 -1.1224
 2153SOL    HW218096   0.823   2.370   0.958 -1.2468  0.8808  0.3846
 2154SOL     OW18097   2.319   3.372  12.353  0.5141 -0.0786  0.4088
 2154SOL    HW118098   2.313   3.465  12.371  1.3187  0.2883 -1.2328
 2154SOL    HW218099   2.259   3.336  12.418  0.3558  1.0500  0.8880
 2155SOL     OW18100   0.794   4.678   7.464  0.1306  0.1172 -0.0602
 2155SOL    HW118101   0.832   4.726   7.390 -0.1069 -1.1187 -0.9912
 2155SOL    HW218102   0.760   4.606   7.411 -0.1717  1.5392 -1.8172
 2156SOL     OW18103   4.382   2.022   8.846 -0.3454  0.2246  0.5943
 2156SOL    HW118104   4.412   1.992   8.932 -0.4544  1.0491  0.9265
 2156SOL    HW218105   4.457   2.078   8.829  1.1507 -1.6388  1.1534
 2157SOL     OW18106   0.931   4.262   4.055 -0.4107  0.8017  0.3261
 2157SOL    HW118107   0.893   4.229   3.973 -2.1935  0.5890  1.2278
 2157SOL    HW218108   0.989   4.190   4.079 -2.8327 -1.0149  0.7754
 2158SOL     OW18109   0.945   3.043   5.858 -0.0342 -0.0831  0.1775
 2158SOL    HW118110   0.887   2.970   5.880 -1.9780  1.8560  1.5049
 2158SOL    HW218111   0.985   3.025   5.773  0.5958  3.9529 -0.3772
 2159SOL     OW18112   1.651   1.874   4.477 -0.3886  0.6501  0.3962
 2159SOL    HW118113   1.735   1.833   4.499  0.3436  1.1620 -1.4462
 2159SOL    HW218114   1.697   1.946   4.434  1.1017  0.0830  1.0110
 2160SOL     OW18115   2.087   1.052   2.489 -0.6857 -0.3013 -0.1905
 2160SOL    HW118116   2.072   0.957   2.491  0.6241 -0.4273  3.2290
 2160SOL    HW218117   2.002   1.084   2.459 -0.4559  2.3361  1.9147
 2161SOL     OW18118   0.408   1.564   4.161 -0.1557  0.6905  0.2834
 2161SOL    HW118119   0.431   1.472   4.172 -0.2721  0.7690  1.2076
 2161SOL    HW218120   0.420   1.570   4.066 -1.0274  1.0558  0.1950
 2162SOL     OW18121   1.991   3.871  10.157  0.1480 -0.6835  0.0530
 2162SOL    HW118122   2.035   3.824  10.229 -2.2861  3.0398  4.0066
 2162SOL    HW218123   2.065   3.881  10.097 -0.3717 -1.5417 -0.7103
 2163SOL     OW18124   1.219   1.947  15.001  0.2981 -0.0829  0.5136
 2163SOL    HW118125   1.228   1.870  14.944  0.1457 -0.5363  1.1003
 2163SOL    HW218126   1.149   1.997  14.960  1.5621 -0.7318 -2.4671
 2164SOL     OW18127   0.048   1.334   7.128  0.1562  0.0606 -0.0472
 2164SOL    HW118128   0.096   1.416   7.115 -1.4333  0.9610 -0.2429
 2164SOL    HW218129   0.057   1.293   7.042 -2.0661 -1.0284  0.2291
 2165SOL     OW18130   1.443   2.491   3.004  0.0774  0.7470 -0.6510
 2165SOL    HW118131   1.474   2.571   2.961 -2.0003  0.5025 -2.5804
 2165SOL    HW218132   1.523   2.441   3.019 -0.6561 -0.7280 -1.6793
 2166SOL     OW18133   4.020   3.890   1.852  0.2934 -0.6330  0.5333
 2166SOL    HW118134   4.086   3.959   1.844 -1.4123  0.6736 -2.2189
 2166SOL    HW218135   3.948   3.930   1.899  0.1011  0.8207 -1.0091
 2167SOL     OW18136   1.205   4.713   1.492 -0.0255  0.1318  0.5170
 2167SOL    HW118137   1.258   0.051   1.520  1.0880 -1.6533  3.1105
 2167SOL    HW218138   1.130   0.026   1.459 -0.9730  0.4614  3.2164
 2168SOL     OW18139   1.196   3.998   0.048  0.0183  0.8021 -0.0860
 2168SOL    HW118140   1.160   3.998  17.704  1.7129 -0.5593 -0.7803
 2168SOL    HW218141   1.111   4.014   0.088 -0.3562 -1.9111  0.1803
 2169SOL     OW18142   0.779   0.777   2.978  0.7244  0.5971  0.0866
 2169SOL    HW118143   0.868   0.748   2.958  0.3687 -0.2079 -0.3206
 2169SOL    HW218144   0.775   0.863   2.936  0.4899 -0.5216 -2.1675
 2170SOL     OW18145   2.168   2.649  17.253 -0.2808  0.1308 -0.8149
 2170SOL    HW118146   2.170   2.582  17.184 -1.7035  0.0986 -0.8288
 2170SOL    HW218147   2.209   2.730  17.224  1.7226  0.1948  2.2492
 2171SOL     OW18148   2.632   1.216   0.284  0.3331  0.1716 -0.1917
 2171SOL    HW118149   2.702   1.155   0.261  1.2151  1.6276 -1.3854
 2171SOL    HW218150   2.615   1.191   0.375  0.8542  0.2397 -0.0761
 2172SOL     OW18151   0.100   3.302   6.962  0.6936  0.4732 -0.1271
 2172SOL    HW118152   0.125   3.216   6.927  0.7091  0.7487 -0.7967
 2172SOL    HW218153   0.078   3.284   7.053  1.4637  0.6714  0.0991
 2173SOL     OW18154   2.418   1.157   6.853  0.3943  0.0169 -0.0213
 2173SOL    HW118155   2.348   1.222   6.841  0.7645  0.8835  2.4878
 2173SOL    HW218156   2.440   1.144   6.761 -0.5322  2.0758 -0.5320
 2174SOL     OW18157   0.847   3.197   1.851  0.3144  1.0249 -0.2326
 2174SOL    HW118158   0.767   3.214   1.900  0.9911 -1.6334  1.8141
 2174SOL    HW218159   0.813   3.148   1.776 -0.9168  0.6120  0.6023
 2175SOL     OW18160   2.891   3.056   4.525  0.0976 -0.4358 -0.4123
 2175SOL    HW118161   2.882   3.150   4.542  0.1564 -0.2784 -1.2502
 2175SOL    HW218162   2.832   3.058   4.449  2.1750 -2.4263 -2.0449
 2176SOL     OW18163   0.013   4.082   0.162 -0.1749  0.2330 -0.2541
 2176SOL    HW118164   0.070   4.073   0.238  0.3982  0.8535 -0.6121
 2176SOL    HW218165   0.006   3.994   0.125  0.6815  0.0858 -0.0748
 2177SOL     OW18166   2.277   1.738   9.089  0.6312  0.3095  0.3627
 2177SOL    HW118167   2.370   1.717   9.088  0.8238  1.2182 -0.7664
 2177SOL    HW218168   2.234   1.658   9.058 -0.7277  1.3553 -0.4402
 2178SOL     OW18169   3.164   0.712   2.909  0.3457 -0.0134  0.0120
 2178SOL    HW118170   3.215   0.793   2.913  1.1417 -0.4775 -0.7012
 2178SOL    HW218171   3.074   0.744   2.904  0.0259 -1.2431 -2.2530
 2179SOL     OW18172   3.933   0.418   3.722  0.2760 -0.2812  0.3507
 2179SOL    HW118173   3.866   0.485   3.713  1.7485  1.0013 -0.8624
 2179SOL    HW218174   3.918   0.365   3.644  0.3089 -0.2324  0.3115
 2180SOL     OW18175   2.391   2.060   3.058  0.4124  0.4386 -0.4331
 2180SOL    HW118176   2.482   2.084   3.078  0.4696  0.2202 -0.4325
 2180SOL    HW218177   2.369   2.137   3.005  0.6501  0.0610 -1.0814
 2181SOL     OW18178   1.302   4.721   6.207  0.3229  0.2598 -0.1853
 2181SOL    HW118179   1.300   4.715   6.302  0.0468  0.9996 -0.1419
 2181SOL    HW218180   1.245   0.055   6.177 -0.4261 -0.5111 -0.5817
 2182SOL     OW18181   2.725   4.198  15.266  0.4689  0.2076 -0.0264
 2182SOL    HW118182   2.707   4.184  15.173  2.5237 -0.7916 -0.2823
 2182SOL    HW218183   2.694   4.288  15.262 -2.8316 -0.9099  0.5539
 2183SOL     OW18184   3.902   3.702  11.512  0.3569  0.1067  0.5870
 2183SOL    HW118185   3.851   3.630  11.474 -1.2243  0.2292  2.4988
 2183SOL    HW218186   3.851   3.702  11.593  2.4138  1.3625  1.8614
 2184SOL     OW18187   4.667   2.612   3.173  0.2673 -0.7009 -0.0230
 2184SOL    HW118188   4.704   2.647   3.254 -0.8640 -2.2111  1.1233
 2184SOL    HW218189   4.597   2.555   3.206  1.0820  0.8971  4.4655
 2185SOL     OW18190   1.953   0.348   6.645 -1.1076 -0.0157 -0.0873
 2185SOL    HW118191   1.900   0.356   6.565 -0.6073 -1.2806 -0.5382
 2185SOL    HW218192   2.040   0.342   6.607 -0.7769 -0.7063  0.7843
 2186SOL     OW18193   0.928   4.559   4.029 -0.1949  0.4296 -0.1066
 2186SOL    HW118194   1.013   4.560   4.072  0.0169  2.6957 -0.6064
 2186SOL    HW218195   0.934   4.474   3.985 -1.8724 -0.0859  0.6381
 2187SOL     OW18196   0.317   1.558   3.560 -0.4949  0.1385  0.0251
 2187SOL    HW118197   0.318   1.491   3.491  0.4284 -1.3788  1.4970
 2187SOL    HW218198   0.330   1.633   3.503  0.7027 -0.4246 -0.4548
 2188SOL     OW18199   2.462   2.651   2.711  0.0215 -0.0642  0.1045
 2188SOL    HW118200   2.416   2.679   2.790  1.6609 -1.4630  1.5453
 2188SOL    HW218201   2.515   2.731   2.708  0.1306 -0.1699 -0.8038
 2189SOL     OW18202   1.989   0.214   1.467  0.0865 -0.3065  0.0881
 2189SOL    HW118203   1.964   0.233   1.558  0.1529  1.4732 -0.2766
 2189SOL    HW218204   1.907   0.230   1.422  0.6768  2.3683 -0.0150
 2190SOL     OW18205   4.200   3.351   5.581  0.0252  0.3321 -0.0561
 2190SOL    HW118206   4.167   3.436   5.610 -0.3012  0.4873 -0.8765
 2190SOL    HW218207   4.291   3.363   5.604 -0.6018  2.7527  1.1381
 2191SOL     OW18208   4.623   2.661   5.444  0.0845 -0.5817  0.5104
 2191SOL    HW118209   4.702   2.646   5.496  1.4195  2.8739 -0.5854
 2191SOL    HW218210   4.571   2.693   5.518  0.1507 -0.8468  0.6714
 2192SOL     OW18211   1.569   3.887   4.886  0.2091  0.7198 -0.0038
 2192SOL    HW118212   1.642   3.887   4.824  1.0419 -1.1456  0.9826
 2192SOL    HW218213   1.593   3.805   4.927 -0.4560  0.2730 -0.5079
 2193SOL     OW18214   2.829   2.060   1.177 -0.1943 -0.3075 -0.1652
 2193SOL    HW118215   2.792   2.102   1.254 -0.1354 -0.6297  0.0405
 2193SOL    HW218216   2.858   2.123   1.111 -1.6244  0.1427 -0.3732
 2194SOL     OW18217   0.247   0.334   9.114 -0.0460 -0.2527 -0.2480
 2194SOL    HW118218   0.154   0.324   9.095  0.2033  0.7572 -1.9719
 2194SOL    HW218219   0.261   0.428   9.119  1.2942 -0.5006  0.8959
 2195SOL     OW18220   0.315   4.313   9.617 -0.4450 -0.5250 -0.1416
 2195SOL    HW118221   0.335   4.260   9.694 -0.5722 -0.5217 -0.1054
 2195SOL    HW218222   0.397   4.348   9.584 -0.3834 -0.9680 -0.4623
 2196SOL     OW18223   4.474   2.758  16.260  0.3665  1.0177 -0.2542
 2196SOL    HW118224   4.455   2.676  16.215 -1.8114  0.4995  1.5995
 2196SOL    HW218225   4.434   2.738  16.344  1.8097  1.6113  0.5806
 2197SOL     OW18226   3.129   3.612   3.925 -0.0267 -0.7222  0.5533
 2197SOL    HW118227   3.223   3.599   3.907 -0.8054 -1.6580 -2.8201
 2197SOL    HW218228   3.126   3.681   3.991 -0.2904  0.4826 -0.7015
 2198SOL     OW18229   2.927   2.814   8.399  0.0367  0.1740 -0.1720
 2198SOL    HW118230   2.863   2.765   8.451  1.1716 -0.3554  0.7267
 2198SOL    HW218231   3.002   2.755   8.400  0.0426  0.2496  3.8188
 2199SOL     OW18232   4.374   2.887   6.255 -0.6066 -0.5449  0.1034
 2199SOL    HW118233   4.369   2.802   6.212 -2.3465 -0.0553 -0.7014
 2199SOL    HW218234   4.440   2.885   6.324 -0.5924  0.9485  0.1468
 2200SOL     OW18235   2.097   1.990   2.706  0.1917  0.5105 -0.3094
 2200SOL    HW118236   2.091   1.894   2.712 -1.4499  0.6046 -0.4706
 2200SOL    HW218237   2.052   2.007   2.623 -0.0609  0.2462 -0.2269
 2201SOL     OW18238   4.625   1.001   5.682  0.0491  0.2395  0.3274
 2201SOL    HW118239   4.684   1.064   5.641 -0.7635  1.3872  0.9275
 2201SOL    HW218240   4.560   1.051   5.731 -1.6280 -0.3081 -1.3333
 2202SOL     OW18241   3.649   0.102  13.392  0.2822  0.8334 -0.3833
 2202SOL    HW118242   3.590   0.173  13.368  2.1877  2.1727 -1.0607
 2202SOL    HW218243   3.622   0.031  13.332  0.0474  2.0486 -1.7183
 2203SOL     OW18244   4.068   1.834   7.823 -0.1955  0.1866  0.2234
 2203SOL    HW118245   4.013   1.769   7.779  1.0337 -2.1645  2.1600
 2203SOL    HW218246   4.131   1.858   7.755  0.2480 -0.3709  0.4320
 2204SOL     OW18247   1.201   3.655   5.734  0.2550 -0.7702  0.6672
 2204SOL    HW118248   1.215   3.572   5.688 -1.4168 -0.4764 -0.3499
 2204SOL    HW218249   1.118   3.682   5.697 -0.3267 -0.9891  1.7988
 2205SOL     OW18250   0.234   2.074   6.117  0.4513 -0.0362 -0.1341
 2205SOL    HW118251   0.168   2.022   6.162 -0.2480  2.4651  1.7274
 2205SOL    HW218252   0.317   2.050   6.158 -0.1611 -0.6582  0.7493
 2206SOL     OW18253   3.594   2.891   6.781  0.8785 -0.0508 -0.3991
 2206SOL    HW118254   3.672   2.936   6.814 -0.2431 -0.0187  2.2086
 2206SOL    HW218255   3.529   2.929   6.840  1.1280 -0.7617  0.3320
 2207SOL     OW18256   2.176   2.598   4.885 -0.4731  0.1755  0.4407
 2207SOL    HW118257   2.248   2.648   4.846  0.8843 -0.4258  2.1998
 2207SOL    HW218258   2.120   2.599   4.807  1.1066 -0.5003 -0.7088
 2208SOL     OW18259   3.481   0.410   4.341  0.0409  0.1128 -0.1083
 2208SOL    HW118260   3.514   0.370   4.421 -3.0448  0.3429  1.2522
 2208SOL    HW218261   3.541   0.483   4.324  1.3988 -0.6647  1.3155
 2209SOL     OW18262   4.440   1.057   5.875  0.0016  0.4379  0.3057
 2209SOL    HW118263   4.479   1.142   5.897  0.5825  0.7942 -2.1446
 2209SOL    HW218264   4.452   1.002   5.953  2.3609  0.5579  0.0451
 2210SOL     OW18265   2.469   3.770   8.809 -0.0017  0.3408  0.9659
 2210SOL    HW118266   2.552   3.805   8.778  0.3550 -0.2491  1.2533
 2210SOL    HW218267   2.469   3.773   8.905  0.5208 -0.0100  0.9794
 2211SOL     OW18268   0.975   2.283   6.112  0.0372 -0.1192  0.1931
 2211SOL    HW118269   0.893   2.250   6.150  0.2442 -1.2223 -0.3073
 2211SOL    HW218270   0.987   2.231   6.032  0.3699  0.7552 -0.3260
 2212SOL     OW18271   3.224   4.614   0.913  0.0275 -0.1028  0.3997
 2212SOL    HW118272   3.287   4.613   0.986 -1.0217  0.0567  1.2999
 2212SOL    HW218273   3.206   4.520   0.903 -1.6194  0.2914 -0.2231
 2213SOL     OW18274   3.604   4.397  12.692  0.0081 -0.2583  0.2233
 2213SOL    HW118275   3.639   4.405  12.604 -1.9362  1.9701 -0.3548
 2213SOL    HW218276   3.530   4.345  12.662  0.3500 -0.6877  0.1428
 2214SOL     OW18277   3.773   3.256   8.759  0.2558 -0.5095  0.6583
 2214SOL    HW118278   3.687   3.230   8.794 -0.5127  1.0248 -0.0791
 2214SOL    HW218279   3.797   3.179   8.708 -2.6111 -0.9016 -0.1072
 2215SOL     OW18280   4.706   2.610   5.972 -0.5119 -0.3206  0.6218
 2215SOL    HW118281   0.017   2.563   5.904 -2.3196 -0.0968 -0.8135
 2215SOL    HW218282   0.006   2.696   5.955  1.3601 -1.3791 -0.7348
 2216SOL     OW18283   2.603   4.516   6.750 -0.4444  0.1368 -0.3942
 2216SOL    HW118284   2.524   4.570   6.757 -0.8301 -0.4331 -0.4060
 2216SOL    HW218285   2.650   4.548   6.827 -1.2718  0.7246 -0.1347
 2217SOL     OW18286   3.085   4.667   7.047  0.2920 -0.2789  0.2749
 2217SOL    HW118287   3.064   4.677   7.140 -1.8161 -1.0035 -0.1189
 2217SOL    HW218288   3.017   4.723   7.011 -0.9319 -2.8880 -1.4283
 2218SOL     OW18289   1.599   1.260   8.917 -0.1195 -0.0796 -0.0598
 2218SOL    HW118290   1.637   1.240   8.832  4.4447  0.8225  1.7736
 2218SOL    HW218291   1.560   1.344   8.894  0.5014  0.5019  0.9791
 2219SOL     OW18292   1.094   0.779   7.463 -0.0035 -0.2528 -0.2373
 2219SOL    HW118293   1.142   0.749   7.540  0.8894  3.1550  0.5339
 2219SOL    HW218294   1.008   0.802   7.498 -0.0745 -1.6672  0.5212
 2220SOL     OW18295   3.397   4.370   0.148 -0.1249 -0.7020  0.0592
 2220SOL    HW118296   3.373   4.415   0.067  1.6482 -2.5547 -1.5024
 2220SOL    HW218297   3.382   4.437   0.214 -1.5977 -0.6928 -0.3039
 2221SOL     OW18298   3.568   4.486   5.107 -0.1079  0.9072  0.3791
 2221SOL    HW118299   3.509   4.533   5.165 -0.3230 -0.4765  1.2848
 2221SOL    HW218300   3.609   4.426   5.170 -1.5577  0.9270  1.3254
 2222SOL     OW18301   3.030   2.412   7.748  0.1002  0.2160 -0.0076
 2222SOL    HW118302   3.058   2.345   7.810  0.6523  1.2974  0.9005
 2222SOL    HW218303   3.004   2.355   7.676 -1.9047  2.0308 -0.7257
 2223SOL     OW18304   0.470   0.250  13.130  0.4591 -0.1530 -0.2246
 2223SOL    HW118305   0.486   0.179  13.067 -0.2508  0.2920 -0.8945
 2223SOL    HW218306   0.537   0.239  13.198 -0.0226  0.4855  0.3451
 2224SOL     OW18307   2.376   1.261   3.816  0.3254  0.1986 -0.5392
 2224SOL    HW118308   2.466   1.242   3.790  1.3279 -1.9860  4.3893
 2224SOL    HW218309   2.332   1.234   3.736 -0.0835  3.0943 -1.2694
 2225SOL     OW18310   2.053   0.461   8.252  0.1314 -0.5530  0.0873
 2225SOL    HW118311   2.119   0.422   8.195  1.7573  0.2544  1.3979
 2225SOL    HW218312   2.099   0.536   8.290  1.9806 -2.6563  1.9940
 2226SOL     OW18313   3.636   4.642   6.759 -0.2025  0.4622 -0.6462
 2226SOL    HW118314   3.702   4.574   6.748  0.2056  0.7620 -0.0534
 2226SOL    HW218315   3.674   4.713   6.707  2.2002 -0.4978 -0.1517
 2227SOL     OW18316   3.582   1.465   5.716  0.1805  0.5509 -0.3814
 2227SOL    HW118317   3.597   1.494   5.806 -2.3758 -0.3884  0.3677
 2227SOL    HW218318   3.646   1.394   5.717 -1.2321 -0.6943  1.5464
 2228SOL     OW18319   3.370   0.480   7.419 -0.1883 -0.4237  0.3881
 2228SOL    HW118320   3.400   0.419   7.486  2.1944  0.5329  0.1731
 2228SOL    HW218321   3.430   0.447   7.352  0.7771 -2.3090  2.2009
 2229SOL     OW18322   0.169   1.552   7.081  0.2149  0.1130  0.0205
 2229SOL    HW118323   0.176   1.623   7.017  2.1726  1.9023  2.1870
 2229SOL    HW218324   0.226   1.599   7.143  2.1943 -3.1915  0.6790
 2230SOL     OW18325   4.013   0.708   9.448 -0.3427 -0.7787  0.6051
 2230SOL    HW118326   3.985   0.616   9.450  1.1312 -1.2709 -1.3099
 2230SOL    HW218327   3.933   0.751   9.478 -0.8907 -1.3394 -0.0324
 2231SOL     OW18328   0.795   0.746   9.548 -0.0407 -0.3856 -0.1666
 2231SOL    HW118329   0.731   0.816   9.534 -0.2304 -0.6158 -0.4762
 2231SOL    HW218330   0.739   0.668   9.553 -0.9004  0.1412 -1.5042
 2232SOL     OW18331   4.374   1.801   5.072 -0.6995 -0.7612  0.1053
 2232SOL    HW118332   4.327   1.884   5.085 -0.0398 -0.0036 -2.2975
 2232SOL    HW218333   4.399   1.776   5.161 -0.2827  0.5361  0.3523
 2233SOL     OW18334   4.228   4.265  14.755  0.1282 -0.3729  0.5071
 2233SOL    HW118335   4.259   4.193  14.700 -0.2368  0.8016 -1.2438
 2233SOL    HW218336   4.208   4.316  14.676 -1.8169 -3.6043 -1.0796
 2234SOL     OW18337   2.295   0.127   2.962  0.3033 -0.2187 -0.5139
 2234SOL    HW118338   2.323   0.042   2.927  0.1959 -0.3039 -0.3902
 2234SOL    HW218339   2.202   0.108   2.958 -0.0455  1.1203  1.3655
 2235SOL     OW18340   1.723   2.978   7.267  0.0505 -0.3810 -0.5304
 2235SOL    HW118341   1.766   2.998   7.184 -2.7755  1.7956 -1.4538
 2235SOL    HW218342   1.651   2.922   7.239  0.1725 -1.0581  0.5414
 2236SOL     OW18343   2.857   4.313   3.702 -0.3943  0.1305  0.8183
 2236SOL    HW118344   2.927   4.370   3.671 -0.0410 -0.5835  0.2945
 2236SOL    HW218345   2.839   4.262   3.623  1.3334  3.1965 -1.5394
 2237SOL     OW18346   1.256   0.750   5.065  0.3860 -0.0120 -0.0682
 2237SOL    HW118347   1.206   0.815   5.016  0.8485 -0.2835 -0.8968
 2237SOL    HW218348   1.294   0.810   5.130  0.9439  0.0301 -0.4328
 2238SOL     OW18349   1.313   4.231   2.825  0.6173 -0.0799  0.6802
 2238SOL    HW118350   1.349   4.291   2.890  1.9427 -0.6473  0.4530
 2238SOL    HW218351   1.341   4.278   2.747 -0.2989 -0.5256  0.0766
 2239SOL     OW18352   0.143   4.058   3.640 -0.1961 -0.3424 -0.1880
 2239SOL    HW118353   0.132   4.106   3.558 -0.0276 -1.6809 -1.0035
 2239SOL    HW218354   0.143   3.966   3.612  0.2299 -0.1983 -0.6623
 2240SOL     OW18355   3.812   3.053   1.831  0.3311 -0.2943  0.3267
 2240SOL    HW118356   3.792   3.035   1.923  1.9060  0.6513  0.8612
 2240SOL    HW218357   3.743   3.011   1.780 -0.9776  0.6305  1.3583
 2241SOL     OW18358   3.464   3.132   4.115  0.2397 -0.0091 -0.3804
 2241SOL    HW118359   3.478   3.184   4.036 -1.4033 -0.2801 -0.8386
 2241SOL    HW218360   3.539   3.073   4.122 -0.5617 -1.0918 -0.8796
 2242SOL     OW18361   0.377   2.126  11.409 -0.2480 -0.2021  0.1475
 2242SOL    HW118362   0.322   2.183  11.355  0.8005  0.4238 -0.2572
 2242SOL    HW218363   0.308   2.093  11.466  0.8490  0.1904  1.6961
 2243SOL     OW18364   1.832   1.295   7.386  0.1897 -0.3206 -0.5963
 2243SOL    HW118365   1.739   1.283   7.368 -0.1674 -2.0120  2.3947
 2243SOL    HW218366   1.880   1.232   7.331  0.8433 -2.2635  2.1823
 2244SOL     OW18367   0.846   2.550  16.933  0.2872 -0.4070 -0.3684
 2244SOL    HW118368   0.776   2.557  16.867  1.5971 -1.0231 -1.8348
 2244SOL    HW218369   0.833   2.623  16.992  0.1754 -0.1086 -0.7615
 2245SOL     OW18370   0.742   3.344   4.913  0.0517 -0.2243 -0.2614
 2245SOL    HW118371   0.723   3.289   4.989 -0.8930  1.7570  0.9556
 2245SOL    HW218372   0.802   3.407   4.952 -0.5943  0.8472 -0.9920
 2246SOL     OW18373   1.987   4.668  13.547  0.2651 -0.1814  0.2744
 2246SOL    HW118374   1.990   4.713  13.631 -2.2487  0.4146  0.0589
 2246SOL    HW218375   1.988   0.008  13.491 -0.1025  0.5506  1.2655
 2247SOL     OW18376   4.072   2.175   8.973 -0.1114  0.1681 -0.1484
 2247SOL    HW118377   4.098   2.124   8.896 -0.1634  2.1040 -1.4533
 2247SOL    HW218378   3.983   2.204   8.951  0.0897  3.4485  3.3149
 2248SOL     OW18379   2.538   2.941  17.540  0.1842 -0.0237  0.5164
 2248SOL    HW118380   2.562   3.026  17.503 -1.8228  0.9296  1.4410
 2248SOL    HW218381   2.577   2.871  17.487 -0.9109 -0.1521 -0.1455
 2249SOL     OW18382   4.331   3.672   0.492 -0.1311 -0.1799 -0.4037
 2249SOL    HW118383   4.310   3.584   0.522 -0.7531  0.4937  1.1406
 2249SOL    HW218384   4.275   3.672   0.415  0.0615 -2.3208 -0.5252
 2250SOL     OW18385   0.610   1.251   2.899 -0.3385  0.6134  0.5290
 2250SOL    HW118386   0.602   1.203   2.981 -2.4073  0.5893  0.3170
 2250SOL    HW218387   0.534   1.309   2.894 -1.7687 -1.2392  0.6930
 2251SOL     OW18388   3.338   2.824   4.608 -0.6313  0.5642 -0.1374
 2251SOL    HW118389   3.341   2.742   4.656 -1.1338  0.5580 -0.1187
 2251SOL    HW218390   3.249   2.826   4.572 -1.8057  0.7323  2.8248
 2252SOL     OW18391   0.299   1.781   8.028  0.8891  0.1386  0.7181
 2252SOL    HW118392   0.295   1.695   7.986 -0.7709  0.6364 -0.1290
 2252SOL    HW218393   0.389   1.779   8.060  1.2874 -2.0346 -0.5095
 2253SOL     OW18394   2.059   4.486  11.908  0.2108  0.0888 -0.0399
 2253SOL    HW118395   2.133   4.432  11.882  0.4559  0.0213  0.7847
 2253SOL    HW218396   1.983   4.429  11.899  0.4333 -0.2908  0.4833
 2254SOL     OW18397   2.171   2.157   0.911 -0.1219 -0.3497  0.1548
 2254SOL    HW118398   2.264   2.147   0.930  0.0330  0.0877 -0.3719
 2254SOL    HW218399   2.164   2.226   0.845 -3.0922 -0.7256  0.0516
 2255SOL     OW18400   2.897   1.808  13.652  0.0192  0.2983  0.1588
 2255SOL    HW118401   2.906   1.878  13.716  2.0004  2.0401 -2.0151
 2255SOL    HW218402   2.973   1.826  13.596  1.5898 -1.4537  1.6867
 2256SOL     OW18403   4.220   0.715   4.440  0.1807 -0.3225 -0.1740
 2256SOL    HW118404   4.216   0.625   4.408  1.2685 -0.6579  0.6247
 2256SOL    HW218405   4.315   0.721   4.434  0.1562 -0.1497 -0.3979
 2257SOL     OW18406   2.200   0.354   2.838  0.0426 -0.6312 -0.4866
 2257SOL    HW118407   2.234   0.283   2.893 -2.3818 -0.7515  0.8635
 2257SOL    HW218408   2.264   0.424   2.849 -3.0510  2.1408 -0.1220
 2258SOL     OW18409   3.858   2.428  14.952 -0.0304 -0.4532 -0.2544
 2258SOL    HW118410   3.910   2.375  15.013  3.7957  0.9860 -2.2599
 2258SOL    HW218411   3.774   2.386  14.971  0.1769 -0.9884 -0.5204
 2259SOL     OW18412   0.601   0.400   0.609  0.5613 -0.2696 -0.1496
 2259SOL    HW118413   0.626   0.309   0.590  1.3225 -0.0702 -0.1340
 2259SOL    HW218414   0.616   0.403   0.704  0.5812 -0.3922 -0.1481
 2260SOL     OW18415   0.929   3.438   5.551 -0.2115  0.4505 -0.0086
 2260SOL    HW118416   1.018   3.412   5.576 -1.2748 -2.4566  0.7838
 2260SOL    HW218417   0.932   3.533   5.557  0.0807  0.4356  0.1212
 2261SOL     OW18418   4.637   1.490  13.182 -0.0002 -0.4807 -0.4255
 2261SOL    HW118419   4.732   1.477  13.171  0.0468 -0.1211 -0.4545
 2261SOL    HW218420   4.634   1.496  13.277 -0.9705 -1.4487 -0.3995
 2262SOL     OW18421   4.072   2.315   3.028 -0.1107  0.8376 -0.2640
 2262SOL    HW118422   4.035   2.251   2.967  0.6067 -0.5339  0.7257
 2262SOL    HW218423   3.990   2.362   3.046 -0.5043 -0.2212  0.7360
 2263SOL     OW18424   2.089   1.394   0.538  0.0818  0.2729 -0.0583
 2263SOL    HW118425   2.059   1.474   0.582  1.0644  0.1210  0.8755
 2263SOL    HW218426   2.007   1.345   0.529 -0.1793  0.6111  0.4497
 2264SOL     OW18427   4.107   3.306   9.584 -0.1992  0.6333  0.5177
 2264SOL    HW118428   4.195   3.274   9.563 -1.0790 -0.7837 -0.9484
 2264SOL    HW218429   4.056   3.246   9.529 -0.4669  0.8008  0.5844
 2265SOL     OW18430   1.336   4.442   5.926 -0.4820 -0.1888  0.5262
 2265SOL    HW118431   1.426   4.452   5.958  0.1611 -0.9963 -1.0635
 2265SOL    HW218432   1.346   4.494   5.846 -1.1690 -0.0520  0.5347
 2266SOL     OW18433   1.748   2.598   4.880  0.8311  0.3842 -0.6661
 2266SOL    HW118434   1.714   2.679   4.842 -1.3657  0.0821  0.6752
 2266SOL    HW218435   1.716   2.533   4.818  0.2047 -0.8384  0.9429
 2267SOL     OW18436   2.628   3.146   5.266 -0.7445  0.0575 -0.1778
 2267SOL    HW118437   2.599   3.069   5.315 -0.8047  0.9986  1.2587
 2267SOL    HW218438   2.546   3.180   5.229 -2.2802  0.2325  3.3809
 2268SOL     OW18439   3.662   2.949   4.110 -0.0721  0.1742  0.4608
 2268SOL    HW118440   3.682   2.876   4.052  2.5632  1.2748 -0.0259
 2268SOL    HW218441   3.709   2.920   4.187 -0.3637 -2.8159 -0.5078
 2269SOL     OW18442   3.974   2.181   2.801 -0.5230 -0.5242 -0.0641
 2269SOL    HW118443   3.953   2.098   2.759 -0.0583 -1.1426  0.9341
 2269SOL    HW218444   3.982   2.235   2.722 -1.8940 -0.4990 -0.2004
 2270SOL     OW18445   3.036   4.360  15.056  0.2460 -0.5805 -0.6045
 2270SOL    HW118446   3.082   4.424  15.001  0.3967 -0.7270 -0.6493
 2270SOL    HW218447   2.945   4.387  15.044  0.1905  1.1757  3.5292
 2271SOL     OW18448   4.201   0.983   7.922 -0.3538  0.0333 -0.0827
 2271SOL    HW118449   4.240   0.935   7.850  1.4547 -1.5957  2.0049
 2271SOL    HW218450   4.118   1.012   7.885 -0.3309  1.3928  0.9175
 2272SOL     OW18451   1.101   2.039   0.514 -0.3239 -0.1038  0.1912
 2272SOL    HW118452   1.184   2.021   0.558  0.0001 -0.6337 -0.6208
 2272SOL    HW218453   1.134   2.074   0.431 -2.8277 -0.2665 -0.8775
 2273SOL     OW18454   3.564   0.487   1.579 -0.6864 -0.2447  0.3619
 2273SOL    HW118455   3.534   0.419   1.519  0.5017 -1.7631  1.4917
 2273SOL    HW218456   3.495   0.485   1.646 -2.0382  1.4783 -0.9791
 2274SOL     OW18457   1.357   0.146   7.795  0.4349 -0.6416  0.1355
 2274SOL    HW118458   1.393   0.062   7.824  0.3785 -0.6517  0.1763
 2274SOL    HW218459   1.379   0.197   7.872  1.1151 -0.1232 -0.4082
 2275SOL     OW18460   2.382   1.739   4.559  0.1423 -0.3304  0.4069
 2275SOL    HW118461   2.334   1.822   4.558 -1.8073 -1.4805 -0.8456
 2275SOL    HW218462   2.463   1.764   4.604 -0.4140 -0.1660  1.3255
 2276SOL     OW18463   3.801   4.134   2.389  0.3908 -0.4827 -0.4715
 2276SOL    HW118464   3.835   4.172   2.469  0.0266  0.6234 -0.8476
 2276SOL    HW218465   3.855   4.183   2.327  1.6588 -0.4166  0.7015
 2277SOL     OW18466   2.872   3.671  13.631  0.0556 -0.1420 -0.2922
 2277SOL    HW118467   2.848   3.734  13.699 -0.4990 -1.9652  1.1895
 2277SOL    HW218468   2.838   3.588  13.664 -0.4162  0.3059  0.3575
 2278SOL     OW18469   2.814   0.618  15.448 -0.4986  0.4405  0.1449
 2278SOL    HW118470   2.819   0.523  15.457  0.7325  0.4633 -0.2497
 2278SOL    HW218471   2.884   0.643  15.509 -1.3028  1.3210  0.6917
 2279SOL     OW18472   3.596   0.748   3.713  0.1553  0.3512  0.3223
 2279SOL    HW118473   3.541   0.677   3.748 -0.8089  0.5480 -0.8023
 2279SOL    HW218474   3.551   0.758   3.629 -0.2098  0.3952  0.5219
 2280SOL     OW18475   4.581   1.485  10.395  0.3120 -0.3050 -0.1605
 2280SOL    HW118476   4.553   1.398  10.426 -0.0964 -0.6358 -1.4452
 2280SOL    HW218477   4.674   1.488  10.415 -0.2604 -0.4155  2.4834
 2281SOL     OW18478   1.651   1.777  11.432  0.2968 -0.2458 -0.2019
 2281SOL    HW118479   1.648   1.856  11.487 -0.6615 -0.0988 -0.4698
 2281SOL    HW218480   1.624   1.807  11.345 -1.1506 -0.4803  0.1698
 2282SOL     OW18481   2.636   2.846   9.148 -0.1095  0.0856  0.2823
 2282SOL    HW118482   2.637   2.942   9.154  0.8724  0.1199 -0.4936
 2282SOL    HW218483   2.724   2.836   9.113  0.0466 -0.7775  0.9352
 2283SOL     OW18484   0.905   3.171  15.420 -0.2136 -0.2409  0.0191
 2283SOL    HW118485   0.968   3.107  15.386  2.5710  1.3364  2.1751
 2283SOL    HW218486   0.850   3.205  15.349  0.8835  2.0816  0.2486
 2284SOL     OW18487   3.778   3.730   7.170  0.1205  0.0868 -0.1035
 2284SOL    HW118488   3.732   3.814   7.174 -0.6436 -0.4029  1.5376
 2284SOL    HW218489   3.712   3.662   7.158 -1.1620  1.1326  0.9853
 2285SOL     OW18490   0.153   1.803   8.580  0.0998  0.0671 -0.0590
 2285SOL    HW118491   0.112   1.747   8.513 -2.0272  1.4518  0.0929
 2285SOL    HW218492   0.245   1.776   8.576  0.2587  0.3423  1.8372
 2286SOL     OW18493   2.361   0.182  14.380 -0.5098 -0.4855 -0.0931
 2286SOL    HW118494   2.394   0.129  14.307  2.0785 -1.0125  1.4406
 2286SOL    HW218495   2.266   0.171  14.371 -0.2825 -1.0476 -1.9020
 2287SOL     OW18496   2.516   3.634   3.181  0.3138  0.2833 -0.0372
 2287SOL    HW118497   2.553   3.569   3.241  0.8488  0.3472 -0.2907
 2287SOL    HW218498   2.600   3.676   3.162  0.8907 -0.6902  0.3625
 2288SOL     OW18499   2.213   4.527   8.438 -0.3571  0.2084 -0.2956
 2288SOL    HW118500   2.236   4.619   8.421 -0.8587  0.0107 -1.9920
 2288SOL    HW218501   2.294   4.510   8.487 -0.9120  4.3200  2.1169
 2289SOL     OW18502   4.390   0.867  10.106  0.5209 -0.1721 -0.3240
 2289SOL    HW118503   4.439   0.855  10.025 -0.5998  0.4582 -1.0963
 2289SOL    HW218504   4.301   0.860  10.072  0.5306 -0.0212 -0.3800
 2290SOL     OW18505   0.445   1.893  14.104  0.8616 -0.2493 -0.6158
 2290SOL    HW118506   0.353   1.867  14.108  0.7121  0.7369  2.2646
 2290SOL    HW218507   0.426   1.987  14.110 -1.5849 -0.7290 -0.8920
 2291SOL     OW18508   3.320   3.902   2.060  0.3303  0.6502  0.5313
 2291SOL    HW118509   3.362   3.863   2.136 -1.0517  0.4300  1.1734
 2291SOL    HW218510   3.229   3.889   2.087  0.6130  2.2105  2.2291
 2292SOL     OW18511   0.131   0.047   3.112  0.1392  0.4484  0.0908
 2292SOL    HW118512   0.058   0.108   3.108 -0.2166 -0.1338 -2.4216
 2292SOL    HW218513   0.207   0.104   3.124 -0.2369  0.2624  3.2315
 2293SOL     OW18514   1.568   1.875   9.192 -0.1486 -0.6107  0.2488
 2293SOL    HW118515   1.653   1.865   9.151  0.6357 -0.7289  1.9083
 2293SOL    HW218516   1.538   1.785   9.179 -2.5054  0.1040  0.6118
 2294SOL     OW18517   4.000   2.150   3.365 -0.2455 -0.1242  0.3884
 2294SOL    HW118518   4.057   2.182   3.295 -1.5345  0.1990 -0.4967
 2294SOL    HW218519   4.060   2.162   3.439 -0.1005 -2.1219  0.6067
 2295SOL     OW18520   4.651   1.423   5.040 -0.6295  0.3850 -0.4133
 2295SOL    HW118521   4.696   1.453   5.120 -0.3410  0.1276 -0.4790
 2295SOL    HW218522   4.566   1.415   5.084 -0.7158 -0.4908 -0.7262
 2296SOL     OW18523   1.891   2.772   1.335  0.0362 -0.5226  0.1692
 2296SOL    HW118524   1.941   2.819   1.401  1.2766 -1.0196 -0.4270
 2296SOL    HW218525   1.847   2.699   1.379 -1.6934  0.0885 -0.5311
 2297SOL     OW18526   1.195   4.094   6.142 -0.3130  0.2747 -0.1917
 2297SOL    HW118527   1.150   4.012   6.160 -2.8728  1.2201 -2.3387
 2297SOL    HW218528   1.160   4.111   6.055  0.7182 -0.5982 -0.7827
 2298SOL     OW18529   4.524   2.001   8.239 -0.4479  0.6636  0.3105
 2298SOL    HW118530   4.527   2.021   8.332  1.7193  1.9393 -0.0304
 2298SOL    HW218531   4.444   1.950   8.247 -0.9445  1.5134  0.6930
 2299SOL     OW18532   0.859   1.465   6.416  0.1160  0.1290  0.1511
 2299SOL    HW118533   0.825   1.461   6.327 -1.0812 -0.7034  0.6435
 2299SOL    HW218534   0.890   1.376   6.432  1.0208 -0.1664 -3.1849
 2300SOL     OW18535   0.135   4.245   0.912  0.1828  0.1674  0.3916
 2300SOL    HW118536   0.081   4.175   0.875 -0.6271  0.4483  1.0288
 2300SOL    HW218537   0.166   4.190   0.985  0.7393 -1.5400 -1.1446
 2301SOL     OW18538   2.049   0.493  13.329  0.6118 -0.1542  0.2471
 2301SOL    HW118539   2.069   0.415  13.277  0.7353 -0.7539  1.1944
 2301SOL    HW218540   2.135   0.517  13.361  0.1692  1.1177  0.4728
 2302SOL     OW18541   2.579   0.970   9.067  0.3087 -0.0136  0.0587
 2302SOL    HW118542   2.629   0.888   9.064 -0.7030 -0.5657 -1.5581
 2302SOL    HW218543   2.644   1.040   9.059 -0.7803  1.0775  0.8108
 2303SOL     OW18544   0.104   4.045   8.390 -0.0846  0.1233 -0.0652
 2303SOL    HW118545   0.030   4.096   8.355 -0.5097 -0.8335 -0.5590
 2303SOL    HW218546   0.148   4.110   8.445  0.1758  1.0532 -1.3760
 2304SOL     OW18547   3.779   1.658   3.723 -0.3918  0.3058  0.1360
 2304SOL    HW118548   3.861   1.627   3.684 -0.4942 -0.7046  0.7153
 2304SOL    HW218549   3.802   1.662   3.816  0.6125  0.0982 -0.0990
 2305SOL     OW18550   2.229   3.778   8.145 -0.2136  0.1017  0.0935
 2305SOL    HW118551   2.138   3.750   8.157 -0.5899  1.9783  1.5474
 2305SOL    HW218552   2.234   3.793   8.050  2.4305  0.0587  0.2316
 2306SOL     OW18553   4.653   1.539   6.376 -0.0217  0.6365 -0.0437
 2306SOL    HW118554   4.631   1.479   6.447  3.4933  0.0005  0.4954
 2306SOL    HW218555   4.581   1.601   6.385 -0.1562  0.1724  2.1334
 2307SOL     OW18556   3.244   1.924   3.897 -0.3741 -0.1335  0.1922
 2307SOL    HW118557   3.168   1.973   3.929  1.3211  2.6662 -0.0328
 2307SOL    HW218558   3.280   1.890   3.979  0.1697 -0.6878 -0.2753
 2308SOL     OW18559   1.747   0.389   6.450 -0.4724 -0.7272  0.1259
 2308SOL    HW118560   1.724   0.314   6.395 -0.5510  0.2740 -1.2235
 2308SOL    HW218561   1.663   0.390   6.495 -0.3956  0.5481  0.2495
 2309SOL     OW18562   3.517   2.267   7.965 -0.5237 -0.6757 -0.0068
 2309SOL    HW118563   3.454   2.201   7.935 -2.7135  1.2539  0.2961
 2309SOL    HW218564   3.476   2.306   8.042 -0.7243 -0.1190 -0.3874
 2310SOL     OW18565   4.047   1.803  12.439  0.2278  0.1511  0.1147
 2310SOL    HW118566   4.082   1.723  12.480 -0.4978 -0.5930 -0.7215
 2310SOL    HW218567   4.030   1.860  12.514  2.0701 -0.8458  1.3007
 2311SOL     OW18568   4.247   1.933   7.041  0.1177 -0.3896  0.5945
 2311SOL    HW118569   4.178   1.987   7.081  0.7063 -0.2513  1.4086
 2311SOL    HW218570   4.233   1.951   6.948  2.6093  3.9976  1.1094
 2312SOL     OW18571   2.960   2.585   4.466 -0.0677 -0.1698  0.1037
 2312SOL    HW118572   3.029   2.581   4.532  0.3574 -1.7300 -0.4433
 2312SOL    HW218573   2.958   2.491   4.450 -0.1633 -0.0687 -0.4720
 2313SOL     OW18574   2.330   4.650   6.682  0.6914 -0.4064  0.1069
 2313SOL    HW118575   2.246   4.630   6.725  0.6709 -1.5356 -0.4871
 2313SOL    HW218576   2.331   0.008   6.665 -0.1294 -0.5875 -0.9604
 2314SOL     OW18577   2.720   3.666  14.099 -0.2748 -0.3146 -0.0935
 2314SOL    HW118578   2.661   3.728  14.141  0.6074 -1.0807  2.2743
 2314SOL    HW218579   2.739   3.727  14.027  0.6408  0.1962  0.5833
 2315SOL     OW18580   1.968   3.444   2.917 -0.3443  0.3347 -0.4522
 2315SOL    HW118581   2.021   3.373   2.880  0.9507  0.5703  0.9210
 2315SOL    HW218582   2.012   3.458   3.001 -1.2930  0.5136  0.0199
 2316SOL     OW18583   1.782   2.475  11.355  0.4392 -0.1007 -0.2980
 2316SOL    HW118584   1.748   2.540  11.293  2.2488  0.3028 -0.8918
 2316SOL    HW218585   1.744   2.499  11.439 -0.8010 -1.6345 -0.4129
 2317SOL     OW18586   3.452   2.933   2.984  0.1115 -1.0633  0.0431
 2317SOL    HW118587   3.453   2.847   2.941  0.8769 -0.8542 -0.3540
 2317SOL    HW218588   3.474   2.990   2.911  0.8607 -0.4496  0.7412
 2318SOL     OW18589   2.888   0.768  15.773 -0.1518 -0.0350 -0.0445
 2318SOL    HW118590   2.848   0.835  15.717 -0.5312  0.7488  1.1576
 2318SOL    HW218591   2.922   0.695  15.722 -1.4215  0.1917 -1.2251
 2319SOL     OW18592   1.510   4.018   5.151  0.0453 -0.6940 -0.1362
 2319SOL    HW118593   1.524   3.997   5.058  4.0296  1.2908  0.0190
 2319SOL    HW218594   1.575   3.968   5.200  0.6014 -0.5466 -0.7137
 2320SOL     OW18595   3.485   1.906  11.217 -0.2716  0.5016  0.4220
 2320SOL    HW118596   3.493   1.887  11.123  0.3129  1.6265  0.2504
 2320SOL    HW218597   3.577   1.927  11.234  0.3234 -1.4795 -0.2318
 2321SOL     OW18598   1.273   1.185  10.001  0.1528  0.1230 -0.0163
 2321SOL    HW118599   1.220   1.112   9.970  0.4860  0.3712 -1.1689
 2321SOL    HW218600   1.343   1.161   9.941  1.5502 -0.4337  1.8535
 2322SOL     OW18601   1.224   0.751   4.730  0.3875 -0.3689 -0.3323
 2322SOL    HW118602   1.179   0.822   4.775 -0.2964 -1.4404  0.6716
 2322SOL    HW218603   1.180   0.755   4.645  1.5029  2.1832 -0.7747
 2323SOL     OW18604   4.422   0.611  15.382 -0.3147  0.0049 -0.8160
 2323SOL    HW118605   4.448   0.653  15.300 -0.7717  1.2528 -0.3279
 2323SOL    HW218606   4.348   0.650  15.429  1.4438  0.9476  1.1447
 2324SOL     OW18607   0.435   2.164  14.125  0.5082 -0.3182 -0.0415
 2324SOL    HW118608   0.402   2.234  14.181 -0.1665 -0.4720 -0.2391
 2324SOL    HW218609   0.431   2.210  14.041  1.7510  1.8598  1.1180
 2325SOL     OW18610   4.592   0.404   2.679  0.5516  0.4021 -0.4396
 2325SOL    HW118611   4.555   0.316   2.690 -1.2338  1.2396  0.2328
 2325SOL    HW218612   4.513   0.457   2.672  0.5447  0.2335 -1.7305
 2326SOL     OW18613   2.377   3.826  13.035 -0.4034 -0.1941  0.2295
 2326SOL    HW118614   2.409   3.769  12.966 -1.8474  0.7440 -1.2035
 2326SOL    HW218615   2.294   3.848  12.992 -0.1204  1.0908  0.3307
 2327SOL     OW18616   2.454   3.874   8.294 -0.7621  0.3897 -0.1943
 2327SOL    HW118617   2.399   3.851   8.219  0.6372 -1.7327 -0.5746
 2327SOL    HW218618   2.480   3.792   8.335 -0.1738  0.3569 -0.6301
 2328SOL     OW18619   3.461   1.762  12.482  0.5002 -0.2930  0.4316
 2328SOL    HW118620   3.484   1.687  12.537  0.3675 -0.0580  0.8071
 2328SOL    HW218621   3.522   1.829  12.511  1.1069  0.0493 -1.6597
 2329SOL     OW18622   3.758   4.465   1.273  0.1837 -0.2700  0.0330
 2329SOL    HW118623   3.790   4.433   1.189 -1.5945  1.5155 -1.3186
 2329SOL    HW218624   3.688   4.520   1.239  0.2999 -0.5054 -0.5967
 2330SOL     OW18625   3.145   3.533   7.723 -0.0942 -0.0783 -0.2721
 2330SOL    HW118626   3.086   3.460   7.738  0.1005 -0.2568 -0.3716
 2330SOL    HW218627   3.086   3.598   7.686  2.1575  2.4384  0.5538
 2331SOL     OW18628   1.895   0.990   4.502 -0.2022  0.0386  0.0941
 2331SOL    HW118629   1.872   1.069   4.455  1.1826  1.7508  2.3162
 2331SOL    HW218630   1.963   1.019   4.563 -0.0859 -1.7913  0.8450
 2332SOL     OW18631   3.676   0.283   5.593  0.2684  0.4122 -0.0837
 2332SOL    HW118632   3.636   0.218   5.535  2.2255  1.4338 -2.5549
 2332SOL    HW218633   3.671   0.246   5.682  0.8707 -1.5569 -0.8601
 2333SOL     OW18634   4.160   0.702   1.418 -0.4964 -0.0836 -0.6058
 2333SOL    HW118635   4.142   0.656   1.336  0.0750 -1.5764  0.1154
 2333SOL    HW218636   4.101   0.654   1.475  1.2722 -0.3377  1.0014
 2334SOL     OW18637   0.922   3.724  12.783  1.0773 -0.3461 -0.2327
 2334SOL    HW118638   0.895   3.727  12.875 -0.3886 -0.6552 -0.6558
 2334SOL    HW218639   0.887   3.636  12.767 -1.2748  0.1001  2.4617
 2335SOL     OW18640   3.298   2.501  17.629  0.7088 -0.0874 -0.1155
 2335SOL    HW118641   3.231   2.536  17.571  0.4182  1.6256  1.2311
 2335SOL    HW218642   3.321   2.424  17.577  1.8444  0.9677 -1.1893
 2336SOL     OW18643   1.898   0.594   8.845 -0.0507 -0.4916 -0.7083
 2336SOL    HW118644   1.825   0.654   8.861  0.9532  0.3972  0.6134
 2336SOL    HW218645   1.950   0.594   8.925 -0.7349 -0.9273 -0.2605
 2337SOL     OW18646   3.994   1.698   3.044 -0.3986 -0.1756 -0.2483
 2337SOL    HW118647   3.937   1.624   3.027  0.1473 -0.6400 -0.0380
 2337SOL    HW218648   3.965   1.717   3.133 -1.0893  0.4281 -0.5957
 2338SOL     OW18649   0.695   0.616  16.273  0.4996 -0.0081 -0.5303
 2338SOL    HW118650   0.700   0.686  16.338  0.6154 -0.7745  0.2800
 2338SOL    HW218651   0.601   0.602  16.264  0.2324  1.1375  0.5569
 2339SOL     OW18652   2.980   0.688   4.124  0.1766 -0.3317  0.2488
 2339SOL    HW118653   2.951   0.632   4.197 -1.8543  0.0819 -0.2442
 2339SOL    HW218654   3.028   0.748   4.182 -1.5071  0.1822  1.1226
 2340SOL     OW18655   4.599   4.175   3.539  0.7727 -0.1078  0.2982
 2340SOL    HW118656   4.640   4.089   3.551 -2.1991 -1.5160  0.5885
 2340SOL    HW218657   4.525   4.171   3.599  0.2387 -1.6917 -0.4443
 2341SOL     OW18658   3.927   0.441   7.677  0.1042 -0.4565  0.3024
 2341SOL    HW118659   3.996   0.494   7.716  1.6088 -2.0090 -0.3037
 2341SOL    HW218660   3.961   0.420   7.590  0.1225  0.1951  0.1513
 2342SOL     OW18661   3.269   3.202   5.244  0.0541  0.1773  0.0574
 2342SOL    HW118662   3.325   3.271   5.280 -1.3112  2.2894 -1.8715
 2342SOL    HW218663   3.311   3.183   5.160 -0.9195  1.8979 -0.8275
 2343SOL     OW18664   3.968   4.280   2.145 -0.6830 -0.6452 -0.1552
 2343SOL    HW118665   3.920   4.309   2.067 -0.4976  0.5131  0.1688
 2343SOL    HW218666   3.938   4.348   2.205  3.9159  0.1187  1.2344
 2344SOL     OW18667   3.062   2.570  14.762 -0.0784  0.5298 -0.4155
 2344SOL    HW118668   2.991   2.607  14.814  1.7001  2.5628  0.5197
 2344SOL    HW218669   3.045   2.613  14.678 -1.5933  2.3633  0.8370
 2345SOL     OW18670   1.236   2.724   5.910  0.2887  0.3993 -0.3770
 2345SOL    HW118671   1.151   2.753   5.877  0.1884  1.6306  0.9555
 2345SOL    HW218672   1.201   2.654   5.965  0.3970  0.0493 -0.7536
 2346SOL     OW18673   0.422   2.589   5.507 -0.7072 -0.1927  0.0569
 2346SOL    HW118674   0.500   2.549   5.547 -0.4359  0.1229 -0.1564
 2346SOL    HW218675   0.463   2.648   5.443  0.5948 -1.8793 -0.6562
 2347SOL     OW18676   1.790   4.420   5.200  0.2656 -0.9865  0.1479
 2347SOL    HW118677   1.820   4.345   5.252 -0.8438 -0.0571  2.1531
 2347SOL    HW218678   1.698   4.410   5.224  0.1013 -2.2576 -1.0092
 2348SOL     OW18679   0.218   1.282   8.620  0.1687  0.0323  0.2387
 2348SOL    HW118680   0.139   1.228   8.621 -1.9588  3.1467  0.0317
 2348SOL    HW218681   0.278   1.222   8.665  1.1627  0.3410 -0.6474
 2349SOL     OW18682   1.562   1.379  14.627 -0.1425 -0.6028  0.2745
 2349SOL    HW118683   1.586   1.289  14.647  3.1688 -0.0263 -1.1669
 2349SOL    HW218684   1.644   1.417  14.596  0.1596 -0.9197  0.6870
 2350SOL     OW18685   1.285   3.910   7.877  0.5682 -0.1575 -0.1175
 2350SOL    HW118686   1.202   3.957   7.880  1.0031  0.7010 -1.6132
 2350SOL    HW218687   1.327   3.948   7.801 -3.3801  0.1844 -2.1201
 2351SOL     OW18688   2.759   0.235   8.311 -0.2654 -0.2402  0.0396
 2351SOL    HW118689   2.699   0.309   8.325 -3.0494 -2.2734 -1.2017
 2351SOL    HW218690   2.807   0.239   8.394 -2.9590 -1.3988  1.6709
 2352SOL     OW18691   2.059   4.146   3.813  0.1915 -0.2364 -0.3423
 2352SOL    HW118692   2.088   4.235   3.795 -2.4048  0.7805  0.5254
 2352SOL    HW218693   1.981   4.135   3.760  1.1656  0.1879 -1.8554
 2353SOL     OW18694   0.633   2.145  11.570  0.3682 -0.1027 -0.5840
 2353SOL    HW118695   0.552   2.134  11.520 -0.1042 -1.1058  0.4148
 2353SOL    HW218696   0.686   2.070  11.541 -0.0874 -0.2846 -0.9522
 2354SOL     OW18697   1.261   4.442   4.806  0.3084  0.7127 -0.2382
 2354SOL    HW118698   1.270   4.440   4.711 -0.9592  1.4205 -0.3747
 2354SOL    HW218699   1.352   4.442   4.837  0.2296 -1.5051 -0.0346
 2355SOL     OW18700   0.900   3.965  12.658 -0.1709 -0.1749 -0.4429
 2355SOL    HW118701   0.917   3.884  12.707  1.7310  0.4272 -0.0765
 2355SOL    HW218702   0.872   3.936  12.571 -0.8710  1.4802 -0.7596
 2356SOL     OW18703   2.099   1.513   2.331  0.1607  0.0021 -0.1172
 2356SOL    HW118704   2.161   1.447   2.358 -0.4041 -0.0990  0.9225
 2356SOL    HW218705   2.035   1.509   2.402  0.3957 -0.3255  0.0705
 2357SOL     OW18706   4.089   0.443  12.958  0.1503  0.4894  0.1285
 2357SOL    HW118707   4.169   0.495  12.953  0.1865  0.3426 -0.8289
 2357SOL    HW218708   4.074   0.427  12.864  0.7421  1.1295 -0.0742
 2358SOL     OW18709   3.333   1.561   4.359  0.1098  0.4588  0.0279
 2358SOL    HW118710   3.246   1.520   4.367 -0.7888  2.4092  0.2618
 2358SOL    HW218711   3.378   1.486   4.399 -2.9784 -0.0037  2.7739
 2359SOL     OW18712   4.474   1.758  10.934  0.5244  0.1829 -0.7486
 2359SOL    HW118713   4.501   1.809  11.010  2.5416 -1.2028 -0.5333
 2359SOL    HW218714   4.512   1.674  10.960 -1.0360 -0.7174 -1.3188
 2360SOL     OW18715   2.170   4.077   6.025  0.0400  0.0074  0.1079
 2360SOL    HW118716   2.254   4.042   6.056 -0.7720 -1.1246  0.9924
 2360SOL    HW218717   2.195   4.163   5.989  1.9831 -0.9938 -0.9359
 2361SOL     OW18718   0.456   1.196   7.063  0.2519 -0.2530  0.2254
 2361SOL    HW118719   0.461   1.259   7.134 -1.4352  0.9154 -0.7079
 2361SOL    HW218720   0.546   1.215   7.036 -0.3057 -1.0952 -2.2691
 2362SOL     OW18721   0.791   4.260  11.892 -0.0899 -0.2030 -0.3522
 2362SOL    HW118722   0.852   4.198  11.930 -0.3414  0.1803  0.6825
 2362SOL    HW218723   0.709   4.210  11.893 -0.0978 -0.2074 -1.2627
 2363SOL     OW18724   2.549   0.986   6.000 -0.0545  0.2888 -0.0648
 2363SOL    HW118725   2.454   0.991   5.993 -0.1983 -1.4788  0.6763
 2363SOL    HW218726   2.571   1.079   6.001  0.5748  0.1310  0.8415
 2364SOL     OW18727   2.235   1.967  16.211  0.0541  0.4458 -0.0727
 2364SOL    HW118728   2.275   1.881  16.225 -2.2433 -0.9578 -2.1951
 2364SOL    HW218729   2.142   1.946  16.208  0.9368 -3.6015  0.7928
 2365SOL     OW18730   0.609   4.235   1.408 -0.0004  0.2333  0.2670
 2365SOL    HW118731   0.540   4.193   1.461  0.8046 -3.9335 -1.9603
 2365SOL    HW218732   0.644   4.304   1.464  0.5984  0.6289 -0.5946
 2366SOL     OW18733   4.378   2.786  12.612  0.2809 -0.2230 -0.5357
 2366SOL    HW118734   4.458   2.824  12.576  0.0178  0.1866 -0.6838
 2366SOL    HW218735   4.362   2.716  12.548  1.7869 -1.6543  0.6327
 2367SOL     OW18736   4.401   1.247   3.881  0.1287 -0.2644  0.8930
 2367SOL    HW118737   4.386   1.166   3.832  1.5952 -0.0870  0.1714
 2367SOL    HW218738   4.469   1.295   3.834 -1.2168  1.0977  0.3175
 2368SOL     OW18739   0.077   0.153   7.052  0.3793  0.0741 -0.2643
 2368SOL    HW118740   0.058   0.236   7.008 -0.1708 -1.1846 -2.3523
 2368SOL    HW218741   0.024   0.160   7.131 -1.4926  0.0454 -1.5174
 2369SOL     OW18742   1.537   3.869   1.797 -0.1617 -0.0427  0.1128
 2369SOL    HW118743   1.593   3.842   1.870  0.4077  0.3380 -0.1778
 2369SOL    HW218744   1.460   3.813   1.791 -0.3040 -0.1614  2.9107
 2370SOL     OW18745   3.780   4.570  10.955  0.1476 -0.5005 -0.2615
 2370SOL    HW118746   3.848   4.610  11.010 -2.0167  2.2358  0.4446
 2370SOL    HW218747   3.759   4.640  10.892  0.8446 -0.7079 -0.7268
 2371SOL     OW18748   3.222   2.221  10.107  0.0625  0.2218 -0.0376
 2371SOL    HW118749   3.135   2.248  10.135  1.2562  3.0693  0.9412
 2371SOL    HW218750   3.232   2.136  10.149 -0.4892  0.8082  1.2726
 2372SOL     OW18751   3.406   3.177  16.983  0.4522  0.4325 -0.2858
 2372SOL    HW118752   3.435   3.085  16.987 -0.3708  0.1740 -0.2286
 2372SOL    HW218753   3.448   3.203  17.065  2.3895  1.2695 -1.5587
 2373SOL     OW18754   0.790   1.594   4.779 -0.1127  0.7246  0.4003
 2373SOL    HW118755   0.761   1.552   4.698 -0.3688 -2.4465  2.1619
 2373SOL    HW218756   0.728   1.547   4.834 -0.4917  2.4688  1.4647
 2374SOL     OW18757   1.264   2.047   0.756 -0.1591 -0.9050  0.0457
 2374SOL    HW118758   1.214   2.123   0.783  2.4719  0.6366  0.5669
 2374SOL    HW218759   1.279   2.008   0.842  0.8481 -1.0982 -0.2129
 2375SOL     OW18760   0.365   3.196   2.119  0.7550  0.5795 -0.2690
 2375SOL    HW118761   0.319   3.267   2.162  1.1733 -0.5039  1.9884
 2375SOL    HW218762   0.313   3.180   2.041  0.0470  0.0739  0.3022
 2376SOL     OW18763   1.520   1.866   2.737  0.0726 -0.4254  0.0430
 2376SOL    HW118764   1.478   1.943   2.776 -1.9994 -2.2588  1.4116
 2376SOL    HW218765   1.523   1.795   2.802 -0.4579 -0.7441 -0.2872
 2377SOL     OW18766   0.911   4.536   8.657 -0.3941 -0.1160 -0.2614
 2377SOL    HW118767   0.944   4.613   8.612 -3.5052  0.7502 -1.0719
 2377SOL    HW218768   0.993   4.486   8.655 -0.3792 -0.2765  3.4302
 2378SOL     OW18769   2.750   4.127   6.202 -0.0293  0.4776  0.1392
 2378SOL    HW118770   2.815   4.194   6.180  1.0625 -0.6541 -0.1169
 2378SOL    HW218771   2.679   4.167   6.252 -0.0481 -0.5886  0.9837
 2379SOL     OW18772   1.486   4.444   7.565  0.5991  0.0566 -0.4176
 2379SOL    HW118773   1.477   4.491   7.647  2.9670  1.5590 -1.0347
 2379SOL    HW218774   1.396   4.459   7.536  0.0857 -1.1920  0.5208
 2380SOL     OW18775   4.081   1.685  14.407 -0.2518 -0.0744  0.0337
 2380SOL    HW118776   4.022   1.614  14.429 -0.8540 -0.2666 -2.1927
 2380SOL    HW218777   4.107   1.659  14.319  0.9089 -0.2746  0.4319
 2381SOL     OW18778   0.215   4.297   3.416 -0.2578  0.2407  0.2001
 2381SOL    HW118779   0.248   4.332   3.500 -0.3071 -1.9148  1.1119
 2381SOL    HW218780   0.291   4.244   3.392 -0.2073 -0.5476  2.0602
 2382SOL     OW18781   0.046   0.925   6.480  0.1999 -0.0054 -0.4763
 2382SOL    HW118782   0.140   0.944   6.480 -0.2238  2.1625 -1.9729
 2382SOL    HW218783   0.019   0.968   6.561  1.2521 -2.5562  1.2036
 2383SOL     OW18784   4.248   2.763   5.655  1.0874 -0.3281 -0.1524
 2383SOL    HW118785   4.184   2.707   5.698  0.2036  1.7216  1.1540
 2383SOL    HW218786   4.204   2.848   5.659  0.5121 -0.5561 -1.4206
 2384SOL     OW18787   4.611   0.547   1.875  0.9763  0.2947  0.8031
 2384SOL    HW118788   4.664   0.500   1.811  1.6458  1.9282  0.1561
 2384SOL    HW218789   4.523   0.541   1.836  0.9052  0.9027  0.8665
 2385SOL     OW18790   1.764   0.969  16.382  0.2193  0.5818  0.0519
 2385SOL    HW118791   1.820   1.035  16.340 -0.3839 -1.4736 -3.9907
 2385SOL    HW218792   1.719   1.028  16.442 -0.4672  0.0717  0.0335
 2386SOL     OW18793   4.453   4.023   2.914  0.3412  0.4664  0.3855
 2386SOL    HW118794   4.462   3.999   3.006 -0.8397 -0.7284  0.1951
 2386SOL    HW218795   4.496   4.108   2.913  3.0219 -0.9186 -1.3136
 2387SOL     OW18796   1.209   4.514  15.874 -0.2171 -0.4366  0.3889
 2387SOL    HW118797   1.255   4.483  15.797 -1.0481 -0.0482 -0.2698
 2387SOL    HW218798   1.265   4.586  15.903  0.9445 -0.8788 -0.7995
 2388SOL     OW18799   4.024   0.433   6.085 -0.3833  0.5443  0.5050
 2388SOL    HW118800   4.066   0.504   6.134  0.1350  0.5776  0.0052
 2388SOL    HW218801   3.953   0.478   6.040 -0.2516 -1.9966 -2.2463
 2389SOL     OW18802   3.635   1.995   1.959  0.1395 -0.5027 -0.0309
 2389SOL    HW118803   3.680   2.044   2.028 -0.5595  2.5192 -1.7211
 2389SOL    HW218804   3.645   2.055   1.885  1.0538 -1.2429 -0.5108
 2390SOL     OW18805   3.080   2.903  10.563  0.0976 -0.4417  0.4842
 2390SOL    HW118806   3.103   2.954  10.640  1.0032 -2.9169  1.8394
 2390SOL    HW218807   3.139   2.828  10.568  2.0854  0.9062 -2.2135
 2391SOL     OW18808   1.090   4.140  11.722 -0.4114 -0.6603 -0.3248
 2391SOL    HW118809   1.164   4.173  11.670 -0.1614 -0.2249  0.3011
 2391SOL    HW218810   1.023   4.208  11.709 -1.4953 -1.6210  0.2612
 2392SOL     OW18811   4.229   2.839   0.752 -0.4119  0.0683 -0.1186
 2392SOL    HW118812   4.209   2.866   0.842 -0.5917 -1.8739  0.4193
 2392SOL    HW218813   4.280   2.761   0.771  1.5262  1.3638  0.0092
 2393SOL     OW18814   3.407   4.321   6.109 -0.4386 -0.0024 -0.2919
 2393SOL    HW118815   3.389   4.268   6.186 -2.6007  2.5069  0.8949
 2393SOL    HW218816   3.414   4.401   6.160  1.4953  0.9289 -2.0110
 2394SOL     OW18817   0.144   1.069  11.675  0.7030  0.3180 -0.2356
 2394SOL    HW118818   0.137   1.016  11.754  2.1352  0.4869  0.0030
 2394SOL    HW218819   0.192   1.147  11.705  2.3364 -1.3181  1.4099
 2395SOL     OW18820   1.171   1.620   8.219  0.1501 -0.4406  0.3476
 2395SOL    HW118821   1.261   1.629   8.248  1.1792 -2.3762 -2.2661
 2395SOL    HW218822   1.123   1.646   8.297  1.9328 -0.6520  1.5090
 2396SOL     OW18823   3.967   2.658  15.393  0.0683  0.4598  0.1971
 2396SOL    HW118824   3.883   2.612  15.385 -0.7294  1.9710 -0.2080
 2396SOL    HW218825   3.961   2.715  15.316  0.0434 -1.3965 -1.1751
 2397SOL     OW18826   2.593   2.899   2.759  0.0781 -0.1852 -0.0475
 2397SOL    HW118827   2.675   2.937   2.727 -0.1801 -0.4319 -1.0199
 2397SOL    HW218828   2.583   2.935   2.847  0.5148  1.8004 -0.8225
 2398SOL     OW18829   0.273   4.413   5.157  0.3908  0.0371  0.2110
 2398SOL    HW118830   0.364   4.397   5.130  0.1110 -0.4187 -0.4612
 2398SOL    HW218831   0.245   4.469   5.084 -0.9413 -0.2136  0.5366
 2399SOL     OW18832   2.561   4.536   1.317  0.3351 -0.1378 -0.1176
 2399SOL    HW118833   2.633   4.586   1.277 -1.2169  2.7504  0.7520
 2399SOL    HW218834   2.490   4.599   1.305 -0.4110 -1.3336 -1.9564
 2400SOL     OW18835   0.417   4.520   6.755 -0.1424 -0.5922  0.1716
 2400SOL    HW118836   0.347   4.477   6.706 -0.5713  0.2910  0.0068
 2400SOL    HW218837   0.498   4.512   6.704 -0.1145  1.9896 -0.1929
 2401SOL     OW18838   3.581   0.817   2.075  0.0736  0.0450  0.1325
 2401SOL    HW118839   3.605   0.739   2.026  1.0524  1.0852 -1.0480
 2401SOL    HW218840   3.593   0.886   2.010  1.0959 -3.2278 -3.1557
 2402SOL     OW18841   0.804   0.326  14.887 -0.7292 -0.1502 -0.2848
 2402SOL    HW118842   0.830   0.390  14.820  0.2194 -1.2002 -0.9329
 2402SOL    HW218843   0.725   0.366  14.922  0.9358  1.5502  1.4982
 2403SOL     OW18844   0.795   2.682   9.147  0.9232  0.1356  0.0754
 2403SOL    HW118845   0.710   2.688   9.192  0.6411  3.2353 -0.8837
 2403SOL    HW218846   0.767   2.736   9.073 -0.2102 -0.8408 -0.2121
 2404SOL     OW18847   0.895   1.331  14.580  0.4041 -0.0715 -0.4032
 2404SOL    HW118848   0.836   1.405  14.565 -0.5968 -0.5107  1.3153
 2404SOL    HW218849   0.861   1.299  14.664 -1.6101 -0.6158 -1.4385
 2405SOL     OW18850   4.445   0.705   2.821  0.6658  0.2158 -0.4393
 2405SOL    HW118851   4.476   0.712   2.731  0.2044  1.9688 -0.4568
 2405SOL    HW218852   4.376   0.640   2.819  1.5005 -0.6704 -0.3988
 2406SOL     OW18853   3.567   1.325   2.856 -0.8656  0.3020 -0.7716
 2406SOL    HW118854   3.595   1.274   2.931  1.5873  1.7358 -0.7016
 2406SOL    HW218855   3.611   1.277   2.786  1.2864  0.2570  0.6399
 2407SOL     OW18856   0.115   3.711   7.250  0.5622 -0.1344  0.0482
 2407SOL    HW118857   0.107   3.755   7.166  0.2419 -1.2435 -0.4934
 2407SOL    HW218858   0.208   3.728   7.264  0.6606  0.0981 -0.9488
 2408SOL     OW18859   4.401   2.840  14.705  0.1706 -0.1813  0.2781
 2408SOL    HW118860   4.394   2.768  14.767 -0.0681 -1.3325 -1.0921
 2408SOL    HW218861   4.347   2.910  14.741  0.2252 -0.0680  0.1416
 2409SOL     OW18862   1.969   3.304   7.006  0.0660 -0.1576 -0.4640
 2409SOL    HW118863   1.935   3.393   6.996  1.0887  0.3998  1.0482
 2409SOL    HW218864   1.931   3.262   6.929 -2.5705 -0.1671  0.8448
 2410SOL     OW18865   4.135   4.025   6.111 -0.2484 -0.3927 -0.1192
 2410SOL    HW118866   4.182   3.948   6.078 -0.4394 -0.2465 -0.7340
 2410SOL    HW218867   4.056   4.028   6.056 -1.2721 -0.2649  1.3712
 2411SOL     OW18868   1.629   3.656   6.707 -0.4942 -0.1288 -0.1412
 2411SOL    HW118869   1.567   3.595   6.668 -1.0667 -0.6604  1.6193
 2411SOL    HW218870   1.570   3.698   6.769 -2.2218  0.1560 -1.9960
 2412SOL     OW18871   0.410   1.206   8.113 -0.3830  0.0654 -0.4924
 2412SOL    HW118872   0.343   1.232   8.050 -0.4054 -2.9991 -1.7635
 2412SOL    HW218873   0.452   1.137   8.062 -0.2081 -1.0810  1.1883
 2413SOL     OW18874   1.784   1.006   8.751  0.3471 -0.3494  0.4451
 2413SOL    HW118875   1.730   0.978   8.825  4.0360 -1.0786  2.9046
 2413SOL    HW218876   1.869   1.013   8.795  0.3564 -1.2393  0.5711
 2414SOL     OW18877   3.547   3.680   2.106 -0.0990  0.2008 -0.4066
 2414SOL    HW118878   3.530   3.684   2.012 -1.5218 -3.0378 -0.2990
 2414SOL    HW218879   3.602   3.601   2.108 -4.0396 -2.5529  1.2009
 2415SOL     OW18880   1.818   4.500   2.769 -0.5072 -0.8237  0.0444
 2415SOL    HW118881   1.728   4.492   2.738 -0.7757 -1.6906  1.0296
 2415SOL    HW218882   1.831   4.592   2.793 -0.5646 -0.8268  0.0884
 2416SOL     OW18883   3.829   0.693   8.020  0.1251 -0.0417 -0.1662
 2416SOL    HW118884   3.897   0.646   7.973  1.2409 -0.1425  1.5907
 2416SOL    HW218885   3.766   0.622   8.032  1.1618 -1.1107 -1.1656
 2417SOL     OW18886   3.288   2.496  13.626 -0.4224  0.0137 -0.5404
 2417SOL    HW118887   3.369   2.484  13.674 -0.3594 -1.1611 -0.9618
 2417SOL    HW218888   3.305   2.567  13.565  3.7882  0.1094  0.7639
 2418SOL     OW18889   4.095   0.036   1.582  0.2719  0.1373 -0.1822
 2418SOL    HW118890   4.082   4.677   1.581  0.4795  0.1757 -4.4203
 2418SOL    HW218891   4.003   0.061   1.570 -0.4563 -2.1831  0.3977
 2419SOL     OW18892   0.472   3.831   3.602 -0.0498 -0.2545  0.7145
 2419SOL    HW118893   0.555   3.832   3.554 -0.7468  1.0228 -0.4750
 2419SOL    HW218894   0.413   3.839   3.527  0.3747 -3.9311 -0.0080
 2420SOL     OW18895   0.144   0.255   7.440 -0.3757 -0.0565 -0.4005
 2420SOL    HW118896   0.155   0.291   7.528  1.7609 -1.8210  0.0368
 2420SOL    HW218897   0.231   0.230   7.410 -0.0238  1.7754 -0.9158
 2421SOL     OW18898   1.548   1.199   4.382 -0.3238  0.2600  0.0515
 2421SOL    HW118899   1.487   1.270   4.404 -1.7260 -0.9258 -0.0314
 2421SOL    HW218900   1.628   1.249   4.365  1.4377 -2.5519  0.0948
 2422SOL     OW18901   1.976   1.700  14.497 -0.9193 -0.1813 -0.3741
 2422SOL    HW118902   1.916   1.752  14.444  0.8494  0.3917 -1.8252
 2422SOL    HW218903   1.945   1.714  14.587  0.5058  3.4392 -0.4858
 2423SOL     OW18904   1.310   4.710   2.733 -0.2572  0.3435  0.4524
 2423SOL    HW118905   1.306   0.023   2.651 -3.1289 -2.2010 -0.9395
 2423SOL    HW218906   1.331   0.051   2.786  0.5402  0.3884  0.0745
 2424SOL     OW18907   0.616   3.732   7.876  0.5878  0.5001 -0.4054
 2424SOL    HW118908   0.588   3.765   7.791 -1.1482 -0.5392 -0.2366
 2424SOL    HW218909   0.540   3.750   7.932  0.4348  0.2388 -0.5313
 2425SOL     OW18910   3.449   1.196  15.198  0.3202  0.2651  0.0911
 2425SOL    HW118911   3.363   1.154  15.193 -0.1273  1.5455 -2.8004
 2425SOL    HW218912   3.421   1.286  15.191  0.2957  0.2728  0.2760
 2426SOL     OW18913   2.434   0.557  12.996  0.7142  0.5893 -0.1045
 2426SOL    HW118914   2.415   0.463  12.995  1.3500  0.4623 -0.9177
 2426SOL    HW218915   2.506   0.574  12.935  0.6617 -0.1927 -0.3854
 2427SOL     OW18916   4.692   4.717   8.318 -0.3426 -0.2213 -0.1697
 2427SOL    HW118917   0.046   4.733   8.290  0.3076 -2.3914  0.6307
 2427SOL    HW218918   4.709   4.708   8.411 -1.6313  0.3236  0.1151
 2428SOL     OW18919   1.143   4.018   1.690  0.4085  0.1837  0.6578
 2428SOL    HW118920   1.077   4.085   1.671  1.2516  0.3712 -1.6519
 2428SOL    HW218921   1.087   3.943   1.668  1.1794 -0.0732 -0.4399
 2429SOL     OW18922   3.981   1.139   7.861 -0.0947  0.1706 -0.8079
 2429SOL    HW118923   3.918   1.115   7.793 -0.8716  0.2280 -0.1176
 2429SOL    HW218924   3.955   1.230   7.876  0.7042  0.2521  0.0772
 2430SOL     OW18925   0.399   1.873   6.482 -0.9009  0.0710 -0.0794
 2430SOL    HW118926   0.439   1.801   6.433 -1.3431 -1.4050  1.7080
 2430SOL    HW218927   0.313   1.836   6.501  0.4324 -2.2376  1.4255
 2431SOL     OW18928   4.375   1.615   7.965  0.0263 -0.1609  0.0292
 2431SOL    HW118929   4.298   1.671   7.980  0.6723  0.7671 -0.1172
 2431SOL    HW218930   4.353   1.546   8.028 -1.1891 -1.1927 -1.5268
 2432SOL     OW18931   2.617   0.575   4.801 -0.2636  0.7011 -0.1288
 2432SOL    HW118932   2.702   0.603   4.766 -1.3791  1.9223 -1.8335
 2432SOL    HW218933   2.552   0.642   4.780 -1.8038 -0.8076 -0.2022
 2433SOL     OW18934   0.606   3.910   8.895 -0.7412 -0.4215 -0.0103
 2433SOL    HW118935   0.552   3.831   8.898 -0.8699 -0.4028 -1.9476
 2433SOL    HW218936   0.607   3.913   8.799  1.8351 -0.8003  0.0240
 2434SOL     OW18937   1.306   3.485   0.422 -0.4663  0.1868 -0.2881
 2434SOL    HW118938   1.290   3.556   0.484  2.8130  1.0530 -0.4713
 2434SOL    HW218939   1.394   3.454   0.443 -0.6671 -1.0966 -1.3135
 2435SOL     OW18940   0.227   1.539  10.817 -0.2115  0.5117  0.0957
 2435SOL    HW118941   0.258   1.615  10.766 -1.6372  0.2095 -1.2085
 2435SOL    HW218942   0.279   1.553  10.896  0.7353 -0.5414 -0.3340
 2436SOL     OW18943   3.939   3.161   3.650 -0.1894 -0.2814  0.5496
 2436SOL    HW118944   3.850   3.193   3.636  1.5228  3.0511 -2.6877
 2436SOL    HW218945   3.918   3.073   3.681 -0.0355 -1.2751 -2.1482
 2437SOL     OW18946   3.751   3.906   7.481  0.4609  0.0750  0.0181
 2437SOL    HW118947   3.671   3.928   7.530  0.4265 -1.1451  0.5244
 2437SOL    HW218948   3.741   3.959   7.402 -2.5892  1.1423  1.0858
 2438SOL     OW18949   1.354   3.745  13.169 -0.2894  0.3521  0.2222
 2438SOL    HW118950   1.310   3.816  13.122 -0.8312  0.9551  1.6347
 2438SOL    HW218951   1.307   3.663  13.153 -0.4309 -0.2058  3.5592
 2439SOL     OW18952   0.957   2.614   7.308  0.0565  0.1542 -0.6624
 2439SOL    HW118953   0.952   2.667   7.387  0.8323  1.3176 -1.3922
 2439SOL    HW218954   0.924   2.674   7.241 -3.7409 -0.5513  0.5990
 2440SOL     OW18955   2.290   3.277  13.800  0.3353  0.3739  0.3883
 2440SOL    HW118956   2.321   3.187  13.811 -2.8549 -0.8226 -0.2628
 2440SOL    HW218957   2.369   3.314  13.762 -0.7770  0.7557 -1.5409
 2441SOL     OW18958   4.477   3.329   4.933  0.0972  0.6083 -0.3322
 2441SOL    HW118959   4.456   3.302   5.022  1.6739  2.4838  0.6332
 2441SOL    HW218960   4.461   3.249   4.883 -2.7781  0.7765  0.3395
 2442SOL     OW18961   0.093   1.726   7.784  0.1976  0.0781  1.0682
 2442SOL    HW118962   0.050   1.682   7.711 -0.5015  1.6823  0.5163
 2442SOL    HW218963   0.026   1.710   7.850  0.1018  0.8274  1.1539
 2443SOL     OW18964   2.304   2.390  17.484  0.2252  0.7316  0.4825
 2443SOL    HW118965   2.250   2.448  17.431 -1.4406  0.7691  2.2192
 2443SOL    HW218966   2.277   2.414  17.573 -1.5909  0.5475 -0.0314
 2444SOL     OW18967   1.717   0.774   8.136 -0.1417  0.0889 -0.5744
 2444SOL    HW118968   1.732   0.850   8.080  2.8559  0.1943  0.4016
 2444SOL    HW218969   1.794   0.783   8.192 -0.0631  1.4987 -0.9034
 2445SOL     OW18970   3.173   1.654   6.897 -0.2896  0.2336  0.0841
 2445SOL    HW118971   3.204   1.700   6.818  0.3967 -0.7934 -0.2335
 2445SOL    HW218972   3.193   1.717   6.966 -0.0501  0.9409 -0.6245
 2446SOL     OW18973   0.922   3.502   5.044  1.0852 -0.0193 -0.7050
 2446SOL    HW118974   1.001   3.556   5.046  1.0542 -0.0110  0.4353
 2446SOL    HW218975   0.926   3.470   5.134 -0.9042 -0.6415 -0.8408
 2447SOL     OW18976   0.258   3.859   5.054  0.4419 -0.1308  0.5081
 2447SOL    HW118977   0.246   3.878   4.961 -2.2224 -3.4060  0.2211
 2447SOL    HW218978   0.183   3.910   5.086  0.4623 -0.0357  0.4049
 2448SOL     OW18979   4.644   3.474  15.725  0.3076 -0.0564  0.1846
 2448SOL    HW118980   4.558   3.489  15.687  0.6512 -0.0708 -0.5945
 2448SOL    HW218981   4.695   3.487  15.645  0.1988 -0.6177  0.0204
 2449SOL     OW18982   2.182   4.207   3.288 -0.6118  0.1525  0.2674
 2449SOL    HW118983   2.155   4.122   3.255  1.2826 -0.6020  0.6612
 2449SOL    HW218984   2.121   4.227   3.359 -1.1905  2.2356 -0.8070
 2450SOL     OW18985   4.691   1.059  16.900 -0.1096 -0.3527  0.6685
 2450SOL    HW118986   4.648   1.036  16.818  0.9127 -2.4167  0.7234
 2450SOL    HW218987   4.708   1.153  16.906 -1.0741 -0.1937  1.0272
 2451SOL     OW18988   4.350   4.583   3.525 -0.5552  0.0465 -0.2167
 2451SOL    HW118989   4.370   4.677   3.530  0.2073 -0.0887 -0.7432
 2451SOL    HW218990   4.386   4.555   3.609 -0.4382  0.5936 -0.0814
 2452SOL     OW18991   1.772   3.960   2.104 -0.0223 -0.4125  0.3817
 2452SOL    HW118992   1.783   3.898   2.032 -1.2828  1.1262 -1.1327
 2452SOL    HW218993   1.779   4.041   2.054 -0.3774  1.3613  3.2157
 2453SOL     OW18994   2.752   0.385   8.012 -0.1416 -0.2601 -0.0212
 2453SOL    HW118995   2.773   0.430   8.094 -0.9414 -0.1610  0.1255
 2453SOL    HW218996   2.750   0.292   8.033 -2.6299 -0.4809 -1.3029
 2454SOL     OW18997   1.150   0.227   7.033  0.5181  0.4540  0.9135
 2454SOL    HW118998   1.134   0.133   7.027  0.6396  0.4910  0.0550
 2454SOL    HW218999   1.214   0.237   6.964 -0.2596 -1.8354 -0.1291
 2455SOL     OW19000   4.266   2.737   5.132  0.9563 -0.5150 -0.5773
 2455SOL    HW119001   4.326   2.679   5.178 -2.4419 -1.8683  2.1208
 2455SOL    HW219002   4.243   2.685   5.055  0.5486 -0.3431 -0.5757
 2456SOL     OW19003   4.371   0.841  11.195 -0.0948  0.3334  0.1626
 2456SOL    HW119004   4.282   0.807  11.185 -0.5154  2.3182 -2.5850
 2456SOL    HW219005   4.415   0.757  11.186 -2.5298 -0.9042 -0.2046
 2457SOL     OW19006   0.770   1.118   7.465  0.2273 -0.6270  0.0305
 2457SOL    HW119007   0.809   1.180   7.526 -1.4662 -0.4509  0.9489
 2457SOL    HW219008   0.675   1.126   7.479  0.2361  1.2760 -0.8446
 2458SOL     OW19009   0.394   1.953   7.835 -0.2732  0.3182 -0.5734
 2458SOL    HW119010   0.487   1.942   7.852 -0.8926  0.7220  3.0290
 2458SOL    HW219011   0.359   1.889   7.897 -0.8993  0.6925 -0.5425
 2459SOL     OW19012   4.045   1.905   3.596  0.3327 -0.0567 -0.0606
 2459SOL    HW119013   3.950   1.906   3.590  0.2344 -2.1744  1.1909
 2459SOL    HW219014   4.069   1.971   3.660  0.8402  0.0839 -0.3951
 2460SOL     OW19015   0.812   4.674  14.113 -0.0041 -0.4856  0.1413
 2460SOL    HW119016   0.740   4.618  14.142  0.0850  0.2304  1.7550
 2460SOL    HW219017   0.786   0.022  14.151 -0.8572 -0.6536 -0.0586
 2461SOL     OW19018   1.837   3.340   8.864  0.5584 -0.5026  0.2053
 2461SOL    HW119019   1.865   3.336   8.773  1.4004  0.8692  0.3980
 2461SOL    HW219020   1.915   3.374   8.909 -0.2005 -0.1871  1.2744
 2462SOL     OW19021   0.019   2.162   2.996  0.5758  0.0845 -0.1791
 2462SOL    HW119022   0.071   2.230   2.953 -0.4028  0.0787 -1.3573
 2462SOL    HW219023   4.728   2.208   3.075  1.7175  0.4440  0.0159
 2463SOL     OW19024   2.705   2.987  15.225  0.4192 -0.1413 -0.0644
 2463SOL    HW119025   2.712   3.062  15.166 -0.3017 -0.2430 -0.2780
 2463SOL    HW219026   2.744   3.028  15.302 -1.4039  1.2340  0.1307
 2464SOL     OW19027   2.656   1.968   6.884  0.1619  0.1719 -0.5629
 2464SOL    HW119028   2.638   1.918   6.964  0.3068  1.8634  0.5124
 2464SOL    HW219029   2.669   2.056   6.919 -1.5624  0.9813 -1.9874
 2465SOL     OW19030   0.271   0.992   3.536  0.5868 -0.0261  0.8889
 2465SOL    HW119031   0.338   0.964   3.474 -1.5890 -2.6282 -0.3129
 2465SOL    HW219032   0.239   0.909   3.573 -1.0792  0.2436  0.0742
 2466SOL     OW19033   3.258   0.117   6.865  0.3998 -0.1329 -0.2541
 2466SOL    HW119034   3.173   0.080   6.888  1.4501 -1.0129  2.2758
 2466SOL    HW219035   3.287   0.073   6.785  0.7032  1.4645 -1.0111
 2467SOL     OW19036   1.464   3.711  15.197 -0.2488  0.1380  0.1403
 2467SOL    HW119037   1.498   3.656  15.127 -1.4342  1.1890 -1.2575
 2467SOL    HW219038   1.501   3.664  15.272 -1.5008 -1.0371  0.0153
 2468SOL     OW19039   0.507   4.374  16.137  0.3775 -0.1599  0.1443
 2468SOL    HW119040   0.539   4.438  16.201 -2.1096  0.2044  1.0542
 2468SOL    HW219041   0.589   4.338  16.105 -0.4031  0.0057 -2.0350
 2469SOL     OW19042   2.950   4.177   8.635 -0.1671 -0.3513 -0.1803
 2469SOL    HW119043   2.995   4.093   8.624 -2.4313 -1.6832  0.7333
 2469SOL    HW219044   2.950   4.207   8.545  0.1679  2.0485  0.6091
 2470SOL     OW19045   0.044   0.678   6.851  0.6170 -0.2395  0.0132
 2470SOL    HW119046   0.072   0.758   6.894  0.2759 -0.6568  1.0223
 2470SOL    HW219047   0.085   0.696   6.767 -1.2257  0.2903 -0.7793
 2471SOL     OW19048   4.150   0.698   9.057 -0.3497  0.4714 -0.2743
 2471SOL    HW119049   4.057   0.714   9.074 -0.0471  1.7899  0.0968
 2471SOL    HW219050   4.193   0.731   9.136  0.7262 -1.1120 -0.1863
 2472SOL     OW19051   1.352   2.801   8.495  0.0900  0.0518 -0.0341
 2472SOL    HW119052   1.403   2.872   8.534 -1.4298 -0.6232  3.1874
 2472SOL    HW219053   1.425   2.774   8.440 -0.5766 -1.0449 -0.3734
 2473SOL     OW19054   2.131   0.504  12.302  0.5605 -0.2021 -0.2095
 2473SOL    HW119055   2.086   0.435  12.352  2.6463 -0.5336  1.2100
 2473SOL    HW219056   2.222   0.488  12.330 -0.7395 -0.3465  3.9174
 2474SOL     OW19057   3.040   0.269  10.996 -0.1212  0.2907  0.0167
 2474SOL    HW119058   2.994   0.296  10.917  2.9384 -0.4722 -2.0206
 2474SOL    HW219059   3.077   0.350  11.032  0.9229 -0.6708  1.1016
 2475SOL     OW19060   3.852   2.060   1.227  0.2854  0.3461  0.5685
 2475SOL    HW119061   3.932   2.089   1.183 -0.2826  3.6719  1.7135
 2475SOL    HW219062   3.788   2.051   1.156  1.3854  0.2304 -0.4144
 2476SOL     OW19063   3.123   1.283   8.440 -0.2622  0.7216 -0.2513
 2476SOL    HW119064   3.152   1.216   8.502 -0.3126  0.4041 -0.5683
 2476SOL    HW219065   3.201   1.301   8.387 -0.6783  0.5279 -0.9255
 2477SOL     OW19066   1.625   3.675  12.479  0.2734  0.5658  0.1644
 2477SOL    HW119067   1.552   3.617  12.457  2.0360 -1.5054 -0.3183
 2477SOL    HW219068   1.679   3.662  12.401 -0.4526  1.1802 -0.4309
 2478SOL     OW19069   0.856   2.924   3.930 -0.7254 -0.2710  0.4249
 2478SOL    HW119070   0.809   3.007   3.923 -0.8251 -0.4698 -1.3905
 2478SOL    HW219071   0.947   2.934   3.901 -0.8768 -0.4416 -0.1240
 2479SOL     OW19072   0.596   1.398  15.708 -0.4783  0.2063  0.2955
 2479SOL    HW119073   0.515   1.364  15.746 -2.0110  1.6181 -1.7333
 2479SOL    HW219074   0.656   1.376  15.780 -1.5422 -0.0613  1.1182
 2480SOL     OW19075   3.599   2.111   2.919  0.1201 -0.3681  0.2428
 2480SOL    HW119076   3.590   2.180   2.984  1.0272  1.0268 -1.1061
 2480SOL    HW219077   3.681   2.139   2.878  0.0685  1.7036  1.5844
 2481SOL     OW19078   2.854   0.463   1.944 -0.0416  0.1786  0.3461
 2481SOL    HW119079   2.868   0.535   2.006 -0.4425  1.5125 -1.0966
 2481SOL    HW219080   2.759   0.460   1.954  0.0473 -0.8448  0.7915
 2482SOL     OW19081   0.288   4.086   5.442 -0.0422 -0.0594  0.2804
 2482SOL    HW119082   0.374   4.055   5.412 -0.4764 -1.8320  0.8727
 2482SOL    HW219083   0.301   4.098   5.537 -1.5957  0.0196  0.4758
 2483SOL     OW19084   3.379   3.088   6.268 -0.3711 -1.2054  0.0039
 2483SOL    HW119085   3.458   3.112   6.316 -1.2671  0.3792  0.6853
 2483SOL    HW219086   3.316   3.151   6.301  0.7324  0.2075 -0.5972
 2484SOL     OW19087   3.312   3.517   6.048  0.0174 -0.1108  0.0607
 2484SOL    HW119088   3.397   3.482   6.020  0.2775 -0.3309  1.1247
 2484SOL    HW219089   3.260   3.438   6.055  0.6711 -0.5321  0.1674
 2485SOL     OW19090   1.682   0.070   9.685  0.0065 -0.0150 -0.2907
 2485SOL    HW119091   1.716   0.089   9.773  1.0505 -0.4382 -0.5978
 2485SOL    HW219092   1.604   0.125   9.690 -0.4242 -0.7956  1.8379
 2486SOL     OW19093   3.805   0.147   6.413  0.3821  0.0277  0.0691
 2486SOL    HW119094   3.848   0.109   6.489  1.1253 -0.3419 -0.5364
 2486SOL    HW219095   3.876   0.153   6.349  0.4810  2.0085  0.3532
 2487SOL     OW19096   1.531   3.484  15.384  0.8150  0.0309  0.2669
 2487SOL    HW119097   1.502   3.490  15.475 -0.4369  0.5208 -0.1694
 2487SOL    HW219098   1.626   3.478  15.399  1.0586  2.8653 -0.1361
 2488SOL     OW19099   4.265   0.705   2.037  0.1406 -0.3456  0.1687
 2488SOL    HW119100   4.263   0.619   1.995 -0.8669  1.2675 -3.0390
 2488SOL    HW219101   4.251   0.764   1.963  3.0617 -1.8351 -1.5855
 2489SOL     OW19102   3.296   0.304   6.140 -0.1842  0.2221  0.1683
 2489SOL    HW119103   3.252   0.348   6.067 -2.1236 -0.0875  1.1624
 2489SOL    HW219104   3.228   0.240   6.161 -0.2569  0.5662  0.9589
 2490SOL     OW19105   1.187   2.062   3.836 -0.3351  0.3027 -0.4234
 2490SOL    HW119106   1.238   2.057   3.917 -1.4223  0.9857  0.2920
 2490SOL    HW219107   1.096   2.072   3.862  0.0317 -0.3948  1.1259
 2491SOL     OW19108   1.988   1.391   3.358 -0.3683  0.8177 -0.1708
 2491SOL    HW119109   1.992   1.429   3.270 -0.8633  1.3345  0.0248
 2491SOL    HW219110   2.041   1.445   3.416 -0.1280  0.8043 -0.3773
 2492SOL     OW19111   3.075   3.312   4.923 -0.6381  0.2126  0.2844
 2492SOL    HW119112   3.164   3.349   4.917 -0.1215 -0.9223  0.9618
 2492SOL    HW219113   3.028   3.358   4.853  0.2355  2.5520  1.2136
 2493SOL     OW19114   2.479   3.631   7.609  0.0237  0.1885 -0.4072
 2493SOL    HW119115   2.490   3.650   7.702  0.9708 -1.2837 -0.2310
 2493SOL    HW219116   2.563   3.667   7.578  1.0017 -0.4206  1.5228
 2494SOL     OW19117   0.846   2.882  16.306  0.2063  0.3120  0.3292
 2494SOL    HW119118   0.803   2.828  16.239  0.0576 -0.0831  0.7412
 2494SOL    HW219119   0.804   2.965  16.286  0.0109 -0.1803 -1.3244
 2495SOL     OW19120   1.284   0.738  14.109 -0.1421 -0.4084 -0.2435
 2495SOL    HW119121   1.303   0.743  14.016  0.4237 -0.8836 -0.1525
 2495SOL    HW219122   1.318   0.653  14.136  0.4966  0.6219  2.1690
 2496SOL     OW19123   1.329   3.671  13.454 -1.1321  0.0583 -0.1052
 2496SOL    HW119124   1.349   3.695  13.364 -0.6479  0.9449  0.2274
 2496SOL    HW219125   1.342   3.757  13.494  0.9102 -0.4382  0.3056
 2497SOL     OW19126   2.948   1.195   8.247 -0.1465  0.0841 -0.2117
 2497SOL    HW119127   3.023   1.224   8.299 -0.4122 -1.2037  0.8939
 2497SOL    HW219128   2.883   1.184   8.316 -1.0676 -2.6311 -1.4999
 2498SOL     OW19129   1.813   0.144  14.845  0.6054 -0.7103  0.0629
 2498SOL    HW119130   1.725   0.176  14.824  0.0581 -0.1092  3.2993
 2498SOL    HW219131   1.791   0.084  14.916  1.5541 -1.2283 -0.0785
 2499SOL     OW19132   4.341   2.645  14.890 -0.3703 -0.0675 -0.1387
 2499SOL    HW119133   4.260   2.678  14.929  0.2927 -0.7086  1.7840
 2499SOL    HW219134   4.378   2.610  14.971 -0.8478  0.2653  0.2175
 2500SOL     OW19135   3.757   3.648   7.528 -0.1464 -0.3012  0.6974
 2500SOL    HW119136   3.691   3.620   7.464  0.0363  0.1379  0.3149
 2500SOL    HW219137   3.762   3.741   7.509  1.2497 -0.4975  0.1464
 2501SOL     OW19138   0.816   3.819  13.695  0.0415  0.2714 -0.1145
 2501SOL    HW119139   0.801   3.847  13.605 -1.9893 -0.9448 -0.1704
 2501SOL    HW219140   0.760   3.741  13.702 -0.1412  0.4063 -0.0815
 2502SOL     OW19141   0.846   2.869   3.176 -0.7326 -0.1346 -0.4757
 2502SOL    HW119142   0.859   2.819   3.096 -0.6085 -1.9663  0.6852
 2502SOL    HW219143   0.778   2.929   3.147 -1.1127 -1.8500 -3.1451
 2503SOL     OW19144   0.206   1.131  17.240  0.4259 -0.5954  0.0015
 2503SOL    HW119145   0.268   1.134  17.167 -0.6017  0.0334 -0.8354
 2503SOL    HW219146   0.264   1.084  17.301  1.6517  1.5538  0.5127
 2504SOL     OW19147   1.209   2.481   4.050 -0.0589  0.3084  0.6473
 2504SOL    HW119148   1.186   2.428   3.974 -0.4160 -0.1697  1.0817
 2504SOL    HW219149   1.133   2.540   4.054  0.4456  1.0190 -0.5619
 2505SOL     OW19150   3.641   4.337   6.987 -0.4670  0.6021 -0.1155
 2505SOL    HW119151   3.576   4.370   7.049  0.3368 -1.0750  1.6241
 2505SOL    HW219152   3.583   4.341   6.911  0.2028 -1.5326 -0.7418
 2506SOL     OW19153   0.896   2.387   7.190 -0.5113  0.3615  0.0878
 2506SOL    HW119154   0.895   2.463   7.249  3.5761  1.4890 -1.2870
 2506SOL    HW219155   0.987   2.358   7.195 -0.5665  0.2532  0.4697
 2507SOL     OW19156   2.140   0.308   5.919 -0.4238 -0.1636 -0.5948
 2507SOL    HW119157   2.152   0.319   6.014  0.3499  3.5307 -1.1135
 2507SOL    HW219158   2.080   0.379   5.896  1.1208  1.0610 -0.8522
 2508SOL     OW19159   0.424   0.813  16.093  0.2523 -0.4640  0.1830
 2508SOL    HW119160   0.410   0.907  16.084  3.3702  0.0977  1.1018
 2508SOL    HW219161   0.338   0.785  16.126  0.5952 -1.8720 -0.1192
 2509SOL     OW19162   1.085   3.839   6.130 -0.1479 -0.1715 -0.2295
 2509SOL    HW119163   1.035   3.794   6.199 -1.1549  0.9880 -0.1913
 2509SOL    HW219164   1.057   3.786   6.056 -0.0239 -0.8856  0.2435
 2510SOL     OW19165   4.617   3.282   4.292  0.1554 -0.1328  0.3104
 2510SOL    HW119166   4.683   3.279   4.223 -1.1312 -0.2470 -0.9214
 2510SOL    HW219167   4.651   3.252   4.376 -0.3512 -0.2018  0.4910
 2511SOL     OW19168   0.688   4.650   5.668  0.3285 -0.8537 -0.0760
 2511SOL    HW119169   0.686   4.678   5.577 -1.5799 -0.2584  0.1597
 2511SOL    HW219170   0.705   4.556   5.666  1.0139 -0.7184 -0.6830
 2512SOL     OW19171   3.732   1.714   2.251  0.4808 -0.1210  0.5952
 2512SOL    HW119172   3.705   1.653   2.182 -2.2126  1.2385  0.4563
 2512SOL    HW219173   3.664   1.703   2.318 -0.5277  0.8361 -0.2829
 2513SOL     OW19174   0.114   2.855   5.851 -0.2606  0.0247 -0.1697
 2513SOL    HW119175   0.054   2.920   5.814 -1.3310 -0.9998 -0.2504
 2513SOL    HW219176   0.191   2.853   5.794  0.0890  1.7384  0.2415
 2514SOL     OW19177   2.517   3.195   7.674 -0.0281 -0.4380 -0.0689
 2514SOL    HW119178   2.492   3.177   7.584  2.2590 -0.8980 -0.6190
 2514SOL    HW219179   2.533   3.106   7.705  1.9029 -0.5018 -1.2041
 2515SOL     OW19180   1.836   4.519   9.439 -0.1109  0.5600 -0.6136
 2515SOL    HW119181   1.902   4.546   9.502  1.2257  0.1749 -1.8673
 2515SOL    HW219182   1.790   4.603   9.434  0.4245  0.7987 -1.5326
 2516SOL     OW19183   0.780   3.568   2.485  0.0551 -0.2156  0.1751
 2516SOL    HW119184   0.866   3.539   2.453  0.3765  0.4430  0.4321
 2516SOL    HW219185   0.723   3.493   2.504  1.0125 -1.1398 -0.5974
 2517SOL     OW19186   1.459   0.738   1.975 -0.1288  0.0503  0.0075
 2517SOL    HW119187   1.402   0.701   2.042  0.7906 -0.4353  0.5152
 2517SOL    HW219188   1.526   0.670   1.976 -0.9400 -0.7768 -1.5086
 2518SOL     OW19189   3.213   1.079  15.149 -0.0551  0.2905 -0.0803
 2518SOL    HW119190   3.135   1.104  15.099  2.4428  4.0083 -2.1731
 2518SOL    HW219191   3.203   0.984  15.145  2.7319 -0.0111 -0.1182
 2519SOL     OW19192   3.088   3.947   8.529  0.1030  0.1018 -0.1095
 2519SOL    HW119193   3.151   3.876   8.543 -1.1872 -0.9618  0.3357
 2519SOL    HW219194   3.128   3.988   8.453  1.9538  0.3029  0.9741
 2520SOL     OW19195   1.207   2.577   2.780 -0.0173  0.0092 -0.6041
 2520SOL    HW119196   1.149   2.520   2.829 -0.2231  0.1886 -0.6417
 2520SOL    HW219197   1.277   2.555   2.841 -1.0792  2.7295  1.5889
 2521SOL     OW19198   2.241   3.769  11.889 -0.3349 -0.2337 -0.5211
 2521SOL    HW119199   2.284   3.693  11.849  1.3592 -0.7036  2.1748
 2521SOL    HW219200   2.288   3.836  11.839 -0.8509 -0.7783 -1.7556
 2522SOL     OW19201   3.842   4.093   1.587 -0.1708 -0.1895 -0.4898
 2522SOL    HW119202   3.809   4.155   1.523  0.5247 -0.0966 -0.7542
 2522SOL    HW219203   3.794   4.108   1.668 -0.2551  0.5640 -0.6841
 2523SOL     OW19204   2.748   4.088  13.734  0.2473 -0.5544  0.0335
 2523SOL    HW119205   2.843   4.089  13.731  0.1589  2.0189 -1.8474
 2523SOL    HW219206   2.721   4.178  13.717  2.6243 -0.2281 -1.8841
 2524SOL     OW19207   0.044   4.572  12.569  0.4309  0.8205  0.0679
 2524SOL    HW119208   0.020   4.537  12.484 -0.5156  3.2162 -0.6514
 2524SOL    HW219209   4.704   4.553  12.623  1.0345 -0.2928  0.5306
 2525SOL     OW19210   0.218   3.398   0.474  0.3225  0.0736 -0.3127
 2525SOL    HW119211   0.177   3.376   0.390  1.3328 -1.0564 -0.5176
 2525SOL    HW219212   0.161   3.471   0.498  1.6701  0.9542  0.2199
 2526SOL     OW19213   3.526   1.925   5.293  0.2742 -0.4792  0.1892
 2526SOL    HW119214   3.580   1.847   5.279 -0.3546 -1.0053  0.6863
 2526SOL    HW219215   3.520   1.927   5.388 -2.1508  1.5116 -0.0155
 2527SOL     OW19216   0.238   3.785  11.823  0.7845 -0.1061 -0.2256
 2527SOL    HW119217   0.144   3.806  11.827  0.6782 -0.1296 -2.4420
 2527SOL    HW219218   0.235   3.695  11.857 -0.1815  0.3353  0.8481
 2528SOL     OW19219   0.483   4.531  12.033  0.3772  0.2222 -0.7770
 2528SOL    HW119220   0.470   4.589  11.958 -0.9717 -1.3933 -1.7870
 2528SOL    HW219221   0.396   4.529  12.073 -0.2190 -2.1082 -2.2160
 2529SOL     OW19222   2.146   1.476   8.706  0.3137 -0.1060 -0.2360
 2529SOL    HW119223   2.127   1.383   8.698 -1.4397  0.2563 -0.3544
 2529SOL    HW219224   2.160   1.499   8.615  1.5011  2.3118  0.5642
 2530SOL     OW19225   0.552   2.250   7.616 -0.2122  0.3200  0.2180
 2530SOL    HW119226   0.503   2.331   7.609 -0.0512  0.0504 -4.1109
 2530SOL    HW219227   0.512   2.215   7.696  1.3894 -1.1304  0.3930
 2531SOL     OW19228   3.044   3.050   3.702 -0.6068 -0.6774 -0.1212
 2531SOL    HW119229   3.120   2.997   3.729 -0.3632 -0.6868 -0.8076
 2531SOL    HW219230   3.023   3.018   3.614 -0.5026 -0.8939 -0.0685
 2532SOL     OW19231   3.521   3.893   2.995 -0.2622 -0.3826 -0.1275
 2532SOL    HW119232   3.521   3.941   2.912 -0.4521  0.0978  0.1513
 2532SOL    HW219233   3.434   3.857   3.006 -0.6357  0.5058 -0.1576
 2533SOL     OW19234   0.340   0.558   3.898 -0.1645 -0.6162 -0.0459
 2533SOL    HW119235   0.325   0.560   3.804  0.5696  1.3275 -0.1250
 2533SOL    HW219236   0.253   0.568   3.936  0.8159  3.9521  1.0346
 2534SOL     OW19237   1.753   3.656   6.476 -0.3408 -0.1207 -0.6855
 2534SOL    HW119238   1.674   3.688   6.431  0.9809  0.2820 -2.7187
 2534SOL    HW219239   1.727   3.684   6.564  2.3326  1.2824 -0.3504
 2535SOL     OW19240   0.603   3.915  13.189  0.3485 -0.6032  0.2143
 2535SOL    HW119241   0.574   4.004  13.168  0.3154 -0.6524  0.0533
 2535SOL    HW219242   0.520   3.882  13.223  1.1812 -0.5085  2.3592
 2536SOL     OW19243   2.187   2.712  13.932 -0.3864  0.0208 -0.2302
 2536SOL    HW119244   2.165   2.629  13.888 -0.9445  0.0332  0.0364
 2536SOL    HW219245   2.138   2.705  14.013  0.0619 -1.1839 -0.0638
 2537SOL     OW19246   3.832   0.493   5.590  0.1356  0.3619 -0.0853
 2537SOL    HW119247   3.879   0.494   5.507  0.2322  1.4817 -0.0109
 2537SOL    HW219248   3.774   0.417   5.579 -0.0993  0.7182 -1.2800
 2538SOL     OW19249   0.997   1.043   0.943  0.5681  0.0149  0.4877
 2538SOL    HW119250   1.055   1.090   0.883  0.2783  1.3209  1.2363
 2538SOL    HW219251   0.923   1.101   0.961 -0.8026 -1.3867 -0.6777
 2539SOL     OW19252   4.152   4.163   2.537 -0.8550 -0.3831 -1.0025
 2539SOL    HW119253   4.207   4.148   2.459  0.2892 -0.7255 -0.1300
 2539SOL    HW219254   4.200   4.103   2.594 -0.3828  0.2767 -0.7077
 2540SOL     OW19255   2.738   3.508   6.180 -0.2215 -0.3802  0.0868
 2540SOL    HW119256   2.719   3.581   6.239 -0.5653 -1.6890  1.6097
 2540SOL    HW219257   2.756   3.548   6.095  0.7876 -1.5440 -0.2561
 2541SOL     OW19258   3.699   1.223   2.645  0.0221 -0.4301 -0.3494
 2541SOL    HW119259   3.713   1.137   2.605  1.5708 -0.8849  1.1731
 2541SOL    HW219260   3.633   1.257   2.585  3.2708 -0.0002 -3.6822
 2542SOL     OW19261   2.162   1.104   3.478 -1.0448  0.0832 -0.1912
 2542SOL    HW119262   2.187   1.024   3.525  0.5187  1.5252  1.4341
 2542SOL    HW219263   2.069   1.115   3.500 -1.1528 -3.6531  1.2766
 2543SOL     OW19264   0.338   3.106  16.522  0.3438 -0.6545  0.0779
 2543SOL    HW119265   0.372   3.016  16.526 -0.0512 -0.7049  2.1781
 2543SOL    HW219266   0.416   3.147  16.483  0.4106 -2.2541 -1.4769
 2544SOL     OW19267   0.110   2.427   8.227  0.0079  0.3125 -0.1007
 2544SOL    HW119268   0.200   2.395   8.221  0.5430  1.5537  1.4725
 2544SOL    HW219269   0.073   2.370   8.295 -2.7171  1.2529 -0.7796
 2545SOL     OW19270   2.530   2.947   3.048  0.6175  0.1473  0.1736
 2545SOL    HW119271   2.570   2.878   3.102 -0.9075 -1.1531 -0.3849
 2545SOL    HW219272   2.449   2.910   3.014  0.5202 -0.9549  1.6127
 2546SOL     OW19273   2.425   0.793  16.477 -0.4433  0.3993  0.1492
 2546SOL    HW119274   2.394   0.830  16.559  0.6280  1.0812  0.2438
 2546SOL    HW219275   2.407   0.703  16.504 -0.5403  0.9058  1.7403
 2547SOL     OW19276   1.972   4.590   8.562 -0.2084  0.0917  0.0111
 2547SOL    HW119277   2.048   4.563   8.511 -0.5004 -0.1278 -0.3119
 2547SOL    HW219278   2.018   4.659   8.609  2.8256 -2.4852  0.7822
 2548SOL     OW19279   2.822   4.462  14.873 -0.5405  0.2907  0.3502
 2548SOL    HW119280   2.771   4.516  14.812 -3.9007 -0.8081  2.2155
 2548SOL    HW219281   2.911   4.473  14.840 -0.3372  2.7445  1.7934
 2549SOL     OW19282   3.521   4.243   9.010  0.3264 -0.0302 -0.1859
 2549SOL    HW119283   3.612   4.220   8.995 -0.2391 -1.4654 -1.3702
 2549SOL    HW219284   3.520   4.313   8.945 -2.3209 -0.0742 -0.2209
 2550SOL     OW19285   0.942   1.388   4.177  0.4501 -0.6646  0.0229
 2550SOL    HW119286   0.915   1.347   4.095 -0.7588 -2.8580  1.5026
 2550SOL    HW219287   0.972   1.474   4.149 -0.2226 -1.0627 -1.9054
 2551SOL     OW19288   0.942   3.054  13.621 -0.5514  0.3429 -0.0106
 2551SOL    HW119289   1.003   3.125  13.606 -0.4983  0.2938 -0.0263
 2551SOL    HW219290   0.966   2.990  13.554  1.8055  0.5685  0.6159
 2552SOL     OW19291   2.340   4.191   9.601 -0.5411 -0.0114 -0.1235
 2552SOL    HW119292   2.412   4.217   9.544 -0.1229  0.0350  0.4384
 2552SOL    HW219293   2.310   4.275   9.636 -0.9192  0.3087 -1.1877
 2553SOL     OW19294   1.587   3.859   1.380 -0.7570  0.0244 -0.0941
 2553SOL    HW119295   1.649   3.815   1.439 -0.0480 -1.1651 -1.7390
 2553SOL    HW219296   1.530   3.786   1.355  0.2418 -0.3413 -1.2805
 2554SOL     OW19297   4.117   3.709   1.066  0.1211 -0.0019  0.0573
 2554SOL    HW119298   4.066   3.642   1.112 -2.7870  2.9322  1.0387
 2554SOL    HW219299   4.204   3.671   1.085  0.3956  1.5932  1.9930
 2555SOL     OW19300   2.192   4.551   1.151  0.0646 -0.2482 -0.2674
 2555SOL    HW119301   2.196   4.456   1.167 -1.4708 -0.5097 -1.3712
 2555SOL    HW219302   2.240   4.588   1.225 -0.2267 -3.7805  1.6884
 2556SOL     OW19303   0.560   4.564  14.152  0.2226 -0.0077  0.5085
 2556SOL    HW119304   0.491   4.520  14.101  0.1872 -0.8797  1.3173
 2556SOL    HW219305   0.518   4.649  14.140  2.1116  1.1826  2.4179
 2557SOL     OW19306   2.259   0.468   3.484 -0.4745  0.1073 -0.2433
 2557SOL    HW119307   2.212   0.549   3.466 -0.2473  0.6698  1.7026
 2557SOL    HW219308   2.347   0.505   3.497 -0.5959  0.0848  0.6505
 2558SOL     OW19309   1.968   3.586   5.837 -0.3462 -0.2147 -0.5480
 2558SOL    HW119310   1.996   3.677   5.852  1.0182 -0.6583 -0.4167
 2558SOL    HW219311   1.891   3.585   5.893  0.4398  0.2726  0.5487
 2559SOL     OW19312   0.970   4.249  17.406 -0.2598  0.5016  0.1066
 2559SOL    HW119313   0.925   4.330  17.383 -0.8825  0.1565  0.0774
 2559SOL    HW219314   1.020   4.235  17.326  2.5972  1.0035  1.8201
 2560SOL     OW19315   2.011   4.588   9.648 -0.2121 -0.6640  0.0354
 2560SOL    HW119316   1.938   4.596   9.709  1.2485 -0.3621  1.7197
 2560SOL    HW219317   2.076   4.532   9.689 -0.0822 -0.3018  0.3193
 2561SOL     OW19318   0.081   1.845  11.165 -0.1908  0.1071 -0.3307
 2561SOL    HW119319   0.092   1.751  11.182 -1.8569  0.3542  2.1585
 2561SOL    HW219320   0.075   1.870  11.258 -0.3257  2.0212 -0.8551
 2562SOL     OW19321   2.248   4.359   4.585  0.0067  0.8094 -0.1815
 2562SOL    HW119322   2.294   4.442   4.571 -0.6145  0.8769 -1.7728
 2562SOL    HW219323   2.259   4.314   4.502  2.1168 -1.6828  1.4260
 2563SOL     OW19324   1.184   3.622   2.203 -0.0511  0.2904  0.1869
 2563SOL    HW119325   1.100   3.667   2.197 -0.9751 -1.5493 -0.8722
 2563SOL    HW219326   1.184   3.587   2.292  1.6087 -1.8003 -0.6113
 2564SOL     OW19327   3.207   2.129   0.948 -0.1621 -0.2294 -0.4724
 2564SOL    HW119328   3.232   2.135   0.856 -0.7848 -1.4976 -0.7235
 2564SOL    HW219329   3.119   2.092   0.940  0.4431 -1.6639 -0.4717
 2565SOL     OW19330   3.815   1.751  11.708  0.2645 -0.0365  0.8314
 2565SOL    HW119331   3.815   1.698  11.629  0.6608  1.2261 -0.0214
 2565SOL    HW219332   3.757   1.818  11.672  0.2024 -0.5050  0.0781
 2566SOL     OW19333   3.202   2.080   3.521  0.0293 -0.5148  0.3281
 2566SOL    HW119334   3.262   2.123   3.582  0.6045 -1.1691  0.2143
 2566SOL    HW219335   3.224   1.988   3.532 -0.2190 -0.7398 -1.0294
 2567SOL     OW19336   3.475   1.576  16.724  0.1733  0.0472  0.4446
 2567SOL    HW119337   3.385   1.552  16.699  0.4326 -1.1382  0.6196
 2567SOL    HW219338   3.501   1.573  16.632 -1.2269  2.2559 -0.0086
 2568SOL     OW19339   0.676   0.403  10.854 -0.1561  0.3734  0.6835
 2568SOL    HW119340   0.732   0.476  10.828  0.1720  0.0922  0.5930
 2568SOL    HW219341   0.586   0.427  10.832 -0.7532 -1.0027  1.6221
 2569SOL     OW19342   0.695   0.712  10.820 -0.3759 -0.5445  0.0085
 2569SOL    HW119343   0.629   0.643  10.821 -0.6641 -0.2928 -1.2868
 2569SOL    HW219344   0.661   0.768  10.750  2.4146 -1.2550 -1.8827
 2570SOL     OW19345   4.536   4.382   7.089  0.5108  0.2052 -0.1287
 2570SOL    HW119346   4.473   4.329   7.040  0.0676  0.6062  0.0147
 2570SOL    HW219347   4.507   4.366   7.179  4.8761 -2.2755  0.8407
 2571SOL     OW19348   4.071   1.174   8.289  0.1107  0.1707 -0.0885
 2571SOL    HW119349   4.063   1.136   8.377  0.3181 -3.0933 -1.4862
 2571SOL    HW219350   4.025   1.255   8.311 -0.6387 -0.2734 -0.0037
 2572SOL     OW19351   1.828   1.378   2.891 -0.1073  0.5378 -0.4066
 2572SOL    HW119352   1.921   1.380   2.868  0.1827 -1.9488  0.5680
 2572SOL    HW219353   1.829   1.464   2.931  0.7395  0.3884 -0.1052
 2573SOL     OW19354   2.762   4.606   6.143 -0.0881  0.4150 -0.1898
 2573SOL    HW119355   2.766   4.545   6.216  1.4167  0.9841  0.2181
 2573SOL    HW219356   2.795   4.687   6.181 -2.2602  1.7668 -1.1956
 2574SOL     OW19357   3.846   2.426  14.670 -0.3433 -0.0240 -0.2425
 2574SOL    HW119358   3.840   2.414  14.764  1.3434  1.1366  0.0065
 2574SOL    HW219359   3.920   2.487  14.661 -0.8021  0.9489  2.6253
 2575SOL     OW19360   0.311   4.390   3.657 -0.1335 -0.2207 -0.4297
 2575SOL    HW119361   0.277   4.421   3.741 -2.0766  0.0680 -1.2997
 2575SOL    HW219362   0.336   4.302   3.684  2.2266  0.7637  0.5400
 2576SOL     OW19363   3.180   1.041   8.567  0.3117  0.2169  0.3795
 2576SOL    HW119364   3.101   0.990   8.551  1.1896  0.0111 -3.1835
 2576SOL    HW219365   3.183   1.045   8.663  2.4385 -0.2125  0.3318
 2577SOL     OW19366   1.831   1.406  14.574  0.4994 -0.6282 -0.3735
 2577SOL    HW119367   1.820   1.366  14.488  0.5646  3.8326 -2.4348
 2577SOL    HW219368   1.897   1.476  14.565 -1.7626  1.5998  0.5225
 2578SOL     OW19369   4.230   2.468   5.609 -0.0533 -0.1416  0.6860
 2578SOL    HW119370   4.181   2.461   5.527  0.0280  1.7410  0.4650
 2578SOL    HW219371   4.314   2.447   5.569  0.1192  0.5852  0.6688
 2579SOL     OW19372   0.556   0.116  12.881 -0.4133 -0.2356 -0.0202
 2579SOL    HW119373   0.531   0.178  12.813 -1.2955  0.3916  0.8840
 2579SOL    HW219374   0.622   0.058  12.842 -0.0609 -0.9263  1.6332
 2580SOL     OW19375   3.773   2.097   5.711 -0.7964 -0.0111  0.5352
 2580SOL    HW119376   3.846   2.079   5.653  0.1514 -0.8712  2.0024
 2580SOL    HW219377   3.817   2.102   5.796 -0.0059 -2.8371  0.3008
 2581SOL     OW19378   1.805   4.081   9.100 -0.4802 -0.0896  0.1699
 2581SOL    HW119379   1.888   4.085   9.147  0.6400  1.7812 -1.9063
 2581SOL    HW219380   1.796   4.176   9.085  0.6845 -0.0644 -0.3803
 2582SOL     OW19381   3.258   2.505   3.474 -0.0837  0.0330  0.2020
 2582SOL    HW119382   3.181   2.455   3.501 -0.9138  0.6429 -1.0087
 2582SOL    HW219383   3.322   2.456   3.525 -2.5631 -1.8830  1.4853
 2583SOL     OW19384   1.810   1.733   3.727  0.3790  0.0637 -0.2385
 2583SOL    HW119385   1.765   1.731   3.642  0.7233  0.1176 -0.4232
 2583SOL    HW219386   1.817   1.826   3.748  0.0902  0.3154 -1.2232
 2584SOL     OW19387   0.956   3.449  12.226 -0.2792 -0.3155  0.3313
 2584SOL    HW119388   0.875   3.450  12.174 -1.3202  0.3559  1.9623
 2584SOL    HW219389   1.021   3.465  12.157  1.1083 -3.0053  1.0251
 2585SOL     OW19390   1.267   2.181   2.637 -0.5743 -0.5445 -0.2967
 2585SOL    HW119391   1.340   2.166   2.697 -0.0427  0.3981 -0.6960
 2585SOL    HW219392   1.196   2.132   2.678 -0.2083 -0.0539  0.8967
 2586SOL     OW19393   3.987   2.678   2.357  0.3263 -0.4146 -0.0706
 2586SOL    HW119394   3.997   2.710   2.446  2.9933 -0.4234 -0.3470
 2586SOL    HW219395   4.053   2.608   2.354  1.1474  0.3968 -1.2576
 2587SOL     OW19396   1.150   4.486   5.684  0.2982 -0.1118 -0.1447
 2587SOL    HW119397   1.230   4.520   5.723  0.9068 -1.0329 -0.5972
 2587SOL    HW219398   1.192   4.468   5.600  0.7613 -1.1931  0.3243
 2588SOL     OW19399   1.849   2.579  15.032  0.2870  0.3199 -0.2137
 2588SOL    HW119400   1.859   2.542  15.119  1.3121  1.5423  0.1828
 2588SOL    HW219401   1.789   2.521  14.985 -1.9425  1.0931  1.7469
 2589SOL     OW19402   4.542   2.358   4.222  0.2059  0.0927  0.1608
 2589SOL    HW119403   4.583   2.275   4.198  1.4637  0.7571 -0.0077
 2589SOL    HW219404   4.616   2.418   4.210 -0.9083  1.0760 -1.8400
 2590SOL     OW19405   2.196   4.282   8.606  0.5139  0.0510  0.3467
 2590SOL    HW119406   2.266   4.296   8.669  0.4443  1.4267  0.1286
 2590SOL    HW219407   2.203   4.353   8.541 -0.0336 -1.5690 -1.4744
 2591SOL     OW19408   3.477   1.663   2.362  0.4494  0.1282  0.0701
 2591SOL    HW119409   3.472   1.622   2.448  2.4093  1.0803  0.6326
 2591SOL    HW219410   3.411   1.617   2.310  1.5991 -0.4862 -0.8165
 2592SOL     OW19411   2.064   2.808   0.924  0.0716  0.3604  0.1633
 2592SOL    HW119412   2.081   2.899   0.900  1.7676 -0.4696 -1.8223
 2592SOL    HW219413   1.977   2.821   0.961 -0.6845  3.6506 -2.7535
 2593SOL     OW19414   1.796   3.576   5.308  0.3353  0.2420 -0.6554
 2593SOL    HW119415   1.813   3.492   5.265  0.6577 -0.1572  0.2514
 2593SOL    HW219416   1.725   3.550   5.367  1.0465  2.2832  1.0982
 2594SOL     OW19417   1.551   4.599   9.541 -0.5084 -0.8689  0.6814
 2594SOL    HW119418   1.606   4.618   9.616 -0.6666  1.0015  0.3390
 2594SOL    HW219419   1.566   4.681   9.493  0.7210 -1.1145  0.6453
 2595SOL     OW19420   2.152   1.507   8.426 -0.8480  0.0715 -0.2943
 2595SOL    HW119421   2.220   1.475   8.366 -0.0853  1.5198 -0.2106
 2595SOL    HW219422   2.140   1.600   8.407 -2.6853 -0.2616 -0.7669
 2596SOL     OW19423   3.835   3.272   3.274  0.0387 -0.4245  0.2928
 2596SOL    HW119424   3.792   3.255   3.357 -2.6165  2.6631 -0.4675
 2596SOL    HW219425   3.763   3.297   3.216  1.0793  0.3482 -0.6698
 2597SOL     OW19426   3.928   3.852   5.508 -0.5797 -0.0688  0.7861
 2597SOL    HW119427   3.912   3.806   5.426  1.9249 -2.2438  1.5074
 2597SOL    HW219428   3.915   3.944   5.484  1.2706 -0.2690 -1.0677
 2598SOL     OW19429   2.182   3.796   7.878 -0.2354 -0.4112 -0.1083
 2598SOL    HW119430   2.143   3.717   7.842 -0.1086 -0.3298 -0.4280
 2598SOL    HW219431   2.196   3.856   7.804  0.6442  0.6412  0.9071
 2599SOL     OW19432   4.531   3.577   5.155  0.1276  0.0383 -0.3051
 2599SOL    HW119433   4.605   3.531   5.193 -0.5220 -2.4481 -2.0818
 2599SOL    HW219434   4.457   3.516   5.159 -1.0933  1.5073 -0.3045
 2600SOL     OW19435   0.860   3.475   4.576  0.0829  0.2917 -0.1028
 2600SOL    HW119436   0.792   3.479   4.508  1.0789 -1.5006 -1.1990
 2600SOL    HW219437   0.848   3.383   4.600 -0.3998  0.6680  1.0867
 2601SOL     OW19438   0.498   0.614   6.561  0.3653  0.2684  0.0536
 2601SOL    HW119439   0.567   0.557   6.595  1.4254  1.7264  0.3235
 2601SOL    HW219440   0.494   0.668   6.640 -1.1464 -0.8814  0.7685
 2602SOL     OW19441   0.495   0.297   3.718 -0.0633 -0.1868 -0.3363
 2602SOL    HW119442   0.477   0.377   3.669 -0.5763 -0.0600  0.0543
 2602SOL    HW219443   0.590   0.305   3.726  0.1823 -0.1503 -3.2694
 2603SOL     OW19444   1.995   4.674   3.691  0.0961  0.4892  0.0730
 2603SOL    HW119445   1.950   0.011   3.733  0.3999  2.0117 -2.3050
 2603SOL    HW219446   2.085   4.703   3.676 -0.7044  2.8945 -0.0569
 2604SOL     OW19447   3.380   0.496   9.920 -0.0122  0.0084  0.4623
 2604SOL    HW119448   3.356   0.559   9.988  2.9686  0.0005  1.4912
 2604SOL    HW219449   3.434   0.436   9.971  0.4618 -1.2633 -1.5349
 2605SOL     OW19450   2.967   2.651  10.810  0.2185  0.1801 -0.2176
 2605SOL    HW119451   2.967   2.661  10.715 -2.0850  0.5375 -0.1829
 2605SOL    HW219452   3.032   2.582  10.817 -0.6515 -0.4865  1.2811
 2606SOL     OW19453   3.901   3.656  14.008 -0.2921 -0.0097  0.2189
 2606SOL    HW119454   3.809   3.631  14.002 -0.8798  1.3741  3.5005
 2606SOL    HW219455   3.887   3.720  14.079  0.1743  0.6319 -0.2638
 2607SOL     OW19456   1.693   2.519   2.695  0.2411 -0.1098 -0.1814
 2607SOL    HW119457   1.737   2.559   2.621  1.2565  1.0611  1.0533
 2607SOL    HW219458   1.617   2.473   2.659  0.7063 -0.9905 -0.0449
 2608SOL     OW19459   3.520   1.149  12.002 -0.0639  0.5177  0.6485
 2608SOL    HW119460   3.558   1.234  11.980  0.1220  0.2662  0.0167
 2608SOL    HW219461   3.427   1.167  11.985  0.4080  1.9549 -0.4025
 2609SOL     OW19462   1.153   2.679   6.926  0.0248 -0.2177  0.2116
 2609SOL    HW119463   1.175   2.628   7.004 -0.7636 -1.1414 -0.1811
 2609SOL    HW219464   1.241   2.684   6.889 -0.0770  1.3628  0.1726
 2610SOL     OW19465   1.559   0.616   6.170  0.8364  0.2391  0.5381
 2610SOL    HW119466   1.599   0.678   6.108 -2.5668  1.5829 -0.3149
 2610SOL    HW219467   1.607   0.631   6.252 -0.8926 -0.3705  1.6626
 2611SOL     OW19468   1.323   0.223   0.455  0.2758 -0.2885 -0.3339
 2611SOL    HW119469   1.277   0.141   0.439  1.3167 -1.0345  0.4967
 2611SOL    HW219470   1.411   0.187   0.467 -1.2057 -3.7147  0.0540
 2612SOL     OW19471   3.442   4.043  14.411  0.0101 -1.0858 -0.6729
 2612SOL    HW119472   3.353   4.063  14.384  0.2719 -2.4954 -2.6228
 2612SOL    HW219473   3.469   4.000  14.330  0.4239 -1.2173 -0.4671
 2613SOL     OW19474   4.237   3.720   8.150 -0.5076  0.1217 -0.1585
 2613SOL    HW119475   4.207   3.780   8.082 -0.9653 -1.6478 -1.5331
 2613SOL    HW219476   4.263   3.646   8.095  3.3146  1.5589 -0.2778
 2614SOL     OW19477   2.893   1.407   0.520 -0.2713 -0.1405 -0.0206
 2614SOL    HW119478   2.966   1.458   0.554 -0.7315  0.3213  0.2626
 2614SOL    HW219479   2.902   1.326   0.570 -1.1364  1.1492  2.2426
 2615SOL     OW19480   4.103   0.454   4.237  0.3063 -0.4239  0.3667
 2615SOL    HW119481   4.035   0.414   4.291  0.2453 -0.2104  0.4471
 2615SOL    HW219482   4.160   0.380   4.216  1.3268  0.6127 -0.4813
 2616SOL     OW19483   4.474   3.068   2.435 -0.6012 -0.3076  0.2059
 2616SOL    HW119484   4.492   3.146   2.381 -0.5634 -1.1017 -0.9328
 2616SOL    HW219485   4.484   2.997   2.372  0.6277 -0.3724  0.4671
 2617SOL     OW19486   2.503   1.720   8.377  0.1633  0.2001  0.0751
 2617SOL    HW119487   2.438   1.767   8.430 -0.8321  0.7713 -1.6548
 2617SOL    HW219488   2.555   1.793   8.345  0.4920 -0.3491 -0.6393
 2618SOL     OW19489   4.160   2.331  15.064 -0.1327  0.6418  0.0645
 2618SOL    HW119490   4.167   2.248  15.112 -0.0548 -0.1360 -1.2936
 2618SOL    HW219491   4.110   2.379  15.130 -2.7953 -1.1393 -0.6304
 2619SOL     OW19492   2.071   0.881  13.779  0.4440  0.1185 -0.7078
 2619SOL    HW119493   2.104   0.834  13.702  1.6750  0.7182 -0.5475
 2619SOL    HW219494   1.982   0.849  13.790  1.1675 -1.4651  0.4936
 2620SOL     OW19495   3.833   4.449   9.884 -0.0452 -0.1851 -0.0715
 2620SOL    HW119496   3.907   4.490   9.929  0.1403 -0.8800  0.2553
 2620SOL    HW219497   3.834   4.367   9.933 -0.6165  0.9184  1.7875
 2621SOL     OW19498   3.923   1.672   3.967  0.1623 -0.0289  0.6926
 2621SOL    HW119499   3.980   1.596   3.978 -0.7357 -0.6291  1.1580
 2621SOL    HW219500   3.870   1.660   4.046 -1.3340  0.1611 -0.2753
 2622SOL     OW19501   3.018   3.868   6.779 -0.2512 -0.9051  0.2410
 2622SOL    HW119502   2.969   3.917   6.712 -1.4040 -3.0728 -0.4911
 2622SOL    HW219503   3.095   3.849   6.725  0.4973  0.1708  0.9188
 2623SOL     OW19504   1.259   4.683  16.951  0.0533  0.0079 -0.4598
 2623SOL    HW119505   1.281   4.700  16.859  0.0471  0.1063 -0.4430
 2623SOL    HW219506   1.302   0.025  16.985 -0.5943  1.0759 -2.1059
 2624SOL     OW19507   2.606   2.986   9.703  0.0289 -0.4349  0.4036
 2624SOL    HW119508   2.641   2.962   9.788 -1.6723 -2.1707  0.6159
 2624SOL    HW219509   2.665   3.054   9.668 -1.4259 -0.5470 -2.2944
 2625SOL     OW19510   0.835   2.731  16.084 -0.1162 -0.2754 -0.0451
 2625SOL    HW119511   0.814   2.640  16.065  0.6205 -0.3539 -0.4956
 2625SOL    HW219512   0.896   2.749  16.012  1.4413  0.7700  1.5330
 2626SOL     OW19513   0.437   3.487   8.105  0.0837 -0.3255  0.3338
 2626SOL    HW119514   0.530   3.507   8.095 -0.3352  1.6502  0.2894
 2626SOL    HW219515   0.415   3.497   8.197  2.3191  0.2229  0.8094
 2627SOL     OW19516   0.393   4.700  10.952 -0.2367  0.0942  0.0673
 2627SOL    HW119517   0.329   0.014  10.902  1.9889  0.0335 -2.8603
 2627SOL    HW219518   0.338   4.638  10.998  1.2687 -1.7487 -0.6069
 2628SOL     OW19519   2.054   3.256   7.883  0.2332  0.8071  0.3611
 2628SOL    HW119520   2.008   3.252   7.967  0.9482 -3.2748  0.5476
 2628SOL    HW219521   2.143   3.225   7.900  0.3251 -0.1008 -1.8338
 2629SOL     OW19522   2.935   0.399  17.206 -0.3253 -0.2777 -0.6333
 2629SOL    HW119523   2.981   0.324  17.169  0.4654 -0.0238 -0.1492
 2629SOL    HW219524   2.989   0.477  17.192 -0.6749  0.4873  2.1797
 2630SOL     OW19525   3.805   0.391   4.812 -0.8535  0.0588 -0.1290
 2630SOL    HW119526   3.800   0.423   4.902  2.3985  2.3151 -0.7366
 2630SOL    HW219527   3.822   0.299   4.835 -2.0894  0.0502  0.7543
 2631SOL     OW19528   4.250   1.232   9.110 -0.2525  0.3507  0.7333
 2631SOL    HW119529   4.242   1.277   9.194 -1.8942 -0.4411  1.0070
 2631SOL    HW219530   4.251   1.140   9.138 -1.7496 -0.8328 -2.9847
 2632SOL     OW19531   2.253   4.644   2.816 -0.2075 -0.3191 -0.8054
 2632SOL    HW119532   2.183   4.648   2.881 -1.0784 -1.0759 -1.6954
 2632SOL    HW219533   2.299   4.571   2.856 -0.2926  0.9901  1.6751
 2633SOL     OW19534   1.301   1.607   6.655 -0.4426  0.0710 -0.3941
 2633SOL    HW119535   1.311   1.662   6.733 -0.6239 -0.3269 -0.0923
 2633SOL    HW219536   1.218   1.563   6.672  1.2497 -2.3020  1.7560
 2634SOL     OW19537   2.079   3.848   6.233  0.3639  0.6384  0.6536
 2634SOL    HW119538   2.158   3.794   6.239  1.6356  2.4974  0.7559
 2634SOL    HW219539   2.068   3.837   6.139 -1.6936 -0.2214  1.0026
 2635SOL     OW19540   3.392   1.549  11.080  0.7560 -0.0148 -0.7990
 2635SOL    HW119541   3.379   1.625  11.023  0.2549 -1.2478 -2.3546
 2635SOL    HW219542   3.346   1.478  11.035 -1.0838  0.8914 -0.3515
 2636SOL     OW19543   0.448   1.480   6.106 -0.3385 -0.2418  0.4835
 2636SOL    HW119544   0.447   1.412   6.173  0.6058 -0.6856  0.0587
 2636SOL    HW219545   0.362   1.520   6.114 -0.4574 -0.3916 -0.0105
 2637SOL     OW19546   4.101   3.624   4.091 -0.1028 -0.0822 -0.1704
 2637SOL    HW119547   4.140   3.658   4.171  0.7383  0.0995 -0.6544
 2637SOL    HW219548   4.132   3.534   4.087 -1.1634 -0.5684  2.4986
 2638SOL     OW19549   1.486   0.977   6.001  0.0330 -0.0742  0.4259
 2638SOL    HW119550   1.431   0.907   6.036  1.7375 -2.2426 -1.2168
 2638SOL    HW219551   1.509   0.949   5.912  0.3540 -0.6015  0.6733
 2639SOL     OW19552   4.399   1.944  11.175  0.5213  0.4092  0.2648
 2639SOL    HW119553   4.375   1.899  11.256 -0.3114 -1.1274 -0.8292
 2639SOL    HW219554   4.346   2.024  11.178  0.8530  0.6608 -0.5745
 2640SOL     OW19555   3.346   2.482  16.770 -0.0885  0.0777 -0.2855
 2640SOL    HW119556   3.391   2.436  16.841 -1.7453  0.7593  1.2216
 2640SOL    HW219557   3.408   2.554  16.757  0.4431 -0.1251  1.0711
 2641SOL     OW19558   4.722   3.623   3.041 -0.0676  0.0341  0.5734
 2641SOL    HW119559   4.699   3.667   2.959 -0.2972  0.1204  0.6845
 2641SOL    HW219560   0.006   3.533   3.017  0.2776  0.0963  0.6349
 2642SOL     OW19561   1.702   0.242   1.470  0.3165 -0.3409 -0.0196
 2642SOL    HW119562   1.639   0.313   1.456  0.4275 -0.7879 -2.9141
 2642SOL    HW219563   1.649   0.181   1.521 -0.9797  0.2124 -0.6929
 2643SOL     OW19564   1.914   2.230  13.349 -0.1012  0.5104  0.0380
 2643SOL    HW119565   1.861   2.310  13.343  0.6282  1.0035  0.2417
 2643SOL    HW219566   1.863   2.174  13.408  0.2894  0.9754  0.8061
 2644SOL     OW19567   3.035   2.805  13.757 -0.3735 -0.2496 -0.1590
 2644SOL    HW119568   3.047   2.822  13.850 -0.7006 -1.6066  0.1368
 2644SOL    HW219569   2.949   2.843  13.740  0.1387 -0.3761 -3.0396
 2645SOL     OW19570   3.069   1.347  11.613 -0.0221 -0.3725 -0.3397
 2645SOL    HW119571   3.086   1.259  11.646 -2.5043 -0.7640 -0.1180
 2645SOL    HW219572   3.073   1.398  11.693 -1.5114  1.6420 -1.5465
 2646SOL     OW19573   1.863   0.046  15.363  0.1946  0.0160 -0.2617
 2646SOL    HW119574   1.873   0.049  15.459  1.2562  0.8920 -0.4019
 2646SOL    HW219575   1.772   0.016  15.355  0.2666 -0.4315  0.5706
 2647SOL     OW19576   4.400   1.112  11.208 -0.1381 -0.3034 -0.0708
 2647SOL    HW119577   4.401   1.016  11.207 -3.5998 -0.3294  1.6258
 2647SOL    HW219578   4.312   1.140  11.183 -0.4144 -0.1483  1.0945
 2648SOL     OW19579   3.898   0.779   2.736  0.0455  0.0451 -0.2566
 2648SOL    HW119580   3.821   0.835   2.746  1.4327  1.8397  0.2799
 2648SOL    HW219581   3.870   0.704   2.787  0.8288 -0.6380 -0.8368
 2649SOL     OW19582   1.436   2.941   2.501  0.2487  0.0500  0.0665
 2649SOL    HW119583   1.358   2.965   2.551  0.4207  3.8004 -1.4889
 2649SOL    HW219584   1.415   2.849   2.482 -0.9311 -0.1737  2.4994
 2650SOL     OW19585   3.360   0.825   0.476 -0.0088 -0.4209 -0.7695
 2650SOL    HW119586   3.376   0.781   0.559  0.2129  2.0359  0.4902
 2650SOL    HW219587   3.404   0.909   0.481  0.3513 -0.6882  0.4589
 2651SOL     OW19588   4.448   3.655   7.578 -0.4940 -0.2406 -0.0870
 2651SOL    HW119589   4.505   3.686   7.508  0.9121 -0.8290  0.7825
 2651SOL    HW219590   4.411   3.574   7.541 -2.0072  0.3155  0.1995
 2652SOL     OW19591   2.575   1.374   8.703  0.1153  0.2283  0.1342
 2652SOL    HW119592   2.573   1.465   8.674 -2.9611  1.6560  4.8591
 2652SOL    HW219593   2.491   1.364   8.747 -0.2767  1.0132 -0.4446
 2653SOL     OW19594   1.995   3.899  11.828 -0.9100  0.1042 -0.9973
 2653SOL    HW119595   2.079   3.855  11.817 -0.7968  0.4590 -1.5142
 2653SOL    HW219596   1.940   3.820  11.826 -1.1029  0.2636 -1.8320
 2654SOL     OW19597   2.446   0.620  14.172  0.5199  0.4193 -0.2565
 2654SOL    HW119598   2.451   0.709  14.208  1.5930 -0.1691  1.0461
 2654SOL    HW219599   2.359   0.612  14.134 -0.3404 -3.2437  2.4796
 2655SOL     OW19600   2.201   2.434   7.946  0.3159  0.1732 -0.2833
 2655SOL    HW119601   2.150   2.503   7.904 -1.4318  0.1800  1.8274
 2655SOL    HW219602   2.186   2.448   8.040 -0.3002  0.2494 -0.3957
 2656SOL     OW19603   1.053   0.759   2.245 -0.6017 -0.3354  0.1985
 2656SOL    HW119604   0.969   0.803   2.231 -0.3243  0.4785  1.0521
 2656SOL    HW219605   1.051   0.744   2.339  0.3622  1.4470  0.4974
 2657SOL     OW19606   4.216   2.368   0.682 -0.1990  0.5867  0.0391
 2657SOL    HW119607   4.168   2.450   0.695  0.1073  0.8409 -0.4281
 2657SOL    HW219608   4.149   2.309   0.649  0.9217 -1.1804  0.9632
 2658SOL     OW19609   0.121   0.445   5.724 -0.0137 -0.1100 -0.1504
 2658SOL    HW119610   0.035   0.467   5.690 -0.5702 -0.2187  1.2047
 2658SOL    HW219611   0.107   0.351   5.730  1.4564 -0.3718 -0.6821
 2659SOL     OW19612   3.616   4.155   3.361 -0.2942 -0.6889  0.1187
 2659SOL    HW119613   3.608   4.250   3.358 -1.4638 -0.6972  2.7405
 2659SOL    HW219614   3.630   4.130   3.270  1.4466 -3.2861  1.1050
 2660SOL     OW19615   4.225   4.052  17.354 -0.4026  0.1195  0.0493
 2660SOL    HW119616   4.247   3.992  17.426  1.6606  0.2658 -0.4648
 2660SOL    HW219617   4.170   3.994  17.302  0.3338 -1.6081  1.1580
 2661SOL     OW19618   1.299   3.735   1.833  0.3939 -0.7366 -0.7336
 2661SOL    HW119619   1.219   3.684   1.819 -0.3569  0.3438 -0.3454
 2661SOL    HW219620   1.254   3.788   1.899  1.0061 -0.7032 -0.3459
 2662SOL     OW19621   3.444   4.118   8.048 -0.1215  0.1565 -0.0668
 2662SOL    HW119622   3.488   4.099   7.965 -0.0866 -2.5270  0.5789
 2662SOL    HW219623   3.402   4.034   8.064 -0.5041  0.2848 -0.4060
 2663SOL     OW19624   2.610   4.145  14.988  0.4397 -0.2606 -0.4909
 2663SOL    HW119625   2.671   4.127  14.916  0.2805 -0.2280 -0.6331
 2663SOL    HW219626   2.545   4.084  14.954 -0.9440  0.3929  0.9449
 2664SOL     OW19627   4.445   3.006   2.869 -0.3727  0.6262  0.3369
 2664SOL    HW119628   4.512   2.948   2.903  0.6330  1.3866 -0.3495
 2664SOL    HW219629   4.483   3.093   2.884  0.1895  0.1135  1.8575
 2665SOL     OW19630   0.043   3.871  17.729 -0.6122  0.1281  0.3355
 2665SOL    HW119631   4.712   3.818  17.687 -1.2115  0.4470  0.9013
 2665SOL    HW219632   0.110   3.809   0.013  1.0536  1.5889 -0.3570
 2666SOL     OW19633   0.701   4.630  11.535 -0.3525  0.4971 -0.2049
 2666SOL    HW119634   0.754   4.648  11.457  0.1069 -0.6853 -0.1650
 2666SOL    HW219635   0.620   4.599  11.496  0.4091 -0.5982 -0.9186
 2667SOL     OW19636   3.879   2.608   1.421 -0.0065 -0.5822  0.2453
 2667SOL    HW119637   3.827   2.608   1.502  1.4059 -0.1120  1.1431
 2667SOL    HW219638   3.939   2.538   1.445  2.4705  1.5022  0.0840
 2668SOL     OW19639   3.439   4.632  12.314 -0.0141  0.3288 -0.3299
 2668SOL    HW119640   3.442   4.559  12.253  0.2194  0.0416  0.0249
 2668SOL    HW219641   3.465   4.708  12.261  3.0545  1.4622  2.7777
 2669SOL     OW19642   2.370   1.970  10.930 -0.4595  0.1319 -0.2593
 2669SOL    HW119643   2.388   1.932  11.016 -0.3740 -2.4084 -1.3950
 2669SOL    HW219644   2.357   1.891  10.878 -0.9125 -1.0022  1.5746
 2670SOL     OW19645   2.936   4.179   4.672  0.4622 -0.3298  0.0410
 2670SOL    HW119646   2.973   4.257   4.714 -0.0679  0.5653 -1.1420
 2670SOL    HW219647   2.952   4.208   4.582  1.6216 -1.9245 -0.2635
 2671SOL     OW19648   3.219   0.965   2.173  0.4240  0.2336  0.7341
 2671SOL    HW119649   3.259   0.879   2.161 -0.1380  0.0423  0.2062
 2671SOL    HW219650   3.128   0.935   2.178  0.6487 -0.4267  0.8864
 2672SOL     OW19651   1.063   4.030   4.098 -0.3781 -0.1111 -0.1128
 2672SOL    HW119652   1.117   4.008   4.023 -0.9081 -1.4268 -0.1018
 2672SOL    HW219653   1.108   3.982   4.168 -1.2148 -1.2680 -0.3675
 2673SOL     OW19654   2.737   4.487   4.774 -0.3863 -0.1657  0.0066
 2673SOL    HW119655   2.705   4.531   4.696 -1.1734  1.4208  1.2250
 2673SOL    HW219656   2.822   4.452   4.745  0.0392  0.2892  0.7012
 2674SOL     OW19657   2.385   0.244   6.368  0.0323 -0.5754 -0.0605
 2674SOL    HW119658   2.389   0.326   6.319  0.1096 -0.1887  0.5954
 2674SOL    HW219659   2.410   0.181   6.301  0.7946  0.3879 -0.6659
 2675SOL     OW19660   2.550   4.718   3.979  0.1350 -0.2989  1.2232
 2675SOL    HW119661   2.567   0.056   3.922  0.3434  1.1051  3.1390
 2675SOL    HW219662   2.493   0.013   4.048 -0.0791  0.4000  0.7233
 2676SOL     OW19663   3.954   2.093   5.526 -0.4440  0.1785 -0.1611
 2676SOL    HW119664   4.049   2.089   5.518 -0.2545  1.3554  1.5148
 2676SOL    HW219665   3.926   2.088   5.434  1.3642  0.3273 -0.7223
 2677SOL     OW19666   1.089   1.148   4.731 -0.4858  0.4491  0.0348
 2677SOL    HW119667   1.000   1.138   4.696 -0.0612  0.0060 -0.9114
 2677SOL    HW219668   1.146   1.133   4.656  1.4089 -4.0623  2.3864
 2678SOL     OW19669   4.296   2.343   8.975 -0.0280 -0.3678 -0.1780
 2678SOL    HW119670   4.317   2.360   8.883  0.1007 -2.6058 -0.5760
 2678SOL    HW219671   4.213   2.296   8.969  0.6796 -1.8917  1.7204
 2679SOL     OW19672   2.071   0.943   1.311 -0.2207 -0.1248 -0.3219
 2679SOL    HW119673   2.025   0.898   1.381 -1.6727 -2.7858 -2.9887
 2679SOL    HW219674   2.009   1.009   1.279  0.6876  0.2665 -1.2703
 2680SOL     OW19675   0.468   0.157   2.038  0.1275  0.1013 -0.4714
 2680SOL    HW119676   0.449   0.239   2.083  1.5895  0.2965 -0.2103
 2680SOL    HW219677   0.377   0.128   2.029  0.0042  0.3809 -0.1200
 2681SOL     OW19678   1.215   0.467   7.259  0.3662 -0.6242  0.6449
 2681SOL    HW119679   1.278   0.396   7.271  0.9966  0.0589  1.3841
 2681SOL    HW219680   1.147   0.427   7.315  0.1820 -0.5733  0.4576
 2682SOL     OW19681   3.294   4.448   9.457  0.0686  0.3588 -0.2684
 2682SOL    HW119682   3.319   4.537   9.432 -0.8562  0.1061 -2.1300
 2682SOL    HW219683   3.363   4.395   9.417  0.1123  1.4591 -1.6891
 2683SOL     OW19684   2.376   0.622   2.848 -0.5525  0.4379 -0.0285
 2683SOL    HW119685   2.460   0.658   2.820 -0.9916  2.3924  1.1786
 2683SOL    HW219686   2.321   0.695   2.876  1.9461  2.3269 -0.0726
 2684SOL     OW19687   2.139   3.085  11.210 -0.1599  0.1201  0.3495
 2684SOL    HW119688   2.161   3.177  11.218  0.8225 -0.0873 -0.0324
 2684SOL    HW219689   2.144   3.054  11.300 -2.1246  0.3230  0.5231
 2685SOL     OW19690   3.209   4.162   7.064  0.1919 -0.7573 -0.7248
 2685SOL    HW119691   3.125   4.167   7.109 -0.7002  0.6519 -2.5603
 2685SOL    HW219692   3.214   4.244   7.014 -0.4159  0.0067  0.4886
 2686SOL     OW19693   0.842   4.364   9.482 -0.0336 -0.2712  0.0564
 2686SOL    HW119694   0.932   4.347   9.455 -0.2705 -2.3209  0.5361
 2686SOL    HW219695   0.867   4.399   9.568  2.9846  0.2944 -1.0387
 2687SOL     OW19696   3.404   0.464  14.152 -0.3136 -0.2287  0.3208
 2687SOL    HW119697   3.451   0.540  14.120 -2.5871  1.2431  0.4850
 2687SOL    HW219698   3.447   0.431  14.231  2.0540  0.9783 -0.4560
 2688SOL     OW19699   1.169   1.509   3.878 -0.1492  0.5655  0.0043
 2688SOL    HW119700   1.163   1.533   3.970  1.1445 -1.4046  0.6019
 2688SOL    HW219701   1.189   1.415   3.883  0.6425  0.8195  1.5061
 2689SOL     OW19702   2.578   3.133   8.282 -0.0588 -0.8895 -0.5821
 2689SOL    HW119703   2.650   3.114   8.222  1.7381  2.2535  0.5547
 2689SOL    HW219704   2.594   3.225   8.303  0.8945 -0.6844 -2.2421
 2690SOL     OW19705   2.746   4.018   3.869  0.3603  0.1862  0.0806
 2690SOL    HW119706   2.810   4.011   3.798  0.7101  2.1540  0.2006
 2690SOL    HW219707   2.762   4.097   3.920  1.4149  1.0809 -1.6706
 2691SOL     OW19708   1.872   0.045   2.272 -0.0977 -0.0831 -0.5394
 2691SOL    HW119709   1.804   0.097   2.230  0.3334 -0.5469 -1.8218
 2691SOL    HW219710   1.920   0.110   2.323  0.3078  0.8008 -2.0849
 2692SOL     OW19711   3.146   0.840   5.744  0.2597 -0.0855  0.7439
 2692SOL    HW119712   3.072   0.863   5.800 -0.1799 -0.9298  0.4890
 2692SOL    HW219713   3.113   0.780   5.678  2.4019 -1.4876  0.9371
 2693SOL     OW19714   3.018   0.062  14.058  0.5755  0.9281  0.3805
 2693SOL    HW119715   2.922   0.066  14.066  0.3935 -1.2165 -0.6340
 2693SOL    HW219716   3.031   0.135  13.998  1.2059 -0.6854 -1.4327
 2694SOL     OW19717   0.746   2.743   6.422  0.3864  0.2997 -0.3215
 2694SOL    HW119718   0.749   2.648   6.435 -1.8108  0.0957 -1.4554
 2694SOL    HW219719   0.829   2.764   6.379 -0.7304  0.4976 -2.3893
 2695SOL     OW19720   2.815   4.262   5.084  0.0150 -0.0769  0.2472
 2695SOL    HW119721   2.874   4.197   5.044  0.4150 -0.8413  2.0557
 2695SOL    HW219722   2.729   4.219   5.086  0.6767 -1.4245 -0.1348
 2696SOL     OW19723   1.637   2.311   0.635  0.0112  0.0665  0.3922
 2696SOL    HW119724   1.635   2.320   0.730 -1.8823  0.9170  0.2602
 2696SOL    HW219725   1.679   2.395   0.619  3.8453 -1.9095  0.0007
 2697SOL     OW19726   0.383   3.877   6.717  0.2513  0.4922  0.0428
 2697SOL    HW119727   0.316   3.836   6.772 -1.0544 -0.6698 -2.3912
 2697SOL    HW219728   0.330   3.923   6.651 -2.0086 -1.0587  0.7585
 2698SOL     OW19729   3.857   2.657   9.087  0.0380  0.4011  0.5447
 2698SOL    HW119730   3.842   2.744   9.052  1.1597 -0.1683 -1.3883
 2698SOL    HW219731   3.952   2.651   9.074 -0.3085  0.4438 -2.0382
 2699SOL     OW19732   3.720   1.867  10.334  0.2631 -0.4505  0.2673
 2699SOL    HW119733   3.771   1.846  10.412 -0.2569 -2.3819  0.0991
 2699SOL    HW219734   3.761   1.811  10.267  1.9494 -0.9539  1.7190
 2700SOL     OW19735   4.015   1.838   4.552  0.7558 -0.2278  0.2227
 2700SOL    HW119736   3.968   1.778   4.495 -0.0452 -0.5659  1.2284
 2700SOL    HW219737   3.941   1.879   4.596  1.5919 -0.5692  1.9724
 2701SOL     OW19738   2.181   0.301  12.775  0.3859 -0.0630  0.2589
 2701SOL    HW119739   2.132   0.241  12.831 -0.0718  0.5269  0.4889
 2701SOL    HW219740   2.252   0.322  12.836  0.0743  1.2641  0.1528
 2702SOL     OW19741   1.005   1.637   5.445 -0.1681  0.0004 -0.4090
 2702SOL    HW119742   0.988   1.720   5.488  1.8301  0.5936 -0.7726
 2702SOL    HW219743   1.097   1.644   5.418 -0.6640 -0.4431 -2.2150
 2703SOL     OW19744   3.577   3.221   6.669 -0.1968 -0.1095 -0.2771
 2703SOL    HW119745   3.577   3.271   6.751  1.0156 -0.3682 -0.1104
 2703SOL    HW219746   3.559   3.279   6.596  1.1754  3.4033  2.1696
 2704SOL     OW19747   2.005   1.328   1.296 -0.5835 -0.3380  0.3453
 2704SOL    HW119748   2.077   1.269   1.275 -0.9719 -1.2826  1.6272
 2704SOL    HW219749   2.050   1.406   1.329 -1.6743  1.4036 -2.2924
 2705SOL     OW19750   1.428   0.301   7.978 -0.2174  0.2343  1.0770
 2705SOL    HW119751   1.367   0.374   7.966  0.0051  0.3149  0.4256
 2705SOL    HW219752   1.446   0.307   8.072  0.5973 -0.7907  0.9869
 2706SOL     OW19753   3.341   4.670   6.679  0.0094  0.7098 -0.2196
 2706SOL    HW119754   3.437   4.676   6.679  0.0675 -0.1779 -1.1651
 2706SOL    HW219755   3.328   4.575   6.675  2.1744  0.3842  0.4034
 2707SOL     OW19756   3.605   0.171  14.520 -0.1854 -0.5791  0.2078
 2707SOL    HW119757   3.578   0.249  14.472  0.6043  0.6532  1.7646
 2707SOL    HW219758   3.528   0.116  14.505 -1.5564  1.4584 -0.2018
 2708SOL     OW19759   2.401   1.729   3.166  0.6492 -0.0617 -0.1181
 2708SOL    HW119760   2.370   1.739   3.076 -1.2974 -1.3977  0.4048
 2708SOL    HW219761   2.374   1.810   3.210 -2.2617 -0.5969 -0.9677
 2709SOL     OW19762   1.080   3.730   4.897 -0.4580 -0.4489 -0.4383
 2709SOL    HW119763   1.002   3.700   4.851  0.3053  0.5662 -2.3780
 2709SOL    HW219764   1.141   3.666   4.860 -1.9564 -1.1191 -1.7542
 2710SOL     OW19765   3.554   1.236  14.401 -0.4755  0.3117 -0.2484
 2710SOL    HW119766   3.542   1.234  14.306 -1.8068  3.9714 -0.1323
 2710SOL    HW219767   3.481   1.179  14.425 -0.5426  0.1293 -0.8811
 2711SOL     OW19768   0.416   4.141   1.566 -0.8817 -0.4394 -0.5493
 2711SOL    HW119769   0.382   4.183   1.645  3.1075 -0.7454  1.3177
 2711SOL    HW219770   0.376   4.054   1.566 -0.8406 -0.4527  0.4630
 2712SOL     OW19771   3.217   1.953  13.265 -0.2886  0.3865 -0.0221
 2712SOL    HW119772   3.230   2.048  13.257  1.3177  0.2301  0.8031
 2712SOL    HW219773   3.139   1.939  13.211  0.5504  0.5035 -1.2587
 2713SOL     OW19774   0.015   3.548  15.477 -0.1889  0.1173 -0.7541
 2713SOL    HW119775   0.045   3.626  15.430 -3.0249  1.3551 -0.5527
 2713SOL    HW219776   0.079   3.486  15.442 -0.6768 -0.6513 -0.2791
 2714SOL     OW19777   0.691   0.744  11.336  0.0902  0.0218  0.0244
 2714SOL    HW119778   0.661   0.760  11.425 -1.4839 -1.8764 -0.1778
 2714SOL    HW219779   0.716   0.833  11.313 -0.3637  0.4617  1.2396
 2715SOL     OW19780   0.811   0.656   4.926 -0.3395  0.3468  0.0311
 2715SOL    HW119781   0.818   0.561   4.923  0.5992  0.3328  2.5626
 2715SOL    HW219782   0.884   0.690   4.978  0.5409 -0.8552 -0.4556
 2716SOL     OW19783   3.150   0.763   6.964 -0.3547 -0.4322 -0.5858
 2716SOL    HW119784   3.186   0.776   6.877  0.0824  0.5737 -0.2523
 2716SOL    HW219785   3.075   0.822   6.967  1.2649  1.6368 -0.8106
 2717SOL     OW19786   1.651   2.272  10.342 -0.0885 -0.3728  0.3682
 2717SOL    HW119787   1.634   2.300  10.252 -0.1273  1.1372  0.8358
 2717SOL    HW219788   1.709   2.199  10.320 -0.2632 -0.5902  0.6318
 2718SOL     OW19789   0.027   0.943   0.668 -0.3694  0.0098  0.4794
 2718SOL    HW119790   0.045   0.976   0.756  0.2978 -0.3545  0.4786
 2718SOL    HW219791   4.732   1.026   0.632 -0.4314  0.3313  1.2736
 2719SOL     OW19792   4.461   4.002   3.234  0.1926  0.3655 -0.1566
 2719SOL    HW119793   4.419   4.080   3.270 -0.2667  0.4969 -0.9720
 2719SOL    HW219794   4.418   3.932   3.283  1.9074 -0.4470  0.1689
 2720SOL     OW19795   4.692   0.226   3.562 -0.2152  0.3163  0.0068
 2720SOL    HW119796   4.615   0.181   3.597 -0.1567 -0.5907 -1.0419
 2720SOL    HW219797   0.022   0.205   3.626  0.0771  2.5580  0.4632
 2721SOL     OW19798   1.087   4.260  15.529  0.2865  0.0532 -0.1596
 2721SOL    HW119799   1.013   4.227  15.581  1.5763 -2.5444  0.0263
 2721SOL    HW219800   1.029   4.312  15.473  1.4473  0.6693 -0.7801
 2722SOL     OW19801   2.550   4.127   8.560 -0.5579 -0.2999 -0.5035
 2722SOL    HW119802   2.486   4.156   8.624  2.5386  0.0903  2.4281
 2722SOL    HW219803   2.606   4.083   8.624 -0.7340 -0.0992 -0.2158
 2723SOL     OW19804   3.584   0.846  10.524  0.0300  0.6415  0.2679
 2723SOL    HW119805   3.624   0.922  10.481 -0.4856  1.4728  1.2555
 2723SOL    HW219806   3.530   0.891  10.589  1.9363  1.5521  1.2109
 2724SOL     OW19807   0.632   4.081   3.134 -0.4322  0.0956  0.0725
 2724SOL    HW119808   0.704   4.019   3.141 -0.2995  0.5907  3.0499
 2724SOL    HW219809   0.584   4.063   3.053  0.3467  0.7802 -0.5372
 2725SOL     OW19810   0.381   0.634   7.105 -0.3119  0.0148  0.2504
 2725SOL    HW119811   0.286   0.637   7.114 -0.3386 -2.4608  0.7787
 2725SOL    HW219812   0.403   0.541   7.111  0.5366  0.1970 -0.0175
 2726SOL     OW19813   2.210   2.506  15.373  0.4282 -0.1295  0.0273
 2726SOL    HW119814   2.296   2.467  15.391 -0.0791 -1.1604  0.2597
 2726SOL    HW219815   2.234   2.595  15.396 -2.9269  0.8961 -0.3630
 2727SOL     OW19816   4.066   3.295   7.311  0.1211  0.2044  0.2515
 2727SOL    HW119817   4.023   3.380   7.307 -0.1781  0.0963  1.0462
 2727SOL    HW219818   4.017   3.252   7.381  0.1458  2.2179  1.5194
 2728SOL     OW19819   2.861   2.860   4.042 -0.6969 -0.1940  0.2267
 2728SOL    HW119820   2.877   2.795   3.973  1.6216  1.8925 -1.2029
 2728SOL    HW219821   2.794   2.910   3.995 -0.5407 -0.0060  0.2040
 2729SOL     OW19822   1.872   2.238   3.279 -0.6995 -0.4144 -0.3676
 2729SOL    HW119823   1.856   2.144   3.283  2.1859 -0.8537  0.7511
 2729SOL    HW219824   1.861   2.267   3.369 -0.1450  1.1694 -0.7966
 2730SOL     OW19825   0.806   2.492   6.505  0.3290  0.3333  0.1933
 2730SOL    HW119826   0.786   2.420   6.445 -1.3375  2.3618 -1.6856
 2730SOL    HW219827   0.901   2.491   6.489  0.1928 -2.5734 -0.5235
 2731SOL     OW19828   2.268   3.932   4.726 -0.0985  0.2324 -0.2403
 2731SOL    HW119829   2.290   4.022   4.752 -1.4770 -0.0201  1.8552
 2731SOL    HW219830   2.351   3.887   4.739  0.6218  1.3265 -0.9858
 2732SOL     OW19831   4.098   3.694  13.057 -0.3336  0.0062  0.0434
 2732SOL    HW119832   4.052   3.634  12.999 -1.2080  0.3343  0.3952
 2732SOL    HW219833   4.038   3.769  13.051  1.3950  1.5739  2.1399
 2733SOL     OW19834   0.453   3.567   1.985 -0.4292  0.1813  0.0948
 2733SOL    HW119835   0.416   3.631   1.924 -1.2940 -0.9919 -0.6167
 2733SOL    HW219836   0.507   3.627   2.036  0.9550 -0.3722 -0.7257
 2734SOL     OW19837   2.234   1.798   6.649 -0.1090  0.3898  0.5152
 2734SOL    HW119838   2.321   1.835   6.640 -0.6518  1.2228 -1.2666
 2734SOL    HW219839   2.249   1.756   6.733 -1.1366  2.5323  1.7833
 2735SOL     OW19840   2.209   3.112   3.175  0.3192  0.1546  0.4068
 2735SOL    HW119841   2.114   3.127   3.169  0.1313 -0.8472  0.9847
 2735SOL    HW219842   2.239   3.197   3.144  0.7908 -0.2586 -0.2648
 2736SOL     OW19843   4.002   1.685   2.631 -0.3382  0.3277 -0.3180
 2736SOL    HW119844   3.959   1.617   2.682 -0.0580 -1.2592 -2.2044
 2736SOL    HW219845   4.002   1.653   2.541 -1.3217  0.7121 -0.4538
 2737SOL     OW19846   2.425   2.948  14.633 -0.1529 -0.6598  0.3967
 2737SOL    HW119847   2.454   2.929  14.722 -2.9071  1.6678  1.7836
 2737SOL    HW219848   2.332   2.961  14.650  0.2879  2.6819  0.1649
 2738SOL     OW19849   1.132   2.290   7.286 -0.1838  0.4768 -0.7333
 2738SOL    HW119850   1.167   2.207   7.254 -0.1154 -0.1794  1.0685
 2738SOL    HW219851   1.126   2.278   7.381 -0.2120 -0.8132 -0.9030
 2739SOL     OW19852   3.425   4.002   7.030  1.3727 -1.0592 -0.4222
 2739SOL    HW119853   3.409   4.010   6.936  3.5193 -1.9127 -0.8322
 2739SOL    HW219854   3.350   4.050   7.066  0.3278 -2.1805 -1.0880
 2740SOL     OW19855   2.353   0.927   8.917  0.4353  0.3877  0.0734
 2740SOL    HW119856   2.415   0.954   8.985 -0.6080  2.0274  0.3724
 2740SOL    HW219857   2.342   1.016   8.884 -0.5326  0.3589  0.3391
 2741SOL     OW19858   3.434   3.834   4.890 -0.4629  0.1913 -0.2185
 2741SOL    HW119859   3.489   3.800   4.819 -0.2666  0.5107 -0.2182
 2741SOL    HW219860   3.503   3.828   4.955 -0.1664 -1.0191 -0.6516
 2742SOL     OW19861   2.724   1.616  13.726 -0.4634 -0.1537  0.3330
 2742SOL    HW119862   2.647   1.648  13.679 -0.3938 -1.4172 -0.6525
 2742SOL    HW219863   2.790   1.678  13.693  0.9211 -1.4717  0.5831
 2743SOL     OW19864   2.724   4.059   2.510  0.0596  0.1607  0.2038
 2743SOL    HW119865   2.718   4.073   2.415 -2.3754  1.5839  0.5618
 2743SOL    HW219866   2.659   4.121   2.544 -1.0218 -1.3617  0.9317
 2744SOL     OW19867   1.709   0.011   1.314 -0.0953  0.5172  0.5164
 2744SOL    HW119868   1.791   0.004   1.266 -1.1460 -0.1944 -1.1936
 2744SOL    HW219869   1.715   0.102   1.342 -0.3122  1.2890 -1.8939
 2745SOL     OW19870   0.549   2.083   9.913  0.2282 -0.3147  0.0816
 2745SOL    HW119871   0.556   2.099   9.819 -0.8773  2.1228  0.4076
 2745SOL    HW219872   0.469   2.131   9.937 -0.4289 -0.7791 -1.2261
 2746SOL     OW19873   3.325   1.614   7.133 -0.6767  0.1657 -0.1231
 2746SOL    HW119874   3.234   1.592   7.112 -0.7875 -0.3214  0.9132
 2746SOL    HW219875   3.367   1.529   7.130 -0.3536  0.2729  1.8119
 2747SOL     OW19876   0.080   4.267   5.457 -0.4609 -0.0652 -0.0295
 2747SOL    HW119877   0.134   4.189   5.441 -0.1772 -0.3473  2.2921
 2747SOL    HW219878   0.145   4.338   5.460 -0.5532  0.0020  0.3641
 2748SOL     OW19879   3.133   1.231   3.845 -0.2414 -0.0931 -0.2912
 2748SOL    HW119880   3.114   1.305   3.788 -1.0789 -0.6214 -0.7000
 2748SOL    HW219881   3.179   1.284   3.910 -1.3907  1.2397 -0.5594
 2749SOL     OW19882   4.163   0.036   8.953  0.4509  0.4444 -0.2250
 2749SOL    HW119883   4.245   0.079   8.976 -0.0832  2.3324 -1.8554
 2749SOL    HW219884   4.206   4.694   8.920  0.9145  0.6380 -0.0759
 2750SOL     OW19885   4.369   0.526   2.640 -0.4186  0.6145 -0.4027
 2750SOL    HW119886   4.317   0.457   2.682 -2.5307  1.8229 -1.0207
 2750SOL    HW219887   4.293   0.575   2.611  1.0113  0.5081 -4.3006
 2751SOL     OW19888   1.080   4.579  12.616  0.5717  0.5985 -0.1755
 2751SOL    HW119889   1.057   4.505  12.559  1.3297  1.4760 -1.6455
 2751SOL    HW219890   1.165   4.606  12.582  1.1682 -0.1949  0.7000
 2752SOL     OW19891   2.847   2.731   7.449  0.3288  0.6902 -0.2500
 2752SOL    HW119892   2.834   2.743   7.355 -1.8611 -2.6371 -0.3902
 2752SOL    HW219893   2.863   2.637   7.457  0.0550  0.6641  0.0005
 2753SOL     OW19894   2.036   3.550   0.780 -0.4690  0.5647 -0.3155
 2753SOL    HW119895   2.050   3.562   0.686 -0.7253  0.3221 -0.3842
 2753SOL    HW219896   2.105   3.596   0.828  0.3185  0.1682 -1.0736
 2754SOL     OW19897   0.288   1.671   8.346 -0.2951  0.2380  0.2076
 2754SOL    HW119898   0.350   1.613   8.302 -1.3140 -0.1066 -0.7818
 2754SOL    HW219899   0.217   1.609   8.366 -0.1473 -0.8872 -2.8814
 2755SOL     OW19900   4.421   2.375   4.756 -0.0664 -0.2174 -0.2424
 2755SOL    HW119901   4.511   2.379   4.725  0.1443  1.2931  0.5686
 2755SOL    HW219902   4.374   2.322   4.691 -0.3590 -0.0694 -0.1486
 2756SOL     OW19903   2.265   3.208   0.533  0.2493 -0.3376  0.1730
 2756SOL    HW119904   2.338   3.147   0.538  0.4648 -0.0680  0.3072
 2756SOL    HW219905   2.242   3.185   0.443 -0.3472 -2.2782  0.8177
 2757SOL     OW19906   1.661   4.143   0.949 -0.5027 -0.6249  0.3038
 2757SOL    HW119907   1.589   4.103   0.900  0.4886 -0.9689 -0.8787
 2757SOL    HW219908   1.730   4.145   0.882 -2.3356  0.4514 -1.5827
 2758SOL     OW19909   3.534   0.985   5.601 -0.2127 -0.5266  0.4600
 2758SOL    HW119910   3.515   1.063   5.652  0.3064 -1.0936  1.5083
 2758SOL    HW219911   3.629   0.979   5.590 -0.6311  0.1049 -3.6927
 2759SOL     OW19912   2.325   4.143   6.856 -0.2882 -0.0272 -0.1607
 2759SOL    HW119913   2.332   4.188   6.940  1.9120 -1.2450  0.3198
 2759SOL    HW219914   2.245   4.092   6.871 -0.1667  0.2547  1.3579
 2760SOL     OW19915   3.863   1.453   2.722  0.2901  0.5081 -0.2554
 2760SOL    HW119916   3.769   1.464   2.706  0.3699 -0.7141 -1.5340
 2760SOL    HW219917   3.876   1.379   2.662 -0.3426  0.4845 -0.3632
 2761SOL     OW19918   1.839   2.283   9.263  0.1720 -0.4095  0.1340
 2761SOL    HW119919   1.927   2.274   9.228  0.9667  0.6735  1.8636
 2761SOL    HW219920   1.821   2.192   9.289 -0.0330 -0.2327  0.6092
 2762SOL     OW19921   0.613   1.962   6.052 -0.0060  0.5295  0.1230
 2762SOL    HW119922   0.555   1.954   6.127  2.2343  1.8956  2.0033
 2762SOL    HW219923   0.656   2.043   6.079  1.2105  0.2139 -0.8463
 2763SOL     OW19924   3.522   1.294   2.461 -0.0685 -0.0416  0.0567
 2763SOL    HW119925   3.520   1.264   2.370 -0.0517  1.6912 -0.5087
 2763SOL    HW219926   3.431   1.281   2.488  0.1395  0.4435  0.9895
 2764SOL     OW19927   0.259   0.727   4.185  0.3792 -0.3470 -0.0014
 2764SOL    HW119928   0.310   0.655   4.222  1.1739 -0.8356 -2.0214
 2764SOL    HW219929   0.196   0.683   4.127  1.3627 -3.3172  1.1762
 2765SOL     OW19930   3.747   4.411  10.578  0.4012  0.3528 -0.9815
 2765SOL    HW119931   3.703   4.334  10.542  0.3315  0.1729 -0.5054
 2765SOL    HW219932   3.781   4.440  10.493 -0.2358 -0.2888 -1.4476
 2766SOL     OW19933   4.020   0.346   1.670 -0.5486 -0.4724 -0.3801
 2766SOL    HW119934   3.975   0.275   1.716 -0.5343  0.7334  1.4396
 2766SOL    HW219935   4.088   0.367   1.733  0.3088  0.2012 -1.5295
 2767SOL     OW19936   2.042   0.798   2.521  0.0239  0.1779  0.7152
 2767SOL    HW119937   2.085   0.734   2.578 -0.8636  0.0731  1.2677
 2767SOL    HW219938   1.958   0.792   2.566  0.4689 -2.0032  1.2334
 2768SOL     OW19939   1.806   0.596   5.382 -0.3725 -0.1504 -0.2776
 2768SOL    HW119940   1.729   0.566   5.430  0.0919 -0.8181  0.0558
 2768SOL    HW219941   1.880   0.593   5.443  0.1132  1.6661 -0.7768
 2769SOL     OW19942   2.320   0.973   1.181  0.0774  0.1141 -0.5713
 2769SOL    HW119943   2.254   0.955   1.248 -2.1497  0.9870 -2.5223
 2769SOL    HW219944   2.289   0.930   1.102 -1.6334  2.1476 -1.0199
 2770SOL     OW19945   1.083   0.831   4.125  0.3201 -0.0810 -0.0893
 2770SOL    HW119946   1.039   0.747   4.140  0.2085  0.0481  0.3036
 2770SOL    HW219947   1.154   0.828   4.188 -0.1921 -1.0321  0.4293
 2771SOL     OW19948   4.284   3.581  15.635 -0.0580  0.1143 -0.0149
 2771SOL    HW119949   4.232   3.647  15.590 -0.2112  1.6073  2.3772
 2771SOL    HW219950   4.358   3.637  15.656  1.6777 -2.2782  0.2595
 2772SOL     OW19951   0.007   2.627   4.806  0.3371 -0.5201  0.3128
 2772SOL    HW119952   0.059   2.674   4.742  1.0103  0.9961  1.9841
 2772SOL    HW219953   0.072   2.570   4.847  0.2545 -2.5747 -2.4060
 2773SOL     OW19954   2.859   1.360   2.041 -0.7878  0.0371 -0.6875
 2773SOL    HW119955   2.788   1.325   1.987 -0.1913 -2.6350  0.2606
 2773SOL    HW219956   2.911   1.402   1.973 -0.0104  0.1816  0.0006
 2774SOL     OW19957   0.457   1.153   1.409  0.0198 -0.1121 -0.4342
 2774SOL    HW119958   0.378   1.100   1.411 -0.5766  0.7769 -0.7077
 2774SOL    HW219959   0.473   1.150   1.315 -0.7343 -0.3352 -0.5505
 2775SOL     OW19960   1.223   2.385   4.997 -0.0528 -0.0361  0.7437
 2775SOL    HW119961   1.307   2.342   4.984 -0.1084  0.0333  0.1786
 2775SOL    HW219962   1.253   2.467   5.035 -0.1480  0.2249  0.2513
 2776SOL     OW19963   1.517   4.257  10.383 -0.3264  0.2960  0.2329
 2776SOL    HW119964   1.452   4.204  10.427 -0.3815  0.4703  0.3597
 2776SOL    HW219965   1.553   4.315  10.450 -0.0217 -0.0054  0.3294
 2777SOL     OW19966   1.322   1.768   7.643 -0.4834 -0.5140 -0.0049
 2777SOL    HW119967   1.274   1.848   7.661  0.8763  0.7318 -1.9903
 2777SOL    HW219968   1.411   1.790   7.670 -0.6865  0.0799  0.1628
 2778SOL     OW19969   4.277   3.370  15.263 -0.0278 -0.3098 -0.5393
 2778SOL    HW119970   4.201   3.425  15.279  0.0463  0.1550 -1.8053
 2778SOL    HW219971   4.354   3.415  15.300 -0.4547 -1.2272  1.4941
 2779SOL     OW19972   2.699   3.884   2.769 -0.2952 -0.1251 -0.1841
 2779SOL    HW119973   2.657   3.970   2.765 -0.2160 -0.0106  1.5724
 2779SOL    HW219974   2.739   3.868   2.684 -2.6491 -0.1251 -1.3051
 2780SOL     OW19975   1.955   1.207  15.746 -0.4826  0.5447  0.1603
 2780SOL    HW119976   1.963   1.209  15.841 -1.7599 -1.4096  0.3085
 2780SOL    HW219977   2.007   1.127  15.745 -0.1374  0.7798 -1.0117
 2781SOL     OW19978   2.218   3.978   0.841  0.8691  0.0858 -0.0722
 2781SOL    HW119979   2.133   3.943   0.864  0.3450  1.3642 -0.0604
 2781SOL    HW219980   2.217   3.959   0.747 -1.5702  1.1492 -0.2538
 2782SOL     OW19981   1.493   0.690   4.986  0.4778  0.2486 -0.6263
 2782SOL    HW119982   1.507   0.757   4.918 -1.8550  0.5243 -0.8237
 2782SOL    HW219983   1.402   0.706   5.009  0.4376  1.1724 -1.4028
 2783SOL     OW19984   0.474   0.026  13.918  0.7887  0.1347 -0.5613
 2783SOL    HW119985   0.392   4.717  13.896 -0.4819  1.7786  0.7291
 2783SOL    HW219986   0.437   0.078  13.989  0.8957 -0.0681 -0.3554
 2784SOL     OW19987   4.235   0.163  10.676  0.2720  0.7892 -0.2783
 2784SOL    HW119988   4.252   0.163  10.770  1.2708 -1.1299 -0.4562
 2784SOL    HW219989   4.302   0.222  10.642  0.7931  0.5192  0.2743
 2785SOL     OW19990   0.855   1.222  14.827 -0.0124 -0.2761 -0.0457
 2785SOL    HW119991   0.890   1.305  14.859  1.5379 -0.0805 -2.2270
 2785SOL    HW219992   0.932   1.168  14.844 -0.7035 -0.8422  1.2984
 2786SOL     OW19993   2.319   0.425  15.372  0.0545  0.1255  0.1928
 2786SOL    HW119994   2.254   0.495  15.360  0.5836  0.0397 -3.1792
 2786SOL    HW219995   2.378   0.444  15.299  0.2001 -0.5442  0.1379
 2787SOL     OW19996   3.040   1.353   4.141  0.3711  0.0402  0.2897
 2787SOL    HW119997   3.035   1.398   4.225  0.4847  1.4874 -0.4972
 2787SOL    HW219998   3.094   1.412   4.089 -2.1411  2.7687  0.7975
 2788SOL     OW19999   0.366   2.700  13.140 -1.1135 -0.3762 -0.5537
 2788SOL    HW120000   0.446   2.665  13.103  1.1244  0.3280  3.6056
 2788SOL    HW220001   0.391   2.697  13.233 -1.3156 -1.2566 -0.5268
 2789SOL     OW20002   2.694   0.830   6.732  0.1401 -0.2223  0.1838
 2789SOL    HW120003   2.739   0.899   6.782 -0.3817 -1.1321  1.9342
 2789SOL    HW220004   2.757   0.824   6.660 -1.0380 -1.6389 -0.7134
 2790SOL     OW20005   2.883   0.469  12.827 -0.7518 -0.0643  0.0788
 2790SOL    HW120006   2.808   0.528  12.817  0.7045  1.6932 -0.6261
 2790SOL    HW220007   2.860   0.415  12.751  3.1256 -2.0001  0.2718
 2791SOL     OW20008   1.610   1.138   1.286  0.0856 -0.0136  0.0769
 2791SOL    HW120009   1.520   1.171   1.288  0.5326  1.3771 -2.3494
 2791SOL    HW220010   1.606   1.068   1.220  1.0004 -1.6326  1.7521
 2792SOL     OW20011   2.732   3.794   3.396  0.7157  0.5030  0.5419
 2792SOL    HW120012   2.716   3.732   3.467  0.2778 -1.1439 -1.0034
 2792SOL    HW220013   2.728   3.733   3.323  1.0670  3.1740 -1.6948
 2793SOL     OW20014   3.299   3.214  15.340  0.1306 -0.2549  0.0331
 2793SOL    HW120015   3.295   3.119  15.351 -1.9029 -0.2778 -0.8561
 2793SOL    HW220016   3.347   3.230  15.258  0.5045 -2.3975 -0.1639
 2794SOL     OW20017   0.394   4.060   0.839 -0.2191 -0.1619  0.1140
 2794SOL    HW120018   0.460   4.066   0.908  0.9930  2.1830 -1.2370
 2794SOL    HW220019   0.359   4.149   0.832 -2.6218 -1.1622 -0.2630
 2795SOL     OW20020   0.918   1.867  17.258 -0.4253 -0.2565  0.2637
 2795SOL    HW120021   0.899   1.958  17.235  0.7436  0.4576  2.1304
 2795SOL    HW220022   1.002   1.874  17.302 -0.5156  0.1734  0.3714
 2796SOL     OW20023   3.196   2.221  12.845  0.0438  0.2822 -0.1364
 2796SOL    HW120024   3.127   2.155  12.839 -1.0347  1.1048  3.5283
 2796SOL    HW220025   3.154   2.302  12.817 -0.9596 -0.6545 -1.3040
 2797SOL     OW20026   3.358   4.440   3.471 -0.2055 -0.2858 -0.2478
 2797SOL    HW120027   3.404   4.463   3.552 -0.6960 -1.7145  0.4392
 2797SOL    HW220028   3.380   4.524   3.430  1.6337 -0.5479  0.1838
 2798SOL     OW20029   1.893   1.415   2.485  0.5767  0.3719  0.6102
 2798SOL    HW120030   1.870   1.357   2.557  0.0508  0.2498  0.3457
 2798SOL    HW220031   1.841   1.372   2.417  0.7174 -1.7193  1.8313
 2799SOL     OW20032   4.452   3.850   1.909 -0.1305  0.3515 -0.0039
 2799SOL    HW120033   4.370   3.819   1.947  0.7642  1.2527  2.6088
 2799SOL    HW220034   4.417   3.881   1.825 -2.9469 -2.2004  0.2311
 2800SOL     OW20035   1.120   1.425   8.044 -0.1011  0.2515  0.1723
 2800SOL    HW120036   1.118   1.456   8.134 -1.7844  0.2205  0.1303
 2800SOL    HW220037   1.185   1.477   7.996  0.1859  0.0845  0.3789
 2801SOL     OW20038   0.164   2.414   6.817 -0.3520  0.4995 -0.2607
 2801SOL    HW120039   0.209   2.458   6.745  0.4862 -0.2504 -0.1940
 2801SOL    HW220040   0.213   2.333   6.827  1.3448  1.6178  0.5546
 2802SOL     OW20041   3.465   1.075  15.910 -0.3412  0.1933 -0.5896
 2802SOL    HW120042   3.560   1.074  15.917 -0.4801 -0.0721  1.2315
 2802SOL    HW220043   3.441   0.990  15.875 -1.0008 -0.0219  0.3787
 2803SOL     OW20044   2.457   3.440   7.367 -0.0685 -0.2443  0.0522
 2803SOL    HW120045   2.378   3.432   7.420 -0.4974  0.2099 -0.5131
 2803SOL    HW220046   2.517   3.475   7.433 -0.5020 -1.0983  0.8890
 2804SOL     OW20047   0.303   0.235   3.215 -0.5882 -0.5152  0.1729
 2804SOL    HW120048   0.384   0.285   3.219 -0.3682 -0.9416  0.9637
 2804SOL    HW220049   0.233   0.300   3.226  0.7780  1.1933 -1.2851
 2805SOL     OW20050   1.064   0.544  17.631  0.3490  0.0133 -0.3770
 2805SOL    HW120051   1.144   0.545  17.683  0.3969 -3.1556 -0.4122
 2805SOL    HW220052   0.992   0.568  17.691 -2.5008 -1.9436 -2.9949
 2806SOL     OW20053   4.011   3.407  15.159 -0.2417 -0.5738  0.1263
 2806SOL    HW120054   3.958   3.461  15.100  1.6439 -1.3136 -2.2565
 2806SOL    HW220055   3.952   3.406  15.235  0.8150  0.2924  0.9551
 2807SOL     OW20056   3.105   1.784   9.024 -0.2988  0.0149 -0.5594
 2807SOL    HW120057   3.169   1.843   8.983  0.8446 -0.0578  1.1417
 2807SOL    HW220058   3.025   1.819   8.984  0.6610  1.0732 -1.5609
 2808SOL     OW20059   3.371   4.706  15.824 -0.1641 -0.2231 -0.2019
 2808SOL    HW120060   3.309   4.676  15.757  0.4821 -0.0092 -0.8945
 2808SOL    HW220061   3.305   4.715  15.892 -1.4300 -0.9694 -1.3173
 2809SOL     OW20062   0.733   1.903   5.639  0.0080  0.3297 -0.3121
 2809SOL    HW120063   0.766   1.989   5.613  0.4430  0.6442  1.3328
 2809SOL    HW220064   0.752   1.839   5.570 -1.1379 -1.3732  0.9668
 2810SOL     OW20065   0.356   3.212  16.882  0.4337 -0.0694 -0.0217
 2810SOL    HW120066   0.397   3.178  16.962 -2.0064 -2.3092  0.2582
 2810SOL    HW220067   0.264   3.188  16.882  0.1977  0.8150  0.3050
 2811SOL     OW20068   2.182   2.348   1.440  0.1921  0.2113 -0.2504
 2811SOL    HW120069   2.178   2.415   1.372  0.1868  2.6054  2.1405
 2811SOL    HW220070   2.215   2.391   1.519 -1.5756 -0.9807  1.1299
 2812SOL     OW20071   4.629   2.184   1.928  0.4156  0.8063 -0.2729
 2812SOL    HW120072   4.589   2.098   1.938  0.1954  0.7041 -2.0714
 2812SOL    HW220073   4.668   2.180   2.015 -0.9792 -0.6243  0.2935
 2813SOL     OW20074   1.141   4.258   5.023  0.0092 -0.2709  0.7050
 2813SOL    HW120075   1.215   4.283   4.967  0.4555  3.4552  2.9896
 2813SOL    HW220076   1.068   4.262   4.962 -0.4316  1.9118  1.3871
 2814SOL     OW20077   1.118   3.520   3.068  0.0484  0.7767 -0.1433
 2814SOL    HW120078   1.155   3.518   2.979  0.9100 -1.3133  0.2381
 2814SOL    HW220079   1.099   3.428   3.087 -0.8608  1.2973  1.3921
 2815SOL     OW20080   3.177   2.827   3.739  0.1073 -0.2319  0.6386
 2815SOL    HW120081   3.188   2.788   3.652 -1.5454  2.1180 -0.6248
 2815SOL    HW220082   3.248   2.780   3.783 -0.3475 -1.0072  0.5420
 2816SOL     OW20083   2.417   2.585   5.324  0.4401 -0.0129 -0.5974
 2816SOL    HW120084   2.379   2.664   5.362 -1.2585 -2.3371  2.5231
 2816SOL    HW220085   2.422   2.520   5.394  1.6811 -0.9858 -1.6087
 2817SOL     OW20086   3.497   1.590   8.511 -0.4217  0.0369  0.3455
 2817SOL    HW120087   3.441   1.561   8.583 -1.7431 -0.7526 -1.0018
 2817SOL    HW220088   3.455   1.674   8.492  1.9024  1.6072  2.1630
 2818SOL     OW20089   1.053   2.522   1.082 -0.3276 -0.4074  0.6182
 2818SOL    HW120090   1.110   2.477   1.143 -1.2644 -1.0850  0.9865
 2818SOL    HW220091   1.039   2.607   1.124 -2.2812 -0.2173 -0.3937
 2819SOL     OW20092   1.698   2.614   3.416  0.1391  0.2048  0.0710
 2819SOL    HW120093   1.766   2.628   3.350  0.3469  0.8138  0.4138
 2819SOL    HW220094   1.742   2.627   3.500 -1.4321 -0.7800  1.0510
 2820SOL     OW20095   3.667   1.769   2.615 -0.0642  0.3241 -0.0554
 2820SOL    HW120096   3.662   1.730   2.702 -2.1082  0.6310 -0.0340
 2820SOL    HW220097   3.680   1.690   2.562  0.2466  1.5547 -1.7859
 2821SOL     OW20098   0.532   2.634   9.256  0.2220 -0.9629 -0.0340
 2821SOL    HW120099   0.480   2.639   9.336 -0.0102 -0.1756 -0.2269
 2821SOL    HW220100   0.464   2.660   9.192  0.1532 -1.2831 -0.0912
 2822SOL     OW20101   2.528   1.678   5.695 -0.0892 -0.1788 -0.2746
 2822SOL    HW120102   2.508   1.678   5.601  1.5043 -0.2927 -0.6167
 2822SOL    HW220103   2.595   1.610   5.700 -1.1414 -1.3565 -1.6891
 2823SOL     OW20104   3.459   4.412  12.151  0.7031  0.1731  0.7059
 2823SOL    HW120105   3.418   4.331  12.182 -0.7558  1.5836  2.4873
 2823SOL    HW220106   3.439   4.406  12.058 -2.5394  2.9133  1.2115
 2824SOL     OW20107   1.112   0.761   4.496  0.1006  0.1003  0.1911
 2824SOL    HW120108   1.057   0.688   4.466  0.3093  0.0092  0.0278
 2824SOL    HW220109   1.192   0.746   4.445  0.8002  0.8560  1.0907
 2825SOL     OW20110   1.124   1.593   4.125 -0.5035  0.0352 -0.2535
 2825SOL    HW120111   1.188   1.589   4.197 -1.8018  0.8095  0.9385
 2825SOL    HW220112   1.076   1.672   4.149 -0.0623  0.1034  0.4107
 2826SOL     OW20113   2.982   2.549  10.458  0.0766  0.5293  0.4169
 2826SOL    HW120114   3.037   2.627  10.446  0.1163  0.9368  3.0391
 2826SOL    HW220115   2.893   2.584  10.457  0.8926  2.5802 -0.0884
 2827SOL     OW20116   2.378   0.299  12.945 -0.4174 -0.3805 -0.9347
 2827SOL    HW120117   2.407   0.215  12.909 -2.1209 -0.1617 -2.7865
 2827SOL    HW220118   2.397   0.279  13.037  3.1142  1.1935 -1.3030
 2828SOL     OW20119   3.064   4.393   6.319  0.3017  0.1919 -0.2542
 2828SOL    HW120120   3.024   4.369   6.236  2.1920 -1.3674 -0.6971
 2828SOL    HW220121   3.082   4.487   6.308  1.9555  0.3216  3.4142
 2829SOL     OW20122   3.076   1.123   2.984  0.1411 -0.8727  0.2618
 2829SOL    HW120123   3.146   1.138   2.921 -0.2264 -1.6753 -0.3329
 2829SOL    HW220124   3.006   1.176   2.946  0.9732  0.5682  0.7345
 2830SOL     OW20125   0.701   1.442   2.408 -0.9441 -0.5374  0.5537
 2830SOL    HW120126   0.775   1.385   2.388 -2.1453 -1.0630 -2.4361
 2830SOL    HW220127   0.672   1.421   2.497 -3.7919  2.0158  0.2785
 2831SOL     OW20128   1.457   1.074   3.131  0.3762  0.0854 -0.6372
 2831SOL    HW120129   1.475   1.044   3.042  0.4226 -0.9108 -0.2922
 2831SOL    HW220130   1.539   1.123   3.143 -1.6051  3.4268 -0.5318
 2832SOL     OW20131   3.609   3.960   2.383  0.0811  0.0290  0.1808
 2832SOL    HW120132   3.541   3.978   2.447  1.3743 -0.1523  1.6044
 2832SOL    HW220133   3.664   4.038   2.389  0.1272  0.1284 -1.3347
 2833SOL     OW20134   4.036   4.481  13.106  0.3352 -0.2214 -0.3039
 2833SOL    HW120135   4.119   4.484  13.058 -0.3573 -0.4931 -1.5380
 2833SOL    HW220136   4.063   4.481  13.198  1.6929 -0.5751 -0.7001
 2834SOL     OW20137   1.849   4.014   4.942 -0.4198 -0.3752  0.2811
 2834SOL    HW120138   1.923   4.032   5.000 -0.4343 -0.1720  0.2341
 2834SOL    HW220139   1.884   3.940   4.892  3.3761  1.9382 -0.4157
 2835SOL     OW20140   2.645   1.076  16.128  0.3259 -0.7062 -0.9048
 2835SOL    HW120141   2.627   1.100  16.219  1.3999  1.1332 -1.1782
 2835SOL    HW220142   2.581   1.007  16.111 -0.1292 -0.4885 -0.1098
 2836SOL     OW20143   1.401   2.215   7.548  0.2689  0.0860 -0.6299
 2836SOL    HW120144   1.348   2.282   7.591 -0.1066  0.1847 -1.2538
 2836SOL    HW220145   1.482   2.261   7.572 -0.3910  1.2607 -0.6614
 2837SOL     OW20146   3.686   2.621   7.502 -0.8205  0.2229  0.4471
 2837SOL    HW120147   3.600   2.662   7.516 -1.9371 -2.1688  0.5192
 2837SOL    HW220148   3.670   2.533   7.536 -0.0804  0.1908  0.7105
 2838SOL     OW20149   2.778   0.883   7.533 -0.3816 -0.4700  0.0854
 2838SOL    HW120150   2.756   0.862   7.623 -0.5771  0.5518  0.2824
 2838SOL    HW220151   2.751   0.809   7.479  1.4721 -2.3477  1.7548
 2839SOL     OW20152   0.351   1.358   2.874  0.7455 -0.1601 -0.0632
 2839SOL    HW120153   0.287   1.416   2.834  0.8677 -0.5072 -0.7736
 2839SOL    HW220154   0.331   1.357   2.967 -1.0280 -0.2562 -0.4599
 2840SOL     OW20155   1.375   2.229   3.523 -0.3691  0.2425  0.0588
 2840SOL    HW120156   1.418   2.234   3.608  2.0690  0.4091 -1.1977
 2840SOL    HW220157   1.421   2.279   3.456  0.6052  0.7974  1.1331
 2841SOL     OW20158   3.557   4.310   2.390 -0.1661  0.1081 -0.6611
 2841SOL    HW120159   3.496   4.322   2.317  0.1167  0.3629 -0.8541
 2841SOL    HW220160   3.633   4.278   2.341  0.1320  0.4460 -0.4195
 2842SOL     OW20161   0.345   4.715   3.987  0.5352 -0.3745 -0.5826
 2842SOL    HW120162   0.360   0.073   3.984 -0.9670 -0.1951 -2.4668
 2842SOL    HW220163   0.305   4.707   4.074 -0.6860 -1.4321 -1.2326
 2843SOL     OW20164   1.206   2.893  15.932 -0.6364  0.1501  0.4089
 2843SOL    HW120165   1.203   2.798  15.945  1.1150  0.0583  0.1316
 2843SOL    HW220166   1.148   2.927  16.000  1.4693 -0.1501  2.3460
 2844SOL     OW20167   0.407   4.097   4.656  0.5367  0.3749  0.0478
 2844SOL    HW120168   0.467   4.028   4.685 -0.7903 -1.4946 -1.6713
 2844SOL    HW220169   0.331   4.049   4.690  1.2380 -0.4541  0.4553
 2845SOL     OW20170   1.660   1.013   2.442  0.1375 -0.2570 -0.5005
 2845SOL    HW120171   1.637   0.981   2.355  0.9358  0.1566 -0.8687
 2845SOL    HW220172   1.603   0.952   2.489  1.1123  0.2818  1.3882
 2846SOL     OW20173   1.527   3.230  16.927 -0.2476  0.3179  0.1270
 2846SOL    HW120174   1.531   3.311  16.977 -1.8667 -0.0783  0.9295
 2846SOL    HW220175   1.434   3.226  16.903 -0.0785 -1.3240 -0.2368
 2847SOL     OW20176   0.420   4.499  17.693  0.6172 -0.0954 -0.5034
 2847SOL    HW120177   0.367   4.423  17.669  0.8411 -1.1162  2.2194
 2847SOL    HW220178   0.466   4.513  17.610  0.5546  0.7837 -0.3888
 2848SOL     OW20179   4.509   0.063   1.099  0.1673  0.1150 -0.2212
 2848SOL    HW120180   4.458   0.015   1.034 -0.6491  0.0158  0.4968
 2848SOL    HW220181   4.478   0.150   1.076  1.2077  0.4651 -0.3322
 2849SOL     OW20182   4.637   2.313   2.267  0.4555 -0.2877 -0.8052
 2849SOL    HW120183   4.655   2.386   2.325  1.5438 -2.1553  1.2180
 2849SOL    HW220184   4.547   2.284   2.284 -0.8708  3.9268 -0.6853
 2850SOL     OW20185   1.479   1.645   6.084 -0.2303 -0.3770  0.4993
 2850SOL    HW120186   1.523   1.700   6.149  0.8696 -1.4028  0.6233
 2850SOL    HW220187   1.522   1.562   6.102  0.5880  0.5284  2.6851
 2851SOL     OW20188   4.140   4.369   2.952  0.7989  0.4512 -0.0066
 2851SOL    HW120189   4.220   4.422   2.959  1.5285 -0.9267  1.9576
 2851SOL    HW220190   4.171   4.288   2.993  0.5246  0.2183 -0.2639
 2852SOL     OW20191   3.183   4.700  17.007  0.4387 -0.6614 -0.7052
 2852SOL    HW120192   3.132   4.637  16.957 -3.1452 -1.1137  3.5149
 2852SOL    HW220193   3.272   4.680  16.980  0.8481  0.5587 -0.2446
 2853SOL     OW20194   0.957   3.086   8.893  0.2352  0.7435  0.2181
 2853SOL    HW120195   1.032   3.125   8.848  1.1935 -0.7026  0.5799
 2853SOL    HW220196   0.953   3.133   8.976 -2.6279 -0.9884  1.0560
 2854SOL     OW20197   4.315   2.356  14.857  0.6202  0.0972  0.2775
 2854SOL    HW120198   4.261   2.336  14.933  0.4353 -2.1712 -0.4211
 2854SOL    HW220199   4.334   2.448  14.872  0.6220  0.2356 -0.5429
 2855SOL     OW20200   4.723   3.760   7.954  0.7831 -0.4459 -0.2956
 2855SOL    HW120201   0.048   3.804   7.894 -0.3958 -0.2128 -1.3302
 2855SOL    HW220202   0.039   3.745   8.032  0.4211 -0.4092 -0.0458
 2856SOL     OW20203   2.892   4.254   6.479  0.8958 -0.0872  0.0499
 2856SOL    HW120204   2.805   4.295   6.471  0.8558 -0.1347  0.2362
 2856SOL    HW220205   2.939   4.296   6.407  1.0348 -1.7260 -0.8121
 2857SOL     OW20206   4.308   1.569   6.301 -0.0046  0.1587  0.2392
 2857SOL    HW120207   4.306   1.588   6.207  0.8724  0.6000  0.2991
 2857SOL    HW220208   4.309   1.474   6.313  2.3100 -0.0863 -1.7903
 2858SOL     OW20209   4.421   2.683   2.392  0.2077  0.0192  0.0049
 2858SOL    HW120210   4.346   2.662   2.337 -0.1218 -0.0668  0.4848
 2858SOL    HW220211   4.444   2.763   2.345  1.1299 -0.2556 -0.0178
 2859SOL     OW20212   3.266   4.135  11.988 -0.1034  0.1781  0.7172
 2859SOL    HW120213   3.338   4.116  12.048 -1.1048  0.3153  1.9713
 2859SOL    HW220214   3.190   4.098  12.033  0.3840 -1.1995  0.4073
 2860SOL     OW20215   3.850   1.052  14.832  0.2673 -0.4189  0.1824
 2860SOL    HW120216   3.795   1.098  14.769  0.6355  2.2806  1.8246
 2860SOL    HW220217   3.913   1.121  14.854  0.0465 -0.3487  0.5962
 2861SOL     OW20218   0.753   3.653   8.603  0.3927 -0.5517  0.5730
 2861SOL    HW120219   0.844   3.626   8.593  0.6761  0.8015 -0.5219
 2861SOL    HW220220   0.712   3.633   8.519  0.7784 -3.2133  1.0107
 2862SOL     OW20221   3.327   1.892   7.314  0.2958  0.0630 -0.3614
 2862SOL    HW120222   3.275   1.849   7.245 -0.7637  0.2830  0.2986
 2862SOL    HW220223   3.414   1.853   7.306  0.3600  0.2569 -0.6034
 2863SOL     OW20224   3.784   2.485   4.241  0.3345  0.7067 -0.3206
 2863SOL    HW120225   3.819   2.483   4.330 -0.3444 -1.2884 -0.0962
 2863SOL    HW220226   3.694   2.514   4.252  0.5203  1.4489 -0.7746
 2864SOL     OW20227   0.191   0.009  16.218 -0.8705 -0.0625  0.1358
 2864SOL    HW120228   0.203   4.675  16.282  3.5279 -1.3384 -2.0916
 2864SOL    HW220229   0.200   4.692  16.139 -0.0871  0.5063 -0.1626
 2865SOL     OW20230   2.949   2.988  14.610  0.2287  0.4284 -0.0891
 2865SOL    HW120231   2.870   2.939  14.589  1.3475 -1.1647 -0.5051
 2865SOL    HW220232   2.919   3.079  14.608 -1.2518 -0.1031 -1.3324
 2866SOL     OW20233   2.668   3.153   7.372 -0.0645  0.3829 -0.1002
 2866SOL    HW120234   2.664   3.058   7.382 -1.4406  0.7960  3.2890
 2866SOL    HW220235   2.578   3.168   7.399 -0.4154 -3.4214  0.7103
 2867SOL     OW20236   1.386   1.583   5.832  0.1403 -0.6766  0.3680
 2867SOL    HW120237   1.393   1.488   5.825 -0.7636 -0.7865  0.9827
 2867SOL    HW220238   1.407   1.594   5.925 -0.2176  1.9067  0.1495
 2868SOL     OW20239   3.352   3.368   3.915 -0.1998 -0.1266 -0.1242
 2868SOL    HW120240   3.350   3.320   3.832  0.3148 -1.8059  0.8515
 2868SOL    HW220241   3.268   3.352   3.956 -0.3492  1.1451  0.0787
 2869SOL     OW20242   3.486   3.630   7.684  0.0705  0.1092  0.2442
 2869SOL    HW120243   3.519   3.616   7.596 -0.0901  0.6065  0.1051
 2869SOL    HW220244   3.405   3.676   7.660  1.2128  2.4233  0.8657
 2870SOL     OW20245   3.795   2.859   7.229  0.0572  0.1584 -0.4233
 2870SOL    HW120246   3.835   2.818   7.306 -0.2596 -3.1463 -2.0054
 2870SOL    HW220247   3.866   2.873   7.166 -0.1211 -1.9159 -1.0733
 2871SOL     OW20248   3.836   1.108  15.128 -0.0864  0.1080 -0.3731
 2871SOL    HW120249   3.922   1.118  15.087 -0.3599  0.0120 -0.9623
 2871SOL    HW220250   3.820   1.197  15.159 -0.1324  0.4558 -1.3896
 2872SOL     OW20251   1.570   1.534   8.439  0.3057 -0.1096  0.5925
 2872SOL    HW120252   1.644   1.543   8.379  1.2603 -0.2948  1.7317
 2872SOL    HW220253   1.495   1.575   8.397  0.1540  0.4230  1.3849
 2873SOL     OW20254   4.175   2.123  16.634  0.6767 -0.3519  0.3922
 2873SOL    HW120255   4.140   2.111  16.545  2.3164 -0.1085 -0.3035
 2873SOL    HW220256   4.251   2.064  16.639  1.8003  1.0288 -0.4416
 2874SOL     OW20257   3.784   0.424   3.200 -0.9615 -0.2102  0.1804
 2874SOL    HW120258   3.723   0.483   3.155 -1.4446 -1.1429 -0.3738
 2874SOL    HW220259   3.730   0.360   3.246  1.8329 -1.7559  1.3304
 2875SOL     OW20260   1.813   1.668  15.095 -0.2538  0.2358  0.3158
 2875SOL    HW120261   1.742   1.702  15.149 -2.9159 -1.3448 -2.2120
 2875SOL    HW220262   1.891   1.685  15.148  0.4270 -1.2117 -0.2101
 2876SOL     OW20263   2.052   4.233   2.041 -0.4370 -0.0066 -0.0049
 2876SOL    HW120264   2.056   4.306   1.980  3.7684  0.0330  0.2770
 2876SOL    HW220265   1.963   4.200   2.032  0.1177 -0.5986 -3.1852
 2877SOL     OW20266   3.474   2.992  16.284  0.2974  0.2289 -0.0580
 2877SOL    HW120267   3.474   3.059  16.352 -0.3078 -0.3227  0.4740
 2877SOL    HW220268   3.563   2.957  16.293  0.5518  0.7904 -0.3515
 2878SOL     OW20269   2.840   0.010   2.890  0.3041  0.2680 -0.2310
 2878SOL    HW120270   2.913   4.687   2.911  0.8239  0.8720 -0.3292
 2878SOL    HW220271   2.779   4.688   2.845  1.9237 -0.9909 -0.8209
 2879SOL     OW20272   3.747   0.800  10.925 -0.4598 -0.4233  0.3002
 2879SOL    HW120273   3.660   0.839  10.915  0.9966  1.7448 -4.0284
 2879SOL    HW220274   3.753   0.751  10.843  1.6829  2.3862 -1.2248
 2880SOL     OW20275   4.215   0.673   8.780  0.0905  0.5188  0.7849
 2880SOL    HW120276   4.190   0.666   8.872 -0.8273  0.2901  0.5193
 2880SOL    HW220277   4.263   0.590   8.778 -2.1956 -0.8046  1.1783
 2881SOL     OW20278   1.369   1.580  11.783  0.4119  0.2634  0.0406
 2881SOL    HW120279   1.318   1.535  11.850  1.4125 -1.3276 -0.2485
 2881SOL    HW220280   1.317   1.658  11.768  1.9226  1.4425  0.9877
 2882SOL     OW20281   2.979   4.246   8.361 -0.0937  0.4539 -0.0614
 2882SOL    HW120282   2.912   4.178   8.360 -1.6037  1.9274  0.5396
 2882SOL    HW220283   3.055   4.205   8.319 -0.2359 -0.2985  0.4089
 2883SOL     OW20284   0.093   3.745   5.332  0.0281 -0.5160 -0.3315
 2883SOL    HW120285   0.048   3.818   5.289 -0.3321 -0.1033  0.7301
 2883SOL    HW220286   0.074   3.749   5.426 -1.8644 -0.6519 -0.7062
 2884SOL     OW20287   0.087   2.793   8.898 -0.7344  0.1502  0.1211
 2884SOL    HW120288   0.081   2.876   8.850  0.2355 -0.4876 -1.1063
 2884SOL    HW220289   0.074   2.830   8.986  1.6224  0.7001  0.2370
 2885SOL     OW20290   2.261   1.866  11.702  0.7495  0.1353 -0.0087
 2885SOL    HW120291   2.339   1.820  11.734 -0.7707 -1.6203  1.1342
 2885SOL    HW220292   2.254   1.829  11.614 -3.5433 -1.9215  1.1957
 2886SOL     OW20293   4.490   2.445   3.263 -0.4908 -0.0787 -0.0353
 2886SOL    HW120294   4.435   2.422   3.188  1.0721 -2.0921 -0.5557
 2886SOL    HW220295   4.418   2.462   3.324  0.9624 -0.9194  1.8883
 2887SOL     OW20296   2.881   4.080  17.271  0.1685 -0.0767 -0.0013
 2887SOL    HW120297   2.857   3.996  17.230  2.0600 -0.7131  0.2238
 2887SOL    HW220298   2.806   4.137  17.254 -1.1189 -1.5891  0.6298
 2888SOL     OW20299   1.144   4.631   8.499 -0.5212  0.0425 -0.0617
 2888SOL    HW120300   1.163   4.537   8.497  1.1153  0.3861 -0.4900
 2888SOL    HW220301   1.218   4.662   8.551 -2.1733  0.4500  2.0697
 2889SOL     OW20302   2.829   0.070  16.985 -0.1166 -0.1540 -0.0610
 2889SOL    HW120303   2.831   0.055  16.890  0.2746  1.3694 -0.2821
 2889SOL    HW220304   2.802   4.717  17.008 -1.5610  0.5975  1.1253
 2890SOL     OW20305   4.171   2.400   1.808 -0.2073  0.5162  0.3312
 2890SOL    HW120306   4.229   2.330   1.839 -0.1072  0.5723  0.2696
 2890SOL    HW220307   4.231   2.464   1.769  1.8655 -0.0384  2.5913
 2891SOL     OW20308   0.702   1.476   3.891 -0.3004  0.3465 -0.1079
 2891SOL    HW120309   0.702   1.571   3.906  2.3837 -0.2305  3.4673
 2891SOL    HW220310   0.616   1.435   3.883 -0.0171 -0.2521 -0.0726
 2892SOL     OW20311   1.808   1.193   3.720 -0.3661 -0.2039 -0.0526
 2892SOL    HW120312   1.829   1.170   3.630  0.3615  0.8909 -0.1675
 2892SOL    HW220313   1.897   1.183   3.756 -0.2106  3.2116  0.5734
 2893SOL     OW20314   0.986   2.342  15.013  0.2126  0.1236  0.6060
 2893SOL    HW120315   0.953   2.422  15.054  0.0193 -0.1989  1.0801
 2893SOL    HW220316   0.913   2.284  15.036 -0.3113  0.4599 -0.1978
 2894SOL     OW20317   1.408   1.040   4.201 -0.3611  0.3704 -0.4112
 2894SOL    HW120318   1.454   1.105   4.255  2.3493 -2.6172  0.8712
 2894SOL    HW220319   1.325   1.084   4.184 -1.4927 -1.2230  0.9855
 2895SOL     OW20320   2.279   3.024   4.226 -0.1241  0.0910  0.0507
 2895SOL    HW120321   2.364   3.051   4.263  0.4673 -2.5331  0.6176
 2895SOL    HW220322   2.293   2.939   4.185 -3.5857 -1.0692  1.2842
 2896SOL     OW20323   1.199   1.260   5.609  0.1604 -0.1966 -0.2811
 2896SOL    HW120324   1.235   1.255   5.520  0.8319 -1.7868  0.0904
 2896SOL    HW220325   1.140   1.185   5.604  1.8748 -1.6357  1.1088
 2897SOL     OW20326   4.395   1.249   6.998 -0.0552 -0.0225 -0.6060
 2897SOL    HW120327   4.427   1.199   6.923 -1.0321 -0.0986 -0.9746
 2897SOL    HW220328   4.339   1.187   7.045  1.1556 -1.5759 -1.2117
 2898SOL     OW20329   3.009   2.505   5.586  0.0445 -0.1777 -0.3388
 2898SOL    HW120330   2.980   2.579   5.639 -2.0693 -0.2469 -1.3977
 2898SOL    HW220331   2.957   2.515   5.506 -0.5271  1.3428  0.2208
 2899SOL     OW20332   2.538   0.344   4.685  0.3671 -0.1053  0.0721
 2899SOL    HW120333   2.575   0.425   4.721  1.8836  0.8905 -3.7326
 2899SOL    HW220334   2.446   0.371   4.679 -0.4965 -2.1989  4.2312
 2900SOL     OW20335   2.050   4.662   4.695 -0.0552  0.2438 -0.0162
 2900SOL    HW120336   2.137   4.639   4.661  0.6842 -0.4080  2.2561
 2900SOL    HW220337   2.067   4.666   4.789 -6.1274 -0.1964  1.1105
 2901SOL     OW20338   3.515   1.274   3.505 -0.3129  0.6693 -0.5067
 2901SOL    HW120339   3.462   1.320   3.570  1.4155  0.4981  1.0380
 2901SOL    HW220340   3.604   1.303   3.527 -0.2552  1.2888 -1.5377
 2902SOL     OW20341   3.740   3.606   3.351 -0.6983  0.1815  0.5803
 2902SOL    HW120342   3.810   3.671   3.363 -0.3101 -0.3268  1.0843
 2902SOL    HW220343   3.731   3.612   3.256 -0.7832  0.3579  0.5985
 2903SOL     OW20344   4.417   2.696   2.827  0.1070  0.3553  0.2199
 2903SOL    HW120345   4.337   2.698   2.878 -1.0344  2.1955 -1.6716
 2903SOL    HW220346   4.393   2.622   2.770 -0.4824  2.3752 -2.1457
 2904SOL     OW20347   4.725   2.796  15.349 -0.4676  0.1638 -0.5728
 2904SOL    HW120348   0.072   2.817  15.308 -0.2966  0.1327 -0.2461
 2904SOL    HW220349   0.010   2.813  15.441  1.4503  0.7423 -1.1283
 2905SOL     OW20350   1.277   0.317  15.935 -0.6779  0.3593  0.0384
 2905SOL    HW120351   1.259   0.311  16.029  1.6813  0.6769  0.5127
 2905SOL    HW220352   1.356   0.264  15.922  0.3706  2.0267 -0.4274
 2906SOL     OW20353   0.652   2.535   8.202 -0.0372 -0.4074  0.2989
 2906SOL    HW120354   0.586   2.522   8.269  2.5019 -0.6843  2.7706
 2906SOL    HW220355   0.623   2.482   8.128  0.5784  2.1763 -1.7964
 2907SOL     OW20356   0.999   2.249   8.497  0.5415  0.0895  0.1026
 2907SOL    HW120357   0.938   2.228   8.567  0.2772  1.1984  0.2057
 2907SOL    HW220358   1.004   2.344   8.492 -3.6158  0.2795 -0.5335
 2908SOL     OW20359   0.223   2.320   3.280 -0.5420  0.5801 -0.4989
 2908SOL    HW120360   0.256   2.342   3.193 -0.5276 -0.3147 -0.7244
 2908SOL    HW220361   0.247   2.403   3.320 -1.0047  0.6868 -0.4484
 2909SOL     OW20362   3.426   2.052   2.386  0.4461 -0.2107 -0.0810
 2909SOL    HW120363   3.486   2.118   2.351  0.7445 -1.5563 -2.1133
 2909SOL    HW220364   3.472   1.968   2.382  3.3988  1.2818  2.3881
 2910SOL     OW20365   3.099   3.808   4.278  0.3828  0.2843 -0.1136
 2910SOL    HW120366   3.142   3.735   4.321  1.0246  1.4660  1.2388
 2910SOL    HW220367   3.078   3.871   4.347  2.5586  1.1965 -0.2705
 2911SOL     OW20368   2.165   0.131   2.117 -0.6782 -0.1109  0.0479
 2911SOL    HW120369   2.161   0.058   2.055 -0.6385  2.4319 -2.9166
 2911SOL    HW220370   2.149   0.094   2.204  0.1071 -0.8231 -0.1178
 2912SOL     OW20371   3.018   3.098  14.016  0.2638  0.3139  0.5511
 2912SOL    HW120372   3.103   3.123  13.980  0.0702 -0.9066 -0.7567
 2912SOL    HW220373   3.025   3.002  14.014 -1.8929  0.2541 -3.0754
 2913SOL     OW20374   0.540   2.245   1.332 -0.3221 -0.3460  0.5686
 2913SOL    HW120375   0.446   2.264   1.325 -0.3277 -0.5462  0.1261
 2913SOL    HW220376   0.555   2.221   1.423  1.0592  1.3347  0.7794
 2914SOL     OW20377   2.167   1.308   7.983 -0.4425  0.8974 -0.1652
 2914SOL    HW120378   2.143   1.399   7.963 -1.2601  0.5890 -0.5667
 2914SOL    HW220379   2.114   1.262   7.918 -3.4154 -0.3066  3.1198
 2915SOL     OW20380   4.609   2.312   5.220 -0.0252 -0.0093 -0.1840
 2915SOL    HW120381   4.604   2.219   5.243 -0.5342 -0.4388 -2.0525
 2915SOL    HW220382   4.570   2.307   5.133  3.3294 -0.4186 -1.6596
 2916SOL     OW20383   0.678   0.973   0.780 -0.0952 -0.3712  0.6450
 2916SOL    HW120384   0.708   0.885   0.755  1.9178  0.7158 -0.7348
 2916SOL    HW220385   0.676   0.958   0.875 -1.6913  0.0553  0.6828
 2917SOL     OW20386   2.192   0.710  13.615 -0.0908 -0.4075 -0.6188
 2917SOL    HW120387   2.232   0.641  13.669 -0.5044 -0.4699 -0.3936
 2917SOL    HW220388   2.244   0.722  13.536  1.2341 -1.0319  0.1510
 2918SOL     OW20389   3.478   3.767   3.420 -0.0247  0.1479 -0.3234
 2918SOL    HW120390   3.519   3.703   3.361  2.8096  0.5613  1.2272
 2918SOL    HW220391   3.388   3.736   3.408 -0.2171  0.4509  0.3038
 2919SOL     OW20392   2.368   4.549   3.800  0.2202 -0.4979  0.5389
 2919SOL    HW120393   2.331   4.626   3.757  2.1115  0.2708  0.3190
 2919SOL    HW220394   2.438   4.584   3.855  0.2633 -0.6557  0.5850
 2920SOL     OW20395   0.235   2.832  15.258 -0.2876 -0.4984 -0.2922
 2920SOL    HW120396   0.295   2.881  15.201 -0.1292 -0.7549 -0.3440
 2920SOL    HW220397   0.277   2.831  15.344  1.7522  0.2641 -1.2618
 2921SOL     OW20398   0.853   2.208  16.012 -0.6760 -0.8184  0.2057
 2921SOL    HW120399   0.799   2.144  15.966  0.7464 -2.6715  1.1458
 2921SOL    HW220400   0.848   2.179  16.103 -1.5531 -0.8311  0.1549
 2922SOL     OW20401   3.328   0.383  11.748 -0.3806  0.7148  0.2413
 2922SOL    HW120402   3.266   0.331  11.799 -0.8668 -0.7133 -1.8026
 2922SOL    HW220403   3.334   0.334  11.666 -1.8946 -0.0859  0.6157
 2923SOL     OW20404   2.599   2.228   4.826 -0.5692 -0.4557 -0.2031
 2923SOL    HW120405   2.599   2.169   4.902  0.6468 -0.2581 -0.0536
 2923SOL    HW220406   2.504   2.241   4.825 -0.6302 -0.9261 -0.8532
 2924SOL     OW20407   0.784   3.590  11.158  0.1149  0.3897  0.3549
 2924SOL    HW120408   0.750   3.523  11.098  2.9393  0.5808 -1.4719
 2924SOL    HW220409   0.712   3.652  11.154 -0.1947 -0.1650 -2.4829
 2925SOL     OW20410   2.551   0.452  15.194 -0.0001 -0.0563  0.0857
 2925SOL    HW120411   2.590   0.539  15.182  0.0123 -0.3188 -1.7929
 2925SOL    HW220412   2.599   0.399  15.131  1.4992 -0.4412  1.5489
 2926SOL     OW20413   2.006   4.726   7.948 -0.0940 -0.2269 -0.3856
 2926SOL    HW120414   1.911   4.718   7.960 -0.6292  0.3063 -4.3079
 2926SOL    HW220415   2.010   0.084   7.933 -1.3226 -0.0390  0.4840
 2927SOL     OW20416   3.039   1.959   1.858 -0.5018 -0.0330  0.2264
 2927SOL    HW120417   3.053   1.881   1.804  0.1312 -1.0869  1.9059
 2927SOL    HW220418   2.947   1.958   1.883 -0.1394  0.2936  1.5692
 2928SOL     OW20419   1.973   2.828  10.914 -0.5723 -0.1696 -0.4981
 2928SOL    HW120420   2.007   2.759  10.972 -0.7855  0.5159  0.4313
 2928SOL    HW220421   1.941   2.761  10.853 -1.1844  0.0725 -0.4410
 2929SOL     OW20422   3.500   2.314  15.360 -0.0580 -0.1198 -0.5519
 2929SOL    HW120423   3.447   2.235  15.371  0.2587 -0.1315  0.9601
 2929SOL    HW220424   3.510   2.338  15.452  0.2010  1.4810 -0.9957
 2930SOL     OW20425   1.995   1.786   2.285  0.1730 -0.1535 -0.2005
 2930SOL    HW120426   2.053   1.713   2.308 -0.6499 -0.4505  0.9210
 2930SOL    HW220427   1.956   1.759   2.201 -1.0746  1.9021 -0.2711
 2931SOL     OW20428   3.724   2.565  15.315  0.3724 -0.5914 -0.3123
 2931SOL    HW120429   3.660   2.597  15.251 -1.5309 -1.6574  1.0406
 2931SOL    HW220430   3.670   2.568  15.394 -0.0569 -0.1449 -0.6242
 2932SOL     OW20431   3.859   1.386  10.363 -0.0248  1.1169 -0.1456
 2932SOL    HW120432   3.954   1.378  10.350  0.1149  0.5510  1.3199
 2932SOL    HW220433   3.860   1.379  10.458  0.9665 -0.6019 -0.2813
 2933SOL     OW20434   0.781   0.788   1.281  0.2848  0.3120 -0.6723
 2933SOL    HW120435   0.793   0.870   1.328  0.3497  0.1597 -0.4215
 2933SOL    HW220436   0.873   0.767   1.265 -0.0147 -0.8762 -0.8495
 2934SOL     OW20437   1.325   2.066  12.832  0.2992 -0.5229 -0.1867
 2934SOL    HW120438   1.338   1.985  12.880 -2.3130 -0.5605  0.4580
 2934SOL    HW220439   1.314   2.128  12.904  0.9513 -1.9790  1.1489
 2935SOL     OW20440   4.377   1.049   4.462 -0.6811  0.2011 -0.3048
 2935SOL    HW120441   4.394   0.971   4.515  0.1856 -0.8487 -2.0997
 2935SOL    HW220442   4.342   1.011   4.381 -1.1702 -0.8322  0.3859
 2936SOL     OW20443   2.123   4.259  11.532  0.5583 -0.0470  0.3490
 2936SOL    HW120444   2.127   4.197  11.460  1.0243  0.8723 -0.4163
 2936SOL    HW220445   2.065   4.208  11.588 -0.4485 -0.4651 -1.0848
 2937SOL     OW20446   4.281   4.547   5.871  0.4710  0.1950 -0.4780
 2937SOL    HW120447   4.341   4.562   5.944  0.0054  1.4168 -0.3437
 2937SOL    HW220448   4.221   4.621   5.882  2.6039  1.6392  1.4717
 2938SOL     OW20449   1.981   3.046   4.644 -0.0658 -0.5520  0.2401
 2938SOL    HW120450   2.037   2.984   4.597 -0.8279  0.0469 -1.4444
 2938SOL    HW220451   1.982   3.124   4.587  0.2952 -0.9924 -0.3550
 2939SOL     OW20452   3.186   3.060  13.394 -0.4638  0.1181  0.2679
 2939SOL    HW120453   3.222   3.102  13.316 -1.7254  1.8386  0.6050
 2939SOL    HW220454   3.097   3.038  13.367 -0.3434 -1.1683  0.8951
 2940SOL     OW20455   4.570   1.005  10.696 -0.0329  0.0308 -0.1561
 2940SOL    HW120456   4.509   1.009  10.769 -1.4095  3.2082 -1.4756
 2940SOL    HW220457   4.557   0.911  10.682  2.0000 -0.3686  0.6830
 2941SOL     OW20458   0.464   1.032   5.375 -0.2250 -0.2260  0.3301
 2941SOL    HW120459   0.509   1.021   5.458 -0.6438  2.6737  0.9421
 2941SOL    HW220460   0.537   1.067   5.323 -1.8452  0.6531 -1.3714
 2942SOL     OW20461   2.492   2.423   3.156 -0.0402  0.6972  0.1196
 2942SOL    HW120462   2.566   2.436   3.217 -1.2315 -0.1892  1.7556
 2942SOL    HW220463   2.419   2.404   3.214 -0.8963  1.7517 -0.6192
 2943SOL     OW20464   1.889   2.714  13.170  0.1183 -0.1057 -0.5272
 2943SOL    HW120465   1.839   2.644  13.128 -2.3644  0.2170  1.9027
 2943SOL    HW220466   1.864   2.696  13.261  2.0591 -2.8963 -0.5310
 2944SOL     OW20467   1.793   4.533   7.678 -0.3656 -0.0569  0.6778
 2944SOL    HW120468   1.725   4.597   7.656  0.9996  1.1535  0.0439
 2944SOL    HW220469   1.878   4.575   7.664 -0.9683  0.9434  0.0366
 2945SOL     OW20470   2.230   1.656   3.734  0.0566  0.0691 -0.1275
 2945SOL    HW120471   2.279   1.605   3.799 -1.9696 -1.2808  0.3574
 2945SOL    HW220472   2.140   1.627   3.749 -0.5885  1.8652 -0.5222
 2946SOL     OW20473   1.286   1.396   7.349  0.5451  0.0268 -0.2921
 2946SOL    HW120474   1.320   1.387   7.259 -1.4422 -1.0508 -0.9277
 2946SOL    HW220475   1.193   1.380   7.333 -0.1391  1.2739  2.5412
 2947SOL     OW20476   2.501   0.361  11.541  0.1155  0.0626  0.3522
 2947SOL    HW120477   2.525   0.309  11.617 -0.1458  1.0365  1.1081
 2947SOL    HW220478   2.495   0.292  11.475  2.6311 -0.4835  0.7258
 2948SOL     OW20479   0.914   1.276   7.927  0.2570  0.5046  0.2739
 2948SOL    HW120480   0.870   1.238   8.003  1.5546  1.4274  1.4709
 2948SOL    HW220481   0.991   1.321   7.959  1.4049  0.2621 -2.1455
 2949SOL     OW20482   1.366   0.833   2.254 -0.3876 -0.4525 -0.0781
 2949SOL    HW120483   1.310   0.908   2.278 -0.5655 -0.7661  0.5025
 2949SOL    HW220484   1.297   0.783   2.212 -1.4371  3.0831 -2.5618
 2950SOL     OW20485   0.038   2.450  11.086  0.1884 -0.0726 -0.5927
 2950SOL    HW120486   0.001   2.478  11.002  0.0510  0.9476 -0.1875
 2950SOL    HW220487   4.701   2.465  11.146  0.1619  1.4280 -1.0036
 2951SOL     OW20488   2.143   2.390   3.774 -0.0351 -0.3439 -1.0128
 2951SOL    HW120489   2.196   2.351   3.704  3.1733 -0.6639  1.6050
 2951SOL    HW220490   2.091   2.313   3.795 -2.4869  1.0738 -1.8852
 2952SOL     OW20491   0.326   1.147   3.797  0.1166  0.2015 -0.3272
 2952SOL    HW120492   0.333   1.085   3.869 -1.2848 -2.5657 -2.6031
 2952SOL    HW220493   0.294   1.095   3.724 -0.2693 -1.5366  1.1000
 2953SOL     OW20494   2.534   0.835  15.085  0.4958  0.1364 -0.2500
 2953SOL    HW120495   2.565   0.845  14.995 -0.4605  0.8401 -0.5052
 2953SOL    HW220496   2.598   0.781  15.132  0.7896  0.0063 -0.7963
 2954SOL     OW20497   0.123   0.963  11.021  0.0661 -0.3263  0.1114
 2954SOL    HW120498   0.068   0.886  11.005 -1.8443  0.4233  3.1654
 2954SOL    HW220499   0.173   0.944  11.100 -0.9034 -2.3148  0.2635
 2955SOL     OW20500   3.261   4.372   2.434  0.6719  0.1722 -0.1047
 2955SOL    HW120501   3.223   4.437   2.493 -2.2702 -0.7353 -0.9740
 2955SOL    HW220502   3.226   4.398   2.349 -0.1476 -0.1463  0.1331
 2956SOL     OW20503   1.310   0.049  12.815 -0.2553  0.6913  0.0899
 2956SOL    HW120504   1.296   4.732  12.737 -3.3049  2.2881 -0.4268
 2956SOL    HW220505   1.227   0.034  12.861  0.5673  0.1025  1.3897
 2957SOL     OW20506   3.893   3.912  13.195  0.1405  0.4536 -0.2566
 2957SOL    HW120507   3.904   4.006  13.179 -0.2582  0.8804  1.9885
 2957SOL    HW220508   3.879   3.881  13.105  3.7815 -0.2326 -0.6088
 2958SOL     OW20509   2.414   2.576  10.293  0.1721  0.2649 -0.0682
 2958SOL    HW120510   2.390   2.484  10.303  1.9199  0.0850  2.4851
 2958SOL    HW220511   2.333   2.596  10.247  0.5374  0.1809 -0.7537
 2959SOL     OW20512   2.684   3.184  16.087  0.0116 -0.5247 -0.3926
 2959SOL    HW120513   2.768   3.156  16.050  0.7731  0.9844  0.2310
 2959SOL    HW220514   2.696   3.276  16.108  0.6439 -1.0652  1.6640
 2960SOL     OW20515   3.183   1.867   7.063 -0.3346  0.4652  0.5125
 2960SOL    HW120516   3.100   1.869   7.112 -0.6608 -2.2816  0.0653
 2960SOL    HW220517   3.179   1.943   7.005  1.4149  1.7182  2.0343
 2961SOL     OW20518   1.975   3.019  12.381 -0.0339  0.0443 -0.3742
 2961SOL    HW120519   1.903   3.044  12.323 -0.6347  0.4778  0.5553
 2961SOL    HW220520   1.937   2.953  12.440  0.0882 -0.5530 -0.9552
 2962SOL     OW20521   1.109   3.523   1.872 -0.1451 -0.3781  0.1559
 2962SOL    HW120522   1.116   3.456   1.940  1.4928 -1.7247 -1.3162
 2962SOL    HW220523   1.025   3.503   1.830 -0.1906 -3.1505  1.5256
 2963SOL     OW20524   2.236   3.702   0.987  0.0222  0.2354  0.1368
 2963SOL    HW120525   2.253   3.762   0.915  1.7816 -0.2825  0.1273
 2963SOL    HW220526   2.276   3.752   1.057  2.3855 -1.3914 -0.0257
 2964SOL     OW20527   2.466   0.312   5.217 -0.0055  0.2683 -0.0800
 2964SOL    HW120528   2.526   0.386   5.224  0.3927 -0.3188  2.5216
 2964SOL    HW220529   2.410   0.345   5.147  1.6486  0.8560 -1.1398
 2965SOL     OW20530   3.751   3.654  10.492 -0.4996  0.2881  0.0152
 2965SOL    HW120531   3.715   3.743  10.492 -1.8600 -0.2577 -0.6424
 2965SOL    HW220532   3.800   3.653  10.410 -0.3327  1.0865  0.1082
 2966SOL     OW20533   3.859   0.754   4.193 -0.0912  0.5912 -0.0999
 2966SOL    HW120534   3.773   0.722   4.220 -0.4966  0.0916 -2.0194
 2966SOL    HW220535   3.836   0.841   4.161  0.7802  0.1834 -1.8112
 2967SOL     OW20536   2.645   4.452  10.881 -0.1814  0.5355  0.0721
 2967SOL    HW120537   2.738   4.441  10.905  0.1813  1.5596 -0.8683
 2967SOL    HW220538   2.617   4.360  10.881 -0.3666  0.5871  2.3308
 2968SOL     OW20539   3.483   1.688   6.763  0.4495 -0.2313  0.4714
 2968SOL    HW120540   3.513   1.683   6.854  2.0829 -0.7925 -0.0984
 2968SOL    HW220541   3.564   1.655   6.725  1.6940  1.9974  1.1712
 2969SOL     OW20542   1.126   0.258  16.233 -0.1727 -0.0916  0.0022
 2969SOL    HW120543   1.045   0.289  16.194 -0.9153 -0.3614  1.3435
 2969SOL    HW220544   1.169   0.342  16.247 -2.5086  1.7374 -3.6855
 2970SOL     OW20545   0.205   2.644   3.097 -0.0800 -0.5956  0.0816
 2970SOL    HW120546   0.246   2.630   3.011  1.8842 -0.0697  0.9315
 2970SOL    HW220547   0.130   2.585   3.089 -0.7857  0.4957 -1.4874
 2971SOL     OW20548   3.244   4.062   3.695 -0.4391 -0.6376 -0.4788
 2971SOL    HW120549   3.207   4.051   3.608  0.0180  0.8952 -0.8716
 2971SOL    HW220550   3.302   3.986   3.700 -0.1120 -0.2643  1.5155
 2972SOL     OW20551   0.094   0.588   3.997  0.5055  0.5643  0.2623
 2972SOL    HW120552   0.065   0.497   4.008  1.8855 -0.0432 -1.1186
 2972SOL    HW220553   0.020   0.640   3.965  0.2261 -0.0435 -0.0804
 2973SOL     OW20554   0.759   3.631   5.719 -0.2223 -0.2900 -0.0793
 2973SOL    HW120555   0.771   3.628   5.813  2.0475  1.2769 -0.3155
 2973SOL    HW220556   0.839   3.680   5.696 -1.2063  0.7485 -1.2884
 2974SOL     OW20557   1.494   3.186   8.967 -0.0122  0.4247  0.0358
 2974SOL    HW120558   1.432   3.190   8.894  0.8882 -0.1162 -0.7783
 2974SOL    HW220559   1.435   3.153   9.034  2.2570 -0.0728  1.8151
 2975SOL     OW20560   4.508   2.507   2.021 -0.1062  0.1093  0.6097
 2975SOL    HW120561   4.526   2.474   1.933 -1.6418 -2.2416  1.1951
 2975SOL    HW220562   4.549   2.437   2.072  0.5245 -1.4437 -2.0722
 2976SOL     OW20563   2.481   3.442   6.170  0.2297 -0.1392 -0.4877
 2976SOL    HW120564   2.459   3.427   6.262  0.2997  0.4672 -0.3694
 2976SOL    HW220565   2.574   3.465   6.178  0.4123 -0.4608 -1.7711
 2977SOL     OW20566   3.250   1.774   4.136  0.0563  0.4130 -0.2788
 2977SOL    HW120567   3.171   1.769   4.191  0.6435  1.0422  0.6155
 2977SOL    HW220568   3.314   1.717   4.180  0.6951  1.2715 -0.1019
 2978SOL     OW20569   2.608   0.049   5.020 -0.1848 -0.4099 -0.0475
 2978SOL    HW120570   2.541   0.054   5.088  0.3244 -1.7169  0.5565
 2978SOL    HW220571   2.654   4.706   5.047 -0.9812 -0.4357  1.2413
 2979SOL     OW20572   2.565   1.041  11.356 -0.1567  0.2904  0.5310
 2979SOL    HW120573   2.515   1.061  11.276 -0.2743 -0.6795  0.3643
 2979SOL    HW220574   2.649   1.083  11.338 -0.7985  0.4912 -2.1101
 2980SOL     OW20575   3.256   1.806   5.520 -0.0195  0.2700 -0.0402
 2980SOL    HW120576   3.168   1.844   5.518 -0.1540 -0.0849 -0.8642
 2980SOL    HW220577   3.298   1.865   5.583 -0.8291  1.0965 -0.2743
 2981SOL     OW20578   3.017   3.929  12.866 -0.1825 -0.0129 -0.6491
 2981SOL    HW120579   3.106   3.906  12.838  0.4263  0.0475  1.2408
 2981SOL    HW220580   2.984   3.981  12.792  1.5426 -0.0082 -1.4323
 2982SOL     OW20581   1.488   1.402   3.571  0.2988 -0.4104 -0.0225
 2982SOL    HW120582   1.447   1.319   3.547 -1.2420  0.9389 -2.0064
 2982SOL    HW220583   1.506   1.428   3.481  3.2788  1.0392  1.0041
 2983SOL     OW20584   0.660   0.215   5.174  0.0636 -0.5375  0.2482
 2983SOL    HW120585   0.687   0.304   5.148  2.1261 -1.1800  0.2431
 2983SOL    HW220586   0.569   0.210   5.143 -0.2174  1.9380  0.6044
 2984SOL     OW20587   0.888   0.079  14.942  0.0403 -0.5396 -0.3677
 2984SOL    HW120588   0.980   0.104  14.934 -0.6883  2.5121  0.6325
 2984SOL    HW220589   0.846   0.158  14.908  0.2684 -0.1746  0.1903
 2985SOL     OW20590   2.485   4.604  15.929  0.4479 -0.4806  0.4842
 2985SOL    HW120591   2.427   4.633  16.000 -0.3964  1.8945 -1.1532
 2985SOL    HW220592   2.565   4.654  15.946 -0.8044  1.6044  0.3353
 2986SOL     OW20593   2.281   3.981  14.570  0.1296  0.2648  0.1450
 2986SOL    HW120594   2.243   3.976  14.658 -0.0046 -3.0735 -0.0872
 2986SOL    HW220595   2.273   4.074  14.552 -1.4175  0.1115  0.0535
 2987SOL     OW20596   1.124   2.207   2.394  0.1760  0.6036  0.5583
 2987SOL    HW120597   1.200   2.167   2.437 -1.8557 -1.6623  2.0627
 2987SOL    HW220598   1.107   2.273   2.463  0.5622  2.0284 -0.7081
 2988SOL     OW20599   0.417   3.123  13.121 -0.3701 -0.1335  0.1758
 2988SOL    HW120600   0.484   3.070  13.165 -1.6401 -2.5184 -0.7617
 2988SOL    HW220601   0.359   3.059  13.080  0.9556 -1.5115  0.4430
 2989SOL     OW20602   2.115   0.754   6.314  0.1536 -0.2660  0.2451
 2989SOL    HW120603   2.188   0.816   6.308 -0.5614  0.7200  1.5506
 2989SOL    HW220604   2.123   0.735   6.408 -1.5717  2.2670  0.8965
 2990SOL     OW20605   0.611   3.435  10.101  0.1495  0.2059 -0.1368
 2990SOL    HW120606   0.632   3.421  10.009  0.8970 -1.0273  0.2127
 2990SOL    HW220607   0.516   3.439  10.095  0.2513  3.2241  0.6505
 2991SOL     OW20608   2.649   2.384   4.198  0.5490  0.2482  0.2384
 2991SOL    HW120609   2.622   2.455   4.257 -2.4068  0.0024 -0.8487
 2991SOL    HW220610   2.684   2.314   4.253 -0.3891 -1.1224 -0.9285
 2992SOL     OW20611   1.530   0.737   1.200 -0.0474 -0.3835  0.2871
 2992SOL    HW120612   1.442   0.774   1.193  0.2348  0.5452  1.6805
 2992SOL    HW220613   1.571   0.764   1.118 -1.1345 -2.4039 -0.9137
 2993SOL     OW20614   3.852   1.149   0.901 -0.1496  0.7035  0.2686
 2993SOL    HW120615   3.947   1.132   0.902 -0.1187  1.0324  3.1235
 2993SOL    HW220616   3.844   1.162   0.996  1.9976  0.7638  0.4573
 2994SOL     OW20617   2.301   3.768   2.078 -0.3520  0.2176 -0.3819
 2994SOL    HW120618   2.266   3.852   2.110  0.5498 -0.2914  1.9380
 2994SOL    HW220619   2.227   3.738   2.026 -0.9537 -0.2492  0.7501
 2995SOL     OW20620   1.584   2.000   1.125 -0.1531  0.1560 -0.0304
 2995SOL    HW120621   1.620   2.009   1.037 -0.1499  2.5176  0.2371
 2995SOL    HW220622   1.632   2.062   1.179 -0.0196  0.7119 -0.7996
 2996SOL     OW20623   1.500   3.585   8.705  0.5519  0.0251 -0.0238
 2996SOL    HW120624   1.509   3.504   8.756 -1.2682 -0.6819 -0.7840
 2996SOL    HW220625   1.537   3.651   8.763 -0.6334  1.7003 -1.1950
 2997SOL     OW20626   2.020   3.754   2.886 -0.4547 -0.6652  0.6521
 2997SOL    HW120627   2.047   3.663   2.879  2.1498  0.1575 -0.1163
 2997SOL    HW220628   2.106   3.796   2.883 -0.9800  0.4493  0.9908
 2998SOL     OW20629   2.274   2.773  15.424  0.3808  0.0750  0.3704
 2998SOL    HW120630   2.219   2.836  15.377  3.6448  1.8824 -1.0469
 2998SOL    HW220631   2.355   2.824  15.428  0.3216  0.1917  0.0790
 2999SOL     OW20632   1.053   4.704   7.061  0.4461  0.2843 -0.3346
 2999SOL    HW120633   1.077   4.630   7.117  1.5885 -0.0145 -1.2151
 2999SOL    HW220634   1.025   4.665   6.978  1.7676 -1.5302  0.0682
 3000SOL     OW20635   1.558   2.997   6.940 -0.0095 -0.2919 -0.1441
 3000SOL    HW120636   1.537   2.920   6.992  2.6316 -1.3581 -0.6709
 3000SOL    HW220637   1.593   2.960   6.859 -0.4940 -0.3753 -0.3165
 3001SOL     OW20638   3.011   1.967   1.388  0.1546 -0.2031 -0.5214
 3001SOL    HW120639   3.072   2.041   1.386 -1.4455  1.1477  0.6473
 3001SOL    HW220640   2.942   1.998   1.329  1.0699  2.5265 -0.1675
 3002SOL     OW20641   0.409   0.928   7.121 -0.3867 -0.1941 -0.3653
 3002SOL    HW120642   0.396   1.020   7.097  0.2238 -0.5905 -2.2723
 3002SOL    HW220643   0.368   0.920   7.207 -0.8252  1.0305 -0.4667
 3003SOL     OW20644   3.605   3.823  15.017  0.7269  0.1262  0.1030
 3003SOL    HW120645   3.573   3.900  14.970 -1.6855 -0.2355  1.1915
 3003SOL    HW220646   3.543   3.758  14.984 -2.0836  2.3361  1.0703
 3004SOL     OW20647   2.527   2.197   2.408 -1.0018 -0.2209 -0.4188
 3004SOL    HW120648   2.533   2.249   2.327 -0.8909  0.0404 -0.2434
 3004SOL    HW220649   2.496   2.258   2.475  1.4506  0.4076  0.1480
 3005SOL     OW20650   0.283   0.127   6.279 -0.0054 -0.5699  0.3087
 3005SOL    HW120651   0.318   0.067   6.213 -0.8445 -0.8837  0.1501
 3005SOL    HW220652   0.220   0.184   6.234  1.6954  0.6855 -0.4507
 3006SOL     OW20653   3.491   4.543   3.733 -0.0484  1.0205 -0.1613
 3006SOL    HW120654   3.482   4.448   3.745  0.1774  0.4849 -4.2791
 3006SOL    HW220655   3.433   4.580   3.800  3.1770  1.6204  2.2872
 3007SOL     OW20656   3.414   3.257   8.364  0.1753 -0.1269 -0.0002
 3007SOL    HW120657   3.355   3.182   8.376  0.0350  0.0847  0.6223
 3007SOL    HW220658   3.488   3.211   8.403 -1.4371  0.3611  3.6296
 3008SOL     OW20659   3.964   3.525   2.910 -0.5684  0.0711 -0.1779
 3008SOL    HW120660   3.935   3.613   2.933 -1.6108 -1.1205  3.0867
 3008SOL    HW220661   4.004   3.495   2.992 -0.4133 -1.3165 -0.7510
 3009SOL     OW20662   3.797   3.379  12.199 -0.8611  0.1186 -0.4021
 3009SOL    HW120663   3.711   3.374  12.159 -0.7795 -1.8863 -0.2859
 3009SOL    HW220664   3.840   3.353  12.117  0.3792 -0.9738  0.6057
 3010SOL     OW20665   1.969   3.563   7.281 -0.1943 -0.0187 -0.6308
 3010SOL    HW120666   1.930   3.563   7.368  3.8569 -2.1447  1.1576
 3010SOL    HW220667   2.055   3.534   7.310 -1.6985 -2.2848  1.5459
 3011SOL     OW20668   2.798   4.133   7.377 -0.0025 -0.2666 -0.9803
 3011SOL    HW120669   2.722   4.076   7.381 -1.8625  2.3184  0.5251
 3011SOL    HW220670   2.778   4.186   7.454  0.5230  0.7257 -1.5269
 3012SOL     OW20671   1.636   1.402   5.714  0.2043 -0.4758 -0.4032
 3012SOL    HW120672   1.556   1.387   5.765 -0.4256 -3.0543 -2.1604
 3012SOL    HW220673   1.644   1.493   5.742 -4.1296 -0.6956  1.6168
 3013SOL     OW20674   1.798   2.458  11.059 -0.5038  0.0128 -0.7396
 3013SOL    HW120675   1.767   2.435  11.146 -0.7935 -2.1741 -1.4104
 3013SOL    HW220676   1.716   2.489  11.021 -1.0728 -1.2297 -0.5546
 3014SOL     OW20677   0.813   3.275   6.729 -0.0080  0.3472 -0.4548
 3014SOL    HW120678   0.882   3.311   6.784 -0.3842  0.4307 -0.0420
 3014SOL    HW220679   0.816   3.345   6.663 -1.7274 -0.6157 -1.5740
 3015SOL     OW20680   0.269   3.112  16.148 -0.1595 -0.1899  0.8074
 3015SOL    HW120681   0.320   3.193  16.142 -0.5897 -0.1843 -2.4381
 3015SOL    HW220682   0.186   3.154  16.171  0.2609 -0.3987  2.7569
 3016SOL     OW20683   4.689   2.744   7.411  0.0923  0.7190 -0.2433
 3016SOL    HW120684   0.000   2.666   7.440  1.5482  1.2528 -1.2290
 3016SOL    HW220685   4.657   2.780   7.494 -0.8264  2.0050 -1.1739
 3017SOL     OW20686   4.507   4.650   6.427 -0.1567 -0.2620 -0.4253
 3017SOL    HW120687   4.463   4.565   6.419 -1.4917  0.1250  2.7326
 3017SOL    HW220688   4.592   4.619   6.458  0.5697 -0.9882 -3.1288
 3018SOL     OW20689   3.453   2.514  11.244  0.4214  0.3790 -0.0754
 3018SOL    HW120690   3.366   2.479  11.258  0.4670 -0.0985 -0.9500
 3018SOL    HW220691   3.503   2.442  11.281  2.0791  1.3384 -0.4356
 3019SOL     OW20692   1.655   1.720   5.257 -0.5903  0.0172  0.2720
 3019SOL    HW120693   1.603   1.794   5.224  0.7944 -0.2824 -2.6037
 3019SOL    HW220694   1.667   1.679   5.172  0.9937 -0.9444  0.9701
 3020SOL     OW20695   4.187   1.523   2.055 -0.2696 -0.0519 -0.1128
 3020SOL    HW120696   4.174   1.430   2.040  0.9166 -0.4229  1.0934
 3020SOL    HW220697   4.096   1.552   2.051 -0.0546  0.4705 -1.2937
 3021SOL     OW20698   4.458   4.669   1.358  0.2195 -0.1862  0.3304
 3021SOL    HW120699   4.381   4.719   1.385 -0.3654 -0.3790 -0.9735
 3021SOL    HW220700   4.472   4.702   1.269 -1.4775 -0.6980 -0.1157
 3022SOL     OW20701   3.889   0.510   2.074 -0.1235  0.4528 -0.1392
 3022SOL    HW120702   3.948   0.551   2.137  1.9439  0.3130 -1.9984
 3022SOL    HW220703   3.911   0.421   2.102  0.1025  0.4037 -0.4713
 3023SOL     OW20704   0.314   2.888  12.935 -0.4469 -0.2360 -0.2552
 3023SOL    HW120705   0.243   2.837  12.896  0.9794 -4.3765  2.5972
 3023SOL    HW220706   0.369   2.816  12.967  0.2056 -0.0630 -0.9943
 3024SOL     OW20707   0.916   4.169   6.426  0.0477 -0.0230  0.2196
 3024SOL    HW120708   0.883   4.250   6.387  0.1116  0.6321  1.5550
 3024SOL    HW220709   0.863   4.102   6.383  0.3774 -0.5664  0.6620
 3025SOL     OW20710   0.232   1.341   7.669 -0.1108 -0.5290  0.0301
 3025SOL    HW120711   0.139   1.354   7.654 -0.0717 -0.6678 -0.3233
 3025SOL    HW220712   0.231   1.287   7.748 -0.2370 -0.8691 -0.2087
 3026SOL     OW20713   0.579   4.353   2.477 -0.7483  0.1478  0.0024
 3026SOL    HW120714   0.587   4.418   2.546 -0.7689  1.0975 -0.8888
 3026SOL    HW220715   0.656   4.301   2.497 -0.0508  0.2171 -2.4924
 3027SOL     OW20716   1.599   2.666  11.249  0.1912  0.0934  0.2888
 3027SOL    HW120717   1.549   2.689  11.171 -0.4442  0.3385  0.7593
 3027SOL    HW220718   1.623   2.755  11.276 -0.1244 -0.0469  1.0365
 3028SOL     OW20719   2.239   2.059   5.853 -0.5627  0.0420 -0.1814
 3028SOL    HW120720   2.235   2.125   5.784 -0.0797  0.2298 -0.0325
 3028SOL    HW220721   2.310   2.090   5.910  0.3803 -2.1940 -0.1191
 3029SOL     OW20722   0.030   3.448   1.812 -0.0576 -0.5842 -0.6759
 3029SOL    HW120723   4.723   3.527   1.844 -1.1294 -1.2948 -0.3852
 3029SOL    HW220724   0.049   3.474   1.722  1.7341  0.2758 -0.0365
 3030SOL     OW20725   0.140   1.966  11.779 -0.3618  0.6521  0.5082
 3030SOL    HW120726   0.176   2.036  11.725 -1.2432  1.0686  0.4486
 3030SOL    HW220727   0.213   1.925  11.826  1.7223  0.0765 -3.2238
 3031SOL     OW20728   3.884   1.927   2.232  0.0160 -0.1439 -0.5293
 3031SOL    HW120729   3.817   1.858   2.231 -2.0174  1.8043 -2.2054
 3031SOL    HW220730   3.892   1.955   2.323  2.0499 -1.7635 -0.2064
 3032SOL     OW20731   3.487   0.753   8.631  0.3558 -0.1189 -0.0106
 3032SOL    HW120732   3.518   0.825   8.686  0.6041 -0.2018 -0.0400
 3032SOL    HW220733   3.473   0.802   8.550  0.5418  0.4673  0.3138
 3033SOL     OW20734   4.069   4.564   6.503  0.1021 -0.1396  0.4703
 3033SOL    HW120735   4.010   4.585   6.575  0.3906  1.3347  0.2878
 3033SOL    HW220736   4.053   4.472   6.486  0.8773 -0.0775 -0.6031
 3034SOL     OW20737   0.694   2.603   2.238  0.3561  0.1831 -0.1402
 3034SOL    HW120738   0.626   2.538   2.259  0.3160  0.8397  1.7523
 3034SOL    HW220739   0.736   2.612   2.323  3.3937 -0.1986 -1.6032
 3035SOL     OW20740   1.802   2.806   1.084  0.6682 -1.1095 -0.0340
 3035SOL    HW120741   1.760   2.892   1.090  2.4851  0.0575 -3.7414
 3035SOL    HW220742   1.838   2.800   1.172  1.0923 -0.9184 -0.1940
 3036SOL     OW20743   3.836   3.571   2.413 -0.0121  0.0197 -0.0754
 3036SOL    HW120744   3.894   3.557   2.488  0.6083 -0.3147 -0.6187
 3036SOL    HW220745   3.894   3.599   2.343 -0.8755  1.8515 -0.0354
 3037SOL     OW20746   0.611   4.543  10.118 -0.1974 -0.6871 -0.2304
 3037SOL    HW120747   0.697   4.577  10.096 -0.1787 -1.0288 -0.6834
 3037SOL    HW220748   0.574   4.614  10.170  0.0672 -2.4884  2.4241
 3038SOL     OW20749   3.082   0.123   2.975 -0.1339  0.1897 -0.0688
 3038SOL    HW120750   3.046   0.039   3.004 -1.7603  1.2920  1.0958
 3038SOL    HW220751   3.043   0.186   3.035 -0.2604  0.1467 -0.1047
 3039SOL     OW20752   0.667   0.515  17.462 -0.6767  0.2349  0.3957
 3039SOL    HW120753   0.681   0.491  17.553 -0.3204  0.6082  0.4394
 3039SOL    HW220754   0.758   0.513  17.434 -1.5607 -0.1443 -2.4635
 3040SOL     OW20755   3.630   0.887  14.750 -0.0265 -0.1701 -0.1227
 3040SOL    HW120756   3.712   0.898  14.702  0.6189  0.1913  1.0694
 3040SOL    HW220757   3.649   0.939  14.828 -0.5757 -1.1824  0.6974
 3041SOL     OW20758   1.353   3.232   9.859 -0.6719 -0.1343  0.2699
 3041SOL    HW120759   1.308   3.231   9.943 -2.8614 -1.8307 -0.9342
 3041SOL    HW220760   1.330   3.321   9.832 -0.4170 -0.2036 -0.1839
 3042SOL     OW20761   0.276   1.708   5.300  0.4544 -0.2364  0.2319
 3042SOL    HW120762   0.288   1.726   5.207 -0.3603  3.0795  0.7702
 3042SOL    HW220763   0.364   1.735   5.329  1.7317 -1.6243 -2.3839
 3043SOL     OW20764   3.365   1.398   5.542 -0.0489 -0.0269 -0.2999
 3043SOL    HW120765   3.409   1.396   5.627 -1.0469 -0.5939  0.2038
 3043SOL    HW220766   3.409   1.469   5.495  0.2619  0.3797  0.6028
 3044SOL     OW20767   2.053   0.671   9.307  0.0154  0.2322 -0.4159
 3044SOL    HW120768   1.987   0.639   9.246 -1.1134  0.7404  0.5394
 3044SOL    HW220769   2.009   0.750   9.339 -0.2343 -0.8646  1.9657
 3045SOL     OW20770   1.305   3.952   2.817  0.9590 -0.3265 -0.0816
 3045SOL    HW120771   1.325   4.044   2.835 -0.2173 -0.1900  0.5055
 3045SOL    HW220772   1.310   3.951   2.722  1.4844  0.5655 -0.0607
 3046SOL     OW20773   2.700   0.470   7.763 -0.3567 -0.1126 -0.3615
 3046SOL    HW120774   2.711   0.448   7.856  1.5931 -1.0341 -0.8099
 3046SOL    HW220775   2.787   0.490   7.730 -1.4601  2.2253 -1.9031
 3047SOL     OW20776   4.185   4.204  13.126  0.4435  0.3253 -0.5548
 3047SOL    HW120777   4.092   4.225  13.134  0.9430  2.7375 -0.8472
 3047SOL    HW220778   4.212   4.264  13.056 -0.2748  0.7156 -0.4972
 3048SOL     OW20779   0.485   1.374   7.274  0.1418  0.2031  0.0038
 3048SOL    HW120780   0.460   1.445   7.334  0.0576  0.0743  0.1222
 3048SOL    HW220781   0.566   1.402   7.231 -1.2932  2.6586 -1.0919
 3049SOL     OW20782   2.538   4.198   1.563  0.4996 -0.1676  0.1018
 3049SOL    HW120783   2.476   4.257   1.520  1.0828  1.1263  1.0480
 3049SOL    HW220784   2.470   4.133   1.581  1.3315 -1.3875 -1.1096
 3050SOL     OW20785   3.352   2.190  15.832  0.0492 -0.1251  0.1137
 3050SOL    HW120786   3.414   2.123  15.801  0.1479 -0.1865  0.4465
 3050SOL    HW220787   3.393   2.210  15.916 -1.4254  0.4534  0.6881
 3051SOL     OW20788   0.821   2.220   4.403 -0.0083 -0.2412  0.4960
 3051SOL    HW120789   0.807   2.241   4.496  2.6717 -0.3189  0.9122
 3051SOL    HW220790   0.740   2.175   4.380  0.6822 -1.2968  0.1723
 3052SOL     OW20791   4.638   3.239  17.233  0.1905  0.0257  0.5400
 3052SOL    HW120792   4.621   3.217  17.325 -0.3261  0.5360  0.5602
 3052SOL    HW220793   4.673   3.156  17.199 -2.3284 -0.9088  0.1990
 3053SOL     OW20794   4.333   3.789   0.868 -0.2396  0.2110 -0.5130
 3053SOL    HW120795   4.340   3.696   0.846 -0.0399  0.1430 -0.1611
 3053SOL    HW220796   4.251   3.793   0.918 -0.6462 -3.6271 -0.9114
 3054SOL     OW20797   4.276   3.402   4.139 -0.1197 -0.2799  0.1973
 3054SOL    HW120798   4.355   3.358   4.106  0.1510  0.3456  0.0041
 3054SOL    HW220799   4.288   3.410   4.234 -2.7483  1.9823  0.3460
 3055SOL     OW20800   2.866   2.575   2.237 -0.3698  0.5248  0.1846
 3055SOL    HW120801   2.901   2.629   2.309  0.0414 -1.0813  1.1974
 3055SOL    HW220802   2.892   2.490   2.273  1.8118  0.3263 -1.8898
 3056SOL     OW20803   2.412   2.921   9.291  0.4717 -0.0470  0.1169
 3056SOL    HW120804   2.411   2.949   9.382  1.2043 -0.3806  0.2319
 3056SOL    HW220805   2.498   2.879   9.297  1.7920  2.0500 -3.5114
 3057SOL     OW20806   3.149   0.699   0.665 -0.6080 -0.3026 -0.1108
 3057SOL    HW120807   3.133   0.622   0.611 -1.9805  0.2874 -0.5423
 3057SOL    HW220808   3.233   0.676   0.706 -0.2754 -0.3332 -0.8087
 3058SOL     OW20809   1.721   3.862   5.254 -0.6622 -0.0016 -0.6199
 3058SOL    HW120810   1.723   3.858   5.349  0.2200 -0.9023 -0.6826
 3058SOL    HW220811   1.812   3.880   5.231 -0.3755  0.2175  0.7127
 3059SOL     OW20812   0.250   3.131   4.558  0.1009  0.2668  0.4464
 3059SOL    HW120813   0.260   3.036   4.563  0.2437  0.1916 -1.0290
 3059SOL    HW220814   0.339   3.153   4.531 -0.2566  1.9169  0.6198
 3060SOL     OW20815   1.889   0.254   1.191  0.1513 -0.3736 -0.0290
 3060SOL    HW120816   1.911   0.170   1.152 -0.1464 -0.3451 -0.2583
 3060SOL    HW220817   1.966   0.309   1.180 -0.3336  0.3250  0.0136
 3061SOL     OW20818   1.168   0.849   3.441 -0.2096  0.3180  0.3948
 3061SOL    HW120819   1.117   0.828   3.363 -0.3196 -0.2202  0.6083
 3061SOL    HW220820   1.226   0.920   3.413 -1.3268  1.8254  1.8613
 3062SOL     OW20821   4.670   4.090  13.101 -0.8059 -0.6647 -0.0365
 3062SOL    HW120822   4.650   4.183  13.114  0.1234 -0.5450  0.5407
 3062SOL    HW220823   4.658   4.071  13.194  1.2414  1.0950  0.5991
 3063SOL     OW20824   4.516   0.546   4.722 -0.4933  0.6604 -0.1517
 3063SOL    HW120825   4.591   0.591   4.684 -0.2069  1.4946  1.3686
 3063SOL    HW220826   4.520   0.464   4.673  2.0359 -0.3125  1.6853
 3064SOL     OW20827   3.106   4.461  16.862 -0.0934  0.5241 -0.0449
 3064SOL    HW120828   3.128   4.371  16.836  1.9576  1.4755 -1.6241
 3064SOL    HW220829   3.062   4.503  16.788  0.1922 -1.7566 -1.5151
 3065SOL     OW20830   3.283   3.796   5.917  0.3764 -0.1092 -0.3524
 3065SOL    HW120831   3.291   3.704   5.939  1.0202  0.4764  1.8856
 3065SOL    HW220832   3.316   3.839   5.996 -0.7531  2.8892 -1.4974
 3066SOL     OW20833   2.908   4.525   1.212  0.1755 -0.1224 -0.7306
 3066SOL    HW120834   2.909   4.561   1.123 -0.6114 -1.2678 -1.1996
 3066SOL    HW220835   2.875   4.596   1.267 -1.0505 -1.0186 -0.3177
 3067SOL     OW20836   0.392   3.654  16.907 -0.3086  0.2298 -0.3133
 3067SOL    HW120837   0.306   3.623  16.937  0.5079 -1.4053  0.3266
 3067SOL    HW220838   0.445   3.653  16.986 -1.6438 -1.2527  0.5721
 3068SOL     OW20839   2.890   4.628   5.579  0.2484 -0.3834  0.5304
 3068SOL    HW120840   2.847   4.655   5.660  0.7563  0.5656  0.4800
 3068SOL    HW220841   2.897   4.533   5.593 -0.5409 -0.6032 -0.5319
 3069SOL     OW20842   0.030   0.724   9.748 -0.0211 -0.0603  0.1031
 3069SOL    HW120843   0.051   0.722   9.655 -0.7298 -0.1454 -0.0616
 3069SOL    HW220844   0.116   0.746   9.782  0.3628 -0.8975 -0.3318
 3070SOL     OW20845   0.387   0.626   2.158  0.3888  0.0055  0.1543
 3070SOL    HW120846   0.459   0.685   2.137 -1.7352  1.9700 -1.5796
 3070SOL    HW220847   0.317   0.689   2.180  0.6251  1.2116 -2.5843
 3071SOL     OW20848   4.671   1.492   3.228 -1.0887  1.0375 -0.3850
 3071SOL    HW120849   4.676   1.404   3.190 -2.3683  0.3325  1.0775
 3071SOL    HW220850   0.008   1.529   3.178  2.5552 -1.6571  2.9438
 3072SOL     OW20851   2.067   4.235   7.606  0.0737 -0.2069 -0.1686
 3072SOL    HW120852   2.096   4.148   7.577  1.1934  0.3046 -0.5750
 3072SOL    HW220853   2.132   4.252   7.673 -1.3217  1.2926  0.7802
 3073SOL     OW20854   4.457   1.404   6.105  0.7519  0.3023  0.7190
 3073SOL    HW120855   4.499   1.490   6.097  1.1272  0.2280  1.8075
 3073SOL    HW220856   4.404   1.395   6.027  0.9951  1.9666  0.3612
 3074SOL     OW20857   1.572   0.433  17.717  0.0136 -0.0432 -0.8382
 3074SOL    HW120858   1.635   0.495  17.679  0.7166  0.8421  1.7926
 3074SOL    HW220859   1.498   0.439  17.657  0.3418 -0.5823 -1.3084
 3075SOL     OW20860   0.504   3.348   9.149 -0.0531 -0.2591 -0.2234
 3075SOL    HW120861   0.590   3.306   9.152 -0.0739 -0.2312  0.7747
 3075SOL    HW220862   0.482   3.326   9.058  0.0219 -1.5103  0.0646
 3076SOL     OW20863   1.837   4.001   5.842  0.3276  1.1585  0.2894
 3076SOL    HW120864   1.780   3.997   5.765  2.4904 -2.3746 -1.1077
 3076SOL    HW220865   1.819   4.095   5.851 -0.6921  0.7092  3.0456
 3077SOL     OW20866   1.193   4.016   5.746 -0.2205 -0.0489  0.3436
 3077SOL    HW120867   1.181   4.111   5.734  0.5391 -0.3600 -3.1084
 3077SOL    HW220868   1.105   3.999   5.780 -0.3632  0.3321  0.1743
 3078SOL     OW20869   0.068   0.204   6.505 -0.3324  0.1522  0.1932
 3078SOL    HW120870   0.009   0.251   6.445  0.1398  1.3392  0.6541
 3078SOL    HW220871   0.115   0.149   6.442 -0.3891 -1.4906  1.5880
 3079SOL     OW20872   1.847   2.597   7.324  0.4104  0.2589 -0.2133
 3079SOL    HW120873   1.923   2.633   7.279  0.1683 -0.0734 -0.8999
 3079SOL    HW220874   1.789   2.584   7.249  0.4181 -1.6097  0.1013
 3080SOL     OW20875   1.283   1.090   4.942  0.4865  0.0554 -0.0709
 3080SOL    HW120876   1.350   1.159   4.945 -0.2258  0.7309  0.2152
 3080SOL    HW220877   1.226   1.129   4.876 -0.2556  1.1741  1.2316
 3081SOL     OW20878   3.422   3.023   1.471  0.0281  0.6790 -0.3411
 3081SOL    HW120879   3.352   3.088   1.466 -1.8859 -1.3997 -0.6153
 3081SOL    HW220880   3.463   3.038   1.386  0.8272 -1.0226 -0.2742
 3082SOL     OW20881   3.363   0.493  14.658  0.0997  0.3171  0.4680
 3082SOL    HW120882   3.387   0.474  14.749  0.9810 -0.9114 -0.0169
 3082SOL    HW220883   3.294   0.558  14.670  0.0377  0.5250 -1.1252
 3083SOL     OW20884   0.266   2.760   6.434  0.2387  0.0706  0.0746
 3083SOL    HW120885   0.345   2.811   6.416  1.0080 -0.7593  1.1105
 3083SOL    HW220886   0.203   2.832   6.440 -0.4296 -0.8755  4.0955
 3084SOL     OW20887   3.446   0.278   9.084  0.6540  0.1691 -0.2573
 3084SOL    HW120888   3.375   0.274   9.019 -1.0882  1.9855  1.5052
 3084SOL    HW220889   3.406   0.336   9.149 -2.3996 -0.0933 -1.9036
 3085SOL     OW20890   4.138   2.433  10.514  0.2120  0.1530  0.2446
 3085SOL    HW120891   4.147   2.499  10.582 -0.7308  2.3053 -1.7202
 3085SOL    HW220892   4.190   2.461  10.439  0.7430 -2.4369 -0.3547
 3086SOL     OW20893   2.711   3.935   1.789  0.5928 -0.0511  0.2012
 3086SOL    HW120894   2.784   3.995   1.775  0.4185 -0.2937 -1.7437
 3086SOL    HW220895   2.686   3.899   1.703 -3.9172  2.6050  0.4180
 3087SOL     OW20896   2.108   1.857   7.347 -0.0144 -0.1767  0.4039
 3087SOL    HW120897   2.075   1.932   7.299  1.6391 -1.0223 -2.0605
 3087SOL    HW220898   2.023   1.816   7.365 -0.4916 -0.0728 -1.6144
 3088SOL     OW20899   0.146   2.994   3.458 -0.2769  0.1391  0.1106
 3088SOL    HW120900   0.059   3.008   3.496 -1.0322 -0.5174 -1.3902
 3088SOL    HW220901   0.192   3.066   3.501  1.0263 -0.3986 -0.3792
 3089SOL     OW20902   3.332   1.069  16.145 -0.3162 -0.0153  0.8946
 3089SOL    HW120903   3.265   1.009  16.114  0.3191 -0.3185  0.1346
 3089SOL    HW220904   3.399   1.065  16.077 -1.6728  1.3711 -0.4979
 3090SOL     OW20905   3.045   4.225  15.280 -0.5899 -0.0177  0.3503
 3090SOL    HW120906   3.055   4.244  15.187  0.9716 -0.4267  0.4238
 3090SOL    HW220907   2.952   4.202  15.284 -0.5353 -0.3169 -0.1105
 3091SOL     OW20908   0.001   2.847  16.211 -0.3078  0.0211 -0.1253
 3091SOL    HW120909   4.646   2.820  16.219 -0.4860 -0.2224 -2.8261
 3091SOL    HW220910   0.015   2.862  16.117 -1.9053 -0.8764 -0.5211
 3092SOL     OW20911   3.812   1.935   4.741 -0.0125  0.5855  0.3351
 3092SOL    HW120912   3.787   1.844   4.758  1.6270  0.0206 -0.3388
 3092SOL    HW220913   3.816   1.966   4.832 -2.5586 -2.0628  1.3613
 3093SOL     OW20914   1.653   2.167   4.144 -0.4276  0.2073  0.2811
 3093SOL    HW120915   1.562   2.137   4.138  0.2276 -1.7126 -0.0344
 3093SOL    HW220916   1.699   2.100   4.194  1.5478  0.8834 -0.6527
 3094SOL     OW20917   0.198   1.657   0.606  0.6200  0.2071 -0.3747
 3094SOL    HW120918   0.243   1.713   0.543 -0.2403 -0.0465 -1.2170
 3094SOL    HW220919   0.206   1.712   0.684 -0.5768  1.4812 -1.1453
 3095SOL     OW20920   4.068   2.058   9.224  0.2122 -0.0517 -0.0972
 3095SOL    HW120921   4.122   2.076   9.147  1.1256  2.3576  1.1228
 3095SOL    HW220922   4.000   1.998   9.191  1.9307 -1.4830 -1.0337
 3096SOL     OW20923   1.361   4.711  15.982  0.3682 -0.6856  0.4163
 3096SOL    HW120924   1.422   0.044  15.959 -2.4416  1.0764 -1.5892
 3096SOL    HW220925   1.414   4.650  16.034 -1.0971 -3.2683 -1.1219
 3097SOL     OW20926   2.025   2.267   5.741 -0.1903  1.0094 -0.1360
 3097SOL    HW120927   2.082   2.318   5.684  1.9833 -0.2896  0.8663
 3097SOL    HW220928   1.954   2.329   5.758 -0.6928 -0.3810  2.9861
 3098SOL     OW20929   0.301   3.202   3.551 -0.4223  0.0602  0.0758
 3098SOL    HW120930   0.397   3.196   3.552 -0.3923  0.3412 -1.1053
 3098SOL    HW220931   0.286   3.253   3.631  2.9759 -0.4954  1.0911
 3099SOL     OW20932   0.712   0.083   3.430 -0.7620  0.3739 -0.0271
 3099SOL    HW120933   0.763   0.098   3.350 -0.5881  0.5702  0.1205
 3099SOL    HW220934   0.693   4.727   3.416  0.8277  0.1697 -0.8643
 3100SOL     OW20935   3.554   0.224   6.085 -0.1619  0.2466 -0.0931
 3100SOL    HW120936   3.476   0.276   6.104 -0.9733 -1.2309  0.6020
 3100SOL    HW220937   3.569   0.177   6.167  0.8891  0.3611 -0.2257
 3101SOL     OW20938   0.271   1.160  16.832 -0.2166  0.3888  0.2707
 3101SOL    HW120939   0.192   1.213  16.839  0.4852  1.5710 -0.7072
 3101SOL    HW220940   0.289   1.166  16.738  0.1884 -0.4937  0.2906
 3102SOL     OW20941   1.181   4.209   7.397  0.3779 -0.8597 -0.1837
 3102SOL    HW120942   1.230   4.229   7.317  1.0083  0.5542  0.5544
 3102SOL    HW220943   1.143   4.124   7.376  0.4951 -1.2997  1.3570
 3103SOL     OW20944   4.145   4.492  17.504  0.1461  0.1294 -0.0050
 3103SOL    HW120945   4.198   4.424  17.463  1.5473  0.8664  0.5618
 3103SOL    HW220946   4.214   4.536  17.555 -2.2339  1.2423  2.2142
 3104SOL     OW20947   3.607   4.006   0.353 -0.5152 -0.3128 -0.1623
 3104SOL    HW120948   3.692   4.027   0.391 -0.4356 -1.8802  0.5106
 3104SOL    HW220949   3.594   4.081   0.295  1.7651  0.1101 -0.1295
 3105SOL     OW20950   2.948   0.527   0.821  0.3275  0.4057  0.2016
 3105SOL    HW120951   2.967   0.617   0.796  2.1899  0.0841  0.4975
 3105SOL    HW220952   2.973   0.483   0.740 -2.2134  0.7043 -0.7453
 3106SOL     OW20953   0.003   1.709   8.171 -0.7328 -0.1390  0.7613
 3106SOL    HW120954   0.059   1.775   8.130 -2.5585  1.6206  1.0616
 3106SOL    HW220955   0.010   1.638   8.108  0.3953  1.0722 -0.4635
 3107SOL     OW20956   0.993   4.367  12.161  0.1687  0.5948  0.1142
 3107SOL    HW120957   1.000   4.283  12.116 -0.1607  1.5012 -1.6115
 3107SOL    HW220958   1.029   4.418  12.088  0.7054  1.6210  1.0983
 3108SOL     OW20959   1.140   4.176   3.062  0.1334 -0.4254  0.6399
 3108SOL    HW120960   1.226   4.147   3.092  0.9891 -0.5400 -1.9181
 3108SOL    HW220961   1.089   4.129   3.129  1.2063  1.4673  2.7503
 3109SOL     OW20962   3.975   2.650   3.617 -0.1355  0.5039  0.0970
 3109SOL    HW120963   3.948   2.716   3.681  1.8964  0.2687  1.1944
 3109SOL    HW220964   4.070   2.651   3.632 -0.2688 -0.5313  0.9886
 3110SOL     OW20965   3.351   0.733   9.319 -0.2838 -0.4831  0.3923
 3110SOL    HW120966   3.339   0.647   9.277 -0.3009  0.0152 -0.6227
 3110SOL    HW220967   3.440   0.721   9.353  0.5147 -1.1224 -1.8689
 3111SOL     OW20968   3.912   0.695   2.493 -0.2221 -0.2442 -0.2368
 3111SOL    HW120969   3.994   0.728   2.457 -1.2628  0.4643 -1.9432
 3111SOL    HW220970   3.928   0.702   2.587 -2.2095 -0.2340  0.1025
 3112SOL     OW20971   0.208   3.083  11.829 -0.7384  0.1426 -0.4120
 3112SOL    HW120972   0.295   3.044  11.832  0.3062  2.4294 -1.3465
 3112SOL    HW220973   0.213   3.129  11.913 -0.9163 -0.5428 -0.0257
 3113SOL     OW20974   0.933   3.570  10.396  0.7600 -0.0333  0.1056
 3113SOL    HW120975   0.998   3.529  10.453  0.0210 -0.9181  0.3055
 3113SOL    HW220976   0.878   3.616  10.460  0.8107  0.9409 -0.5378
 3114SOL     OW20977   2.529   0.095   3.184  0.0005 -0.2269  0.0892
 3114SOL    HW120978   2.460   0.061   3.241 -0.1148  1.9386  1.2441
 3114SOL    HW220979   2.472   0.161   3.145  0.9774  0.5447 -0.0153
 3115SOL     OW20980   0.994   1.868   3.112  0.0615  0.0202  0.2419
 3115SOL    HW120981   0.971   1.775   3.112  1.2847 -0.2902  0.4711
 3115SOL    HW220982   1.034   1.869   3.025  0.6738 -0.8302  0.5032
 3116SOL     OW20983   1.758   1.264   8.682 -0.1930  0.0575  0.1336
 3116SOL    HW120984   1.767   1.171   8.703 -1.6494 -0.0977  0.0102
 3116SOL    HW220985   1.844   1.285   8.645  1.1532 -2.5241  1.7631
 3117SOL     OW20986   1.269   3.178  15.916 -1.0571 -0.6037 -0.1781
 3117SOL    HW120987   1.336   3.187  15.983 -0.4740  2.3568 -1.1786
 3117SOL    HW220988   1.232   3.089  15.921  0.1468 -0.9544  2.3226
 3118SOL     OW20989   1.556   1.698   7.904  0.1988  0.6627  0.1294
 3118SOL    HW120990   1.491   1.768   7.909  0.9366  1.3669 -0.1469
 3118SOL    HW220991   1.572   1.703   7.999 -0.2366  1.1095  0.1758
 3119SOL     OW20992   2.252   1.640  12.743 -0.2534  0.2506  0.3643
 3119SOL    HW120993   2.269   1.586  12.819  1.2841 -0.7535 -0.6866
 3119SOL    HW220994   2.343   1.652  12.715 -0.2277 -1.5961 -0.3307
 3120SOL     OW20995   1.754   4.058   4.024  0.6504 -0.0687 -0.0449
 3120SOL    HW120996   1.754   4.121   4.097  1.2265  0.6492 -0.6677
 3120SOL    HW220997   1.820   4.089   3.962  0.3366  0.1806 -0.2590
 3121SOL     OW20998   1.176   4.720   7.423  0.7453 -0.2228  0.7787
 3121SOL    HW120999   1.161   4.674   7.340 -1.2307  1.3441  0.2682
 3121SOL    HW221000   1.172   4.647   7.485 -2.3234  1.9952  3.1776
 3122SOL     OW21001   1.294   1.569   5.380 -0.3153 -0.1371 -0.7015
 3122SOL    HW121002   1.360   1.500   5.388 -0.9409 -0.4322  1.8745
 3122SOL    HW221003   1.288   1.573   5.285  0.6022  0.7366 -0.7177
 3123SOL     OW21004   3.302   2.353   0.146  0.4087  0.4686  0.0211
 3123SOL    HW121005   3.258   2.401   0.077 -0.2720 -0.4920 -0.2142
 3123SOL    HW221006   3.378   2.409   0.161  0.9407 -0.5503  1.1223
 3124SOL     OW21007   0.608   2.301   3.423  0.1620 -0.3102 -0.9632
 3124SOL    HW121008   0.539   2.366   3.439 -1.4063 -1.5688 -2.6138
 3124SOL    HW221009   0.688   2.343   3.454 -0.3253 -1.2111  1.4855
 3125SOL     OW21010   3.642   0.611  14.781  0.6358 -0.4613  0.5318
 3125SOL    HW121011   3.637   0.707  14.782  0.1688 -0.4920  0.7420
 3125SOL    HW221012   3.564   0.589  14.831  0.8596  2.5019  2.1478
 3126SOL     OW21013   4.169   0.541   3.803  0.0527  0.1717  0.3893
 3126SOL    HW121014   4.211   0.502   3.727  2.7630  2.5574  0.6683
 3126SOL    HW221015   4.084   0.497   3.794 -0.7483  1.6463  0.7283
 3127SOL     OW21016   2.895   1.071   2.652 -0.0325 -0.1043 -0.2179
 3127SOL    HW121017   2.897   0.999   2.589 -1.4442  0.7614 -1.2222
 3127SOL    HW221018   2.922   1.152   2.608 -1.3064 -0.3464 -1.4400
 3128SOL     OW21019   4.038   3.002  15.009 -0.0141  0.0937  0.1233
 3128SOL    HW121020   4.019   3.023  14.918  3.0999 -1.4556 -0.8737
 3128SOL    HW221021   4.109   3.065  15.022  0.4705 -0.7866  1.7828
 3129SOL     OW21022   2.540   2.848  15.498 -0.4685 -0.0102  0.9686
 3129SOL    HW121023   2.497   2.818  15.578  1.9220  1.7093  2.9112
 3129SOL    HW221024   2.578   2.933  15.522  1.5162 -1.0156  1.4617
 3130SOL     OW21025   2.386   1.868  11.961 -0.7089  0.7944 -0.2554
 3130SOL    HW121026   2.472   1.910  11.956 -0.8439  1.0238 -0.6771
 3130SOL    HW221027   2.411   1.780  11.989 -1.1607  0.2998 -1.3823
 3131SOL     OW21028   2.883   0.971  11.986 -0.4709 -0.1233  0.0516
 3131SOL    HW121029   2.816   0.903  11.991 -1.3411  0.6419 -1.3258
 3131SOL    HW221030   2.911   0.966  11.895  1.1710 -0.2056  0.5511
 3132SOL     OW21031   1.705   1.261   2.313  0.0350  0.1304  0.0667
 3132SOL    HW121032   1.642   1.264   2.241 -0.0966 -1.9827  0.1013
 3132SOL    HW221033   1.664   1.202   2.376 -1.8730  2.9933  1.5189
 3133SOL     OW21034   2.178   2.998  14.293 -0.0178  0.3382 -0.3638
 3133SOL    HW121035   2.137   2.955  14.218 -1.0418  0.5921  0.0569
 3133SOL    HW221036   2.109   3.059  14.319 -0.1916 -0.2694  0.5984
 3134SOL     OW21037   2.241   3.804   1.644 -0.4081  0.3854  0.2542
 3134SOL    HW121038   2.220   3.713   1.660 -1.4980  0.4521 -0.7525
 3134SOL    HW221039   2.204   3.835   1.726 -2.3875  0.9594 -0.8538
 3135SOL     OW21040   4.481   3.385  13.167  0.2611 -0.5139  0.1689
 3135SOL    HW121041   4.482   3.362  13.074  0.6104  1.6038 -0.3547
 3135SOL    HW221042   4.390   3.412  13.180  0.4396  0.7157 -1.0702
 3136SOL     OW21043   3.897   1.543   5.813  0.0853 -0.0921  0.1014
 3136SOL    HW121044   3.887   1.639   5.814 -1.0483 -0.2091  0.0590
 3136SOL    HW221045   3.823   1.513   5.866  0.7753 -0.7619  0.6614
 3137SOL     OW21046   3.170   1.522  16.300 -0.1398  0.2715 -0.3761
 3137SOL    HW121047   3.199   1.430  16.296  2.0157  0.8485  1.9601
 3137SOL    HW221048   3.075   1.517  16.307 -0.1529 -0.7248 -1.2063
 3138SOL     OW21049   3.714   4.583   0.289 -0.1202 -0.0911 -0.4656
 3138SOL    HW121050   3.766   4.648   0.336 -1.6747  0.7011  0.1875
 3138SOL    HW221051   3.625   4.605   0.319 -0.4122 -2.8271  0.6845
 3139SOL     OW21052   0.201   1.211   7.927 -0.2318 -0.0829 -0.2409
 3139SOL    HW121053   0.120   1.164   7.945  0.7616 -0.6724  2.7361
 3139SOL    HW221054   0.190   1.299   7.963  0.2593 -0.3526  0.5881
 3140SOL     OW21055   2.195   0.286   8.442  0.2600 -0.2668  0.0268
 3140SOL    HW121056   2.195   0.354   8.509  2.7251 -1.1615  0.9618
 3140SOL    HW221057   2.205   0.335   8.360 -1.7111 -1.6602 -1.0584
 3141SOL     OW21058   0.113   1.601   4.937 -0.1735 -0.0127  0.0450
 3141SOL    HW121059   0.066   1.538   4.991 -1.8498 -1.9206 -3.6882
 3141SOL    HW221060   0.132   1.562   4.852  0.7128 -0.7776  0.5930
 3142SOL     OW21061   2.216   0.241  11.208  0.9190 -0.2078  0.0680
 3142SOL    HW121062   2.291   0.223  11.265  1.5786  0.6294 -0.5308
 3142SOL    HW221063   2.196   0.152  11.180  0.6024  0.6770 -2.4720
 3143SOL     OW21064   2.312   1.492   2.711 -0.3234  0.6525  0.0617
 3143SOL    HW121065   2.356   1.535   2.638  1.0574  0.0503  0.5351
 3143SOL    HW221066   2.387   1.490   2.770 -0.8003 -2.8274  0.5262
 3144SOL     OW21067   2.896   1.285   2.874  0.5120 -0.1319 -0.1717
 3144SOL    HW121068   2.947   1.366   2.867 -0.6406  0.4790 -1.3684
 3144SOL    HW221069   2.832   1.303   2.806 -0.0009 -0.5993  0.1880
 3145SOL     OW21070   3.577   4.541   6.422  0.2627 -0.0432  0.1025
 3145SOL    HW121071   3.499   4.534   6.367 -1.4281 -1.4239  2.6593
 3145SOL    HW221072   3.581   4.454   6.461  0.1356 -1.2259 -2.5690
 3146SOL     OW21073   2.996   0.091   0.997  0.1573  0.0877 -0.3474
 3146SOL    HW121074   2.927   0.026   0.983 -0.6950  0.9255 -0.1196
 3146SOL    HW221075   3.078   0.045   0.982 -0.1146 -0.5439  0.1353
 3147SOL     OW21076   0.826   0.777   5.246 -0.2437  0.5266 -0.3105
 3147SOL    HW121077   0.749   0.790   5.302 -0.7931  2.4264 -1.5308
 3147SOL    HW221078   0.862   0.866   5.244  1.3237 -0.1878 -3.0024
 3148SOL     OW21079   1.172   2.886   8.751  0.2823  0.1501 -0.1429
 3148SOL    HW121080   1.223   2.839   8.816  0.0969  0.0433 -0.0741
 3148SOL    HW221081   1.215   2.875   8.666 -0.6068  0.1330 -0.5892
 3149SOL     OW21082   2.080   2.112   9.328  0.8772 -0.3428 -0.2439
 3149SOL    HW121083   2.035   2.115   9.413 -0.2802  1.4735 -0.9116
 3149SOL    HW221084   2.108   2.203   9.317  0.6668 -0.1312  0.9381
 3150SOL     OW21085   3.180   2.544  17.078  0.2942 -0.2040  0.1340
 3150SOL    HW121086   3.092   2.531  17.114  0.0905  1.7141  0.3333
 3150SOL    HW221087   3.162   2.570  16.988 -1.7200 -1.0616  0.2962
 3151SOL     OW21088   3.095   2.354   1.111  0.4827 -0.1319  0.1264
 3151SOL    HW121089   3.142   2.299   1.048  2.1414 -0.4672  1.6764
 3151SOL    HW221090   3.043   2.401   1.045  2.7384  2.6300  0.2954
 3152SOL     OW21091   1.942   2.150   9.952  0.1188 -0.0252  0.1245
 3152SOL    HW121092   1.861   2.099   9.951  0.1754 -0.1446  1.4046
 3152SOL    HW221093   2.003   2.100  10.005  0.1670  0.5611  0.6261
 3153SOL     OW21094   2.724   2.351  12.681 -0.0001  0.6133 -0.1195
 3153SOL    HW121095   2.629   2.357  12.692 -0.0184 -3.1242  1.6829
 3153SOL    HW221096   2.751   2.334  12.771  0.9585 -1.1430 -0.7292
 3154SOL     OW21097   1.858   4.616   3.408 -0.3712 -0.1612 -0.3661
 3154SOL    HW121098   1.840   4.641   3.498  0.1794 -2.2262  0.3144
 3154SOL    HW221099   1.823   4.691   3.360  1.5811  1.2172  0.3326
 3155SOL     OW21100   3.989   1.040   5.392 -0.7386  0.2019 -0.9460
 3155SOL    HW121101   3.999   1.128   5.429 -1.4973 -0.1955  0.1810
 3155SOL    HW221102   3.894   1.037   5.387 -0.7624 -0.0313 -0.3208
 3156SOL     OW21103   3.583   4.277   5.331 -0.1106 -0.0672  0.1716
 3156SOL    HW121104   3.599   4.215   5.403  1.5149 -0.2662 -0.3582
 3156SOL    HW221105   3.499   4.319   5.352  0.7990  1.2528  1.2189
 3157SOL     OW21106   0.986   0.557   5.207  0.4698 -0.2091  0.2707
 3157SOL    HW121107   0.913   0.618   5.219  0.3435 -0.7929  2.3809
 3157SOL    HW221108   1.055   0.591   5.263 -0.4903  2.1841 -0.0136
 3158SOL     OW21109   3.032   1.999   5.509  0.2452  0.0565 -0.3335
 3158SOL    HW121110   3.108   2.053   5.529  1.0601 -0.3112 -2.5023
 3158SOL    HW221111   2.959   2.036   5.559  1.3022  2.4882 -0.5880
 3159SOL     OW21112   0.724   4.179   8.598  0.0397  0.8176  0.3463
 3159SOL    HW121113   0.710   4.085   8.606  0.2284  0.7482 -0.1248
 3159SOL    HW221114   0.755   4.212   8.682  2.0501 -0.5747  0.1498
 3160SOL     OW21115   2.659   4.716   8.327 -0.3488  0.0870  0.3121
 3160SOL    HW121116   2.711   4.690   8.403  0.9850 -0.7665 -0.9068
 3160SOL    HW221117   2.706   0.061   8.304 -2.9870  1.6422  0.4758
 3161SOL     OW21118   4.450   2.512   6.545  0.7844 -0.3290 -0.1662
 3161SOL    HW121119   4.479   2.508   6.454 -1.0372  1.7323 -0.8405
 3161SOL    HW221120   4.432   2.606   6.555 -2.1159 -0.8397 -0.7202
 3162SOL     OW21121   3.554   3.982  10.165 -0.3772 -0.1427 -0.1262
 3162SOL    HW121122   3.556   4.067  10.209 -1.6328  0.6147 -1.5093
 3162SOL    HW221123   3.629   3.997  10.107 -2.0920 -1.2576 -2.6555
 3163SOL     OW21124   0.920   2.749   5.275  0.1948  0.1973 -0.0825
 3163SOL    HW121125   0.919   2.778   5.366  0.8318 -1.5397  0.4731
 3163SOL    HW221126   0.828   2.727   5.256  0.9091 -2.2443 -0.7394
 3164SOL     OW21127   2.428   4.212   7.124  0.1143 -0.0559 -0.3035
 3164SOL    HW121128   2.375   4.277   7.170 -0.3852 -0.8927  0.3029
 3164SOL    HW221129   2.428   4.134   7.180  0.0567 -0.3043 -0.6516
 3165SOL     OW21130   1.928   3.062   7.436  0.1732  0.9308 -0.0544
 3165SOL    HW121131   1.866   3.021   7.376 -1.6149  1.8003  1.2271
 3165SOL    HW221132   1.953   3.146   7.397 -2.1532  1.7116  0.1671
 3166SOL     OW21133   3.321   0.637   3.746 -0.1914 -0.0786 -0.4695
 3166SOL    HW121134   3.323   0.694   3.823  1.1386 -0.2898 -0.3514
 3166SOL    HW221135   3.279   0.697   3.683 -1.4993  0.0971  0.5577
 3167SOL     OW21136   0.493   2.810  15.747 -0.2996  0.2373  0.1168
 3167SOL    HW121137   0.517   2.758  15.824 -1.6451  0.1630  0.4813
 3167SOL    HW221138   0.574   2.858  15.728 -1.9838  2.1735 -2.2205
 3168SOL     OW21139   4.089   4.552  12.741  0.3585 -0.0111 -0.4669
 3168SOL    HW121140   4.063   4.642  12.761 -1.8960 -0.6923 -0.3496
 3168SOL    HW221141   4.100   4.549  12.646  0.4566  0.7425 -0.4821
 3169SOL     OW21142   1.506   1.447   1.505 -0.0347  0.0207 -0.3604
 3169SOL    HW121143   1.514   1.352   1.502 -0.7256 -0.0559  0.2368
 3169SOL    HW221144   1.595   1.478   1.523  0.1557  0.2505 -1.6439
 3170SOL     OW21145   4.373   2.273   0.026  0.4936 -0.5936  0.1875
 3170SOL    HW121146   4.351   2.340  17.705 -1.2153 -1.5676 -0.2525
 3170SOL    HW221147   4.376   2.325   0.106 -3.8246  1.8715 -1.2288
 3171SOL     OW21148   2.088   0.711   3.390  0.2540 -0.1415  0.3275
 3171SOL    HW121149   2.015   0.766   3.416  1.9275  1.0396  2.5304
 3171SOL    HW221150   2.135   0.775   3.336 -0.2635 -0.4255 -0.4564
 3172SOL     OW21151   2.511   2.456   1.936 -0.5550 -0.2249 -0.2927
 3172SOL    HW121152   2.493   2.474   2.028 -0.6667  2.5858 -0.8480
 3172SOL    HW221153   2.468   2.531   1.895  0.8454  0.5070 -0.4259
 3173SOL     OW21154   3.160   3.988   3.289  0.1243  0.0790  1.0166
 3173SOL    HW121155   3.212   4.062   3.320 -1.8862  1.1455  1.8317
 3173SOL    HW221156   3.095   4.034   3.236 -0.5671 -0.5095  1.3441
 3174SOL     OW21157   2.397   2.736   4.764 -0.9503  0.1774 -0.2089
 3174SOL    HW121158   2.482   2.699   4.741 -0.8681  0.3701 -0.2174
 3174SOL    HW221159   2.403   2.731   4.860 -1.4249  1.2347 -0.1220
 3175SOL     OW21160   4.251   2.738   6.845  0.3238 -0.5121 -0.0242
 3175SOL    HW121161   4.345   2.727   6.861 -0.2972 -1.5783  2.8719
 3175SOL    HW221162   4.251   2.729   6.750 -1.1917 -0.7814  0.0051
 3176SOL     OW21163   0.413   0.309  11.062  0.7482  0.0972 -0.2930
 3176SOL    HW121164   0.463   0.380  11.101 -0.4074  1.8116 -1.8843
 3176SOL    HW221165   0.386   0.346  10.978  0.9209 -2.5228 -1.5097
 3177SOL     OW21166   4.564   0.967   3.505 -0.2538  0.3152 -0.5258
 3177SOL    HW121167   4.607   1.038   3.552 -2.0889  0.3771  1.0605
 3177SOL    HW221168   4.603   0.888   3.545  2.4745  0.5816 -2.6846
 3178SOL     OW21169   2.594   4.360   8.844 -0.1399 -0.3110  0.0020
 3178SOL    HW121170   2.670   4.401   8.802 -0.0044 -0.5715 -0.0040
 3178SOL    HW221171   2.542   4.430   8.883 -0.0600 -0.0856 -0.2929
 3179SOL     OW21172   3.854   2.309   8.291  0.3904 -0.0371 -0.1897
 3179SOL    HW121173   3.837   2.346   8.204  0.5766  1.5682  0.4619
 3179SOL    HW221174   3.922   2.243   8.277 -0.5708 -0.7101 -1.7219
 3180SOL     OW21175   1.081   3.061   7.097 -0.0161  0.6726  0.1325
 3180SOL    HW121176   1.002   3.055   7.043 -0.7692  1.0464  1.2064
 3180SOL    HW221177   1.061   2.999   7.167 -1.0426  1.0683  0.1773
 3181SOL     OW21178   3.486   3.641   3.907  0.0939 -0.6888  0.2315
 3181SOL    HW121179   3.451   3.655   3.819 -1.4561  0.4857  1.0337
 3181SOL    HW221180   3.455   3.552   3.924  0.3811 -1.0558 -1.1335
 3182SOL     OW21181   2.686   0.843   3.722 -0.1426 -0.1989  0.3029
 3182SOL    HW121182   2.757   0.801   3.769  1.6677  2.0950 -0.3509
 3182SOL    HW221183   2.619   0.776   3.732  1.1389 -1.4652  0.2562
 3183SOL     OW21184   4.544   2.597   8.621 -0.3543  0.4159  0.9550
 3183SOL    HW121185   4.580   2.577   8.708  0.8163 -0.3991  0.2741
 3183SOL    HW221186   4.610   2.655   8.583  1.1330 -1.9799 -0.1157
 3184SOL     OW21187   2.498   2.537  15.800  0.2796 -0.1645 -0.1075
 3184SOL    HW121188   2.564   2.505  15.862  1.5926  0.9462 -0.9354
 3184SOL    HW221189   2.459   2.454  15.773 -1.5233  0.0524  1.8179
 3185SOL     OW21190   3.239   2.157  17.341 -0.1155  0.6342  0.3108
 3185SOL    HW121191   3.254   2.225  17.275  0.1516 -0.9445 -1.2435
 3185SOL    HW221192   3.305   2.179  17.407 -1.0699  3.5267  0.3113
 3186SOL     OW21193   3.617   0.008   1.820  0.4371 -0.8212 -0.1796
 3186SOL    HW121194   3.610   4.692   1.900  0.3106  2.1290  1.7376
 3186SOL    HW221195   3.530   0.047   1.814  0.0804 -1.3291  1.6796
 3187SOL     OW21196   2.101   1.294  15.442  0.4403 -0.2286  0.0453
 3187SOL    HW121197   2.043   1.264  15.372  0.5842  0.7205 -0.4785
 3187SOL    HW221198   2.035   1.328  15.502 -0.0124  2.6259 -2.1046
 3188SOL     OW21199   2.673   0.769   8.832  0.0773  0.0123 -0.3550
 3188SOL    HW121200   2.608   0.778   8.763 -0.1414  0.4824 -0.0826
 3188SOL    HW221201   2.653   0.856   8.866 -2.0414 -0.6961  0.2120
 3189SOL     OW21202   2.664   2.926   2.409 -0.5049  0.3634  0.1499
 3189SOL    HW121203   2.621   2.947   2.327 -0.7014  0.0275  0.1650
 3189SOL    HW221204   2.694   3.013   2.433  0.3245  0.9603 -3.1316
 3190SOL     OW21205   2.937   0.516  10.460  0.3172 -0.3204 -0.7397
 3190SOL    HW121206   2.872   0.446  10.451  0.1861 -0.2147 -0.6082
 3190SOL    HW221207   2.885   0.591  10.433  0.7121 -1.2065 -3.9215
 3191SOL     OW21208   2.925   1.385   6.538 -0.5026 -0.0620  0.2437
 3191SOL    HW121209   3.010   1.429   6.545  0.7469 -2.4245 -0.0080
 3191SOL    HW221210   2.933   1.329   6.461 -1.2019  0.1124  0.0427
 3192SOL     OW21211   4.372   1.986  12.567 -0.6463  0.9893  0.2499
 3192SOL    HW121212   4.344   1.963  12.655  0.6341  0.6331  0.5621
 3192SOL    HW221213   4.296   2.038  12.537  0.3088  1.2430 -1.7373
 3193SOL     OW21214   2.274   2.623   2.230 -0.6799  0.2097  0.3169
 3193SOL    HW121215   2.283   2.537   2.188  0.4446  1.0846 -1.2184
 3193SOL    HW221216   2.345   2.623   2.293 -2.6207  2.0515  2.4802
 3194SOL     OW21217   4.661   0.999   9.308  0.6335 -0.1482  0.1818
 3194SOL    HW121218   4.644   0.940   9.234 -0.4041  0.6112 -0.1863
 3194SOL    HW221219   4.703   1.069   9.257  1.0320  0.1128  0.8698
 3195SOL     OW21220   2.016   3.110   8.987  0.0666  0.5407  0.3946
 3195SOL    HW121221   1.928   3.129   8.954  0.5299 -0.1976 -1.3013
 3195SOL    HW221222   2.066   3.089   8.908  0.8711  0.9811  0.7911
 3196SOL     OW21223   2.730   3.055  14.034 -0.8573 -0.0890  0.0960
 3196SOL    HW121224   2.745   3.042  14.127  0.1530  0.5459  0.0160
 3196SOL    HW221225   2.822   3.068  14.012 -1.1159  0.2416 -0.8217
 3197SOL     OW21226   2.550   4.356   5.503  0.6319  0.3118 -0.4657
 3197SOL    HW121227   2.547   4.349   5.408 -1.7594 -1.0518 -0.3020
 3197SOL    HW221228   2.517   4.446   5.508 -1.4734 -0.4218 -0.9040
 3198SOL     OW21229   3.407   0.648   0.701 -0.3967 -0.1588  0.4000
 3198SOL    HW121230   3.426   0.580   0.636 -0.5471 -0.7852  1.0100
 3198SOL    HW221231   3.483   0.633   0.757  0.5819 -1.4996 -1.2864
 3199SOL     OW21232   0.227   0.467   4.315 -0.0052 -0.0262  0.0761
 3199SOL    HW121233   0.241   0.379   4.279  0.6412 -0.2159  0.7807
 3199SOL    HW221234   0.202   0.445   4.405  0.4150 -0.5849  0.0575
 3200SOL     OW21235   0.085   3.066  16.499 -0.6228 -0.3960  0.2197
 3200SOL    HW121236   0.177   3.083  16.521 -0.7402 -0.7707  1.0175
 3200SOL    HW221237   0.099   3.016  16.419 -0.2302  1.1533 -0.6836
 3201SOL     OW21238   2.614   1.110   9.768 -0.1008  0.4137  0.6025
 3201SOL    HW121239   2.639   1.050   9.839 -0.4918  1.0208  1.2461
 3201SOL    HW221240   2.641   1.193   9.806 -1.5739  1.0786  0.1747
 3202SOL     OW21241   1.504   0.868   3.623 -0.1005  0.0017  0.5976
 3202SOL    HW121242   1.449   0.790   3.621 -1.6738  1.1373 -0.7778
 3202SOL    HW221243   1.461   0.924   3.688  0.3352  1.1441 -0.0839
 3203SOL     OW21244   0.181   1.548   2.778  0.3512 -0.2616 -0.0741
 3203SOL    HW121245   0.155   1.591   2.860 -1.3381  1.3482 -1.4638
 3203SOL    HW221246   0.108   1.571   2.721  0.6447 -0.7113 -0.6267
 3204SOL     OW21247   0.762   3.781   6.415 -0.6217  0.3685  0.5952
 3204SOL    HW121248   0.763   3.699   6.464  0.1283  0.1230  0.1852
 3204SOL    HW221249   0.807   3.742   6.339 -3.4061  0.0326 -0.8732
 3205SOL     OW21250   4.562   1.627   5.445  0.2867  0.0635 -0.0031
 3205SOL    HW121251   4.556   1.565   5.518  0.9947 -3.8060 -3.1937
 3205SOL    HW221252   4.522   1.577   5.374 -0.1994 -0.3706  0.5756
 3206SOL     OW21253   4.223   0.778   2.461 -0.4104  0.1214  0.0036
 3206SOL    HW121254   4.287   0.799   2.528 -0.1486 -0.7134  0.0188
 3206SOL    HW221255   4.226   0.863   2.417  1.2621 -0.6021 -1.2768
 3207SOL     OW21256   1.920   0.667   6.162  0.2055 -0.3719 -0.5883
 3207SOL    HW121257   1.852   0.677   6.228  0.0296 -0.9461 -0.6765
 3207SOL    HW221258   1.995   0.703   6.209 -0.9715  0.3580  0.7392
 3208SOL     OW21259   2.456   0.610   3.232 -0.1709  0.2927  0.7984
 3208SOL    HW121260   2.484   0.573   3.316 -1.7618  0.1325  1.2521
 3208SOL    HW221261   2.523   0.677   3.222 -0.7772  0.6893 -0.5727
 3209SOL     OW21262   2.148   2.448  10.812  0.0624  0.2974 -0.1222
 3209SOL    HW121263   2.175   2.357  10.827 -1.0102 -0.0810 -0.4237
 3209SOL    HW221264   2.230   2.497  10.811 -0.2811  0.8568 -1.2770
 3210SOL     OW21265   3.730   1.242   8.167  0.0647  0.2567 -0.2562
 3210SOL    HW121266   3.808   1.280   8.125  0.2958  0.5732  0.4683
 3210SOL    HW221267   3.705   1.306   8.233  2.8218  1.8480 -0.7351
 3211SOL     OW21268   0.013   3.743   3.286  0.0878 -0.2602 -0.2398
 3211SOL    HW121269   4.705   3.723   3.203  1.6954 -1.3680 -0.8596
 3211SOL    HW221270   0.063   3.661   3.288  3.3223  1.7733  1.8985
 3212SOL     OW21271   1.870   1.737   7.482 -0.3432  1.0678 -0.5198
 3212SOL    HW121272   1.876   1.684   7.562  0.3156  1.4906 -0.2908
 3212SOL    HW221273   1.821   1.814   7.509 -2.4367  0.1721 -1.8197
 3213SOL     OW21274   0.897   1.066   2.012  0.2368 -0.2892  0.0213
 3213SOL    HW121275   0.856   1.048   2.097 -3.2736 -2.6376 -2.1957
 3213SOL    HW221276   0.825   1.081   1.951  1.4430  1.7206 -0.9014
 3214SOL     OW21277   3.983   0.802  15.834 -0.1258  0.0975 -0.7342
 3214SOL    HW121278   3.920   0.839  15.772 -0.7998  0.2696  0.0417
 3214SOL    HW221279   3.928   0.806  15.912  0.8081 -3.2612  0.1256
 3215SOL     OW21280   0.225   2.510   4.973 -0.2094  0.1308  0.5906
 3215SOL    HW121281   0.258   2.492   5.061 -3.4935 -2.3873  1.3043
 3215SOL    HW221282   0.181   2.426   4.957 -0.3443  0.3771 -0.3301
 3216SOL     OW21283   1.708   2.035   1.983 -0.7325  0.2771 -0.0074
 3216SOL    HW121284   1.712   2.093   1.907  1.5681  0.5129  0.3100
 3216SOL    HW221285   1.781   2.055   2.041 -1.2518  2.0814  0.0530
 3217SOL     OW21286   2.477   1.323   9.163 -0.1319 -0.3991 -0.3577
 3217SOL    HW121287   2.382   1.320   9.172 -0.1142  0.1732  0.0443
 3217SOL    HW221288   2.504   1.269   9.237 -0.1790  1.2488  0.8623
 3218SOL     OW21289   3.380   3.578   3.661 -0.2673  0.3114  0.0434
 3218SOL    HW121290   3.391   3.488   3.691  0.9160  0.3071 -0.4279
 3218SOL    HW221291   3.380   3.577   3.565 -1.3614 -0.8839  0.0540
 3219SOL     OW21292   0.011   2.391   3.880 -0.2115  0.2624 -0.4362
 3219SOL    HW121293   0.006   2.419   3.972  0.6984  1.5508 -0.7659
 3219SOL    HW221294   4.721   2.300   3.889 -0.8823  0.7823  2.8074
 3220SOL     OW21295   2.498   2.834  15.204 -0.0456  0.3035  0.2832
 3220SOL    HW121296   2.579   2.879  15.184 -0.3468  0.9914  0.5907
 3220SOL    HW221297   2.533   2.766  15.261  1.2124  1.7108  1.1744
 3221SOL     OW21298   0.881   3.623   2.842  0.0749  0.5629 -0.0641
 3221SOL    HW121299   0.810   3.666   2.795  0.0893 -0.5164 -1.0619
 3221SOL    HW221300   0.954   3.683   2.825 -0.7077  0.8394 -2.3850
 3222SOL     OW21301   1.344   0.795  10.829 -0.1398  0.1895 -0.8153
 3222SOL    HW121302   1.334   0.883  10.793  0.7751  0.9193  0.6804
 3222SOL    HW221303   1.256   0.781  10.862  0.6250 -2.1798  0.2027
 3223SOL     OW21304   4.091   1.581  13.527 -0.0049  0.6330  0.2109
 3223SOL    HW121305   4.075   1.575  13.433 -2.9106  0.3275  0.7256
 3223SOL    HW221306   4.172   1.632  13.526 -0.0204  0.6381 -2.0446
 3224SOL     OW21307   0.107   3.644   4.723 -0.3686 -0.1710  0.0002
 3224SOL    HW121308   0.193   3.606   4.710 -1.4408 -1.9717 -1.8730
 3224SOL    HW221309   0.072   3.595   4.797 -0.0674  0.4563  0.5560
 3225SOL     OW21310   3.564   1.777   3.073  0.2993 -0.2832  0.3303
 3225SOL    HW121311   3.496   1.805   3.012 -1.6273 -1.0096  2.1378
 3225SOL    HW221312   3.522   1.800   3.157 -0.6452 -1.3668  0.1643
 3226SOL     OW21313   2.882   1.338   4.622 -0.3046  0.8441  0.1105
 3226SOL    HW121314   2.828   1.266   4.591  1.2391  0.1856 -1.0503
 3226SOL    HW221315   2.963   1.291   4.604 -1.7534 -1.4240 -0.4268
 3227SOL     OW21316   0.489   0.502   7.371  0.3953 -0.1468  0.3180
 3227SOL    HW121317   0.421   0.436   7.382 -0.9557  1.7919  3.7120
 3227SOL    HW221318   0.550   0.449   7.320  0.6297  1.0334 -0.6145
 3228SOL     OW21319   4.692   1.060   9.888 -0.5695  0.0830  0.9234
 3228SOL    HW121320   0.011   1.031   9.960 -0.1244 -1.6680 -0.1053
 3228SOL    HW221321   0.027   1.059   9.824 -0.9754  1.0173  0.4566
 3229SOL     OW21322   3.290   0.592   0.347  0.2796  0.1906  0.4075
 3229SOL    HW121323   3.383   0.572   0.341  0.5536  0.0913  4.7994
 3229SOL    HW221324   3.293   0.676   0.394 -1.0092  0.6333 -0.2851
 3230SOL     OW21325   0.187   1.565  10.016  0.0002 -0.3271 -0.3702
 3230SOL    HW121326   0.135   1.579   9.937 -0.5298 -2.4242 -0.3926
 3230SOL    HW221327   0.149   1.494  10.066 -0.6144 -0.9531 -1.7403
 3231SOL     OW21328   2.800   2.291  10.778 -0.4440 -0.1866  0.2008
 3231SOL    HW121329   2.811   2.243  10.696 -4.3469 -1.9694  0.7398
 3231SOL    HW221330   2.712   2.259  10.796 -0.8216  1.0855  0.6703
 3232SOL     OW21331   3.493   2.909   9.648  0.0121  0.5108 -0.3043
 3232SOL    HW121332   3.475   2.953   9.565 -2.9695 -0.2297 -0.0298
 3232SOL    HW221333   3.570   2.958   9.677 -0.0721 -0.0088  0.8014
 3233SOL     OW21334   1.346   3.264   3.574  0.4145  0.1017 -0.1913
 3233SOL    HW121335   1.284   3.258   3.646  0.1792 -1.0886 -0.4949
 3233SOL    HW221336   1.338   3.355   3.545 -0.6104  0.0323 -0.1166
 3234SOL     OW21337   0.634   0.523  17.186 -0.1135 -0.2257  0.3473
 3234SOL    HW121338   0.634   0.539  17.281 -0.7238  0.3557  0.2580
 3234SOL    HW221339   0.583   0.601  17.165 -1.3067 -0.9153  0.6844
 3235SOL     OW21340   4.010   3.053  12.108 -0.1417 -0.3891  0.6671
 3235SOL    HW121341   3.920   3.080  12.129 -1.1072 -2.3125 -1.0983
 3235SOL    HW221342   4.031   2.976  12.160 -0.9593 -0.4592  0.8986
 3236SOL     OW21343   0.649   1.656  13.048  0.5966 -0.1002  0.3735
 3236SOL    HW121344   0.673   1.564  13.061  0.3302 -0.2677 -0.3279
 3236SOL    HW221345   0.732   1.696  13.024  1.0970 -0.8204  0.9003
 3237SOL     OW21346   2.376   3.665   2.323 -0.4148 -0.5228 -0.1465
 3237SOL    HW121347   2.339   3.695   2.239 -1.7763 -0.9491  0.3072
 3237SOL    HW221348   2.426   3.744   2.344 -1.0031 -0.9565  2.8412
 3238SOL     OW21349   0.729   1.080   8.130 -0.2003  0.0568 -0.3637
 3238SOL    HW121350   0.704   1.031   8.208  1.8253 -0.1297  0.1605
 3238SOL    HW221351   0.657   1.057   8.071 -2.5152  1.4230  1.9694
 3239SOL     OW21352   3.785   4.632   0.023 -0.2249 -0.6611  0.2968
 3239SOL    HW121353   3.696   4.630  17.733  0.8677 -3.2831 -2.3650
 3239SOL    HW221354   3.765   4.599   0.111  0.5488  0.4990  0.9071
 3240SOL     OW21355   3.370   2.234  10.473 -0.1939 -0.8288  0.3747
 3240SOL    HW121356   3.427   2.161  10.494  2.9466  0.6855 -2.9066
 3240SOL    HW221357   3.422   2.283  10.409  0.6985 -0.7455  1.1839
 3241SOL     OW21358   2.832   2.903  12.873 -0.2437 -0.1203 -0.2437
 3241SOL    HW121359   2.907   2.938  12.921 -0.5784  0.5364 -0.2057
 3241SOL    HW221360   2.768   2.890  12.944  0.9031  0.7117  0.9492
 3242SOL     OW21361   2.396   3.684  12.569  0.8694 -0.3056  0.2011
 3242SOL    HW121362   2.361   3.599  12.597  0.4719  0.0808  0.8742
 3242SOL    HW221363   2.486   3.663  12.545  2.0190  1.2018  3.2759
 3243SOL     OW21364   0.065   3.682   7.668 -0.4573 -0.0179  0.2625
 3243SOL    HW121365   0.005   3.715   7.601  2.0850  0.2184 -1.9370
 3243SOL    HW221366   0.108   3.764   7.690  0.4237 -0.4803  0.2701
 3244SOL     OW21367   3.141   4.635   6.195  0.6334  0.9112 -0.2167
 3244SOL    HW121368   3.123   4.723   6.228  0.9096  0.5048  0.9944
 3244SOL    HW221369   3.115   4.648   6.103  1.1016  0.4428 -0.4146
 3245SOL     OW21370   4.130   0.527   5.662 -0.3935 -0.2729 -0.0745
 3245SOL    HW121371   4.064   0.568   5.606 -1.5058 -0.7025  0.9123
 3245SOL    HW221372   4.150   0.603   5.717 -1.3496 -1.2959  1.6843
 3246SOL     OW21373   1.925   2.460  14.033  0.1263 -0.3718  0.1122
 3246SOL    HW121374   1.952   2.404  13.959 -1.2331 -1.5732  0.5340
 3246SOL    HW221375   1.858   2.509  13.986 -1.5968 -1.9023  0.9838
 3247SOL     OW21376   0.977   1.423   4.523  0.4375 -0.0906 -0.2820
 3247SOL    HW121377   0.988   1.354   4.589  0.7407 -1.2830 -1.5804
 3247SOL    HW221378   1.052   1.479   4.542  0.5343 -0.6799  1.0879
 3248SOL     OW21379   4.610   1.070   5.226 -0.0236  0.3900 -0.1717
 3248SOL    HW121380   4.687   1.102   5.273  0.4162 -2.3164  0.9335
 3248SOL    HW221381   4.578   1.004   5.288 -0.3870  0.5552 -0.1847
 3249SOL     OW21382   4.729   1.605   2.559  0.2634  0.0607  0.1574
 3249SOL    HW121383   4.680   1.615   2.478  0.5969  1.9463  0.1781
 3249SOL    HW221384   4.662   1.581   2.623 -0.4604  0.5610 -0.4104
 3250SOL     OW21385   3.190   0.226   5.591  0.0176  0.7292  0.3022
 3250SOL    HW121386   3.214   0.255   5.679 -0.4996  0.6989  0.4557
 3250SOL    HW221387   3.234   0.289   5.533  2.0716 -0.7035  0.3319
 3251SOL     OW21388   1.525   2.846   3.946 -0.3974  0.0010  0.2036
 3251SOL    HW121389   1.608   2.870   3.905  0.3922 -1.9920  0.6621
 3251SOL    HW221390   1.518   2.753   3.926  1.6140 -0.3154  0.9917
 3252SOL     OW21391   4.147   1.989   6.239  0.3858  0.4772  0.5191
 3252SOL    HW121392   4.151   2.044   6.161  1.0428 -0.1093  0.1366
 3252SOL    HW221393   4.238   1.985   6.267  0.8923 -0.2048 -1.2139
 3253SOL     OW21394   1.269   0.217   6.759  0.2569 -0.2235  0.2512
 3253SOL    HW121395   1.209   0.184   6.691 -0.1024  1.7863 -0.4065
 3253SOL    HW221396   1.293   0.301   6.719 -1.2976  0.3346  0.5012
 3254SOL     OW21397   3.882   0.847   1.235 -0.0393 -0.5603 -0.0988
 3254SOL    HW121398   3.857   0.934   1.266 -0.0951 -0.6168  0.0164
 3254SOL    HW221399   3.854   0.798   1.312  0.1903  1.0346  0.9925
 3255SOL     OW21400   0.028   3.436   5.985  0.0451  0.1433 -0.4127
 3255SOL    HW121401   0.105   3.489   6.004 -0.0826  0.0136  0.4605
 3255SOL    HW221402   0.067   3.376   5.922  2.5323 -0.5283  1.7732
 3256SOL     OW21403   3.043   2.799   4.254  0.7292 -0.5483  0.1724
 3256SOL    HW121404   3.125   2.820   4.209  0.3716 -1.2888 -0.8316
 3256SOL    HW221405   2.985   2.801   4.177  1.5783 -1.2884 -0.4881
 3257SOL     OW21406   4.430   2.224   6.918 -0.2782  0.4283 -0.3671
 3257SOL    HW121407   4.339   2.243   6.938 -0.0929  0.4718  0.4277
 3257SOL    HW221408   4.446   2.313   6.885 -0.7262  1.1043  1.2442
 3258SOL     OW21409   3.643   3.739   6.055 -0.3541 -0.5492 -0.3803
 3258SOL    HW121410   3.722   3.760   6.106  0.6666 -0.1435 -2.1398
 3258SOL    HW221411   3.579   3.755   6.124  1.2629 -0.7483  1.1753
 3259SOL     OW21412   0.286   2.305   5.803 -0.1552 -0.3500  0.3161
 3259SOL    HW121413   0.261   2.279   5.714 -2.3244  4.4177 -0.4427
 3259SOL    HW221414   0.373   2.266   5.812 -0.5351 -1.4315 -0.5730
 3260SOL     OW21415   4.242   0.041   6.511  0.0127 -0.2323  0.1190
 3260SOL    HW121416   4.173   4.711   6.510 -0.3819  0.1152  3.7835
 3260SOL    HW221417   4.312   4.720   6.479 -1.3996  0.1094 -3.5730
 3261SOL     OW21418   0.952   4.375   4.296  0.6061  0.2002 -0.3701
 3261SOL    HW121419   1.025   4.428   4.264  0.4947  1.0446  0.7911
 3261SOL    HW221420   0.932   4.341   4.209 -2.8969  1.3256  0.0174
 3262SOL     OW21421   1.157   0.177   5.997 -0.1371 -0.0424  0.3540
 3262SOL    HW121422   1.174   0.269   5.978 -0.2466  0.0859  0.8767
 3262SOL    HW221423   1.076   0.156   5.951 -1.2122  1.8233  1.3881
 3263SOL     OW21424   3.000   3.129  11.105 -0.3229  0.7772  0.6253
 3263SOL    HW121425   3.074   3.155  11.161 -0.1332  0.0218  0.7294
 3263SOL    HW221426   3.011   3.175  11.022 -2.2323  1.3260  0.6895
 3264SOL     OW21427   1.074   3.517  13.468 -0.4307  0.0522  0.1714
 3264SOL    HW121428   1.159   3.554  13.446 -0.1083 -1.0571 -0.4498
 3264SOL    HW221429   1.065   3.552  13.556 -1.7389  1.7787 -0.6250
 3265SOL     OW21430   2.182   0.665   4.247 -0.1599 -0.0119 -0.5427
 3265SOL    HW121431   2.139   0.745   4.216  0.4851  0.6324  0.2077
 3265SOL    HW221432   2.270   0.678   4.210  0.0552  1.4795  0.4492
 3266SOL     OW21433   2.485   0.143   8.031 -0.4955  0.1048 -0.0040
 3266SOL    HW121434   2.513   0.207   7.965  0.7328 -3.5151 -2.9669
 3266SOL    HW221435   2.419   0.089   7.989  1.4395 -2.1283 -0.1636
 3267SOL     OW21436   4.020   2.091   6.963  0.4953  0.2995  0.2489
 3267SOL    HW121437   3.927   2.090   6.939 -0.0170 -0.2007  2.3004
 3267SOL    HW221438   4.049   2.176   6.929  1.2110 -0.3178 -0.7132
 3268SOL     OW21439   2.258   0.505   5.723 -0.6657 -0.1293 -0.5689
 3268SOL    HW121440   2.252   0.417   5.760 -0.2112  0.1637  0.2029
 3268SOL    HW221441   2.337   0.506   5.669 -0.0419  1.8549  0.3602
 3269SOL     OW21442   4.137   3.581   6.456 -0.1999 -0.6136  0.5089
 3269SOL    HW121443   4.133   3.609   6.548  0.7084  1.8989 -0.2501
 3269SOL    HW221444   4.207   3.517   6.470  1.5927  1.0686 -0.8328
 3270SOL     OW21445   1.465   1.329   1.002  0.1218 -0.0381  0.2420
 3270SOL    HW121446   1.418   1.339   1.085 -1.4427 -4.6048 -0.0659
 3270SOL    HW221447   1.483   1.236   1.017  2.0601  0.8063  3.1081
 3271SOL     OW21448   2.647   3.912  12.920  0.1352 -0.2405 -0.3583
 3271SOL    HW121449   2.616   3.828  12.887  0.5377  0.1124 -1.6329
 3271SOL    HW221450   2.717   3.926  12.857  0.5447  0.2168  0.2008
 3272SOL     OW21451   3.557   0.761  11.778 -0.1894  0.2847  0.7769
 3272SOL    HW121452   3.626   0.755  11.712 -1.0641  1.7386 -0.2731
 3272SOL    HW221453   3.586   0.832  11.836 -0.0239  1.6504 -0.9589
 3273SOL     OW21454   3.868   0.781  12.599 -0.5013 -0.3358  0.2704
 3273SOL    HW121455   3.777   0.754  12.588 -0.4165  0.0463 -1.3688
 3273SOL    HW221456   3.879   0.732  12.681  0.6088  0.8314  0.8142
 3274SOL     OW21457   3.488   0.412   2.470 -0.1753  0.1832  0.6180
 3274SOL    HW121458   3.484   0.335   2.527 -2.6969 -0.0759  0.1040
 3274SOL    HW221459   3.581   0.431   2.478 -0.2498  0.6588  0.3387
 3275SOL     OW21460   2.443   2.178   1.959 -0.2225 -0.4058  0.2864
 3275SOL    HW121461   2.488   2.261   1.972  0.3095 -1.0253  2.3733
 3275SOL    HW221462   2.412   2.180   1.868  1.7917 -2.4293 -0.4573
 3276SOL     OW21463   2.856   0.502   3.524  0.3058  0.6620  0.1177
 3276SOL    HW121464   2.834   0.594   3.506  0.8759  0.9671  0.9866
 3276SOL    HW221465   2.934   0.493   3.578 -0.5727 -1.1350  1.0895
 3277SOL     OW21466   3.420   1.941   8.154 -0.0947  0.4126 -0.3581
 3277SOL    HW121467   3.434   1.873   8.088 -3.4077  0.2249 -0.8683
 3277SOL    HW221468   3.512   1.969   8.155 -0.4878  1.8366 -2.5932
 3278SOL     OW21469   0.007   4.607   0.990 -0.0734  0.3716 -0.0120
 3278SOL    HW121470   4.672   4.644   0.940  1.3041 -0.2068 -2.4427
 3278SOL    HW221471   4.709   4.521   1.013  0.4980  0.5440  1.4920
 3279SOL     OW21472   1.286   2.636  13.287 -0.3742 -0.3194 -0.2622
 3279SOL    HW121473   1.258   2.554  13.328 -1.7297 -0.2669 -1.0853
 3279SOL    HW221474   1.216   2.657  13.225  0.3158  2.4384 -0.1265
 3280SOL     OW21475   4.182   2.999   2.429  0.2321  0.5080 -0.1053
 3280SOL    HW121476   4.270   3.008   2.467 -0.4242 -1.1676  1.8132
 3280SOL    HW221477   4.143   2.940   2.494 -2.4633  1.3093 -1.0131
 3281SOL     OW21478   3.298   1.527   2.552 -0.2345  0.0990 -0.0068
 3281SOL    HW121479   3.314   1.434   2.569 -2.8309 -0.2587  0.5303
 3281SOL    HW221480   3.306   1.565   2.640 -0.2736 -1.2448  0.5719
 3282SOL     OW21481   2.007   3.317  16.538  0.3672 -0.4765  0.0314
 3282SOL    HW121482   1.960   3.345  16.616  1.3145  1.7828 -0.1998
 3282SOL    HW221483   2.091   3.359  16.557 -0.0834  0.4203  0.0133
 3283SOL     OW21484   3.509   2.602  17.263 -0.8155 -0.2985 -0.5004
 3283SOL    HW121485   3.555   2.656  17.198 -1.2948  2.0469  1.0898
 3283SOL    HW221486   3.555   2.519  17.255 -2.1338 -1.0069 -0.7182
 3284SOL     OW21487   3.719   4.374   2.771  0.0226  0.5327 -0.5144
 3284SOL    HW121488   3.805   4.343   2.742 -0.8163 -0.5838 -1.7460
 3284SOL    HW221489   3.695   4.304   2.831 -2.3690  2.6120  0.9755
 3285SOL     OW21490   4.502   1.443   7.134  0.2497  0.3363 -0.0814
 3285SOL    HW121491   4.595   1.418   7.135 -0.3103 -1.6682  2.0899
 3285SOL    HW221492   4.471   1.367   7.084  0.6050  0.5916 -0.6909
 3286SOL     OW21493   0.600   1.915  11.778  0.3418  0.3558 -0.0771
 3286SOL    HW121494   0.509   1.914  11.809  0.2521  2.3054 -0.2691
 3286SOL    HW221495   0.604   1.998  11.730  0.9228  1.0201  1.1047
 3287SOL     OW21496   3.318   4.065   6.759  0.1384 -0.2480 -1.0750
 3287SOL    HW121497   3.306   3.988   6.704  2.2858  0.2604 -2.2298
 3287SOL    HW221498   3.224   4.076   6.772 -0.2262 -3.4213 -0.9383
 3288SOL     OW21499   2.015   2.194   1.127  0.2663  0.5728  0.5365
 3288SOL    HW121500   2.075   2.167   1.196  2.1112  1.1708 -0.8586
 3288SOL    HW221501   2.079   2.211   1.058  0.8239 -1.2163  0.6243
 3289SOL     OW21502   0.306   1.488  11.109  0.6486  0.2782 -0.5496
 3289SOL    HW121503   0.323   1.556  11.174  0.1605  0.2247 -0.3654
 3289SOL    HW221504   0.339   1.409  11.151  1.0666  0.9482  0.3617
 3290SOL     OW21505   0.756   2.499   6.971 -0.0322 -0.0401 -0.3012
 3290SOL    HW121506   0.811   2.473   6.897  0.1308 -1.0664  0.1693
 3290SOL    HW221507   0.817   2.484   7.043 -0.5369  0.6127  0.2608
 3291SOL     OW21508   4.673   0.255   1.769  0.2186 -0.1773 -0.4429
 3291SOL    HW121509   4.664   0.178   1.826 -3.4512  0.3644 -0.3161
 3291SOL    HW221510   0.030   0.271   1.756  0.3943 -1.6318 -0.9914
 3292SOL     OW21511   1.920   4.369   8.141  0.0285 -0.7715  0.0188
 3292SOL    HW121512   2.013   4.389   8.142  0.0619 -1.0044  1.6160
 3292SOL    HW221513   1.884   4.440   8.195  0.1735  0.1418 -1.0880
 3293SOL     OW21514   2.201   4.470   8.154 -0.8915  0.0181 -0.0829
 3293SOL    HW121515   2.295   4.454   8.157 -0.7330  1.2978  2.0845
 3293SOL    HW221516   2.187   4.507   8.242 -1.1045 -1.7836  0.6456
 3294SOL     OW21517   4.696   1.578  10.954 -0.8469 -0.0336  0.4777
 3294SOL    HW121518   4.717   1.562  10.862 -1.3030  1.5765  0.0919
 3294SOL    HW221519   0.026   1.526  10.998 -1.7541 -1.1609  0.5498
 3295SOL     OW21520   2.326   0.963   6.272 -0.4442 -0.3161  0.5286
 3295SOL    HW121521   2.289   0.971   6.184  1.1947  0.7583 -0.0793
 3295SOL    HW221522   2.268   1.020   6.321 -0.6442 -0.1880  0.1481
 3296SOL     OW21523   2.175   2.700  12.041 -0.1806  0.3728  0.4802
 3296SOL    HW121524   2.118   2.775  12.057  0.8699  1.0346  1.1045
 3296SOL    HW221525   2.204   2.713  11.951 -1.6771 -0.7444 -0.1584
 3297SOL     OW21526   0.639   4.626   8.297 -0.3932 -0.1344 -0.7531
 3297SOL    HW121527   0.562   4.661   8.343 -0.7184 -0.8382 -0.7682
 3297SOL    HW221528   0.634   4.535   8.326  2.0955  0.2847  0.9400
 3298SOL     OW21529   2.485   1.954   6.677  0.0258 -0.4848  0.8326
 3298SOL    HW121530   2.527   1.979   6.595 -2.4102 -0.3769 -0.3977
 3298SOL    HW221531   2.554   1.948   6.743 -0.6653 -2.0898  1.4275
 3299SOL     OW21532   3.021   1.148   5.094 -0.2192  0.6779 -0.2984
 3299SOL    HW121533   3.046   1.072   5.146  0.0438 -0.0955 -1.5404
 3299SOL    HW221534   3.030   1.212   5.164  1.9854  1.8313 -1.6185
 3300SOL     OW21535   2.942   2.711  17.275  0.4212 -0.0379 -0.6035
 3300SOL    HW121536   2.927   2.770  17.201 -0.2067 -0.4122 -0.7695
 3300SOL    HW221537   2.914   2.630  17.231 -1.0799 -1.2249  2.5633
 3301SOL     OW21538   2.642   4.034   5.106 -0.9903  0.2117  0.5670
 3301SOL    HW121539   2.604   3.956   5.147  0.2003 -0.6698  0.0021
 3301SOL    HW221540   2.588   4.097   5.154 -0.9488  1.5186 -1.1296
 3302SOL     OW21541   1.523   0.417   3.869  0.7581  0.0818 -0.8335
 3302SOL    HW121542   1.586   0.406   3.797  3.9092  1.7390  1.6444
 3302SOL    HW221543   1.567   0.365   3.936 -1.9933 -0.8634  0.2424
 3303SOL     OW21544   3.620   4.683   6.000  0.7312  0.0099  0.3229
 3303SOL    HW121545   3.602   4.709   6.091  0.5186  0.5561  0.1252
 3303SOL    HW221546   3.600   4.590   5.996  3.4133 -0.5297 -0.1165
 3304SOL     OW21547   0.862   0.000   1.851  0.5361  0.2672  0.5940
 3304SOL    HW121548   0.786   4.714   1.904  1.8692 -0.0622  2.3574
 3304SOL    HW221549   0.840   4.698   1.766  0.9116  0.4676  0.4057
 3305SOL     OW21550   1.089   0.113   6.573 -0.3548 -0.3936  0.1490
 3305SOL    HW121551   1.156   0.052   6.544 -0.7652 -0.2303 -1.1638
 3305SOL    HW221552   1.053   0.126   6.485  1.0865 -0.6131 -0.4777
 3306SOL     OW21553   4.567   0.837  16.463  0.0563 -0.3035  0.2745
 3306SOL    HW121554   4.596   0.833  16.371 -0.4308  0.4269  0.0936
 3306SOL    HW221555   4.604   0.755  16.497 -1.3630 -0.7616  0.6881
 3307SOL     OW21556   3.775   2.330  12.200  0.1921 -0.0840 -0.4232
 3307SOL    HW121557   3.802   2.252  12.152 -1.4901 -0.5885 -0.5805
 3307SOL    HW221558   3.729   2.290  12.274  3.3820 -1.7750  0.6330
 3308SOL     OW21559   0.236   2.190  10.972  0.1771  1.1287  0.3089
 3308SOL    HW121560   0.201   2.250  10.906  0.6847 -0.7142 -1.6254
 3308SOL    HW221561   0.198   2.107  10.944  1.1210  0.4133  1.1685
 3309SOL     OW21562   0.715   0.160   0.561  0.7209 -0.4415 -0.3836
 3309SOL    HW121563   0.674   0.118   0.637 -0.2881 -0.3877 -0.8884
 3309SOL    HW221564   0.766   0.083   0.534 -0.5638 -1.4713  0.1138
 3310SOL     OW21565   4.135   3.230   2.262  0.1414 -0.3387  0.3147
 3310SOL    HW121566   4.159   3.196   2.176 -0.9048 -1.1262  0.3356
 3310SOL    HW221567   4.181   3.158   2.305 -0.3612  0.0874  1.5594
 3311SOL     OW21568   2.618   4.208  17.271 -0.8467 -0.1264 -0.0265
 3311SOL    HW121569   2.533   4.201  17.315 -0.3954 -2.0248  0.5653
 3311SOL    HW221570   2.641   4.298  17.293  1.0775 -1.3560  2.9404
 3312SOL     OW21571   2.345   2.213   4.732 -0.8240  0.6047 -0.6032
 3312SOL    HW121572   2.318   2.277   4.798 -0.2502  2.0024 -1.7226
 3312SOL    HW221573   2.336   2.257   4.648  3.7207 -1.2871 -2.0221
 3313SOL     OW21574   0.113   2.171   4.185  0.0212 -0.4619 -0.0278
 3313SOL    HW121575   0.190   2.116   4.198 -0.2993 -0.8145  0.3674
 3313SOL    HW221576   0.153   2.254   4.157  1.2649 -1.3166 -0.7354
 3314SOL     OW21577   0.628   4.169  10.381 -0.0104 -0.1318  0.0610
 3314SOL    HW121578   0.692   4.111  10.339 -1.9976 -2.9522  0.8602
 3314SOL    HW221579   0.612   4.112  10.456 -1.9499 -0.0742 -0.3270
 3315SOL     OW21580   3.563   2.391   5.162  0.0936  0.0024  0.2237
 3315SOL    HW121581   3.536   2.469   5.209 -1.5830  0.1539 -1.0105
 3315SOL    HW221582   3.598   2.336   5.232  0.0223 -0.4424 -0.0895
 3316SOL     OW21583   1.038   2.087   4.213 -0.2391 -0.3711  0.0058
 3316SOL    HW121584   1.111   2.040   4.255 -1.8272 -1.8358  1.1219
 3316SOL    HW221585   0.983   2.111   4.287  0.2415  3.0718 -0.7718
 3317SOL     OW21586   0.869   3.980  12.365  0.8386 -0.3222  0.3254
 3317SOL    HW121587   0.942   3.921  12.350 -0.3646 -1.1563 -2.2548
 3317SOL    HW221588   0.817   3.969  12.285  0.8528  2.3352 -0.0753
 3318SOL     OW21589   2.679   2.600   4.738 -0.2551  0.2986  0.2214
 3318SOL    HW121590   2.699   2.516   4.697  0.4253  0.1088  0.9212
 3318SOL    HW221591   2.765   2.620   4.776 -0.4389  3.2413 -0.9086
 3319SOL     OW21592   1.545   4.286   8.054 -0.3114 -0.4551  0.0266
 3319SOL    HW121593   1.622   4.259   8.105 -0.7705 -1.2268  0.3066
 3319SOL    HW221594   1.576   4.357   7.998  0.5033 -2.4540 -2.0698
 3320SOL     OW21595   0.202   2.524   7.122 -0.2559 -0.2495  0.2842
 3320SOL    HW121596   0.166   2.486   7.042 -0.9709  2.1888 -0.5550
 3320SOL    HW221597   0.295   2.501   7.116 -0.3545 -0.0361 -1.9317
 3321SOL     OW21598   2.844   4.331  16.799  0.4459 -0.1638 -0.1165
 3321SOL    HW121599   2.876   4.357  16.713  2.3652  1.5532  1.1039
 3321SOL    HW221600   2.829   4.237  16.793  2.0580 -0.4226  0.0348
 3322SOL     OW21601   3.106   2.183   5.924  0.6523 -0.0160 -0.1789
 3322SOL    HW121602   3.092   2.215   5.834  1.9716 -1.8681 -1.0311
 3322SOL    HW221603   3.167   2.251   5.954 -0.7333  1.1840 -0.0749
 3323SOL     OW21604   2.972   3.431   6.517 -0.5238 -0.4802 -0.1114
 3323SOL    HW121605   2.909   3.502   6.507 -0.6626 -0.5815  0.0440
 3323SOL    HW221606   3.055   3.477   6.527  0.9116 -3.1427  0.1421
 3324SOL     OW21607   1.786   2.701   6.163  0.1261  0.8423  0.0458
 3324SOL    HW121608   1.780   2.796   6.171 -1.3939  0.5401  2.3077
 3324SOL    HW221609   1.880   2.690   6.177  0.3989 -1.0620 -3.1191
 3325SOL     OW21610   2.690   2.146   5.985 -0.3307  0.2468  0.1293
 3325SOL    HW121611   2.775   2.112   6.013  0.9850  2.6288 -0.9928
 3325SOL    HW221612   2.728   2.211   5.927 -0.2486  0.2800  0.2211
 3326SOL     OW21613   2.307   0.018   5.080 -0.5216 -0.3600 -0.0945
 3326SOL    HW121614   2.301   0.065   4.997 -2.0144 -1.4478 -0.6144
 3326SOL    HW221615   2.253   0.073   5.137  0.0517 -1.1540  1.2245
 3327SOL     OW21616   3.902   2.166   5.249  0.0520  0.3072  0.6620
 3327SOL    HW121617   3.974   2.223   5.277  0.3550 -0.5237  1.5653
 3327SOL    HW221618   3.826   2.205   5.292 -1.1545 -1.0015 -0.3242
 3328SOL     OW21619   3.683   1.395   9.931  0.0598 -0.4574  0.1135
 3328SOL    HW121620   3.659   1.353   9.848 -1.0252 -2.5241  1.4758
 3328SOL    HW221621   3.612   1.460   9.936  1.5728  0.9145  3.7509
 3329SOL     OW21622   1.109   0.918   7.972 -0.0579 -0.0290 -0.5293
 3329SOL    HW121623   1.024   0.874   7.963  0.2167 -0.5315 -0.6660
 3329SOL    HW221624   1.128   0.902   8.065  1.0388  0.7640 -0.6249
 3330SOL     OW21625   3.613   1.521   0.502 -0.4234  0.6716 -0.2259
 3330SOL    HW121626   3.574   1.437   0.478  2.4491  0.3841 -3.8067
 3330SOL    HW221627   3.581   1.571   0.428 -0.0692 -0.0035 -0.8329
 3331SOL     OW21628   0.046   3.793  14.039  0.3119 -0.2543  0.2732
 3331SOL    HW121629   4.703   3.800  14.093  0.4791 -1.7253  0.7132
 3331SOL    HW221630   0.111   3.826  14.101  0.5480 -2.0724  1.0030
 3332SOL     OW21631   0.470   1.116   0.068 -0.3164 -0.2113 -0.1636
 3332SOL    HW121632   0.437   1.204   0.050 -0.8320 -0.9015 -2.6305
 3332SOL    HW221633   0.400   1.087   0.126  0.1379 -1.9937 -0.5190
 3333SOL     OW21634   1.662   3.812  10.066  0.7038  0.3251 -0.4931
 3333SOL    HW121635   1.738   3.831  10.122  1.6408  0.8166 -1.9289
 3333SOL    HW221636   1.587   3.837  10.120  0.1546 -1.9544 -0.1829
 3334SOL     OW21637   0.593   0.428   4.240  0.0569 -0.5035 -0.0097
 3334SOL    HW121638   0.651   0.396   4.171 -1.0245 -0.4828 -0.9390
 3334SOL    HW221639   0.538   0.489   4.191 -0.6612 -3.3919 -2.7418
 3335SOL     OW21640   2.698   2.436   3.338  0.2252 -0.2554 -0.3000
 3335SOL    HW121641   2.778   2.453   3.288 -0.1989  1.9046 -0.2275
 3335SOL    HW221642   2.708   2.345   3.367 -0.5189 -0.5753 -1.0514
 3336SOL     OW21643   2.134   3.001   5.704 -0.4958 -0.0384 -0.1461
 3336SOL    HW121644   2.221   2.979   5.669 -0.4680  1.2438 -0.8872
 3336SOL    HW221645   2.101   3.055   5.632  0.1023 -0.7260 -0.9452
 3337SOL     OW21646   2.658   1.582   4.558 -0.0416  0.6346 -0.1263
 3337SOL    HW121647   2.724   1.530   4.512 -0.1638  0.9971 -0.7086
 3337SOL    HW221648   2.703   1.597   4.640  1.0799  1.1819 -0.8510
 3338SOL     OW21649   3.541   3.957  17.220 -0.3016 -0.2870  0.5364
 3338SOL    HW121650   3.579   4.003  17.146  0.9340  0.6483  1.7612
 3338SOL    HW221651   3.614   3.946  17.281  0.1511  2.8669  0.5413
 3339SOL     OW21652   1.178   3.211   3.077 -0.6560 -0.5793  0.2080
 3339SOL    HW121653   1.251   3.192   3.017 -0.5495 -0.3571  0.2680
 3339SOL    HW221654   1.202   3.168   3.159  0.0014  1.5732  1.1324
 3340SOL     OW21655   0.200   1.000  10.594 -0.4498  0.3348 -0.6956
 3340SOL    HW121656   0.253   1.079  10.594 -0.5990  0.4325 -0.5829
 3340SOL    HW221657   0.142   1.014  10.669  2.3764 -0.2446  1.5979
 3341SOL     OW21658   2.914   2.125   6.749  0.1179  0.2896 -0.2593
 3341SOL    HW121659   2.825   2.159   6.747  1.0280  2.7801  0.4936
 3341SOL    HW221660   2.958   2.201   6.712 -0.8450  1.9433  1.9640
 3342SOL     OW21661   1.957   2.544  15.295 -0.3195  0.7116 -0.0183
 3342SOL    HW121662   1.919   2.531  15.382  1.8745 -0.2042  0.8116
 3342SOL    HW221663   2.042   2.505  15.315 -1.0087 -0.4417  0.6483
 3343SOL     OW21664   0.706   0.525  17.719 -0.2114 -0.1132  0.1556
 3343SOL    HW121665   0.677   0.609   0.010  3.8663  0.9231  1.0753
 3343SOL    HW221666   0.764   0.488   0.041 -0.3585  1.1910  1.0061
 3344SOL     OW21667   1.509   2.924   8.710  0.1636  0.5758 -0.3033
 3344SOL    HW121668   1.537   2.869   8.783 -0.8963  2.1871  1.3364
 3344SOL    HW221669   1.442   2.986   8.740 -1.6232 -1.5824  0.1269
 3345SOL     OW21670   1.151   1.939  11.303  0.2009 -0.3535  0.1313
 3345SOL    HW121671   1.068   1.901  11.333 -1.0731  1.8747 -0.5781
 3345SOL    HW221672   1.116   1.970  11.220 -1.0478 -1.6237  0.1736
 3346SOL     OW21673   1.813   0.985   2.804  0.6449 -0.2454 -0.7750
 3346SOL    HW121674   1.739   0.990   2.865  0.7402 -1.9711 -0.4927
 3346SOL    HW221675   1.883   1.000   2.868  0.7834 -0.8719 -0.7721
 3347SOL     OW21676   0.387   4.303   0.712  0.5488  0.0078  0.0921
 3347SOL    HW121677   0.345   4.313   0.626  0.1513  0.5419  0.3467
 3347SOL    HW221678   0.456   4.367   0.696  0.4317  0.0784 -0.1352
 3348SOL     OW21679   0.447   2.875   3.749 -0.7527 -0.3613 -0.3840
 3348SOL    HW121680   0.520   2.831   3.793 -1.0469 -1.3936 -0.9368
 3348SOL    HW221681   0.462   2.962   3.787  1.6652  0.6721 -3.7107
 3349SOL     OW21682   0.500   1.557   1.373 -0.3026 -0.9631  0.5148
 3349SOL    HW121683   0.546   1.534   1.292 -1.1060 -3.3850  0.7536
 3349SOL    HW221684   0.555   1.506   1.431  1.2973  1.2239  0.9213
 3350SOL     OW21685   2.776   4.403   7.207 -0.0238 -0.0591  0.1726
 3350SOL    HW121686   2.717   4.476   7.226  0.9030  0.8824 -0.5685
 3350SOL    HW221687   2.838   4.419   7.279  0.0098  1.6233 -0.2339
 3351SOL     OW21688   1.626   4.201   6.847 -0.3780 -0.5203  0.3120
 3351SOL    HW121689   1.718   4.181   6.864 -0.2686 -0.9452 -0.7546
 3351SOL    HW221690   1.616   4.150   6.766  0.8197  0.7016 -0.6075
 3352SOL     OW21691   2.976   3.950   8.017 -0.1556  0.5459 -0.1589
 3352SOL    HW121692   2.927   4.030   7.997 -2.7637 -0.4334  2.2169
 3352SOL    HW221693   2.911   3.880   8.006  0.0490  0.5164 -1.2006
 3353SOL     OW21694   4.275   3.427   0.569 -0.0915  0.2298  0.2617
 3353SOL    HW121695   4.254   3.444   0.661 -0.9159  0.4666  0.0286
 3353SOL    HW221696   4.238   3.339   0.563  2.2305 -0.6986 -0.4199
 3354SOL     OW21697   2.683   0.745   5.937 -0.3645  0.5551 -0.3411
 3354SOL    HW121698   2.618   0.815   5.944  0.7247  1.3210  2.0990
 3354SOL    HW221699   2.659   0.701   6.019 -1.2848  0.0707 -0.8656
 3355SOL     OW21700   0.820   3.728  10.801  0.3262  0.3908  0.4195
 3355SOL    HW121701   0.734   3.732  10.842  0.3574 -1.0388  0.6257
 3355SOL    HW221702   0.844   3.636  10.796  1.9408  1.0187 -3.5940
 3356SOL     OW21703   4.580   3.329  12.291 -0.2248 -0.1682 -0.3928
 3356SOL    HW121704   4.486   3.320  12.307 -0.8024 -0.1132 -3.6455
 3356SOL    HW221705   4.593   3.237  12.268  0.6542 -0.7241  2.3498
 3357SOL     OW21706   0.465   3.052  13.736  0.4186 -0.1838 -0.1535
 3357SOL    HW121707   0.389   3.061  13.680  0.6072  0.3365 -0.3204
 3357SOL    HW221708   0.437   3.095  13.817 -3.0966 -1.0914 -0.8827
 3358SOL     OW21709   0.726   3.483  15.632  0.1225  0.2619 -1.3856
 3358SOL    HW121710   0.794   3.551  15.633  0.3207  0.0382 -0.0730
 3358SOL    HW221711   0.783   3.407  15.622  2.1350  1.5355  0.3869
 3359SOL     OW21712   1.243   3.556  12.850 -0.3763 -0.2048  0.3070
 3359SOL    HW121713   1.149   3.539  12.844 -0.7178  1.4113  1.1632
 3359SOL    HW221714   1.260   3.608  12.772  0.5199  1.4742  1.6235
 3360SOL     OW21715   0.643   4.491   8.607 -0.1285  0.1162  0.4726
 3360SOL    HW121716   0.738   4.482   8.612 -0.1305  0.1363  0.5522
 3360SOL    HW221717   0.626   4.432   8.680  0.8606  0.3799  0.9219
 3361SOL     OW21718   2.968   3.306   7.729  0.8338 -0.8665  0.5809
 3361SOL    HW121719   2.877   3.332   7.745  1.3779  0.9591  0.6552
 3361SOL    HW221720   2.961   3.275   7.639 -1.1619 -0.0994  0.4812
 3362SOL     OW21721   2.624   0.637   6.886 -0.5781 -0.1267  0.1361
 3362SOL    HW121722   2.654   0.722   6.851  0.5890 -0.2680  0.7923
 3362SOL    HW221723   2.549   0.671   6.935  1.1128 -0.1745  2.7547
 3363SOL     OW21724   4.588   1.007  16.662 -0.2251  0.2752  0.1412
 3363SOL    HW121725   4.497   1.030  16.680 -0.5452 -0.8775 -0.0136
 3363SOL    HW221726   4.571   0.955  16.584 -2.0339 -0.9935  1.3875
 3364SOL     OW21727   1.931   4.078   2.465  0.2463 -0.2824 -0.2990
 3364SOL    HW121728   1.839   4.091   2.489  0.7010  2.7328 -0.0866
 3364SOL    HW221729   1.907   4.006   2.407 -1.0996  0.0936 -0.2241
 3365SOL     OW21730   2.389   2.479   6.555 -0.0982 -0.0356  0.3966
 3365SOL    HW121731   2.320   2.504   6.617 -2.1980 -3.1274 -0.6809
 3365SOL    HW221732   2.448   2.552   6.571 -0.5962  0.6087 -0.7270
 3366SOL     OW21733   4.559   3.029   1.813  0.4435  0.0367 -0.0992
 3366SOL    HW121734   4.610   2.952   1.790 -0.0877 -1.0821  2.5124
 3366SOL    HW221735   4.470   3.014   1.781  0.1405 -1.0197  1.2346
 3367SOL     OW21736   0.064   4.663   0.715  0.6702  0.2304 -0.1950
 3367SOL    HW121737   0.041   4.578   0.678  0.0757 -0.6262  2.1211
 3367SOL    HW221738   0.101   4.637   0.800  0.3705  0.6218  0.0554
 3368SOL     OW21739   3.227   4.065   2.281  0.4779 -0.1048  0.2305
 3368SOL    HW121740   3.191   3.982   2.250  2.1981 -0.6416 -0.3321
 3368SOL    HW221741   3.146   4.116   2.272  0.5183 -0.0934 -0.0854
 3369SOL     OW21742   1.420   4.202   8.412  0.0791 -0.1049 -0.0403
 3369SOL    HW121743   1.411   4.107   8.416  2.0793 -0.2516  1.2408
 3369SOL    HW221744   1.504   4.218   8.454  0.1669 -1.0797  0.1536
 3370SOL     OW21745   2.764   3.532  16.995  0.5214  0.2562 -0.6431
 3370SOL    HW121746   2.679   3.573  17.011 -0.6299 -2.4831  0.1784
 3370SOL    HW221747   2.751   3.498  16.906  0.2382 -1.1826 -0.0331
 3371SOL     OW21748   2.371   4.592  16.317  0.6382  0.1736 -0.4584
 3371SOL    HW121749   2.362   4.671  16.264 -1.5364 -0.0594 -0.4358
 3371SOL    HW221750   2.445   4.546  16.277  1.2422  0.1374  0.6867
 3372SOL     OW21751   3.715   4.203   8.181  0.4978  0.2464  0.5551
 3372SOL    HW121752   3.672   4.132   8.134 -2.4939  1.3731  1.6209
 3372SOL    HW221753   3.795   4.192   8.130  0.9971 -1.6168  1.6944
 3373SOL     OW21754   2.409   0.301   2.029  0.8396  0.1909 -0.3880
 3373SOL    HW121755   2.360   0.381   2.010  1.8141  1.3128  1.8628
 3373SOL    HW221756   2.329   0.251   2.044 -1.3286  3.0069 -2.6191
 3374SOL     OW21757   4.096   2.390   1.311  0.1122 -0.1779  0.0884
 3374SOL    HW121758   4.122   2.390   1.403  1.0853 -1.4452 -0.1758
 3374SOL    HW221759   4.166   2.434   1.262 -0.6844  0.9664 -0.0252
 3375SOL     OW21760   0.684   1.241   9.300 -0.0302  0.1455  0.3898
 3375SOL    HW121761   0.639   1.309   9.350 -1.1678  0.9550 -1.7478
 3375SOL    HW221762   0.756   1.295   9.266 -0.8415  0.4620 -0.8112
 3376SOL     OW21763   2.952   0.909   2.868 -0.5180 -0.5443 -0.5584
 3376SOL    HW121764   2.973   0.992   2.912 -0.1102  0.0094 -1.8253
 3376SOL    HW221765   2.929   0.947   2.784  1.4356  1.8939 -0.0065
 3377SOL     OW21766   4.563   2.520  11.261  0.1947  0.1156 -0.4289
 3377SOL    HW121767   4.477   2.548  11.291 -0.2909 -0.6796 -1.0965
 3377SOL    HW221768   4.566   2.427  11.282  1.4806 -0.0016 -1.1326
 3378SOL     OW21769   4.516   3.741  11.148  0.1038 -0.5158  0.3505
 3378SOL    HW121770   4.511   3.781  11.235 -0.5841 -1.5224  0.7786
 3378SOL    HW221771   4.458   3.795  11.095  2.4891 -0.0741 -1.7781
 3379SOL     OW21772   2.702   3.507   8.977 -0.3260  0.7131 -0.4748
 3379SOL    HW121773   2.716   3.601   8.985 -0.3680  0.5398  1.7290
 3379SOL    HW221774   2.731   3.476   9.063 -0.6447 -1.9875 -1.3438
 3380SOL     OW21775   2.012   4.713   6.843  0.3104 -0.3308 -0.5886
 3380SOL    HW121776   2.013   4.625   6.805 -1.7470 -1.4295  1.9225
 3380SOL    HW221777   2.009   0.034   6.766 -0.9812  1.1399  0.5614
 3381SOL     OW21778   2.183   0.693   9.012  0.4594 -0.2973  0.0237
 3381SOL    HW121779   2.185   0.784   8.982  2.2399 -0.4364 -0.2440
 3381SOL    HW221780   2.204   0.698   9.105 -2.1457 -2.0793  0.7157
 3382SOL     OW21781   2.178   2.779   1.883  0.2712 -0.2905 -0.0596
 3382SOL    HW121782   2.176   2.873   1.903 -0.7641 -0.0766 -1.1502
 3382SOL    HW221783   2.132   2.740   1.957 -0.3084  2.4682  1.0398
 3383SOL     OW21784   2.888   0.621   8.919 -0.1864 -0.2800  0.3105
 3383SOL    HW121785   2.943   0.636   8.843  0.2831  0.9317  0.8892
 3383SOL    HW221786   2.809   0.665   8.886 -1.8240 -1.9797  1.9611
 3384SOL     OW21787   3.112   0.902   7.953 -0.1277  0.2845  0.1619
 3384SOL    HW121788   3.019   0.878   7.955  0.0185 -0.4826 -2.8340
 3384SOL    HW221789   3.137   0.832   7.893 -0.4800  0.8088 -0.5976
 3385SOL     OW21790   2.889   0.236   9.037 -0.1247 -0.1552 -0.0339
 3385SOL    HW121791   2.804   0.261   9.001  0.4960  4.3930  1.6968
 3385SOL    HW221792   2.866   0.169   9.102  0.0686  0.4001  0.6174
 3386SOL     OW21793   2.382   4.193   8.785  0.5904 -0.0409  0.1218
 3386SOL    HW121794   2.326   4.174   8.861  0.7987  1.4432  0.6531
 3386SOL    HW221795   2.457   4.241   8.820  0.1123 -0.2376  1.4129
 3387SOL     OW21796   1.429   1.469   1.760  0.3824 -0.4628 -0.4612
 3387SOL    HW121797   1.352   1.412   1.768  0.1836  0.0366  1.1173
 3387SOL    HW221798   1.437   1.490   1.667 -1.8483 -1.5483 -0.9064
 3388SOL     OW21799   2.746   1.453   1.452  0.3041 -0.0204  0.2888
 3388SOL    HW121800   2.785   1.453   1.365 -0.7747  0.2139 -0.1883
 3388SOL    HW221801   2.819   1.488   1.503  0.3308 -0.1108  0.3124
 3389SOL     OW21802   3.148   2.068   6.864  0.3099 -0.1451  0.2816
 3389SOL    HW121803   3.143   2.148   6.916  2.6710  0.6377 -0.6814
 3389SOL    HW221804   3.058   2.067   6.830  1.0807  1.0648 -1.8146
 3390SOL     OW21805   1.266   0.589   4.117  0.4039 -0.1452  0.3724
 3390SOL    HW121806   1.267   0.667   4.172 -1.8329  1.5918 -2.0480
 3390SOL    HW221807   1.267   0.522   4.186  1.6544 -0.1703  0.3244
 3391SOL     OW21808   2.185   1.233   8.244  0.0609 -0.2058  0.3301
 3391SOL    HW121809   2.263   1.276   8.279  0.4580 -0.1861 -0.5949
 3391SOL    HW221810   2.185   1.249   8.150 -2.2859  0.7569  0.5083
 3392SOL     OW21811   2.625   2.752   3.265 -0.3677 -0.6544  0.3502
 3392SOL    HW121812   2.588   2.698   3.195  0.6223 -0.8295 -0.0351
 3392SOL    HW221813   2.665   2.678   3.311  0.2129 -0.4625  0.1528
 3393SOL     OW21814   0.011   2.837  15.606  0.3398  0.1452  0.0434
 3393SOL    HW121815   0.064   2.894  15.662  0.7084  1.3337 -1.5098
 3393SOL    HW221816   4.666   2.828  15.655  1.0686 -0.1766  1.1889
 3394SOL     OW21817   2.409   3.862   1.367  0.1239  0.5618 -0.0546
 3394SOL    HW121818   2.424   3.849   1.273 -0.7265  1.1394 -0.2697
 3394SOL    HW221819   2.364   3.782   1.393  0.2593  0.1616 -1.0645
 3395SOL     OW21820   3.027   0.951   7.642  0.2646  0.0448  0.2333
 3395SOL    HW121821   3.061   0.872   7.684 -0.9047  0.4129  1.8559
 3395SOL    HW221822   2.946   0.931   7.595  0.0393  1.3317  0.0761
 3396SOL     OW21823   3.402   2.749  10.815  0.3132 -0.2755  0.1055
 3396SOL    HW121824   3.370   2.717  10.899 -0.3690  0.2471  0.0433
 3396SOL    HW221825   3.459   2.677  10.785 -2.0702 -1.4363 -1.6238
 3397SOL     OW21826   1.193   4.462   1.591 -0.1574  0.4137  0.0878
 3397SOL    HW121827   1.282   4.439   1.616 -0.2267 -1.0967 -1.0739
 3397SOL    HW221828   1.201   4.551   1.556 -1.1969  0.1315 -0.8698
 3398SOL     OW21829   4.494   3.653  10.820 -0.2678 -0.2779 -0.0283
 3398SOL    HW121830   4.515   3.633  10.729  3.0951 -1.8885  1.1066
 3398SOL    HW221831   4.517   3.746  10.821 -1.2845 -0.0130 -0.5468
 3399SOL     OW21832   2.694   0.335  14.987 -0.1387 -0.6168  0.0825
 3399SOL    HW121833   2.647   0.254  14.966 -0.9125 -0.1510  0.0176
 3399SOL    HW221834   2.778   0.316  14.946 -1.0242 -1.7915 -1.2416
 3400SOL     OW21835   0.510   2.816  14.002 -0.3339 -0.3887  0.5361
 3400SOL    HW121836   0.562   2.845  13.927 -1.1563 -0.7010 -0.1588
 3400SOL    HW221837   0.486   2.902  14.037 -0.7177 -1.3125  2.5382
 3401SOL     OW21838   4.037   3.427  14.115 -0.3461 -0.5151 -0.0906
 3401SOL    HW121839   4.043   3.492  14.045  1.3956 -1.2768 -0.6530
 3401SOL    HW221840   3.943   3.430  14.133 -0.1289  0.4373  0.9167
 3402SOL     OW21841   1.850   3.133   2.141  0.4523 -0.3099 -0.0193
 3402SOL    HW121842   1.782   3.183   2.187  0.2618  0.7227 -1.4144
 3402SOL    HW221843   1.911   3.124   2.214  1.3261 -1.2632 -0.8753
 3403SOL     OW21844   0.421   1.121  11.273  0.1146 -0.3385  1.0561
 3403SOL    HW121845   0.327   1.140  11.283  0.0774 -0.2568  0.5622
 3403SOL    HW221846   0.458   1.210  11.271 -2.2430  0.6672  1.7937
 3404SOL     OW21847   1.882   4.570   0.417  0.4664  0.2775  0.1440
 3404SOL    HW121848   1.844   4.573   0.330 -1.3632 -0.5646  0.9246
 3404SOL    HW221849   1.972   4.549   0.391 -0.0495  0.8825 -2.0317
 3405SOL     OW21850   2.072   2.642  14.184 -0.4864  0.2001 -0.1219
 3405SOL    HW121851   2.019   2.648  14.264  2.0319 -1.7835  1.7034
 3405SOL    HW221852   2.011   2.585  14.136  2.1614 -0.3285 -2.8141
 3406SOL     OW21853   0.724   1.337   3.630  0.4683  0.3780  0.4397
 3406SOL    HW121854   0.683   1.419   3.603  1.0517  0.7904  0.8020
 3406SOL    HW221855   0.806   1.361   3.672  1.0242  1.9358 -1.5037
 3407SOL     OW21856   0.760   0.346   7.170 -0.0838 -0.4955 -0.0644
 3407SOL    HW121857   0.725   0.314   7.087 -0.9701 -0.3243  0.2371
 3407SOL    HW221858   0.739   0.439   7.156  1.8915 -0.2154 -1.0834
 3408SOL     OW21859   2.027   0.750  16.258 -0.2204  0.0456 -0.6717
 3408SOL    HW121860   2.077   0.696  16.197 -1.1741 -1.3775 -0.1852
 3408SOL    HW221861   1.948   0.697  16.271  0.7642 -1.5427 -1.2111
 3409SOL     OW21862   2.584   1.194  15.303  0.5535 -0.3236  0.2369
 3409SOL    HW121863   2.591   1.172  15.210 -0.5458  1.0262 -0.1554
 3409SOL    HW221864   2.491   1.214  15.305  1.1551  2.1791  3.4397
 3410SOL     OW21865   2.886   2.417   8.384  0.2073  0.0919 -0.1239
 3410SOL    HW121866   2.835   2.492   8.416  1.4496  0.0246  1.9845
 3410SOL    HW221867   2.942   2.415   8.461 -0.2785 -1.6124  0.1818
 3411SOL     OW21868   3.167   2.696   2.188  0.0104  0.1438  0.3227
 3411SOL    HW121869   3.072   2.707   2.193 -0.4224 -2.7764 -1.8154
 3411SOL    HW221870   3.173   2.615   2.139 -0.6141 -0.3110  0.9948
 3412SOL     OW21871   4.421   2.388   7.616  0.2590  0.0389 -0.5853
 3412SOL    HW121872   4.477   2.325   7.571 -0.1794  0.7969 -2.1946
 3412SOL    HW221873   4.459   2.379   7.704 -1.5721  0.9422  0.3009
 3413SOL     OW21874   2.537   2.932  10.233  0.9088 -0.5856 -0.2724
 3413SOL    HW121875   2.499   3.004  10.284 -0.8501 -1.6449 -0.1119
 3413SOL    HW221876   2.553   2.870  10.303 -1.0317  1.6988  2.2106
 3414SOL     OW21877   3.424   2.466   8.848  0.4538  0.1933  0.3123
 3414SOL    HW121878   3.335   2.436   8.830  0.3635  1.6900 -1.7315
 3414SOL    HW221879   3.423   2.536   8.782 -0.9561 -0.2344 -0.1127
 3415SOL     OW21880   0.196   3.175   2.561 -0.0447 -0.7044  0.3979
 3415SOL    HW121881   0.150   3.220   2.490 -1.4655 -0.2843  1.6061
 3415SOL    HW221882   0.143   3.096   2.565 -0.7333 -0.2737 -0.3482
 3416SOL     OW21883   1.801   2.525  10.475  0.5101  0.2548  0.4456
 3416SOL    HW121884   1.797   2.577  10.394 -2.0922  1.8167  1.5739
 3416SOL    HW221885   1.729   2.465  10.457  1.6494 -1.8907  3.0557
 3417SOL     OW21886   4.570   1.008   6.147 -0.3807  0.1900  0.0793
 3417SOL    HW121887   4.662   1.026   6.164 -0.6273  1.0907  0.4444
 3417SOL    HW221888   4.532   1.070   6.209  0.6261  1.4211 -0.5445
 3418SOL     OW21889   2.122   2.138   4.953 -0.6628 -0.5324 -1.1074
 3418SOL    HW121890   2.197   2.196   4.936 -0.9106  0.4711  1.2759
 3418SOL    HW221891   2.103   2.165   5.043  3.0976  0.8579 -0.7137
 3419SOL     OW21892   2.561   0.560  14.892  0.3006 -0.4552  0.8031
 3419SOL    HW121893   2.612   0.509  14.955  0.8310  0.3336  1.0240
 3419SOL    HW221894   2.622   0.550  14.818 -1.7862  0.4086 -1.0412
 3420SOL     OW21895   3.073   3.700   2.914  0.2208 -0.1558  0.1903
 3420SOL    HW121896   2.988   3.658   2.933  0.2036 -0.0912  0.2532
 3420SOL    HW221897   3.048   3.789   2.890  0.4074  0.0612  0.8118
 3421SOL     OW21898   4.653   2.525  16.945  0.2997 -0.5529 -0.5393
 3421SOL    HW121899   4.648   2.503  16.852 -0.5593  0.1055 -0.6468
 3421SOL    HW221900   4.569   2.487  16.972 -0.5851 -0.0446 -2.5257
 3422SOL     OW21901   1.251   2.753   5.394  0.3343  0.5836 -0.5071
 3422SOL    HW121902   1.286   2.731   5.480 -0.4448 -1.7542 -0.8019
 3422SOL    HW221903   1.169   2.704   5.389  0.2562  0.6862 -0.2328
 3423SOL     OW21904   3.317   0.196   3.940 -0.2544  0.4809 -0.3970
 3423SOL    HW121905   3.410   0.176   3.952  0.0936  0.9861 -2.2465
 3423SOL    HW221906   3.305   0.230   4.029  1.0016 -0.9710  0.3131
 3424SOL     OW21907   0.810   1.058   3.173  0.1923 -0.1855 -0.1692
 3424SOL    HW121908   0.903   1.057   3.152  0.3557  0.9038  0.4424
 3424SOL    HW221909   0.801   1.118   3.248 -0.1211 -1.0185  0.4538
 3425SOL     OW21910   2.503   2.596   4.397  0.1228  0.2808  0.7233
 3425SOL    HW121911   2.455   2.678   4.405 -1.5348 -0.5273 -0.8362
 3425SOL    HW221912   2.579   2.625   4.447  0.3130  0.5106  0.3010
 3426SOL     OW21913   0.724   3.362   2.247  0.1501 -0.4740  0.0705
 3426SOL    HW121914   0.724   3.284   2.302 -0.4095 -1.1547 -0.8866
 3426SOL    HW221915   0.817   3.365   2.225 -0.0983 -2.5513 -1.3139
 3427SOL     OW21916   3.070   0.642   9.725  0.5620 -0.1187  0.1244
 3427SOL    HW121917   2.991   0.680   9.761 -0.1971 -3.3896  1.9199
 3427SOL    HW221918   3.102   0.613   9.810 -1.5688 -0.7161  0.7311
 3428SOL     OW21919   0.612   0.382   6.638  0.1484 -0.8944 -0.1646
 3428SOL    HW121920   0.546   0.355   6.575  1.6256  0.8035 -2.4063
 3428SOL    HW221921   0.692   0.366   6.588  0.5380  0.3285  0.0747
 3429SOL     OW21922   3.616   3.064   8.131  0.0959 -0.3800  0.3226
 3429SOL    HW121923   3.674   3.098   8.063  2.0094 -1.5082  1.3736
 3429SOL    HW221924   3.527   3.083   8.101 -0.4008 -0.8748  1.4982
 3430SOL     OW21925   1.332   3.176   8.271  0.0783  0.1196 -0.5799
 3430SOL    HW121926   1.366   3.217   8.351 -0.3030 -1.4957  0.4236
 3430SOL    HW221927   1.392   3.195   8.199  1.0512  2.2399  0.8135
 3431SOL     OW21928   1.874   1.234   4.339  0.4325  0.6983 -0.3580
 3431SOL    HW121929   1.844   1.287   4.412 -1.0920  1.4316 -1.5363
 3431SOL    HW221930   1.817   1.270   4.271  0.8565  0.5848 -0.7798
 3432SOL     OW21931   2.933   0.676   8.388 -0.7918  0.6992  0.8749
 3432SOL    HW121932   2.883   0.649   8.311  0.4396 -0.0550  0.3328
 3432SOL    HW221933   2.875   0.745   8.420  0.0897  1.0676  1.6745
 3433SOL     OW21934   1.795   0.328   4.306  0.0679 -0.1551  0.2281
 3433SOL    HW121935   1.718   0.367   4.265  0.4599  1.1096  0.7062
 3433SOL    HW221936   1.841   0.411   4.313 -0.1714 -0.2512  3.1409
 3434SOL     OW21937   0.295   2.235   7.874 -0.7053 -0.9247 -0.3577
 3434SOL    HW121938   0.208   2.272   7.856 -1.0266 -0.3751  2.2023
 3434SOL    HW221939   0.277   2.147   7.842 -1.0489 -0.7343 -0.6877
 3435SOL     OW21940   0.137   1.430   8.390  0.2374 -0.0686  0.5386
 3435SOL    HW121941   0.079   1.354   8.381  1.2796 -1.0282  1.8621
 3435SOL    HW221942   0.153   1.431   8.484 -3.4214 -0.5808  1.1945
 3436SOL     OW21943   3.204   3.836   5.372 -0.2825 -0.1101  0.1143
 3436SOL    HW121944   3.286   3.872   5.407 -0.1318  0.6546 -1.0186
 3436SOL    HW221945   3.183   3.761   5.428 -0.1858  0.1833  0.5472
 3437SOL     OW21946   2.016   2.037  11.450 -0.1507 -0.1769 -0.0478
 3437SOL    HW121947   2.011   1.942  11.458  0.0311 -0.0228  2.0976
 3437SOL    HW221948   1.937   2.061  11.498  0.3978  2.8627 -0.6401
 3438SOL     OW21949   0.522   3.206  17.091 -0.3187 -0.7243 -0.5002
 3438SOL    HW121950   0.487   3.228  17.178 -2.2910  1.9668 -1.9670
 3438SOL    HW221951   0.556   3.290  17.060  1.1850  0.1838  3.5299
 3439SOL     OW21952   0.283   2.566  13.393 -0.1955  0.1887 -0.1051
 3439SOL    HW121953   0.248   2.539  13.308  1.3813 -2.2604  0.0387
 3439SOL    HW221954   0.333   2.491  13.424  0.5648  0.9203  0.4426
 3440SOL     OW21955   0.570   2.323   0.665  0.0890  0.1936  0.0097
 3440SOL    HW121956   0.612   2.238   0.678 -0.3674 -0.0999 -0.4515
 3440SOL    HW221957   0.532   2.298   0.581  0.3257  2.3305 -0.7293
 3441SOL     OW21958   3.457   2.823   1.804 -0.6153 -0.1256  0.4262
 3441SOL    HW121959   3.396   2.877   1.853 -1.2365  0.7430 -1.3206
 3441SOL    HW221960   3.412   2.739   1.811 -0.4061 -0.3640 -1.2404
 3442SOL     OW21961   1.188   1.256   6.041 -0.1149  0.0510  0.2667
 3442SOL    HW121962   1.258   1.278   6.102 -1.1094  0.4378  1.2704
 3442SOL    HW221963   1.178   1.339   5.994  3.3681  0.6292  0.5378
 3443SOL     OW21964   4.299   4.062  14.580 -0.1945 -1.1492  0.8906
 3443SOL    HW121965   4.327   3.972  14.565 -1.3115 -1.6432  1.7523
 3443SOL    HW221966   4.317   4.094  14.492 -1.5970  0.9215  1.3269
 3444SOL     OW21967   1.354   3.392   7.151  0.1918  0.0803 -0.4951
 3444SOL    HW121968   1.379   3.340   7.075  2.3879 -0.7049  0.7319
 3444SOL    HW221969   1.425   3.382   7.215  1.5700  1.0263 -1.8810
 3445SOL     OW21970   3.793   3.470  11.469  0.2400 -0.2096 -0.4773
 3445SOL    HW121971   3.743   3.395  11.437  2.2621 -1.4978 -0.6205
 3445SOL    HW221972   3.857   3.431  11.528  0.8984 -1.2920 -1.8938
 3446SOL     OW21973   0.716   3.061   4.278 -0.0263 -0.4115  0.3113
 3446SOL    HW121974   0.748   3.150   4.292  1.0306 -1.0092  1.6830
 3446SOL    HW221975   0.749   3.024   4.360 -2.2537 -1.5596  0.6923
 3447SOL     OW21976   2.884   0.198   7.448 -0.1513 -0.3046  0.6209
 3447SOL    HW121977   2.890   0.233   7.537  1.2764 -0.0776  0.4440
 3447SOL    HW221978   2.805   0.238   7.412  0.1223 -0.2455  0.0821
 3448SOL     OW21979   0.725   4.486   7.060 -0.8513  0.0041 -0.5709
 3448SOL    HW121980   0.714   4.548   6.987 -4.0259 -0.7280 -0.7038
 3448SOL    HW221981   0.753   4.401   7.025  0.7371  1.2461 -2.3746
 3449SOL     OW21982   1.328   2.322   5.467  0.1553 -0.0422  0.3610
 3449SOL    HW121983   1.265   2.266   5.422  3.1342 -2.5057 -0.6652
 3449SOL    HW221984   1.406   2.304   5.416 -0.5010 -0.0996 -0.6227
 3450SOL     OW21985   0.802   2.452  16.333 -0.3239  0.3058  0.3104
 3450SOL    HW121986   0.887   2.423  16.366  0.5410  0.7916 -1.5380
 3450SOL    HW221987   0.816   2.543  16.358 -2.1307  0.3523  1.1638
 3451SOL     OW21988   4.371   1.860   2.519 -0.1137 -0.2483 -0.3409
 3451SOL    HW121989   4.362   1.861   2.615 -2.1118 -0.7419 -0.5261
 3451SOL    HW221990   4.279   1.851   2.497 -0.6961  0.9895  1.5680
 3452SOL     OW21991   3.753   0.582   2.852 -0.2897 -0.0874  0.0059
 3452SOL    HW121992   3.748   0.604   2.945 -0.8437  2.0848 -0.5438
 3452SOL    HW221993   3.660   0.578   2.828 -0.3913 -1.5686  0.6466
 3453SOL     OW21994   4.710   4.015   3.166  0.3329  0.1751  0.5255
 3453SOL    HW121995   0.018   3.940   3.206 -0.9670  0.6532  2.8799
 3453SOL    HW221996   4.619   3.998   3.190 -0.7165  3.1046 -1.3684
 3454SOL     OW21997   3.877   3.360   5.860 -0.4124  0.1353  0.6467
 3454SOL    HW121998   3.850   3.452   5.849 -0.4619  0.3814  2.9164
 3454SOL    HW221999   3.807   3.312   5.815  0.0584 -1.0389  1.1747
 3455SOL     OW22000   2.217   2.891  17.054  0.2484  0.4182 -0.0068
 3455SOL    HW122001   2.126   2.897  17.082  0.2995 -0.1720  0.3020
 3455SOL    HW222002   2.223   2.916  16.962 -0.0538 -0.2043 -0.1974
 3456SOL     OW22003   2.882   2.336   2.661  0.0466  0.0542  0.5156
 3456SOL    HW122004   2.877   2.289   2.745  2.0336 -0.8549  0.1080
 3456SOL    HW222005   2.862   2.426   2.685  0.1778  0.6223 -1.5691
 3457SOL     OW22006   0.168   4.405   8.244 -0.1889  0.2177 -0.4510
 3457SOL    HW122007   0.078   4.392   8.212 -0.5213  0.4289  0.3897
 3457SOL    HW222008   0.218   4.359   8.176 -0.2855  1.4601 -1.3630
 3458SOL     OW22009   2.088   0.472  11.273 -0.1379  0.6022  0.1155
 3458SOL    HW122010   2.162   0.512  11.319 -0.0835  0.0015  0.5536
 3458SOL    HW222011   2.120   0.386  11.245 -0.7894  0.0607  1.0688
 3459SOL     OW22012   4.200   2.933   6.589 -0.2594  0.1037  0.0921
 3459SOL    HW122013   4.257   2.981   6.649  0.7364  0.2587 -0.9908
 3459SOL    HW222014   4.133   2.903   6.651 -1.6384  0.9893 -0.9626
 3460SOL     OW22015   0.004   2.140   5.904  0.8233  0.1397  0.4249
 3460SOL    HW122016   0.090   2.107   5.931  0.7290 -0.1151  0.4172
 3460SOL    HW222017   0.005   2.222   5.953  0.4220  0.8969 -0.8392
 3461SOL     OW22018   1.925   1.073   7.245 -0.2063 -0.4296  0.2856
 3461SOL    HW122019   1.946   1.103   7.156  0.5019 -0.1529  0.5370
 3461SOL    HW222020   2.011   1.055   7.282  1.1106  0.9872 -2.0012
 3462SOL     OW22021   4.141   0.119   6.765 -0.0629 -0.7414  0.2575
 3462SOL    HW122022   4.213   0.112   6.703  0.2275 -0.1206  0.5238
 3462SOL    HW222023   4.183   0.062   6.830 -1.7336 -1.3045  0.8298
 3463SOL     OW22024   1.384   2.474   0.306 -0.5521 -0.1332 -0.3260
 3463SOL    HW122025   1.360   2.435   0.222 -1.5544  0.7057 -0.4257
 3463SOL    HW222026   1.422   2.397   0.349 -2.0073 -0.6112  0.1057
 3464SOL     OW22027   3.149   3.897   4.686  0.4473 -0.0223  0.2390
 3464SOL    HW122028   3.170   3.990   4.675  1.4578 -0.3902 -0.8783
 3464SOL    HW222029   3.054   3.913   4.687  0.5736  0.7830 -0.9436
 3465SOL     OW22030   4.342   2.871   7.657  0.7697  0.0044 -0.2198
 3465SOL    HW122031   4.310   2.930   7.589  0.2994  1.2559  1.0742
 3465SOL    HW222032   4.262   2.852   7.706  1.5950  0.7411  1.4300
 3466SOL     OW22033   3.138   4.341  14.540  0.0973  0.1561  0.2670
 3466SOL    HW122034   3.211   4.285  14.568 -0.6181 -1.2675 -0.6651
 3466SOL    HW222035   3.186   4.418  14.511 -0.2288  0.7720  1.3723
 3467SOL     OW22036   0.452   1.361   6.579  0.6172  0.2291  0.6384
 3467SOL    HW122037   0.446   1.340   6.485  2.4175  0.1947  0.5319
 3467SOL    HW222038   0.546   1.366   6.595  0.8093 -1.5002  0.0733
 3468SOL     OW22039   1.453   2.035   3.281  0.0862 -0.1413 -0.0247
 3468SOL    HW122040   1.458   2.085   3.363 -0.1883  0.3139 -0.2873
 3468SOL    HW222041   1.539   1.992   3.281  0.0441 -0.2407  1.3451
 3469SOL     OW22042   2.903   0.504   2.329 -0.1617  0.3823 -0.0062
 3469SOL    HW122043   2.910   0.521   2.235  1.0439  1.4948  0.2890
 3469SOL    HW222044   2.832   0.565   2.346  0.2900  0.5436  1.2969
 3470SOL     OW22045   3.662   0.709  15.768  0.5504 -0.6191 -0.3371
 3470SOL    HW122046   3.735   0.719  15.707 -0.0880 -0.8373 -1.1538
 3470SOL    HW222047   3.713   0.733  15.845 -1.6290  1.6543  0.4177
 3471SOL     OW22048   0.867   0.957  14.588 -0.2226  0.4861 -0.6365
 3471SOL    HW122049   0.855   0.899  14.663  0.5046 -0.8314 -1.5383
 3471SOL    HW222050   0.931   1.016  14.628 -0.7125  1.3042 -1.0586
 3472SOL     OW22051   2.758   0.813   4.934 -0.0009  0.3335  0.2415
 3472SOL    HW122052   2.773   0.907   4.947 -0.1732  0.6261 -1.7212
 3472SOL    HW222053   2.828   0.783   4.992 -0.0834 -0.4963 -0.0896
 3473SOL     OW22054   1.352   2.664   5.638  0.0898  0.3175 -0.1594
 3473SOL    HW122055   1.356   2.702   5.725  1.0508  1.2517 -0.6220
 3473SOL    HW222056   1.298   2.589   5.665 -0.8051  1.6611  1.7171
 3474SOL     OW22057   2.366   0.770   5.297  0.0089  0.0719 -0.0546
 3474SOL    HW122058   2.432   0.792   5.231  0.4773  1.6728  0.9350
 3474SOL    HW222059   2.422   0.758   5.374  0.0338 -0.7951 -0.2159
 3475SOL     OW22060   1.653   0.081   3.579 -0.6944  0.0981 -0.2511
 3475SOL    HW122061   1.685   0.083   3.669 -2.7420 -2.8042  0.5346
 3475SOL    HW222062   1.625   0.172   3.571  1.8015  0.8004 -0.9523
 3476SOL     OW22063   2.050   4.305   4.959  0.3744 -0.4472  0.1944
 3476SOL    HW122064   2.014   4.289   4.872 -0.9035 -2.4700  1.1021
 3476SOL    HW222065   2.021   4.391   4.988  2.5950 -0.3830  2.2050
 3477SOL     OW22066   3.656   1.200  14.655 -0.6519 -0.0794 -0.0068
 3477SOL    HW122067   3.632   1.175  14.566  0.6244  1.0082 -0.6485
 3477SOL    HW222068   3.631   1.293  14.656 -2.4375 -0.5515 -1.6604
 3478SOL     OW22069   3.600   0.008  11.144  0.5069 -0.0262  0.0386
 3478SOL    HW122070   3.559   4.697  11.216 -0.4377  0.4902 -0.1581
 3478SOL    HW222071   3.684   4.700  11.131 -0.9339 -2.4565 -0.8917
 3479SOL     OW22072   2.214   1.288   9.155 -0.3544 -0.0799  0.1710
 3479SOL    HW122073   2.120   1.289   9.171 -0.0127  2.7408  2.1303
 3479SOL    HW222074   2.241   1.197   9.160  0.1202  0.1108  1.2579
 3480SOL     OW22075   2.139   0.343   6.427  0.6856 -0.3233  0.5557
 3480SOL    HW122076   2.163   0.435   6.435  1.0950 -0.2633 -1.3788
 3480SOL    HW222077   2.221   0.298   6.407  0.4811 -0.7454  0.6633
 3481SOL     OW22078   0.792   4.716   3.008 -0.8466 -0.1517 -0.3410
 3481SOL    HW122079   0.727   0.022   3.064 -1.4372 -0.3767 -0.8477
 3481SOL    HW222080   0.861   0.044   2.995 -0.3122 -0.1208  2.8070
 3482SOL     OW22081   0.359   2.309   3.031  0.1974 -0.5754  0.0446
 3482SOL    HW122082   0.450   2.291   3.009  0.4358 -0.6419  1.1137
 3482SOL    HW222083   0.337   2.332   2.940 -0.7125  1.2862  0.7347
 3483SOL     OW22084   2.618   3.572  15.090 -0.4034  0.2184 -0.4636
 3483SOL    HW122085   2.572   3.580  15.173  0.0015  0.3725 -0.2508
 3483SOL    HW222086   2.705   3.556  15.128 -0.6091  0.8403  0.2570
 3484SOL     OW22087   4.157   1.878   9.037  0.3191  0.4459  0.9291
 3484SOL    HW122088   4.228   1.815   9.024 -2.2271 -1.8950 -1.8360
 3484SOL    HW222089   4.108   1.865   8.955  0.4922 -0.4626  0.9721
 3485SOL     OW22090   2.563   3.225  12.500 -0.0347  0.4780  0.1054
 3485SOL    HW122091   2.485   3.262  12.459  1.0544  0.4412 -1.9855
 3485SOL    HW222092   2.553   3.244  12.594 -0.3800  1.3149 -0.1067
 3486SOL     OW22093   3.814   0.329   1.494 -0.6525 -0.2129  0.1563
 3486SOL    HW122094   3.742   0.376   1.536  0.0023  1.4750 -0.6174
 3486SOL    HW222095   3.878   0.328   1.566 -1.9263  3.6875  1.3363
 3487SOL     OW22096   3.704   3.200   6.033  0.1140  0.6260  0.0904
 3487SOL    HW122097   3.727   3.166   6.119 -0.3254  0.7543  0.2593
 3487SOL    HW222098   3.792   3.222   6.003 -0.2864 -0.3821 -1.8370
 3488SOL     OW22099   4.177   1.301   2.356  0.2167  0.2890 -0.1269
 3488SOL    HW122100   4.168   1.395   2.345  2.6901  0.7775  1.9830
 3488SOL    HW222101   4.272   1.293   2.369  0.3698  2.3425  0.0287
 3489SOL     OW22102   0.673   2.762   3.410 -0.5739  0.5098 -0.1262
 3489SOL    HW122103   0.743   2.769   3.346  0.5243  0.1435  1.0369
 3489SOL    HW222104   0.611   2.827   3.377 -0.2193 -0.1736 -2.1618
 3490SOL     OW22105   2.845   3.114   5.115  0.0338  0.0160  0.5632
 3490SOL    HW122106   2.753   3.104   5.143  0.5208 -1.0843  1.7756
 3490SOL    HW222107   2.850   3.209   5.124 -3.6187  0.3818 -1.0073
 3491SOL     OW22108   1.837   2.895  14.560  0.1310 -0.5115 -0.4847
 3491SOL    HW122109   1.904   2.851  14.611 -1.0368 -1.4857  0.2132
 3491SOL    HW222110   1.784   2.939  14.626  0.5113 -4.0698  2.1725
 3492SOL     OW22111   2.861   3.417   8.363  0.3027 -0.7021  0.0248
 3492SOL    HW122112   2.916   3.468   8.304 -0.4331  0.7901  0.6042
 3492SOL    HW222113   2.774   3.404   8.324  0.7473  0.1403 -1.2292
 3493SOL     OW22114   3.296   2.787  13.660 -0.1812  0.4297  0.2675
 3493SOL    HW122115   3.335   2.796  13.748  0.3688 -2.8761  0.3920
 3493SOL    HW222116   3.202   2.788  13.677 -0.1718  0.6988  0.2973
 3494SOL     OW22117   4.485   3.245   4.024 -0.4238 -0.3832 -0.1254
 3494SOL    HW122118   4.575   3.265   4.047 -0.7681 -0.3109  1.1227
 3494SOL    HW222119   4.479   3.260   3.929 -3.0335  1.0451  0.2682
 3495SOL     OW22120   0.982   3.003   8.045  0.1170  0.8015  0.2975
 3495SOL    HW122121   1.039   2.985   7.970  1.1980  0.7660  1.1172
 3495SOL    HW222122   1.049   3.005   8.114 -1.2139 -3.4861  1.7243
 3496SOL     OW22123   3.427   0.813  15.030 -0.0306 -0.1270  0.0415
 3496SOL    HW122124   3.485   0.757  15.082  0.5478  0.1661 -0.2980
 3496SOL    HW222125   3.485   0.889  15.027 -1.4642  0.8083 -3.2876
 3497SOL     OW22126   1.732   3.034   4.976  0.3651 -0.3974 -0.3104
 3497SOL    HW122127   1.725   2.993   5.063  2.2376 -0.3316 -0.1218
 3497SOL    HW222128   1.739   2.957   4.921 -1.3082  0.4766 -1.7061
 3498SOL     OW22129   4.175   0.515   8.401  0.1451 -0.5390  0.1316
 3498SOL    HW122130   4.149   0.456   8.472  0.2999 -0.2046  0.4679
 3498SOL    HW222131   4.180   0.602   8.441  3.9885 -0.6801 -0.1210
 3499SOL     OW22132   2.414   3.204   3.610 -0.2035  0.4255 -0.0486
 3499SOL    HW122133   2.453   3.122   3.640 -0.4308 -0.1196 -1.2361
 3499SOL    HW222134   2.336   3.180   3.559 -1.8536 -1.5162  3.4109
 3500SOL     OW22135   0.737   0.691   6.849 -0.3222  0.0917  0.0872
 3500SOL    HW122136   0.727   0.765   6.909 -0.1331 -0.7100  1.1044
 3500SOL    HW222137   0.832   0.685   6.837 -0.4310 -3.0518  0.7792
 3501SOL     OW22138   4.437   1.946   6.092  0.0716  0.2526 -0.1198
 3501SOL    HW122139   4.498   1.982   6.157 -0.3838 -0.8808  0.9276
 3501SOL    HW222140   4.381   2.019   6.065 -0.4871  0.2037  0.9320
 3502SOL     OW22141   0.682   1.147   2.525  0.7005 -0.1702 -0.2768
 3502SOL    HW122142   0.633   1.126   2.445  0.5251  0.6892 -0.3951
 3502SOL    HW222143   0.643   1.225   2.562  0.9435  0.0611 -0.5090
 3503SOL     OW22144   0.893   4.477   6.432 -0.2321 -0.0464 -0.3181
 3503SOL    HW122145   0.823   4.542   6.433  1.2945  1.5782  0.8013
 3503SOL    HW222146   0.880   4.443   6.343  0.5293  0.6646 -0.7013
 3504SOL     OW22147   3.998   0.152   1.200 -0.1760 -0.2431  0.1493
 3504SOL    HW122148   3.937   0.101   1.254 -0.3777  0.3753  0.5057
 3504SOL    HW222149   4.008   0.225   1.261 -1.1327  0.3459 -0.4087
 3505SOL     OW22150   1.155   0.753   8.535  0.0540 -0.0257 -0.1629
 3505SOL    HW122151   1.084   0.696   8.565  2.6454 -2.1422  1.9862
 3505SOL    HW222152   1.145   0.757   8.440 -1.5900 -1.0154 -0.0246
 3506SOL     OW22153   2.168   3.464   7.468  0.4020  0.0436  0.3378
 3506SOL    HW122154   2.135   3.393   7.523  1.2767  1.4979  2.7159
 3506SOL    HW222155   2.161   3.546   7.517 -0.0066 -0.0899  0.5043
 3507SOL     OW22156   3.802   2.355  10.928 -0.1181  0.3438  0.4826
 3507SOL    HW122157   3.825   2.445  10.906 -0.0089 -0.0687 -1.1494
 3507SOL    HW222158   3.813   2.362  11.023 -2.6653  1.9668  0.6561
 3508SOL     OW22159   2.274   3.029   7.935 -0.0742  0.5216 -0.3284
 3508SOL    HW122160   2.344   2.995   7.879 -0.2802 -1.7409  0.7678
 3508SOL    HW222161   2.306   3.000   8.020 -1.1522 -1.3084 -0.5355
 3509SOL     OW22162   3.162   1.225   4.873  0.2739  0.9464  0.0409
 3509SOL    HW122163   3.118   1.221   4.957  0.4240 -1.0986  0.0317
 3509SOL    HW222164   3.224   1.152   4.877  0.0960  0.8459  0.9866
 3510SOL     OW22165   0.145   1.060   2.085 -0.2180 -0.7651  0.0946
 3510SOL    HW122166   0.116   0.971   2.105 -1.3556 -0.2397  0.8143
 3510SOL    HW222167   0.057   1.098   2.082 -0.4474 -1.3065 -0.0640
 3511SOL     OW22168   2.720   3.412  12.413 -0.4582  0.3967 -0.0193
 3511SOL    HW122169   2.677   3.332  12.444 -1.6504  1.1064  0.1758
 3511SOL    HW222170   2.766   3.383  12.335 -0.5509  1.1962 -0.3737
 3512SOL     OW22171   1.071   0.901   4.920 -0.5373 -0.5121 -0.0184
 3512SOL    HW122172   1.098   0.993   4.924 -2.8739  0.1897 -0.7429
 3512SOL    HW222173   0.976   0.909   4.911 -0.7870 -1.6138  1.5644
 3513SOL     OW22174   1.229   3.715   6.688 -0.3743  0.0537 -0.3554
 3513SOL    HW122175   1.185   3.784   6.637 -2.2043  0.6037  1.9494
 3513SOL    HW222176   1.226   3.645   6.623 -0.1692  0.0836 -0.3965
 3514SOL     OW22177   0.594   2.159   6.933  0.4119  0.3109 -0.9694
 3514SOL    HW122178   0.545   2.236   6.965  0.6941 -1.0586  2.7039
 3514SOL    HW222179   0.586   2.102   7.010 -1.1698  2.4759  0.4928
 3515SOL     OW22180   2.435   2.741   3.529  0.2536  0.1267  0.7388
 3515SOL    HW122181   2.377   2.674   3.494  0.8615  0.6670 -1.3486
 3515SOL    HW222182   2.415   2.807   3.462  0.9300 -1.1007 -0.6674
 3516SOL     OW22183   2.153   4.221   1.684  0.1373  0.5894 -0.1938
 3516SOL    HW122184   2.219   4.175   1.633  0.0877 -1.5774  1.6983
 3516SOL    HW222185   2.126   4.150   1.743 -1.6886  0.3222 -1.3531
 3517SOL     OW22186   0.428   0.029   6.037 -0.1698  0.0236  0.1507
 3517SOL    HW122187   0.511   4.722   6.056 -0.3689 -0.1107  0.7343
 3517SOL    HW222188   0.430   0.044   5.943 -3.2662 -0.7534 -0.0383
 3518SOL     OW22189   4.693   0.981  17.306 -0.1269 -0.3643 -0.0913
 3518SOL    HW122190   4.666   1.013  17.393  1.6376 -0.2021  0.3870
 3518SOL    HW222191   0.040   1.027  17.299  0.2121 -1.0759 -0.6174
 3519SOL     OW22192   3.927   2.643  17.042 -0.1238  0.2025  0.3805
 3519SOL    HW122193   3.924   2.550  17.064  0.1728  0.0417 -0.2514
 3519SOL    HW222194   4.020   2.655  17.063  0.3551 -2.6182 -0.1318
 3520SOL     OW22195   3.708   3.799   4.924 -0.3642 -0.5340  0.2024
 3520SOL    HW122196   3.678   3.781   4.835 -0.0622 -0.2991  0.0534
 3520SOL    HW222197   3.738   3.714   4.958  1.3227 -0.9653 -2.3469
 3521SOL     OW22198   1.547   3.326   1.748  0.5282  0.2561  0.3642
 3521SOL    HW122199   1.528   3.248   1.800 -1.1979  0.1388 -0.4699
 3521SOL    HW222200   1.598   3.280   1.681  2.0025  1.1466  0.8665
 3522SOL     OW22201   2.813   1.931   8.995 -0.4435 -0.7496  0.0339
 3522SOL    HW122202   2.773   1.892   9.073  0.5468 -0.4569  0.6907
 3522SOL    HW222203   2.748   1.995   8.969 -0.2605 -2.3560 -4.2639
 3523SOL     OW22204   0.107   1.509  11.930 -0.7395 -0.1336  0.3533
 3523SOL    HW122205   0.135   1.429  11.974  0.4576  1.5398  2.6190
 3523SOL    HW222206   0.087   1.476  11.842  1.3548  0.6892 -0.4528
 3524SOL     OW22207   2.953   2.245   3.803 -0.3023 -0.0218 -0.3510
 3524SOL    HW122208   2.892   2.285   3.864  0.7808  1.7800 -0.4579
 3524SOL    HW222209   2.984   2.186   3.872 -1.0815  2.5611  2.2032
 3525SOL     OW22210   4.156   2.533   2.651 -0.6374  0.0161  0.3898
 3525SOL    HW122211   4.243   2.513   2.617 -0.6081 -1.7177  1.4810
 3525SOL    HW222212   4.128   2.443   2.671  1.4526 -0.0694  3.0052
 3526SOL     OW22213   2.648   1.558   3.356  0.6145 -0.4979  0.5606
 3526SOL    HW122214   2.563   1.566   3.399  0.4658  2.3093 -0.2418
 3526SOL    HW222215   2.693   1.502   3.419 -0.1258 -0.0138  1.5188
 3527SOL     OW22216   3.665   3.149  17.586 -0.5244  0.0747  0.3885
 3527SOL    HW122217   3.647   3.085  17.655  0.1794 -0.8523 -0.2853
 3527SOL    HW222218   3.602   3.131  17.517  1.3030  0.9216 -1.4957
 3528SOL     OW22219   2.731   4.544   5.071  0.1292  0.1503 -0.7717
 3528SOL    HW122220   2.760   4.536   4.981  0.9365 -0.8602 -0.4272
 3528SOL    HW222221   2.786   4.475   5.110  1.1084  0.4288 -1.6613
 3529SOL     OW22222   2.095   2.603   8.680 -0.0041 -0.1540  0.0620
 3529SOL    HW122223   2.116   2.546   8.753  3.1085 -1.1198 -1.5811
 3529SOL    HW222224   2.014   2.561   8.651  0.5943 -1.3736  0.1556
 3530SOL     OW22225   0.392   0.146   9.256 -0.8943 -0.4638  0.0887
 3530SOL    HW122226   0.382   0.069   9.201  1.0204 -1.2480  0.8591
 3530SOL    HW222227   0.325   0.206   9.222 -0.7132  1.3446  2.9783
 3531SOL     OW22228   3.350   4.184  14.655 -0.1047  0.2449 -0.2053
 3531SOL    HW122229   3.332   4.098  14.693 -2.0993 -0.1204 -2.0220
 3531SOL    HW222230   3.381   4.168  14.566 -0.1244 -0.2410 -0.1272
 3532SOL     OW22231   3.897   3.143   2.662 -0.4598  0.0686  0.4857
 3532SOL    HW122232   3.846   3.076   2.616 -0.7930  0.3018  0.5226
 3532SOL    HW222233   3.949   3.173   2.587 -0.9740 -0.6245 -0.1469
 3533SOL     OW22234   3.506   2.893  12.196 -0.1119  0.4324  0.0128
 3533SOL    HW122235   3.416   2.867  12.216 -0.1387 -0.3725 -1.1363
 3533SOL    HW222236   3.506   2.851  12.110 -2.9632 -0.0476  0.2408
 3534SOL     OW22237   2.849   3.224   1.598 -0.5004  0.0080  0.3718
 3534SOL    HW122238   2.852   3.308   1.552  0.7828 -0.9081 -1.2044
 3534SOL    HW222239   2.852   3.159   1.529  1.7529 -1.5065  1.8894
 3535SOL     OW22240   2.241   0.718   2.264  0.2819  0.4405 -0.1644
 3535SOL    HW122241   2.235   0.624   2.252  0.3624  0.3727  0.3160
 3535SOL    HW222242   2.150   0.742   2.245  1.3020  4.1032 -0.3709
 3536SOL     OW22243   2.980   3.548   0.129 -0.0806 -0.3322 -0.1458
 3536SOL    HW122244   2.900   3.579   0.172  0.4699  1.2525 -0.2796
 3536SOL    HW222245   2.982   3.601   0.050  3.1073  0.5270  0.5284
 3537SOL     OW22246   2.217   4.028   2.122 -0.0805 -0.0071  0.3644
 3537SOL    HW122247   2.147   4.091   2.105  0.1338 -0.0987 -0.9036
 3537SOL    HW222248   2.284   4.091   2.094  0.1299 -0.1412  0.5712
 3538SOL     OW22249   4.693   2.842   0.800 -0.2330  0.4027 -0.1746
 3538SOL    HW122250   0.035   2.855   0.853 -2.2950 -1.3067  3.2649
 3538SOL    HW222251   4.734   2.789   0.732  2.7951 -2.1641  3.6621
 3539SOL     OW22252   3.900   1.439   2.064  0.0374  0.2610 -0.1596
 3539SOL    HW122253   3.823   1.492   2.046  0.0573  0.4305  0.2569
 3539SOL    HW222254   3.904   1.383   1.986  0.1403  0.6515 -0.4364
 3540SOL     OW22255   4.242   2.159   6.012  0.6475  0.1436  0.4042
 3540SOL    HW122256   4.294   2.238   6.026 -1.0156  1.0989  1.2093
 3540SOL    HW222257   4.167   2.198   5.966  0.0908  1.3331  2.3217
 3541SOL     OW22258   2.867   1.640   7.919 -0.0391  0.4099  0.2746
 3541SOL    HW122259   2.905   1.552   7.919 -0.4638  0.2263  0.7244
 3541SOL    HW222260   2.889   1.661   7.828  0.1740  0.0922  0.2495
 3542SOL     OW22261   3.097   0.176   6.266  0.3764 -0.6632  0.8302
 3542SOL    HW122262   3.105   0.221   6.351  0.8466 -2.7594  1.8856
 3542SOL    HW222263   3.006   0.196   6.244 -0.2209 -1.9646  2.0870
 3543SOL     OW22264   1.643   4.186  12.369  0.5603  0.2119  0.7321
 3543SOL    HW122265   1.612   4.245  12.300  1.9645  0.9166  0.6998
 3543SOL    HW222266   1.667   4.098  12.340 -3.6828 -0.7948  0.3076
 3544SOL     OW22267   3.448   0.473  12.714  0.2895 -0.5524 -0.1232
 3544SOL    HW122268   3.524   0.414  12.716 -0.5831 -1.7273 -1.7270
 3544SOL    HW222269   3.479   0.548  12.765 -0.7429  0.1880 -0.6098
 3545SOL     OW22270   2.546   0.935   3.511  0.0622 -0.3315 -0.4704
 3545SOL    HW122271   2.606   1.007   3.490 -0.2848  0.5145  1.3555
 3545SOL    HW222272   2.584   0.897   3.590 -0.2750 -0.1250 -0.2091
 3546SOL     OW22273   2.631   1.072   3.080  0.6653 -0.2480 -0.3960
 3546SOL    HW122274   2.578   1.146   3.110  2.6054  0.6720  0.7517
 3546SOL    HW222275   2.624   1.077   2.985  1.3572 -1.7346 -0.5343
 3547SOL     OW22276   2.286   2.970  15.644  0.1840 -0.0596 -0.4217
 3547SOL    HW122277   2.297   2.890  15.697  0.6081 -1.6270 -2.9024
 3547SOL    HW222278   2.208   3.005  15.689  1.5785  2.0919  0.3111
 3548SOL     OW22279   1.400   0.944   8.236  0.7007 -0.0344 -0.1780
 3548SOL    HW122280   1.359   1.015   8.185 -1.0750 -1.5378 -0.8689
 3548SOL    HW222281   1.491   0.944   8.206  0.1935  2.0253 -1.6950
 3549SOL     OW22282   0.343   1.224  14.399  0.2631  0.4716  0.2675
 3549SOL    HW122283   0.320   1.242  14.490 -0.0692  0.4157  0.1937
 3549SOL    HW222284   0.431   1.263  14.395  1.0800 -1.7053 -3.4028
 3550SOL     OW22285   0.375   1.232   2.038 -0.3612 -0.1858 -0.2501
 3550SOL    HW122286   0.306   1.165   2.048  0.7950 -1.6998 -2.3110
 3550SOL    HW222287   0.359   1.268   1.950 -0.2418  2.0888  0.6777
 3551SOL     OW22288   4.247   1.072   6.407 -0.3342 -0.2140 -0.5744
 3551SOL    HW122289   4.313   1.022   6.456  2.2849  1.8211 -2.0335
 3551SOL    HW222290   4.298   1.150   6.385  1.0595 -0.5768  1.2800
 3552SOL     OW22291   4.374   0.165   1.947 -0.1698 -0.1421  0.0303
 3552SOL    HW122292   4.281   0.178   1.968  0.1746  1.1246  0.7180
 3552SOL    HW222293   4.364   0.111   1.868  1.6490  0.1292 -0.3920
 3553SOL     OW22294   3.643   1.528   7.378  0.4371 -0.3959 -0.0911
 3553SOL    HW122295   3.646   1.432   7.375 -0.4525 -0.4646  1.4717
 3553SOL    HW222296   3.736   1.541   7.360  0.5348  0.1457  0.8220
 3554SOL     OW22297   4.515   3.044   0.544 -0.0486  0.1520  0.0530
 3554SOL    HW122298   4.605   3.060   0.515  0.3912 -1.2929  0.5969
 3554SOL    HW222299   4.515   3.094   0.626 -2.0784 -1.0012  0.7583
 3555SOL     OW22300   1.678   4.304   7.707  0.4891  0.2662 -0.4444
 3555SOL    HW122301   1.622   4.326   7.633  0.7317  0.3590 -0.6021
 3555SOL    HW222302   1.726   4.387   7.709 -1.1379  1.1908  0.2225
 3556SOL     OW22303   1.382   4.017   4.734 -0.7229  0.2707 -0.0429
 3556SOL    HW122304   1.453   3.979   4.787 -1.6830  1.5778  2.1759
 3556SOL    HW222305   1.313   4.032   4.799 -2.2510 -0.6545 -1.4646
 3557SOL     OW22306   3.458   3.211   2.224  0.3014 -0.4081 -0.2196
 3557SOL    HW122307   3.519   3.267   2.270  1.0343  0.1481 -1.8770
 3557SOL    HW222308   3.435   3.148   2.293  1.9397 -1.7541 -0.8896
 3558SOL     OW22309   1.476   2.157   2.854  0.6915 -0.2296 -0.3441
 3558SOL    HW122310   1.431   2.129   2.933  0.4984  1.4504  0.1563
 3558SOL    HW222311   1.476   2.253   2.861  0.2855 -0.3189  0.8938
 3559SOL     OW22312   2.644   2.491   5.194  0.1042 -0.1616  0.2283
 3559SOL    HW122313   2.567   2.510   5.247 -0.4639 -1.6332 -0.0604
 3559SOL    HW222314   2.651   2.569   5.140  0.7897  0.3712  1.0808
 3560SOL     OW22315   3.769   4.360   1.944  0.4368 -0.6782  0.3271
 3560SOL    HW122316   3.681   4.393   1.961  0.5416  0.3165 -1.1278
 3560SOL    HW222317   3.790   4.421   1.874  2.0419 -1.4413  0.1527
 3561SOL     OW22318   2.728   1.829   7.714  0.0883 -0.2793  0.2627
 3561SOL    HW122319   2.671   1.903   7.732 -0.5784 -0.5784 -0.6310
 3561SOL    HW222320   2.678   1.773   7.655 -0.2056 -0.3505  0.5789
 3562SOL     OW22321   2.019   1.188   5.832  0.0804 -0.3453 -0.6634
 3562SOL    HW122322   1.939   1.176   5.780  2.4570  0.7092 -4.6259
 3562SOL    HW222323   2.091   1.184   5.768  3.1778  1.2388  2.7406
 3563SOL     OW22324   3.619   0.330   2.738  0.0048 -0.1487 -0.2554
 3563SOL    HW122325   3.581   0.416   2.755 -0.0846 -0.3627  0.6366
 3563SOL    HW222326   3.570   0.273   2.797 -0.6621  1.1930  0.4958
 3564SOL     OW22327   1.646   0.433   5.548  0.8305  0.0280  0.0854
 3564SOL    HW122328   1.554   0.410   5.537  1.3026 -1.0395 -1.7374
 3564SOL    HW222329   1.647   0.518   5.593  1.4273 -0.3872  0.8546
 3565SOL     OW22330   2.312   3.727   6.246  0.0655 -0.0785  0.4016
 3565SOL    HW122331   2.342   3.787   6.314 -1.2350  0.6620  0.3291
 3565SOL    HW222332   2.368   3.650   6.255  2.6872  1.7133 -0.4278
 3566SOL     OW22333   4.103   0.910   1.577  0.1044 -0.4065 -0.3825
 3566SOL    HW122334   4.027   0.951   1.535  0.2448 -0.6162 -0.8406
 3566SOL    HW222335   4.141   0.848   1.515 -0.8876 -0.3832 -1.0092
 3567SOL     OW22336   1.866   1.500  10.965 -0.5573 -0.2551 -0.1898
 3567SOL    HW122337   1.874   1.534  11.054  3.1451 -0.6750 -0.3623
 3567SOL    HW222338   1.948   1.526  10.922 -0.0339 -2.7806 -0.6830
 3568SOL     OW22339   1.505   2.770   8.947  0.0644  0.0593 -0.1461
 3568SOL    HW122340   1.544   2.714   9.013  1.0654 -1.3800 -1.9586
 3568SOL    HW222341   1.417   2.735   8.936 -0.3756  0.6766  1.5000
 3569SOL     OW22342   0.733   2.621   1.232 -0.3132 -0.1828 -0.2276
 3569SOL    HW122343   0.702   2.591   1.318 -1.7594  1.2842 -0.2250
 3569SOL    HW222344   0.793   2.551   1.206  1.7951  1.0228  1.5091
 3570SOL     OW22345   4.042   2.995   7.369 -0.1051 -0.3733 -0.0479
 3570SOL    HW122346   3.963   2.977   7.421  0.3776 -0.4326  0.6595
 3570SOL    HW222347   4.059   2.905   7.342  0.2722  0.6210 -3.0868
 3571SOL     OW22348   0.259   0.587   2.674  0.1322 -0.3490 -0.2141
 3571SOL    HW122349   0.183   0.569   2.619  0.4401 -0.1267 -0.7208
 3571SOL    HW222350   0.217   0.657   2.724 -0.0127 -0.7534  0.2253
 3572SOL     OW22351   4.620   0.800   4.588  0.4181  0.1418  0.1630
 3572SOL    HW122352   4.704   0.809   4.633  0.3492 -0.8272  0.4840
 3572SOL    HW222353   4.656   0.744   4.519 -3.0903  1.0197 -2.3621
 3573SOL     OW22354   0.716   0.153   8.629  0.7107 -0.4625  0.0522
 3573SOL    HW122355   0.621   0.150   8.645  0.5341  1.8977 -0.5099
 3573SOL    HW222356   0.721   0.207   8.550 -1.0988  2.2133  1.7369
 3574SOL     OW22357   0.327   2.852   5.703  0.0733 -0.5664  0.1720
 3574SOL    HW122358   0.283   2.820   5.624 -0.8027 -4.7591  2.3556
 3574SOL    HW222359   0.397   2.787   5.715  0.2276 -0.1554  1.4000
 3575SOL     OW22360   1.341   2.763  14.573 -0.1071  0.3284  0.0203
 3575SOL    HW122361   1.257   2.757  14.618 -0.9095 -0.0258 -1.5109
 3575SOL    HW222362   1.401   2.738  14.643 -0.1609  2.1417  0.6982
 3576SOL     OW22363   4.023   3.312  13.074 -0.4286  0.0896 -0.3877
 3576SOL    HW122364   3.936   3.314  13.115  0.5536 -1.1737  1.7876
 3576SOL    HW222365   4.043   3.220  13.062 -1.9084  0.1973 -3.6435
 3577SOL     OW22366   2.088   1.077   4.696 -0.2848 -0.5065 -0.4319
 3577SOL    HW122367   2.180   1.104   4.692 -1.6911  4.1503 -2.0765
 3577SOL    HW222368   2.078   1.091   4.790  3.0473  0.1547 -0.1776
 3578SOL     OW22369   4.640   3.420  10.164  0.0335  0.1655 -0.1051
 3578SOL    HW122370   4.726   3.463  10.171 -0.3239  0.5182  2.0075
 3578SOL    HW222371   4.675   3.331  10.174 -1.3965 -0.3611  0.1013
 3579SOL     OW22372   3.885   0.119  13.542 -0.3150 -0.0853 -0.1306
 3579SOL    HW122373   3.835   0.150  13.618 -2.4334  0.5513 -1.7847
 3579SOL    HW222374   3.809   0.104  13.485 -1.3154  0.1616  1.1303
 3580SOL     OW22375   0.468   2.614   6.777  0.0129  0.8276 -0.3352
 3580SOL    HW122376   0.499   2.700   6.804 -3.5405  2.1470 -0.5551
 3580SOL    HW222377   0.480   2.561   6.855  0.5333  1.0890 -0.2380
 3581SOL     OW22378   0.682   2.199  15.045  0.1492  0.4225 -0.1077
 3581SOL    HW122379   0.717   2.128  15.100  1.0363  0.4896 -0.5902
 3581SOL    HW222380   0.649   2.260  15.111  1.2085  0.5616  0.2897
 3582SOL     OW22381   1.495   2.293  15.916 -0.0745  0.2665  0.0408
 3582SOL    HW122382   1.447   2.353  15.974  0.1380  0.9349 -0.4724
 3582SOL    HW222383   1.442   2.214  15.916  0.6152 -0.1842  4.4599
 3583SOL     OW22384   0.896   3.430   1.723  0.3249 -0.1493 -0.5290
 3583SOL    HW122385   0.908   3.402   1.633 -0.0886 -3.3637  0.4084
 3583SOL    HW222386   0.902   3.346   1.769 -0.4275 -1.1672 -2.3289
 3584SOL     OW22387   2.694   1.376   5.436 -0.1314  0.3137 -0.3002
 3584SOL    HW122388   2.625   1.429   5.396 -1.8749 -1.0649  0.8381
 3584SOL    HW222389   2.741   1.450   5.475 -1.3526  1.5456 -1.1629
 3585SOL     OW22390   0.137   0.615   4.913 -0.1085 -0.4313 -0.0096
 3585SOL    HW122391   0.189   0.695   4.923  0.2582 -0.6827  0.1057
 3585SOL    HW222392   0.088   0.622   4.995  3.6636  0.0934  2.2033
 3586SOL     OW22393   0.845   3.170  16.638  0.6019 -0.3698 -0.2742
 3586SOL    HW122394   0.877   3.092  16.683  2.7121  1.1259  0.8104
 3586SOL    HW222395   0.793   3.221  16.700 -1.8304  1.2722 -3.6215
 3587SOL     OW22396   3.699   2.800  16.320  0.4139 -0.1329  0.2415
 3587SOL    HW122397   3.697   2.732  16.387  1.2925 -0.6172 -0.2129
 3587SOL    HW222398   3.768   2.857  16.356 -0.1088  2.0809 -2.2553
 3588SOL     OW22399   3.306   3.862  10.650 -0.1794  0.6974  0.6390
 3588SOL    HW122400   3.264   3.948  10.655  2.9163  2.3709 -1.5960
 3588SOL    HW222401   3.260   3.793  10.697  1.9190 -0.2337  1.3090
 3589SOL     OW22402   3.268   3.777   3.116 -0.2123  0.6139  0.7299
 3589SOL    HW122403   3.207   3.762   3.043  2.2149  0.6326 -1.3084
 3589SOL    HW222404   3.219   3.843   3.166 -1.1596 -0.3319  1.0362
 3590SOL     OW22405   0.427   4.119   6.076 -0.0066 -0.4962 -0.2637
 3590SOL    HW122406   0.377   4.141   6.154 -2.1140 -1.1182 -1.4447
 3590SOL    HW222407   0.482   4.196   6.059 -2.8721  1.3839 -0.9932
 3591SOL     OW22408   3.934   3.463   4.816 -0.0858 -0.0247  0.3637
 3591SOL    HW122409   3.854   3.438   4.862  0.6313 -4.4638 -0.7411
 3591SOL    HW222410   3.992   3.475   4.891 -0.9435 -0.4345  1.0883
 3592SOL     OW22411   0.250   4.118   6.560  0.2673 -0.0870 -0.2289
 3592SOL    HW122412   0.235   4.146   6.651 -1.0936  0.5838 -0.6765
 3592SOL    HW222413   0.166   4.144   6.523  1.2888  0.5227 -2.0771
 3593SOL     OW22414   4.233   2.082   5.665 -0.1535  0.2779 -0.1115
 3593SOL    HW122415   4.284   2.072   5.585  2.7553 -0.3182  1.8205
 3593SOL    HW222416   4.281   2.153   5.708 -0.5910 -0.6009  1.8405
 3594SOL     OW22417   3.048   3.714  16.081  0.8000  0.2505  0.1562
 3594SOL    HW122418   3.111   3.747  16.017  0.1876  2.4889  0.7020
 3594SOL    HW222419   2.974   3.752  16.034  0.4120 -1.5671 -0.7286
 3595SOL     OW22420   0.147   1.972   7.710  0.1856 -0.5229  0.1817
 3595SOL    HW122421   0.122   1.881   7.721  1.9616 -0.8244  1.6157
 3595SOL    HW222422   0.231   1.973   7.754  0.2591  1.0978  0.0125
 3596SOL     OW22423   1.592   3.205   3.267 -0.0794  0.2784 -0.4394
 3596SOL    HW122424   1.610   3.235   3.178 -0.2659  0.9132 -0.2628
 3596SOL    HW222425   1.499   3.184   3.270 -0.1417  0.5627 -0.4392
 3597SOL     OW22426   0.802   0.942  12.422  0.4213  0.6372 -0.2233
 3597SOL    HW122427   0.873   0.956  12.360  1.7396 -1.5278  0.7913
 3597SOL    HW222428   0.820   1.015  12.480  1.5569 -0.7166  1.1457
 3598SOL     OW22429   2.702   4.327   9.118  0.5617  0.0510 -0.8277
 3598SOL    HW122430   2.659   4.332   9.033 -0.1107 -2.1679 -0.6288
 3598SOL    HW222431   2.737   4.238   9.106  1.5463  0.6149 -2.1574
 3599SOL     OW22432   2.063   2.094   3.867 -0.1977  0.0640  0.5566
 3599SOL    HW122433   1.971   2.083   3.844  0.0237 -1.0419  0.1867
 3599SOL    HW222434   2.117   2.047   3.803 -3.4849 -0.4191 -1.8672
 3600SOL     OW22435   1.135   1.486   2.918  0.2836  0.5809 -0.2258
 3600SOL    HW122436   1.225   1.498   2.888  0.7494 -0.1497  0.8789
 3600SOL    HW222437   1.148   1.503   3.012 -2.1868  1.1366  0.0374
 3601SOL     OW22438   1.026   0.854   7.209 -0.1320  0.0951  0.8485
 3601SOL    HW122439   1.067   0.823   7.290 -0.6170  0.3997  1.2075
 3601SOL    HW222440   1.017   0.766   7.171 -0.4716  1.5891 -2.5965
 3602SOL     OW22441   3.887   2.872   3.768  0.4711  0.1877 -0.1091
 3602SOL    HW122442   3.811   2.845   3.819  1.7891  0.2608  1.9294
 3602SOL    HW222443   3.942   2.890   3.845 -1.8811 -1.7468  1.9912
 3603SOL     OW22444   3.622   1.046   5.885 -0.2788 -0.4105  0.4035
 3603SOL    HW122445   3.618   1.100   5.963  2.1883  1.9172 -1.0579
 3603SOL    HW222446   3.673   0.974   5.922 -1.4953 -1.8807 -0.7863
 3604SOL     OW22447   3.194   1.477   6.568 -0.0104 -0.4482  0.5373
 3604SOL    HW122448   3.224   1.392   6.602 -0.7137 -1.0820 -0.4372
 3604SOL    HW222449   3.273   1.529   6.557  0.4144 -1.3502 -0.5400
 3605SOL     OW22450   4.720   4.604   5.204 -0.3735  0.4286  0.0954
 3605SOL    HW122451   4.712   4.514   5.171  0.9490  0.4039 -0.1598
 3605SOL    HW222452   4.627   4.616   5.221 -0.8407 -1.0967 -1.4049
 3606SOL     OW22453   1.473   2.329  17.194  0.4930 -0.2362 -0.7028
 3606SOL    HW122454   1.445   2.352  17.105 -1.5033 -0.3228 -0.0947
 3606SOL    HW222455   1.568   2.331  17.188  0.4439 -0.3768 -1.5246
 3607SOL     OW22456   4.148   2.253  16.911  0.2627 -0.0726  0.6660
 3607SOL    HW122457   4.170   2.210  16.828 -0.7586  0.3741  0.1603
 3607SOL    HW222458   4.129   2.171  16.957  0.4598  0.2416  1.3051
 3608SOL     OW22459   4.211   3.614   6.965 -0.5311  0.3515 -0.0891
 3608SOL    HW122460   4.172   3.677   7.026 -1.4520  0.6473 -0.9890
 3608SOL    HW222461   4.234   3.547   7.029  1.2244 -1.6232 -2.7885
 3609SOL     OW22462   4.043   1.583   3.344  0.7939  0.0974  0.8185
 3609SOL    HW122463   4.058   1.497   3.306  0.1952 -0.7896  2.5795
 3609SOL    HW222464   3.958   1.581   3.388  0.4823  1.0231  0.2431
 3610SOL     OW22465   3.791   4.208   8.911 -0.4360 -0.2741  0.1467
 3610SOL    HW122466   3.822   4.221   8.822 -1.1946  1.5504  0.1493
 3610SOL    HW222467   3.840   4.270   8.966  0.1948  0.0369 -0.7619
 3611SOL     OW22468   4.265   3.664   4.297  0.5934  0.2482 -0.1081
 3611SOL    HW122469   4.358   3.682   4.316  0.7974  0.2981 -1.1449
 3611SOL    HW222470   4.249   3.582   4.343 -2.9627  0.1499 -1.5475
 3612SOL     OW22471   1.582   0.072   5.524  0.1897 -0.1862  0.0867
 3612SOL    HW122472   1.514   0.137   5.541  0.3858  0.1679 -0.4761
 3612SOL    HW222473   1.637   0.080   5.602  0.2892 -2.0536  0.2092
 3613SOL     OW22474   3.297   3.000  12.694  0.1739  0.3012  0.2411
 3613SOL    HW122475   3.375   2.989  12.640 -0.8468 -2.8977 -0.5787
 3613SOL    HW222476   3.293   2.910  12.727  1.3752 -0.8656 -2.7879
 3614SOL     OW22477   3.151   3.465  14.635 -0.4650  0.2087  0.4636
 3614SOL    HW122478   3.138   3.559  14.651 -0.1665  0.0065  1.8285
 3614SOL    HW222479   3.076   3.452  14.577  1.4171  0.9014 -2.1658
 3615SOL     OW22480   1.627   3.884  13.216  0.2230  0.3559 -0.2085
 3615SOL    HW122481   1.698   3.820  13.218 -0.3519 -0.2108  2.7348
 3615SOL    HW222482   1.545   3.837  13.233  0.3893  0.2405  0.2931
 3616SOL     OW22483   4.043   2.825   6.010 -0.0628  0.2104  0.0919
 3616SOL    HW122484   3.989   2.852   6.084 -1.3484  2.5156 -1.6907
 3616SOL    HW222485   4.036   2.730   6.019  0.9281  0.0522 -0.8710
 3617SOL     OW22486   0.071   0.843   2.739  0.1717 -0.5363  0.2118
 3617SOL    HW122487   0.055   0.822   2.647  3.1454  2.2086 -0.9253
 3617SOL    HW222488   0.095   0.935   2.735 -0.4192 -0.4439 -1.3640
 3618SOL     OW22489   1.110   1.559   5.685  0.3079  0.0082 -0.1320
 3618SOL    HW122490   1.059   1.582   5.608 -0.5654 -2.0011 -0.1576
 3618SOL    HW222491   1.162   1.485   5.652 -0.4309 -0.7003  0.3001
 3619SOL     OW22492   1.249   1.826  11.768 -0.2563 -0.7510  0.0362
 3619SOL    HW122493   1.295   1.866  11.842 -1.2817 -1.1984  0.9021
 3619SOL    HW222494   1.260   1.894  11.701 -1.4918 -0.0213  0.5793
 3620SOL     OW22495   4.131   2.390   3.892  0.0402 -0.3177  0.4670
 3620SOL    HW122496   4.040   2.420   3.897  1.0944  2.7022  1.5629
 3620SOL    HW222497   4.144   2.365   3.984  0.8031  0.3822  0.5442
 3621SOL     OW22498   2.981   2.739   3.331  0.1189 -0.3465  0.6087
 3621SOL    HW122499   2.922   2.789   3.387  0.8934  1.8292 -0.5225
 3621SOL    HW222500   3.064   2.748   3.378  1.5949  0.2319 -2.1017
 3622SOL     OW22501   3.466   0.167   2.893 -0.4343  0.7576 -0.3984
 3622SOL    HW122502   3.441   0.091   2.841 -2.0659  2.0587 -1.5208
 3622SOL    HW222503   3.382   0.184   2.935  0.3473 -3.3040  2.9152
 3623SOL     OW22504   4.060   4.510   3.605  0.1606  0.1179  0.0681
 3623SOL    HW122505   4.148   4.518   3.568  0.8967  1.0518  2.0555
 3623SOL    HW222506   4.025   4.599   3.615  0.9446  0.3392  0.7826
 3624SOL     OW22507   2.062   0.877  10.508  0.2712 -0.1060  1.1808
 3624SOL    HW122508   1.999   0.843  10.572 -0.0672 -0.1743  0.8093
 3624SOL    HW222509   2.147   0.871  10.552  1.0066  1.9712  0.0453
 3625SOL     OW22510   0.211   0.209   4.247 -0.5832 -0.0391 -0.0558
 3625SOL    HW122511   0.223   0.135   4.188  1.3026  1.7095 -1.8524
 3625SOL    HW222512   0.133   0.180   4.295 -0.6116 -2.3628 -1.5231
 3626SOL     OW22513   1.502   0.659   6.580  0.0267 -0.0828 -0.0444
 3626SOL    HW122514   1.503   0.659   6.676 -2.5501  0.5745  0.0005
 3626SOL    HW222515   1.426   0.600   6.579 -0.5738  0.6952 -0.3265
 3627SOL     OW22516   0.077   0.361   4.930  0.5286 -0.1345 -0.6886
 3627SOL    HW122517   0.081   0.336   5.022 -1.9853  0.1497 -0.5011
 3627SOL    HW222518   0.089   0.456   4.927 -2.4643  0.1847 -2.2428
 3628SOL     OW22519   1.175   1.686   1.405  0.6147 -0.6164  0.1610
 3628SOL    HW122520   1.193   1.592   1.414 -0.9108 -1.1688 -2.3557
 3628SOL    HW222521   1.109   1.702   1.472  0.5961  1.1515 -0.2937
 3629SOL     OW22522   0.352   4.573   7.208  0.5712 -0.0805  0.3496
 3629SOL    HW122523   0.371   4.532   7.124  0.4295  2.6265 -1.0076
 3629SOL    HW222524   0.261   4.545   7.220  0.1643  1.2786  0.4766
 3630SOL     OW22525   1.681   3.652   8.160  0.5748 -0.1204 -0.4152
 3630SOL    HW122526   1.671   3.738   8.201  4.3373 -1.0245  2.3689
 3630SOL    HW222527   1.646   3.611   8.239  1.3029  1.3046  0.6420
 3631SOL     OW22528   1.567   4.482   1.337  0.0271 -0.1416  0.4626
 3631SOL    HW122529   1.613   4.443   1.262  2.1132  1.9506  0.6473
 3631SOL    HW222530   1.591   4.574   1.330  0.9035 -0.3263  1.0569
 3632SOL     OW22531   0.414   1.634   2.604 -0.2189  0.3174  0.0697
 3632SOL    HW122532   0.338   1.648   2.660 -0.5325 -1.5661  0.1034
 3632SOL    HW222533   0.487   1.646   2.665 -0.8602  1.4826  0.6002
 3633SOL     OW22534   0.207   2.941   5.336  0.1888 -0.6574  0.3113
 3633SOL    HW122535   0.127   2.900   5.302 -0.2506 -0.2857  0.9002
 3633SOL    HW222536   0.266   2.917   5.265 -0.7006  0.8907 -0.9668
 3634SOL     OW22537   0.087   1.142   5.375  0.4938  1.0964 -0.0135
 3634SOL    HW122538   0.099   1.107   5.463 -0.4393  2.4433  0.6505
 3634SOL    HW222539   0.099   1.234   5.399 -1.1812  1.5334 -0.8658
 3635SOL     OW22540   1.885   3.301  16.780 -0.1032  0.0423  0.7592
 3635SOL    HW122541   1.804   3.338  16.815 -0.1831  2.3747 -1.8663
 3635SOL    HW222542   1.880   3.218  16.826  0.2297 -0.0792  0.5778
 3636SOL     OW22543   3.376   3.426  14.763  0.1532  0.1808  0.2595
 3636SOL    HW122544   3.416   3.346  14.728 -0.2596  0.4349 -0.7739
 3636SOL    HW222545   3.298   3.446  14.713  0.0771  0.3085  0.4268
 3637SOL     OW22546   1.919   0.100   8.826 -0.5128 -0.0378 -0.8598
 3637SOL    HW122547   1.936   0.188   8.859 -0.7452 -1.8428  4.0309
 3637SOL    HW222548   2.002   0.079   8.782 -0.9554 -0.4757 -1.4869
 3638SOL     OW22549   0.026   0.885   0.335  0.1280 -0.1169 -0.4632
 3638SOL    HW122550   0.005   0.929   0.418 -0.4924 -0.2516 -0.5484
 3638SOL    HW222551   0.025   0.790   0.348 -2.0978 -0.1334 -0.6124
 3639SOL     OW22552   4.580   0.838  17.043  0.1429  0.6972 -0.0452
 3639SOL    HW122553   4.618   0.912  16.996  0.3378  0.2980 -0.5129
 3639SOL    HW222554   4.590   0.866  17.134 -1.6712 -0.2089  0.4558
 3640SOL     OW22555   3.126   1.694   3.741 -0.1556 -0.0177 -0.0359
 3640SOL    HW122556   3.172   1.756   3.685  2.7796 -2.8500 -0.7284
 3640SOL    HW222557   3.063   1.758   3.777 -0.1974  0.1135 -0.3424
 3641SOL     OW22558   0.461   4.299   7.616 -0.4997  0.1674  0.3550
 3641SOL    HW122559   0.462   4.392   7.639 -0.3893  1.0512 -3.1831
 3641SOL    HW222560   0.521   4.261   7.680 -0.4181  0.0567  0.2124
 3642SOL     OW22561   1.966   0.174   9.256 -0.2821 -0.0633  0.7709
 3642SOL    HW122562   1.878   0.158   9.289 -0.6562  0.8801  0.1920
 3642SOL    HW222563   1.949   0.220   9.175 -1.2607  0.9052  1.5367
 3643SOL     OW22564   3.436   3.669  14.855 -0.2823  0.1665  0.1326
 3643SOL    HW122565   3.368   3.655  14.920 -0.4089 -0.3501 -0.1082
 3643SOL    HW222566   3.440   3.583  14.813  2.4250  0.3192  0.0716
 3644SOL     OW22567   3.543   0.613   6.963 -0.4839  0.2189 -0.3451
 3644SOL    HW122568   3.477   0.550   6.992  1.9688 -3.1410 -2.0271
 3644SOL    HW222569   3.618   0.593   7.019  2.3998 -1.7173 -4.9110
 3645SOL     OW22570   4.311   0.931  11.457 -0.3155  0.4861  0.1014
 3645SOL    HW122571   4.358   0.928  11.374  1.9374  0.2353  1.3901
 3645SOL    HW222572   4.276   0.842  11.452  0.1236  0.2971  0.4546
 3646SOL     OW22573   1.192   1.066   6.267 -0.5362 -0.3375 -0.5924
 3646SOL    HW122574   1.269   1.011   6.284  0.9921  1.9535 -0.1931
 3646SOL    HW222575   1.197   1.093   6.176 -2.9037  0.4909 -0.4806
 3647SOL     OW22576   1.316   1.640   2.029 -0.3712  0.4844  0.5146
 3647SOL    HW122577   1.313   1.592   1.946 -3.8511  0.7625  0.4794
 3647SOL    HW222578   1.377   1.712   2.010 -0.8304  1.7290  3.8319
 3648SOL     OW22579   3.632   1.477  11.290 -0.2945  0.2746  0.2046
 3648SOL    HW122580   3.698   1.502  11.225  0.1901 -0.5010  0.4028
 3648SOL    HW222581   3.560   1.533  11.261 -2.7372 -2.1898  1.6070
 3649SOL     OW22582   2.946   3.382   5.137  0.3370  0.2735 -0.2829
 3649SOL    HW122583   3.004   3.390   5.062  0.8874 -0.3717  0.0715
 3649SOL    HW222584   2.862   3.400   5.094 -0.5552  0.3231  1.4842
 3650SOL     OW22585   4.204   0.246   7.785  0.2795 -0.2759  0.0065
 3650SOL    HW122586   4.184   0.331   7.746  0.4953 -0.3359 -0.2337
 3650SOL    HW222587   4.173   0.258   7.875 -1.0208 -0.4817 -0.4167
 3651SOL     OW22588   1.475   4.173  13.976 -0.1359 -0.0967 -0.1405
 3651SOL    HW122589   1.470   4.085  14.014  0.4371  0.6317  1.6177
 3651SOL    HW222590   1.505   4.225  14.050 -0.2305  0.1556 -0.2815
 3652SOL     OW22591   0.151   4.141   5.080 -0.4455  0.0712 -0.4827
 3652SOL    HW122592   0.163   4.204   5.151  0.2712  1.3743 -1.7532
 3652SOL    HW222593   0.214   4.177   5.016  0.0544 -0.2074 -0.1486
 3653SOL     OW22594   3.862   2.614   5.752 -0.3869 -0.0366 -0.2772
 3653SOL    HW122595   3.864   2.555   5.676  1.6387  0.4697 -0.6146
 3653SOL    HW222596   3.768   2.626   5.759 -0.5726 -1.6733  0.1629
 3654SOL     OW22597   3.176   4.131   3.035 -0.5170 -0.0122 -0.4366
 3654SOL    HW122598   3.186   4.187   3.112  2.8247  0.1148 -0.9544
 3654SOL    HW222599   3.255   4.148   2.983 -0.8675  1.1617 -0.6030
 3655SOL     OW22600   0.853   0.681   2.450 -0.0231 -0.4620  0.3360
 3655SOL    HW122601   0.845   0.587   2.435 -0.1606 -0.4162  0.1192
 3655SOL    HW222602   0.762   0.705   2.469 -0.7867 -3.2869  0.3630
 3656SOL     OW22603   1.371   3.846   5.873  0.7809 -0.0541 -0.1893
 3656SOL    HW122604   1.330   3.762   5.853  0.5275 -0.0402  0.2826
 3656SOL    HW222605   1.297   3.903   5.853 -0.4356 -1.3975  0.4792
 3657SOL     OW22606   3.243   3.264   7.839  0.0176 -0.1899  0.1280
 3657SOL    HW122607   3.252   3.215   7.757  1.9642 -0.4929  0.5185
 3657SOL    HW222608   3.161   3.311   7.827  0.7459  1.0499 -0.0589
 3658SOL     OW22609   3.117   2.484   3.946  0.4027  0.3223  0.9161
 3658SOL    HW122610   3.054   2.417   3.973  0.1499 -0.2589 -1.1066
 3658SOL    HW222611   3.052   2.554   3.941  0.8742  0.5924 -1.5085
 3659SOL     OW22612   0.089   2.514   7.482  0.7212  0.2962  0.3606
 3659SOL    HW122613   0.144   2.541   7.556 -0.2983  0.7050  0.9619
 3659SOL    HW222614   0.126   2.427   7.471 -0.1403 -0.1212  0.8102
 3660SOL     OW22615   4.146   2.323   6.879 -0.1910 -0.0112 -0.2911
 3660SOL    HW122616   4.171   2.366   6.797  0.8132  1.1274  0.5998
 3660SOL    HW222617   4.140   2.405   6.929 -1.3692 -1.2160  1.5480
 3661SOL     OW22618   2.406   2.049   4.103 -0.1461  0.1459 -0.0126
 3661SOL    HW122619   2.423   2.131   4.057  1.0812  0.0384  0.2585
 3661SOL    HW222620   2.310   2.045   4.102 -0.1180 -0.1576 -1.3723
 3662SOL     OW22621   3.487   2.342  10.213  0.0662  0.0754  0.4346
 3662SOL    HW122622   3.397   2.319  10.192  0.0723  0.0743  0.4100
 3662SOL    HW222623   3.515   2.375  10.128  2.8180 -2.0085  0.5059
 3663SOL     OW22624   3.629   4.147   5.769  0.2431  0.1164 -0.1933
 3663SOL    HW122625   3.540   4.145   5.804  0.4200  1.3066  0.3386
 3663SOL    HW222626   3.635   4.241   5.756 -0.0776  0.2775  0.8206
 3664SOL     OW22627   0.407   0.930  10.896 -0.2233 -0.5609  0.2892
 3664SOL    HW122628   0.384   1.010  10.944  3.1327  0.4783  0.1591
 3664SOL    HW222629   0.354   0.862  10.938 -2.9933  1.2117 -0.2682
 3665SOL     OW22630   2.256   1.887  12.607  0.4469 -0.0107  0.4293
 3665SOL    HW122631   2.240   1.829  12.682  1.3501  1.5416  1.8276
 3665SOL    HW222632   2.321   1.838  12.557  0.6858  0.6177  0.1289
 3666SOL     OW22633   2.119   1.589   1.382  0.4014 -0.2939 -0.3096
 3666SOL    HW122634   2.164   1.580   1.298 -1.0858  1.7200 -1.3121
 3666SOL    HW222635   2.054   1.657   1.368  1.3445  0.8214  0.7360
 3667SOL     OW22636   2.537   1.323  12.757 -0.6209  0.1101 -0.3930
 3667SOL    HW122637   2.471   1.380  12.797 -0.6627 -0.6408  0.6314
 3667SOL    HW222638   2.478   1.249  12.740 -1.7669  1.4465 -2.1087
 3668SOL     OW22639   4.264   1.103  10.343 -0.0307  0.1293  0.4768
 3668SOL    HW122640   4.224   1.189  10.356  0.6535  0.8597 -2.3515
 3668SOL    HW222641   4.186   1.049  10.355  0.3851 -0.9820 -1.8086
 3669SOL     OW22642   2.201   0.569  12.652  0.5857  1.0798  0.0872
 3669SOL    HW122643   2.189   0.502  12.719 -0.5383  0.8495 -0.3345
 3669SOL    HW222644   2.176   0.522  12.573 -2.8684 -1.1262  2.4949
 3670SOL     OW22645   1.972   0.725   8.568  0.3721  0.2299 -0.1885
 3670SOL    HW122646   1.878   0.730   8.549  0.1944  0.3348  0.7547
 3670SOL    HW222647   1.967   0.710   8.662  1.8245 -0.7676 -0.2781
 3671SOL     OW22648   2.454   3.998   3.408 -0.2273  0.0393  0.5656
 3671SOL    HW122649   2.465   3.949   3.489 -0.7752 -0.7733  0.1457
 3671SOL    HW222650   2.369   3.976   3.370 -1.4979  2.3622  2.0824
 3672SOL     OW22651   2.313   0.292   2.464  0.1475  0.1018  0.5170
 3672SOL    HW122652   2.260   0.228   2.511 -1.5694  1.9756  1.1461
 3672SOL    HW222653   2.337   0.225   2.400 -0.2372 -0.8150  1.3222
 3673SOL     OW22654   4.424   0.128   3.376 -0.2669  0.0102  0.5426
 3673SOL    HW122655   4.437   0.188   3.449  4.0651  1.2957 -1.3190
 3673SOL    HW222656   4.336   0.157   3.349 -0.1153 -0.3412 -0.3355
 3674SOL     OW22657   3.854   3.419   5.550 -0.2875 -0.0174 -0.2440
 3674SOL    HW122658   3.799   3.351   5.589  0.7189 -0.1286  1.0054
 3674SOL    HW222659   3.785   3.475   5.515  0.6260 -0.1310 -2.2101
 3675SOL     OW22660   0.567   2.187  14.816  0.6223  0.2638  0.0579
 3675SOL    HW122661   0.617   2.199  14.896  0.1959  0.2345  0.3325
 3675SOL    HW222662   0.630   2.184  14.744  0.7594  0.7419  0.1577
 3676SOL     OW22663   2.013   0.735   6.794  0.3400 -0.3708  0.9287
 3676SOL    HW122664   1.990   0.650   6.833  0.1179  0.4675  2.5936
 3676SOL    HW222665   2.096   0.719   6.750  0.5144  1.3108  0.6781
 3677SOL     OW22666   3.556   1.357  11.719 -0.2328 -0.3106 -0.0690
 3677SOL    HW122667   3.627   1.345  11.782  0.1189  3.0567  0.1410
 3677SOL    HW222668   3.476   1.366  11.771 -1.1447 -0.6686 -1.3846
 3678SOL     OW22669   2.987   4.095  13.593  0.2351 -0.2941  0.1745
 3678SOL    HW122670   3.074   4.099  13.555  0.9182  2.9903  2.0388
 3678SOL    HW222671   2.932   4.101  13.515  0.3441  1.8509  0.2577
 3679SOL     OW22672   2.918   2.702   1.073  0.1174  0.3725 -0.0515
 3679SOL    HW122673   2.891   2.623   1.025  0.8803 -0.1029  0.2986
 3679SOL    HW222674   2.970   2.751   1.010  0.2185 -2.7373 -2.3789
 3680SOL     OW22675   1.114   2.758  14.712 -0.6630  0.2700 -0.1976
 3680SOL    HW122676   1.132   2.794  14.799 -1.3996  0.9556 -0.3293
 3680SOL    HW222677   1.038   2.704  14.733  1.2669 -1.7151  1.6176
 3681SOL     OW22678   3.989   3.214   4.720 -0.2397 -0.5020  0.2630
 3681SOL    HW122679   3.970   3.308   4.730  0.3969 -0.1633 -1.6041
 3681SOL    HW222680   3.954   3.204   4.631  1.2357 -0.5053 -0.3169
 3682SOL     OW22681   2.313   3.988  10.532  0.1334 -0.2683  0.0030
 3682SOL    HW122682   2.347   3.926  10.468  1.3152  0.9511 -0.5323
 3682SOL    HW222683   2.229   4.009  10.491  1.2118  1.4518 -1.3063
 3683SOL     OW22684   4.119   0.299  13.206 -0.3460  0.2563  1.0039
 3683SOL    HW122685   4.086   0.357  13.138  0.9864 -0.9602 -0.6683
 3683SOL    HW222686   4.196   0.346  13.238 -1.2176  0.0299  3.4265
 3684SOL     OW22687   0.854   1.797  13.718 -0.1894  0.1886 -0.4645
 3684SOL    HW122688   0.850   1.767  13.809  2.3212 -0.2273 -0.4884
 3684SOL    HW222689   0.947   1.781  13.699 -0.4463 -0.3790 -1.2617
 3685SOL     OW22690   4.456   0.198   2.396  0.0747 -0.2680  0.0271
 3685SOL    HW122691   4.370   0.230   2.421  0.3128  0.0586  0.4338
 3685SOL    HW222692   4.456   0.110   2.435 -1.5641 -1.7041 -3.2466
 3686SOL     OW22693   4.206   3.435  12.357  0.3211  0.2807 -0.6723
 3686SOL    HW122694   4.172   3.392  12.279 -2.9810 -0.2593  1.0949
 3686SOL    HW222695   4.263   3.368  12.395 -0.9240 -0.6920 -0.5545
 3687SOL     OW22696   1.194   1.307  13.442 -0.4111  0.1786  0.0527
 3687SOL    HW122697   1.188   1.240  13.510 -0.3132  0.0118 -0.1025
 3687SOL    HW222698   1.199   1.392  13.485 -0.8020 -0.1835  0.8201
 3688SOL     OW22699   1.088   3.052   5.633  0.4915 -0.0133  0.1819
 3688SOL    HW122700   1.104   3.065   5.540  1.6326  1.2816  0.5589
 3688SOL    HW222701   1.170   3.092   5.661  1.0613 -0.3578 -0.9771
 3689SOL     OW22702   2.446   4.587   8.923  0.6001 -0.6003  0.0597
 3689SOL    HW122703   2.482   4.667   8.961  0.6962 -0.1368 -0.9769
 3689SOL    HW222704   2.362   4.586   8.969  1.9108  1.1029  2.4440
 3690SOL     OW22705   0.951   2.909  15.573 -0.2286 -0.9499  0.1932
 3690SOL    HW122706   1.033   2.916  15.622 -0.3074 -0.7166  0.2947
 3690SOL    HW222707   0.967   2.834  15.517  2.8146  1.5508 -2.2955
 3691SOL     OW22708   1.092   2.970   4.496  0.2877  0.3867 -0.3148
 3691SOL    HW122709   1.009   3.000   4.459  0.0859  0.4353  0.1911
 3691SOL    HW222710   1.116   2.888   4.453 -0.9783 -0.4757  0.6590
 3692SOL     OW22711   4.223   2.094  13.232  1.0697  0.2150  0.5013
 3692SOL    HW122712   4.273   2.018  13.204  0.8903  0.2122  0.1812
 3692SOL    HW222713   4.216   2.145  13.151  2.1705  1.2694  1.0577
 3693SOL     OW22714   3.611   2.359   2.533  0.4857 -0.1517  0.2750
 3693SOL    HW122715   3.538   2.421   2.536  2.8660  2.7117  0.0055
 3693SOL    HW222716   3.617   2.323   2.444 -0.2025 -0.2769  0.2816
 3694SOL     OW22717   1.401   0.873   3.974  0.1588 -0.3894 -0.3762
 3694SOL    HW122718   1.408   0.895   4.067 -1.2554  1.1639 -0.6342
 3694SOL    HW222719   1.423   0.953   3.926  1.7699 -0.4383  0.2808
 3695SOL     OW22720   0.557   1.468   1.136  0.0134 -0.0486 -0.2845
 3695SOL    HW122721   0.510   1.520   1.071 -0.9388 -2.4560 -1.4934
 3695SOL    HW222722   0.604   1.407   1.080  1.7286 -1.3685  2.5566
 3696SOL     OW22723   1.251   0.535   6.437  0.2441 -0.0098 -0.2630
 3696SOL    HW122724   1.189   0.541   6.509 -0.6705 -1.5237 -0.9273
 3696SOL    HW222725   1.215   0.591   6.369 -0.5717  3.3041  2.9102
 3697SOL     OW22726   3.694   1.356   7.874 -0.0006 -0.4299  0.3734
 3697SOL    HW122727   3.684   1.275   7.924 -2.2653 -1.0885 -1.1043
 3697SOL    HW222728   3.603   1.387   7.869  0.7485  1.5224 -1.0483
 3698SOL     OW22729   0.568   4.525   9.008 -0.3085  0.7098 -0.6309
 3698SOL    HW122730   0.612   4.572   8.936  1.8548 -2.6095 -1.4561
 3698SOL    HW222731   0.642   4.487   9.056 -0.1964 -0.7008 -1.9155
 3699SOL     OW22732   3.791   4.687   5.366  0.4288  0.3958 -0.1264
 3699SOL    HW122733   3.698   4.696   5.386  0.1056 -0.6786 -1.0834
 3699SOL    HW222734   3.821   4.647   5.448 -1.1402  1.2467  0.8444
 3700SOL     OW22735   1.599   0.688   2.292 -0.1694 -0.0864 -0.0943
 3700SOL    HW122736   1.642   0.767   2.261 -0.9748 -0.0499 -1.0776
 3700SOL    HW222737   1.509   0.718   2.297 -0.3820 -0.8818  0.9459
 3701SOL     OW22738   0.265   2.842   2.067  0.2015  0.6510 -0.4291
 3701SOL    HW122739   0.203   2.832   2.139  0.2556 -1.5786 -0.6778
 3701SOL    HW222740   0.260   2.755   2.026  0.7166 -0.1175  1.1358
 3702SOL     OW22741   1.786   4.017   1.648 -0.0522 -0.2254  0.1628
 3702SOL    HW122742   1.792   4.112   1.636  2.3749 -0.2545  1.0149
 3702SOL    HW222743   1.691   4.008   1.645  0.2014 -2.8222  0.2506
 3703SOL     OW22744   1.917   2.826   8.888 -0.5299  0.3195 -0.1191
 3703SOL    HW122745   1.899   2.796   8.799 -0.9267  1.5572 -0.4568
 3703SOL    HW222746   1.846   2.890   8.896 -1.3116 -0.4811 -0.6962
 3704SOL     OW22747   3.831   1.386   2.345  0.0145 -0.2894  0.2759
 3704SOL    HW122748   3.835   1.296   2.380  0.1311 -0.0525  0.8831
 3704SOL    HW222749   3.833   1.368   2.251  0.2863  0.1587  0.1932
 3705SOL     OW22750   1.436   0.114   1.239 -0.2079  0.4169  0.2015
 3705SOL    HW122751   1.524   0.077   1.246 -0.1651  0.5026  0.1255
 3705SOL    HW222752   1.442   0.191   1.295  0.1402  0.5848 -0.0652
 3706SOL     OW22753   1.052   1.526   3.183 -0.1614  0.2876  0.1207
 3706SOL    HW122754   1.022   1.516   3.274 -2.0494 -1.8562 -0.7437
 3706SOL    HW222755   0.972   1.569   3.150  0.8689  2.0032 -0.1524
 3707SOL     OW22756   3.785   3.609   0.917  0.5867 -0.3570 -0.1357
 3707SOL    HW122757   3.827   3.524   0.903  0.3905 -0.4027 -0.4465
 3707SOL    HW222758   3.859   3.668   0.906  0.0040  0.0658 -1.7762
 3708SOL     OW22759   0.624   3.358   2.548 -0.4037 -0.9022 -0.4911
 3708SOL    HW122760   0.597   3.389   2.634  1.2307  0.3266 -0.4236
 3708SOL    HW222761   0.561   3.287   2.536  0.2589 -1.5076 -0.3746
 3709SOL     OW22762   2.113   2.449   5.554 -0.3835  1.3463  0.0138
 3709SOL    HW122763   2.063   2.530   5.545  0.3317  1.7578 -0.2500
 3709SOL    HW222764   2.079   2.391   5.485  2.3016 -1.0028  0.6413
 3710SOL     OW22765   3.921   2.490   2.089 -0.4934 -0.5649 -0.0423
 3710SOL    HW122766   3.909   2.538   2.171 -1.7647 -1.3060  0.1950
 3710SOL    HW222767   3.978   2.417   2.113 -1.9129 -2.1023 -1.3524
 3711SOL     OW22768   1.569   2.279  11.223 -0.3622 -0.3227  0.0154
 3711SOL    HW122769   1.531   2.195  11.249 -3.1962  0.7180 -0.8407
 3711SOL    HW222770   1.524   2.329  11.291  0.4527  1.3703 -0.6947
 3712SOL     OW22771   0.372   4.252   2.845 -0.2301 -0.0155  0.1948
 3712SOL    HW122772   0.356   4.238   2.938 -0.1514 -1.2497  0.0204
 3712SOL    HW222773   0.443   4.188   2.836 -0.0669  0.2414 -0.3444
 3713SOL     OW22774   1.050   1.436   1.610  0.1545  0.1967  0.4387
 3713SOL    HW122775   0.994   1.397   1.677  2.2611  0.4631  2.3873
 3713SOL    HW222776   1.103   1.490   1.670 -2.0751  0.4165  2.2008
 3714SOL     OW22777   4.328   4.572   4.422 -0.5030  0.3242  0.4313
 3714SOL    HW122778   4.333   4.641   4.488  0.1472  3.1377 -2.5443
 3714SOL    HW222779   4.285   4.498   4.465  0.0605 -0.0344  0.3822
 3715SOL     OW22780   0.257   1.976   1.978 -0.1979 -0.0947 -0.1291
 3715SOL    HW122781   0.300   1.897   1.944 -0.3379 -0.2728  0.1125
 3715SOL    HW222782   0.319   1.993   2.049 -1.6295  1.2725  0.7681
 3716SOL     OW22783   3.158   3.200  14.809  0.1363 -0.5101 -0.0436
 3716SOL    HW122784   3.160   3.295  14.816  0.9354 -0.3649 -2.1389
 3716SOL    HW222785   3.194   3.190  14.720 -2.6958 -1.6541 -1.0455
 3717SOL     OW22786   0.248   1.171   8.957  0.2851  0.0655 -0.5469
 3717SOL    HW122787   0.313   1.183   9.026 -0.9311 -0.0291  0.6166
 3717SOL    HW222788   0.311   1.131   8.897 -1.0616  1.2969 -2.7666
 3718SOL     OW22789   3.872   4.380   3.430 -0.3730 -0.2360 -0.1290
 3718SOL    HW122790   3.859   4.462   3.382 -1.3442 -1.4904 -2.0271
 3718SOL    HW222791   3.945   4.397   3.489  1.2808 -0.7136 -2.0499
 3719SOL     OW22792   2.311   2.534   3.944  0.4812 -0.5476  0.4721
 3719SOL    HW122793   2.263   2.482   3.880 -0.7157 -0.0907  1.0043
 3719SOL    HW222794   2.356   2.460   3.986 -0.9359 -1.3562  0.5313
 3720SOL     OW22795   3.821   0.113   2.762  0.1125 -0.3521  0.0451
 3720SOL    HW122796   3.749   0.121   2.700  0.9983 -1.4185 -1.1215
 3720SOL    HW222797   3.786   0.045   2.819  0.0760 -1.6141 -1.4826
 3721SOL     OW22798   0.154   2.532   5.798 -0.4106  0.7680 -0.5136
 3721SOL    HW122799   0.140   2.528   5.704 -1.4008  1.8360 -0.4123
 3721SOL    HW222800   0.195   2.447   5.812  0.4294  1.2113 -0.2688
 3722SOL     OW22801   0.315   3.492   3.042  0.0397 -0.7545 -0.1713
 3722SOL    HW122802   0.407   3.494   3.068 -0.0560 -0.0362  0.1085
 3722SOL    HW222803   0.283   3.407   3.073 -0.6318 -0.1558  0.7611
 3723SOL     OW22804   3.709   0.117   7.581  0.5181  0.1256 -0.0374
 3723SOL    HW122805   3.715   0.022   7.579 -0.7709  0.0149  1.5236
 3723SOL    HW222806   3.802   0.134   7.593  0.6950 -0.4015 -0.6904
 3724SOL     OW22807   1.522   1.545   2.469  0.2906 -0.8993  0.0903
 3724SOL    HW122808   1.569   1.510   2.544  1.0421 -1.6997 -0.7609
 3724SOL    HW222809   1.598   1.545   2.410 -0.0011  1.4758 -0.2956
 3725SOL     OW22810   2.243   3.847   5.208  0.5517 -0.6250  0.8873
 3725SOL    HW122811   2.301   3.816   5.278 -1.3770 -0.6003  2.4722
 3725SOL    HW222812   2.186   3.774   5.184  0.6199 -0.5048  0.3759
 3726SOL     OW22813   3.211   2.937  12.277 -0.4971  0.0080 -0.6132
 3726SOL    HW122814   3.265   3.010  12.306  2.7061 -3.4885  2.2315
 3726SOL    HW222815   3.124   2.960  12.309  0.8687  0.2170  3.0212
 3727SOL     OW22816   3.789   1.252   3.517 -0.4816 -0.4443 -0.5634
 3727SOL    HW122817   3.810   1.231   3.608 -0.9258  2.7910  0.2741
 3727SOL    HW222818   3.822   1.173   3.473 -0.1559 -0.1899 -0.7796
 3728SOL     OW22819   2.140   4.452   1.541  0.1517  0.4271  0.3485
 3728SOL    HW122820   2.122   4.370   1.587 -2.3151  2.1648  2.4333
 3728SOL    HW222821   2.223   4.427   1.501 -0.3495 -0.5857 -0.0646
 3729SOL     OW22822   2.527   2.608   0.304 -0.0421  0.0076 -0.1417
 3729SOL    HW122823   2.558   2.591   0.215 -1.5289 -1.2774 -0.4121
 3729SOL    HW222824   2.615   2.595   0.342  0.8462 -1.3548 -2.6721
 3730SOL     OW22825   0.057   3.230   5.774  0.6632 -0.5710  0.6590
 3730SOL    HW122826   0.095   3.203   5.858  3.9135 -1.2448 -1.0523
 3730SOL    HW222827   4.736   3.157   5.750 -1.8032  0.7972  2.2878
 3731SOL     OW22828   2.362   1.086  10.551  0.4274 -0.7194  0.2494
 3731SOL    HW122829   2.312   1.118  10.625  3.1599  1.2951  1.2181
 3731SOL    HW222830   2.449   1.123  10.567  0.1478 -0.1461  0.4076
 3732SOL     OW22831   4.558   3.774  14.214  0.3652  0.6199 -0.8421
 3732SOL    HW122832   4.562   3.747  14.306 -1.0488  0.3615 -0.8523
 3732SOL    HW222833   4.481   3.726  14.186  1.1704 -1.4533  0.4864
 3733SOL     OW22834   0.061   1.017  10.152  0.6400  0.4583  0.5911
 3733SOL    HW122835   0.151   1.004  10.123  1.0072  1.5286  1.2297
 3733SOL    HW222836   0.066   1.085  10.219  0.7674 -0.6926  1.7688
 3734SOL     OW22837   3.390   3.350   6.991 -0.6822  0.2433 -0.0201
 3734SOL    HW122838   3.346   3.381   6.912  0.4951  0.2816 -0.6470
 3734SOL    HW222839   3.324   3.388   7.049  1.4123  1.6590  1.3951
 3735SOL     OW22840   1.616   4.379   2.057 -0.1692 -0.1440  0.1680
 3735SOL    HW122841   1.596   4.322   2.131 -1.2291  0.0612  0.0381
 3735SOL    HW222842   1.657   4.449   2.108  0.2064  0.0373 -0.3863
 3736SOL     OW22843   0.149   0.330   7.698 -0.2380  0.6447  0.5484
 3736SOL    HW122844   0.118   0.268   7.764  1.5268  0.3826  1.1204
 3736SOL    HW222845   0.240   0.332   7.727 -0.7594 -0.4065  2.2427
 3737SOL     OW22846   1.130   1.098   7.136  0.0298 -0.5030 -0.1020
 3737SOL    HW122847   1.078   1.018   7.149 -0.2254 -0.4696 -0.9439
 3737SOL    HW222848   1.208   1.069   7.183 -1.2882 -0.3769  2.1665
 3738SOL     OW22849   1.405   0.511   0.763  0.3556  0.2483  0.0181
 3738SOL    HW122850   1.463   0.473   0.829  1.0268 -0.9621 -1.2667
 3738SOL    HW222851   1.327   0.456   0.755  1.3716 -1.1615 -0.2146
 3739SOL     OW22852   2.132   1.420   5.945  0.1213  0.2157 -0.6365
 3739SOL    HW122853   2.132   1.351   5.879  1.5887 -0.2887 -0.1052
 3739SOL    HW222854   2.041   1.419   5.976  1.5153  1.1220  3.4559
 3740SOL     OW22855   0.702   4.418  10.374 -0.1260  0.2876  0.4672
 3740SOL    HW122856   0.682   4.325  10.368  0.1780  0.1318  1.9297
 3740SOL    HW222857   0.686   4.454  10.287  3.1070  1.6338  0.4145
 3741SOL     OW22858   2.783   1.295  12.044  0.8713  0.5153 -0.7755
 3741SOL    HW122859   2.846   1.234  12.006 -0.9418 -2.3214  0.7405
 3741SOL    HW222860   2.719   1.307  11.973 -1.2826 -2.0231  0.7253
 3742SOL     OW22861   0.745   4.674   8.837  0.1765  0.4703 -0.6857
 3742SOL    HW122862   0.719   0.004   8.773  2.8481  2.0465 -0.1405
 3742SOL    HW222863   0.792   4.618   8.776 -0.9779 -0.5666 -0.6161
 3743SOL     OW22864   3.796   1.507   3.422  0.1058  0.1141  0.2593
 3743SOL    HW122865   3.790   1.417   3.455 -1.2159  0.8604  2.0964
 3743SOL    HW222866   3.763   1.494   3.333 -0.5367 -3.4230  1.0218
 3744SOL     OW22867   1.716   1.923   7.251 -0.2578 -0.4676 -0.3868
 3744SOL    HW122868   1.653   1.987   7.283  1.6075  1.2913 -0.2632
 3744SOL    HW222869   1.774   1.919   7.328 -2.0541 -3.0654  0.8444
 3745SOL     OW22870   0.528   3.015   0.729 -0.3875 -0.2636 -0.6375
 3745SOL    HW122871   0.552   2.935   0.683 -0.6442 -0.3430 -0.6336
 3745SOL    HW222872   0.459   3.054   0.675 -3.3252 -2.5663  1.4315
 3746SOL     OW22873   3.496   1.144  13.058  0.2026 -0.3631  0.5743
 3746SOL    HW122874   3.590   1.149  13.076  0.2996 -0.4918  0.1083
 3746SOL    HW222875   3.486   1.175  12.968 -0.8150  0.3375  0.9319
 3747SOL     OW22876   2.669   2.952  14.857 -0.3354 -0.0333  0.6574
 3747SOL    HW122877   2.709   3.037  14.842 -0.6865 -0.4783 -2.8307
 3747SOL    HW222878   2.712   2.891  14.797 -2.9195 -1.8727  0.6437
 3748SOL     OW22879   4.209   0.014   3.909 -0.5014  0.9185  0.1243
 3748SOL    HW122880   4.120   4.714   3.915  0.5643 -1.6491  0.0152
 3748SOL    HW222881   4.185   0.070   3.835 -0.8135 -0.6544 -0.9646
 3749SOL     OW22882   3.460   3.397  11.524 -0.3750 -0.2472 -0.0778
 3749SOL    HW122883   3.416   3.454  11.460  0.1564  0.7379  0.4379
 3749SOL    HW222884   3.424   3.430  11.606 -0.8585 -0.7121 -0.1014
 3750SOL     OW22885   0.154   2.159  11.598 -0.2343 -0.6452 -0.1294
 3750SOL    HW122886   0.112   2.218  11.662 -1.1966 -0.4942 -0.8926
 3750SOL    HW222887   0.135   2.197  11.512  1.1969 -0.7193 -0.4813
 3751SOL     OW22888   0.813   1.028   7.212 -0.3928  0.2977  0.1282
 3751SOL    HW122889   0.884   0.964   7.220 -1.7436 -1.1092  0.7574
 3751SOL    HW222890   0.804   1.051   7.304  0.4847  0.1674  0.2554
 3752SOL     OW22891   1.729   2.498   7.862 -0.0270 -0.0010  0.1627
 3752SOL    HW122892   1.808   2.446   7.875  0.3502  0.0007 -2.0865
 3752SOL    HW222893   1.684   2.477   7.944 -1.5325 -3.8001 -1.6283
 3753SOL     OW22894   0.127   4.532   7.948 -0.1277  0.0937 -0.5261
 3753SOL    HW122895   0.104   4.483   8.027 -3.3014  0.9650 -0.9197
 3753SOL    HW222896   0.048   4.521   7.895  1.3566 -2.7790 -2.1886
 3754SOL     OW22897   4.446   0.869   2.603  0.1399  0.3410 -0.2281
 3754SOL    HW122898   4.465   0.958   2.571  1.5211 -0.0603 -0.5466
 3754SOL    HW222899   4.425   0.891   2.694  1.8912 -1.4680  0.6157
 3755SOL     OW22900   1.643   3.147   0.829 -0.7296 -0.6373  0.0968
 3755SOL    HW122901   1.666   3.209   0.760  1.2380  2.1398  3.2179
 3755SOL    HW222902   1.654   3.061   0.789  1.8839  0.4198 -1.4641
 3756SOL     OW22903   2.500   4.043   6.616  0.1856 -0.4377 -0.7734
 3756SOL    HW122904   2.457   4.089   6.688  1.0586  0.2372 -0.6862
 3756SOL    HW222905   2.565   4.110   6.596  1.7197 -1.6757  0.0946
 3757SOL     OW22906   4.177   2.014   4.376  0.1889 -0.3744  0.1133
 3757SOL    HW122907   4.108   1.961   4.416  0.6047 -0.1293  1.1366
 3757SOL    HW222908   4.220   2.055   4.450  1.4386  0.2898 -0.9817
 3758SOL     OW22909   2.889   2.132  10.045  0.0789 -0.0176  0.4175
 3758SOL    HW122910   2.814   2.181  10.010  0.4381  0.7668  0.7504
 3758SOL    HW222911   2.914   2.190  10.117 -3.3930  0.7466  1.0142
 3759SOL     OW22912   0.583   3.676  11.441  0.1990 -0.1833  0.6537
 3759SOL    HW122913   0.537   3.669  11.358  1.8468 -1.7440 -0.1306
 3759SOL    HW222914   0.508   3.713  11.487 -0.3106 -0.5237  0.0841
 3760SOL     OW22915   4.716   1.099   8.606  0.3859  0.9330  0.1584
 3760SOL    HW122916   0.043   1.032   8.583  1.3231  1.2265  1.9797
 3760SOL    HW222917   4.638   1.046   8.623  1.4061 -0.3861  0.7316
 3761SOL     OW22918   0.812   2.226   6.461 -0.0616  0.5082  0.0201
 3761SOL    HW122919   0.864   2.146   6.451 -0.6509  0.0692  0.3957
 3761SOL    HW222920   0.799   2.220   6.556 -2.4068  2.2290 -0.1774
 3762SOL     OW22921   3.481   3.115  17.387 -0.1741 -0.1665  0.4243
 3762SOL    HW122922   3.516   3.185  17.333  0.0155  0.7588  1.7463
 3762SOL    HW222923   3.397   3.147  17.421 -0.4493  0.4492 -0.8430
 3763SOL     OW22924   4.461   2.477  12.707  0.0813  0.0036  0.4764
 3763SOL    HW122925   4.387   2.526  12.744  1.1444  2.4628 -0.6406
 3763SOL    HW222926   4.444   2.386  12.731 -1.2770 -0.1723 -1.1108
 3764SOL     OW22927   0.073   1.519   5.250 -0.4557 -0.3157  0.7349
 3764SOL    HW122928   0.150   1.576   5.250 -0.0155 -0.9182 -0.0587
 3764SOL    HW222929   0.088   1.472   5.332 -2.9755 -3.3518 -0.5546
 3765SOL     OW22930   2.468   3.582   5.948  0.2195 -0.1062 -0.5162
 3765SOL    HW122931   2.477   3.514   6.015 -2.2529  0.4604  0.3688
 3765SOL    HW222932   2.504   3.663   5.985 -0.0408  0.0216 -0.5494
 3766SOL     OW22933   3.125   3.293   4.067  0.0381  0.2336 -0.1913
 3766SOL    HW122934   3.050   3.244   4.034  0.4665 -1.8556  1.8808
 3766SOL    HW222935   3.146   3.240   4.144  0.0754 -1.3788 -1.2864
 3767SOL     OW22936   3.122   0.925   3.179 -0.0635  0.3282  0.4124
 3767SOL    HW122937   3.149   0.965   3.096  5.1747  0.7070  2.2969
 3767SOL    HW222938   3.094   1.010   3.214  2.5873  1.6136 -0.6326
 3768SOL     OW22939   0.671   4.675   2.072 -0.5928 -0.0852 -0.4670
 3768SOL    HW122940   0.604   0.007   2.071 -2.0776 -1.5222  0.7676
 3768SOL    HW222941   0.626   4.613   2.130 -1.8443  0.0995 -1.2289
 3769SOL     OW22942   0.399   3.765   8.749 -0.3026  0.7718 -0.1963
 3769SOL    HW122943   0.322   3.821   8.746 -0.3425  0.7169 -0.1920
 3769SOL    HW222944   0.432   3.767   8.659 -0.4250 -2.9449 -0.3371
 3770SOL     OW22945   4.383   0.316   3.113 -0.2624  0.2022  0.3247
 3770SOL    HW122946   4.449   0.305   3.182 -1.2438 -0.8839  1.0965
 3770SOL    HW222947   4.317   0.254   3.146 -1.1186  1.5400  1.1161
 3771SOL     OW22948   3.854   4.037  14.967  0.1384  0.2749 -0.3987
 3771SOL    HW122949   3.764   4.067  14.954  0.1031  0.8784  1.2753
 3771SOL    HW222950   3.889   4.053  14.880 -2.8483 -0.2024 -1.7121
 3772SOL     OW22951   0.659   2.700  17.443  0.3882  0.0400 -0.1879
 3772SOL    HW122952   0.611   2.633  17.491  2.4808 -1.4630 -0.2178
 3772SOL    HW222953   0.655   2.769  17.511 -0.9989  0.9417 -1.1863
 3773SOL     OW22954   1.854   0.369   2.197  0.0409 -0.1958 -0.0300
 3773SOL    HW122955   1.917   0.321   2.250  0.6421  1.1744  0.5018
 3773SOL    HW222956   1.817   0.440   2.248  1.6306  1.1291 -0.7011
 3774SOL     OW22957   0.529   4.369   6.033  0.4737  0.5442  0.5063
 3774SOL    HW122958   0.572   4.454   6.041 -0.6979  1.3661 -2.1281
 3774SOL    HW222959   0.591   4.336   5.968  0.4032  0.0643  0.6802
 3775SOL     OW22960   2.077   3.798   1.237  0.3045  1.0704  0.3364
 3775SOL    HW122961   2.163   3.796   1.278  0.0673 -0.1274  0.7743
 3775SOL    HW222962   2.015   3.833   1.301 -1.4301  1.4832 -1.5651
 3776SOL     OW22963   3.535   2.643  15.059 -0.4436  0.0147  0.1389
 3776SOL    HW122964   3.488   2.652  15.142  0.0757 -0.0185  0.4367
 3776SOL    HW222965   3.503   2.719  15.011  0.9903  1.2919  1.2140
 3777SOL     OW22966   2.608   0.915   6.290 -0.1883 -0.1560  0.4418
 3777SOL    HW122967   2.513   0.925   6.302 -0.2193  1.9203 -1.6704
 3777SOL    HW222968   2.605   0.910   6.195 -1.2140  0.4128  0.4429
 3778SOL     OW22969   0.200   3.927   4.773 -0.4119 -0.0044  0.1719
 3778SOL    HW122970   0.164   3.839   4.763 -0.7986  0.2543 -0.7266
 3778SOL    HW222971   0.118   3.974   4.756  0.0982  2.1227  3.5604
 3779SOL     OW22972   1.829   4.213   6.156 -0.0120  0.1939  0.3236
 3779SOL    HW122973   1.863   4.143   6.099 -2.0218 -1.8714  1.6512
 3779SOL    HW222974   1.860   4.297   6.124 -0.6424 -0.1179 -1.1244
 3780SOL     OW22975   4.048   3.426   3.162  0.0638 -0.5381 -0.6546
 3780SOL    HW122976   4.125   3.377   3.189  0.0584  0.1311  0.5850
 3780SOL    HW222977   3.980   3.368   3.198 -1.3563  1.3070 -0.3746
 3781SOL     OW22978   0.054   3.264   2.328 -0.0088 -0.3426  0.2323
 3781SOL    HW122979   0.068   3.210   2.251 -2.6822  1.7866 -1.7275
 3781SOL    HW222980   4.698   3.286   2.323 -0.5661 -2.1718  2.7038
 3782SOL     OW22981   2.812   0.266   2.929 -0.1416 -0.1298 -0.0279
 3782SOL    HW122982   2.796   0.175   2.905 -2.1109 -0.0291  0.9501
 3782SOL    HW222983   2.817   0.259   3.024 -0.2755 -1.5962 -0.1381
 3783SOL     OW22984   1.056   0.319   5.282  0.5849  0.3937  0.3534
 3783SOL    HW122985   1.031   0.408   5.256 -2.1199 -0.4525  0.0709
 3783SOL    HW222986   0.973   0.304   5.327  2.2346  0.0810  3.2621
 3784SOL     OW22987   0.017   2.703  16.472 -0.8437 -0.1859  0.3037
 3784SOL    HW122988   0.100   2.735  16.438 -2.0272  3.3105  0.7365
 3784SOL    HW222989   4.700   2.766  16.424  0.2413  0.4448 -0.0947
 3785SOL     OW22990   3.685   0.950  11.910  0.2164  0.4403 -0.3209
 3785SOL    HW122991   3.625   1.024  11.921 -1.1523 -0.4835 -1.6637
 3785SOL    HW222992   3.769   0.982  11.945 -0.8451  1.8577  0.9107
 3786SOL     OW22993   4.060   3.040  12.932 -0.0101 -0.2208  0.8048
 3786SOL    HW122994   4.134   2.989  12.899  0.0601  2.5318 -3.3041
 3786SOL    HW222995   4.031   3.108  12.871 -1.0935  1.9251  3.6852
 3787SOL     OW22996   0.059   1.102  10.810  0.5912 -0.0505  0.0508
 3787SOL    HW122997   4.706   1.074  10.794  0.0654  2.1599 -0.8257
 3787SOL    HW222998   0.075   1.052  10.890 -0.5986 -0.3936  0.0631
 3788SOL     OW22999   0.183   2.970  15.756 -0.6589 -0.3805  0.2559
 3788SOL    HW123000   0.279   2.969  15.765 -0.5638 -1.2270 -0.7614
 3788SOL    HW223001   0.162   3.063  15.749 -1.2118 -0.5512 -0.2828
 3789SOL     OW23002   0.198   1.674   3.246  0.3444  0.1763  0.4572
 3789SOL    HW123003   0.267   1.728   3.207 -1.5016  2.9505  1.0005
 3789SOL    HW223004   0.245   1.593   3.229 -0.4962 -0.4991  1.4079
 3790SOL     OW23005   3.633   2.024  12.553 -0.2372 -0.1261  0.1757
 3790SOL    HW123006   3.678   2.023  12.637 -0.3490  2.2008  0.2616
 3790SOL    HW223007   3.664   2.108  12.519 -0.0017 -0.3067 -0.0593
 3791SOL     OW23008   0.058   2.887  14.048  0.3230 -0.2889 -0.1892
 3791SOL    HW123009   0.101   2.815  14.000 -0.0059 -1.8092  1.7953
 3791SOL    HW223010   0.094   2.884  14.136 -0.7564 -0.0204  0.2646
 3792SOL     OW23011   2.426   0.829   7.683 -0.8930 -0.1404  0.5165
 3792SOL    HW123012   2.334   0.855   7.677 -0.9413 -0.3265  0.4309
 3792SOL    HW223013   2.437   0.828   7.778 -1.1863  1.5650  0.5642
 3793SOL     OW23014   2.688   1.135   1.344  0.2445  0.3362 -0.0086
 3793SOL    HW123015   2.781   1.115   1.355  0.2880  0.8190  0.5014
 3793SOL    HW223016   2.642   1.094   1.418 -1.2526  1.5779 -0.2637
 3794SOL     OW23017   0.370   4.578   7.613  0.0605  0.4073 -0.0200
 3794SOL    HW123018   0.352   4.599   7.521  1.5924 -1.5028 -0.7512
 3794SOL    HW223019   0.307   4.637   7.655 -0.0267  0.2880  0.0167
 3795SOL     OW23020   1.801   4.034   7.725 -0.0067  0.2691 -0.4758
 3795SOL    HW123021   1.738   4.105   7.709  1.2732  1.8543  1.6198
 3795SOL    HW223022   1.882   4.084   7.731 -0.0924  0.2507  0.8234
 3796SOL     OW23023   1.282   3.232   7.878 -0.3040 -0.3532 -0.0334
 3796SOL    HW123024   1.234   3.151   7.867 -0.7269  0.0105 -0.8158
 3796SOL    HW223025   1.217   3.294   7.845 -0.5354 -0.7773 -0.3598
 3797SOL     OW23026   2.341   0.666  14.701  0.4443  0.1259  0.0116
 3797SOL    HW123027   2.399   0.632  14.770 -0.1003 -1.1719 -0.1730
 3797SOL    HW223028   2.400   0.734  14.669  1.5243 -1.4644 -1.4392
 3798SOL     OW23029   3.823   0.934   4.607 -0.3376 -0.2163 -0.6289
 3798SOL    HW123030   3.845   0.877   4.681 -3.9143  0.9780  1.3615
 3798SOL    HW223031   3.910   0.942   4.568 -0.7304  2.3332 -0.9503
 3799SOL     OW23032   0.070   1.664   3.011 -0.5029 -0.4026 -0.0092
 3799SOL    HW123033   0.107   1.713   3.085 -1.1152 -0.0408  0.0527
 3799SOL    HW223034   4.729   1.717   2.994  0.6641  1.6438  1.0470
 3800SOL     OW23035   1.037   4.069   3.331 -0.4548 -0.0921 -0.1444
 3800SOL    HW123036   1.127   4.100   3.321 -0.1492 -1.3006 -1.1140
 3800SOL    HW223037   0.999   4.137   3.386 -1.0592 -0.1574 -0.4783
 3801SOL     OW23038   0.230   3.938   1.644  0.3554 -0.2290  0.2393
 3801SOL    HW123039   0.205   3.938   1.551  0.8895  0.4015  0.0945
 3801SOL    HW223040   0.150   3.962   1.691 -0.1741  0.5327 -1.0465
 3802SOL     OW23041   3.195   0.282   2.809  0.5843 -0.5403 -0.7301
 3802SOL    HW123042   3.121   0.287   2.750  0.4876  1.1196 -0.4919
 3802SOL    HW223043   3.155   0.218   2.868 -0.2125  0.6722  0.0499
 3803SOL     OW23044   4.563   4.278   2.927  0.0773 -0.0822 -0.7746
 3803SOL    HW123045   4.653   4.305   2.946 -2.3334  3.9934  4.8388
 3803SOL    HW223046   4.511   4.339   2.979 -0.2210 -2.1927  1.4351
 3804SOL     OW23047   1.492   2.506   7.320  0.4021 -0.2759 -0.2183
 3804SOL    HW123048   1.561   2.439   7.325  1.1992  0.5284 -0.5303
 3804SOL    HW223049   1.451   2.505   7.407 -3.2095 -1.1236 -1.9322
 3805SOL     OW23050   3.961   3.031   5.484  0.4416  0.6225 -0.4827
 3805SOL    HW123051   3.936   3.015   5.575  0.5116  2.6307 -0.1002
 3805SOL    HW223052   4.056   3.024   5.496  0.3114 -3.2651 -1.6824
 3806SOL     OW23053   4.256   0.421   4.637  0.2681  0.2025 -0.4827
 3806SOL    HW123054   4.182   0.480   4.630  1.0932  1.3563  0.4779
 3806SOL    HW223055   4.263   0.408   4.732 -1.0540  0.5435 -0.3331
 3807SOL     OW23056   4.397   2.411  17.537  0.2888  0.2186 -0.1023
 3807SOL    HW123057   4.342   2.386  17.463  0.1708 -1.2028  0.4624
 3807SOL    HW223058   4.461   2.341  17.524  0.8261  1.0849 -2.1704
 3808SOL     OW23059   3.824   1.678  10.134  0.1145 -0.3932 -0.1281
 3808SOL    HW123060   3.886   1.750  10.128  0.4063 -0.4070  3.1836
 3808SOL    HW223061   3.854   1.621  10.062  1.7818 -1.2967  1.2836
 3809SOL     OW23062   0.101   1.768  10.490  0.1572 -0.2672  0.3450
 3809SOL    HW123063   0.055   1.801  10.567  0.8122 -1.8482  1.3960
 3809SOL    HW223064   0.086   1.674  10.486  2.2317 -0.5430 -1.0091
 3810SOL     OW23065   2.866   1.580   3.802 -0.1545  0.3650 -0.0213
 3810SOL    HW123066   2.953   1.555   3.771  0.5208 -0.6315  2.7007
 3810SOL    HW223067   2.867   1.675   3.811  2.1182  0.4268 -0.7177
 3811SOL     OW23068   4.144   1.184   2.701  0.3689 -0.1302 -0.0476
 3811SOL    HW123069   4.239   1.196   2.699  0.2191  0.8055 -1.8227
 3811SOL    HW223070   4.151   1.106   2.756 -3.9156  0.0099  0.7180
 3812SOL     OW23071   3.783   0.444   2.429 -0.2248 -0.2512 -0.6519
 3812SOL    HW123072   3.794   0.524   2.379  1.9080  0.1450  0.4632
 3812SOL    HW223073   3.835   0.474   2.504  0.0424 -1.2231 -0.4471
 3813SOL     OW23074   1.686   2.943   2.432 -0.1808  0.0878 -0.2337
 3813SOL    HW123075   1.596   2.926   2.459 -0.1325 -0.7137 -0.5879
 3813SOL    HW223076   1.674   2.925   2.339  0.9838  0.3815 -0.4383
 3814SOL     OW23077   0.504   4.399   4.295 -0.2585  0.3631 -0.0253
 3814SOL    HW123078   0.562   4.326   4.275 -1.4168 -0.3876 -0.6729
 3814SOL    HW223079   0.569   4.465   4.270  1.0836 -1.7503 -2.1553
 3815SOL     OW23080   4.595   4.260   7.853  0.0722  0.5713  0.0029
 3815SOL    HW123081   4.614   4.186   7.911  1.2330  0.1407 -0.9296
 3815SOL    HW223082   4.528   4.225   7.794  0.6376  1.3082 -1.0628
 3816SOL     OW23083   1.871   0.298   5.454 -0.0129  0.2023 -0.4990
 3816SOL    HW123084   1.921   0.378   5.469 -2.6381  1.5000  1.4433
 3816SOL    HW223085   1.780   0.325   5.467 -0.7423 -0.7598 -3.6167
 3817SOL     OW23086   0.265   3.588   3.440 -0.3534  0.2543 -0.8076
 3817SOL    HW123087   0.351   3.546   3.435  0.4333  1.7411  0.3045
 3817SOL    HW223088   0.204   3.530   3.395  0.3802 -0.7950 -0.4438
 3818SOL     OW23089   3.251   2.805   7.298 -0.3130  0.0472 -0.0290
 3818SOL    HW123090   3.245   2.799   7.203  2.3100  0.6800 -0.2380
 3818SOL    HW223091   3.184   2.740   7.318  1.2101 -1.6533 -0.4535
 3819SOL     OW23092   4.125   1.025   8.535 -0.2774  0.4265  0.6313
 3819SOL    HW123093   4.218   1.046   8.536 -0.3901  0.9339  0.4009
 3819SOL    HW223094   4.110   1.040   8.629 -0.9569 -0.7415  0.7081
 3820SOL     OW23095   2.661   0.520   5.212  0.6929  0.0881  0.1037
 3820SOL    HW123096   2.706   0.511   5.296  0.2198 -2.2278  0.1268
 3820SOL    HW223097   2.722   0.470   5.158  1.3241  0.3913  0.5467
 3821SOL     OW23098   2.476   1.098   7.916  0.3035  0.3612  0.2409
 3821SOL    HW123099   2.399   1.105   7.859  0.0321 -2.5925  0.2500
 3821SOL    HW223100   2.491   1.189   7.938  1.3107  0.1570  0.3724
 3822SOL     OW23101   2.263   0.616  10.429 -0.5064  0.2913 -0.4101
 3822SOL    HW123102   2.252   0.699  10.384  0.9898 -0.2785 -1.8201
 3822SOL    HW223103   2.283   0.661  10.511  1.1720 -0.2347 -0.5342
 3823SOL     OW23104   3.149   0.234   9.348 -0.5875  0.5149  0.2185
 3823SOL    HW123105   3.175   0.200   9.434 -0.2233  1.7121  0.5852
 3823SOL    HW223106   3.094   0.159   9.325  2.0287 -1.2995 -0.1461
 3824SOL     OW23107   3.851   2.804   6.231 -0.7690  0.2021 -0.3672
 3824SOL    HW123108   3.855   2.786   6.325 -0.0760 -0.4002 -0.5158
 3824SOL    HW223109   3.804   2.725   6.206  2.8843 -1.7625 -0.9656
 3825SOL     OW23110   0.392   1.975  16.168  0.3582 -0.5540  0.0724
 3825SOL    HW123111   0.393   1.962  16.262  0.0543  3.1628  0.6138
 3825SOL    HW223112   0.468   2.032  16.157  0.2222 -0.5195 -0.7361
 3826SOL     OW23113   4.158   0.140   5.488  0.1046  0.4690 -0.3743
 3826SOL    HW123114   4.081   0.138   5.545  0.0282 -1.1359 -0.5469
 3826SOL    HW223115   4.207   0.061   5.512 -0.7725  0.6741  2.1294
 3827SOL     OW23116   2.443   0.156   6.121 -0.1126 -0.1410  0.0914
 3827SOL    HW123117   2.471   0.066   6.135  1.3553 -0.0464 -2.3090
 3827SOL    HW223118   2.527   0.193   6.095  1.3933 -2.4959  1.5804
 3828SOL     OW23119   2.096   1.895  11.045  0.3663 -0.4164  0.3612
 3828SOL    HW123120   2.094   1.904  10.950 -0.1795  2.1746  0.6431
 3828SOL    HW223121   2.190   1.878  11.056  0.7481  3.0995  2.5603
 3829SOL     OW23122   3.571   3.488   4.465 -0.2826 -0.5404 -0.2653
 3829SOL    HW123123   3.615   3.468   4.383 -0.0055  0.0415 -0.2596
 3829SOL    HW223124   3.493   3.538   4.439  0.0212  0.3830  0.5871
 3830SOL     OW23125   1.062   3.794   2.788  0.3702 -0.2036  0.2190
 3830SOL    HW123126   1.157   3.786   2.789  0.3529 -0.1235  2.3390
 3830SOL    HW223127   1.047   3.889   2.780  2.1627 -0.1189 -2.2262
 3831SOL     OW23128   0.773   0.652  13.890  0.5157 -0.5279  0.0647
 3831SOL    HW123129   0.860   0.691  13.897  0.0041  0.3880  1.2630
 3831SOL    HW223130   0.715   0.720  13.924 -1.0100 -0.7715 -2.0565
 3832SOL     OW23131   4.169   1.873   5.375  0.0259 -0.5822  0.6555
 3832SOL    HW123132   4.085   1.832   5.355 -0.2813  1.0828 -1.4822
 3832SOL    HW223133   4.173   1.941   5.307  0.0937 -0.2083  1.0296
 3833SOL     OW23134   2.193   3.305   4.679  0.1250  0.1707  0.0102
 3833SOL    HW123135   2.112   3.296   4.628  0.9247  0.4190 -1.2889
 3833SOL    HW223136   2.255   3.288   4.608  0.2743  1.1831 -0.1000
 3834SOL     OW23137   0.045   4.271   4.414  0.1349  0.0905  0.7375
 3834SOL    HW123138   0.079   4.317   4.337  0.1558  1.3888  1.5296
 3834SOL    HW223139   4.736   4.343   4.457  0.9189  0.6494  0.6316
 3835SOL     OW23140   1.675   1.679   8.639  0.1546 -0.2036 -0.5755
 3835SOL    HW123141   1.621   1.638   8.571 -2.1546 -1.0825  1.7896
 3835SOL    HW223142   1.670   1.610   8.705  2.1571 -3.0389 -3.3683
 3836SOL     OW23143   0.478   0.798   2.935  0.1225  0.0433  0.8681
 3836SOL    HW123144   0.449   0.830   2.850 -0.3746  0.4127  1.1698
 3836SOL    HW223145   0.559   0.748   2.929  0.2423  0.3153  0.2794
 3837SOL     OW23146   4.604   0.850   7.277 -0.3420  0.4711 -0.3060
 3837SOL    HW123147   4.531   0.891   7.229 -1.8722 -2.4722 -0.4816
 3837SOL    HW223148   4.678   0.887   7.228 -0.7032 -0.1233 -1.3159
 3838SOL     OW23149   1.878   0.905   7.729 -0.6444  0.2986  0.3619
 3838SOL    HW123150   1.816   0.833   7.744 -1.5451  1.1103  0.4827
 3838SOL    HW223151   1.861   0.935   7.640 -0.5586  2.0001  0.9240
 3839SOL     OW23152   0.690   3.655   6.785 -0.0958  0.0904  0.0112
 3839SOL    HW123153   0.644   3.726   6.742  0.6650  0.8264  0.4173
 3839SOL    HW223154   0.728   3.611   6.709 -2.5661  1.1962 -1.8473
 3840SOL     OW23155   0.456   3.584  14.354 -0.4802  0.5089  0.4104
 3840SOL    HW123156   0.498   3.665  14.381 -1.8100  0.9736  1.0770
 3840SOL    HW223157   0.373   3.606  14.396  0.4086  0.4409  2.1770
 3841SOL     OW23158   3.845   0.780   5.640 -0.1692  0.1335  0.7408
 3841SOL    HW123159   3.836   0.695   5.596  0.7618 -0.5641  1.8784
 3841SOL    HW223160   3.939   0.801   5.641 -0.2664  0.5464  1.0670
 3842SOL     OW23161   3.765   4.253   4.220 -0.3973  0.1170  0.1551
 3842SOL    HW123162   3.707   4.281   4.291 -0.4062 -0.3850  0.3413
 3842SOL    HW223163   3.722   4.179   4.177  0.2045 -0.7351  1.0209
 3843SOL     OW23164   3.484   1.213   3.878  0.0872  0.5373 -0.2390
 3843SOL    HW123165   3.467   1.195   3.971 -1.1638 -1.1659 -0.7936
 3843SOL    HW223166   3.532   1.134   3.852  0.8482  0.5494  1.1286
 3844SOL     OW23167   2.934   1.266   5.360 -0.3934  0.1770  0.1546
 3844SOL    HW123168   2.843   1.291   5.378  0.4962  1.9733  2.2196
 3844SOL    HW223169   2.935   1.170   5.361 -0.1110  0.1640 -1.2913
 3845SOL     OW23170   3.055   0.492  14.789  0.0248 -0.6049  0.1709
 3845SOL    HW123171   3.092   0.580  14.800 -1.6420 -0.1260  1.9663
 3845SOL    HW223172   3.065   0.500  14.694 -1.8668  1.6335  0.1439
 3846SOL     OW23173   2.863   4.071   5.475  0.0894  0.1880 -0.4453
 3846SOL    HW123174   2.783   4.020   5.485  1.5775 -2.1121 -0.2583
 3846SOL    HW223175   2.894   4.049   5.387  1.5444  2.7570 -0.5850
 3847SOL     OW23176   3.606   3.192   5.365 -0.4999 -0.1475 -0.1724
 3847SOL    HW123177   3.637   3.111   5.323  1.0167 -0.8984  2.4214
 3847SOL    HW223178   3.691   3.230   5.384 -1.7134  1.2692  2.4298
 3848SOL     OW23179   2.890   2.052  17.165  0.4613  0.0191  0.1696
 3848SOL    HW123180   2.951   2.109  17.212 -0.2809 -0.5534  1.8254
 3848SOL    HW223181   2.811   2.082  17.209 -0.1113 -0.2021 -0.7260
 3849SOL     OW23182   0.384   0.209   4.455 -0.0796 -0.0818  0.3553
 3849SOL    HW123183   0.331   0.195   4.377  1.5588  0.9333 -0.9500
 3849SOL    HW223184   0.366   0.121   4.489  2.9594 -1.2323 -0.9365
 3850SOL     OW23185   4.058   0.991   6.218  0.0765  0.0701  0.0299
 3850SOL    HW123186   4.132   0.992   6.279  1.2607  2.5208 -1.4765
 3850SOL    HW223187   4.024   1.079   6.235  0.2626 -0.3226  2.5039
 3851SOL     OW23188   2.476   0.518  17.182  0.6324  0.7613 -0.2390
 3851SOL    HW123189   2.568   0.541  17.172  0.5109  0.9246 -0.9934
 3851SOL    HW223190   2.457   0.576  17.256  0.5045  1.8559 -1.1324
 3852SOL     OW23191   3.590   0.258   4.641 -0.1502  0.1638 -0.1168
 3852SOL    HW123192   3.655   0.211   4.588  0.2219  0.4413  0.0930
 3852SOL    HW223193   3.640   0.278   4.720 -1.3355 -0.8393  0.8854
 3853SOL     OW23194   3.029   1.691   7.414  0.1568 -0.2253 -0.1034
 3853SOL    HW123195   3.100   1.646   7.367  0.1250 -2.0996  1.6521
 3853SOL    HW223196   2.951   1.640   7.391  0.8877 -1.3968  0.0447
 3854SOL     OW23197   4.677   1.818   4.890  0.0101  0.0640 -0.0625
 3854SOL    HW123198   4.611   1.836   4.823  2.2816  1.1843 -1.9851
 3854SOL    HW223199   4.688   1.723   4.881  0.3051  0.1343 -0.4146
 3855SOL     OW23200   3.729   0.736   5.923  0.0226  0.3968 -0.4081
 3855SOL    HW123201   3.790   0.803   5.954  0.0948  0.2027 -0.1258
 3855SOL    HW223202   3.760   0.727   5.833 -4.7403 -1.7873 -1.8295
 3856SOL     OW23203   1.048   3.784   0.220  0.1501 -0.1063  0.2003
 3856SOL    HW123204   0.994   3.861   0.203 -1.0102 -0.7798  0.7939
 3856SOL    HW223205   1.058   3.777   0.315 -0.6094 -3.9304  0.0222
 3857SOL     OW23206   0.487   2.827   7.375  0.9405 -0.3619  0.1369
 3857SOL    HW123207   0.391   2.828   7.371  0.8929  1.6101  1.5077
 3857SOL    HW223208   0.498   2.921   7.391  2.3317 -0.4930 -0.0714
 3858SOL     OW23209   1.688   0.118   5.772  0.0732  0.5150  0.1403
 3858SOL    HW123210   1.719   0.073   5.851 -2.5180 -1.2141  0.1766
 3858SOL    HW223211   1.663   0.204   5.807 -1.4023  1.3647 -3.0326
 3859SOL     OW23212   3.345   1.880   3.658 -0.7319  0.0223 -0.3456
 3859SOL    HW123213   3.416   1.827   3.694 -1.0410 -0.7913 -0.9448
 3859SOL    HW223214   3.306   1.904   3.742 -0.0440  1.1474 -0.3363
 3860SOL     OW23215   3.180   2.565  11.266  0.1271  0.4145  0.3936
 3860SOL    HW123216   3.185   2.586  11.359 -1.7172 -3.2123  1.3085
 3860SOL    HW223217   3.089   2.537  11.256 -0.3204  2.3530 -1.0410
 3861SOL     OW23218   0.730   0.166  11.591  0.0083  0.0588  0.1820
 3861SOL    HW123219   0.785   0.151  11.667  0.3425  3.9894  0.7330
 3861SOL    HW223220   0.707   0.079  11.557 -0.3556  0.3353 -0.2864
 3862SOL     OW23221   2.992   1.450   4.955  0.3591  0.3911  0.1350
 3862SOL    HW123222   3.036   1.467   5.039 -1.8900  1.2519  1.1585
 3862SOL    HW223223   3.051   1.391   4.909 -0.0183 -0.6618  0.9768
 3863SOL     OW23224   1.250   1.867   4.929  0.5786 -0.3001  0.2818
 3863SOL    HW123225   1.164   1.842   4.896  0.7930 -1.3832  0.5262
 3863SOL    HW223226   1.274   1.933   4.865 -1.0935  0.9131  0.8980
 3864SOL     OW23227   2.055   0.928   4.274  0.3385  0.1410  0.2452
 3864SOL    HW123228   2.092   1.014   4.295  0.3413 -0.4966  2.7711
 3864SOL    HW223229   1.996   0.915   4.348  0.3916 -2.7740 -0.2443
 3865SOL     OW23230   4.168   0.959   5.183 -0.4109 -0.3732  0.3765
 3865SOL    HW123231   4.216   1.029   5.137 -0.2165 -1.1357 -0.5780
 3865SOL    HW223232   4.116   0.997   5.254 -1.2985 -2.0268  0.5966
 3866SOL     OW23233   4.116   1.391   5.937  0.4525 -0.3869 -0.4653
 3866SOL    HW123234   4.059   1.456   5.896 -1.3398 -1.2962  0.5493
 3866SOL    HW223235   4.200   1.414   5.899 -0.4689  0.7448 -1.8055
 3867SOL     OW23236   2.318   0.460   8.637 -0.4229 -0.0750 -0.5409
 3867SOL    HW123237   2.299   0.449   8.730 -0.7070  0.5470 -0.5289
 3867SOL    HW223238   2.405   0.422   8.624  0.1768  0.1670  2.7057
 3868SOL     OW23239   2.772   4.398   8.344  0.6121 -0.0848 -0.3162
 3868SOL    HW123240   2.854   4.350   8.348  1.5201  1.5912  1.3194
 3868SOL    HW223241   2.714   4.324   8.324  3.9260 -2.6622 -0.3826
 3869SOL     OW23242   1.030   3.753  12.287  0.6374 -0.4547  0.1354
 3869SOL    HW123243   1.067   3.757  12.375 -0.4598  0.3905  0.5576
 3869SOL    HW223244   0.986   3.668  12.291  0.0018 -0.0506  1.6860
 3870SOL     OW23245   1.924   0.604   8.021  0.1517 -0.6479 -0.0908
 3870SOL    HW123246   1.949   0.582   8.111 -0.1079  0.4672  0.2518
 3870SOL    HW223247   1.839   0.647   8.031 -0.7655 -2.3980 -0.2522
 3871SOL     OW23248   2.245   0.408   4.584  0.1737 -0.1590 -0.5372
 3871SOL    HW123249   2.170   0.425   4.640  1.2885  0.7847  0.6547
 3871SOL    HW223250   2.277   0.494   4.557 -0.0209 -0.0887 -0.5490
 3872SOL     OW23251   3.000   0.681  17.139 -0.6045 -0.5053  0.4748
 3872SOL    HW123252   2.933   0.723  17.193  1.2183 -1.2460  3.3331
 3872SOL    HW223253   2.938   0.660  17.069 -0.7589 -0.3932  0.5781
 3873SOL     OW23254   2.680   4.187   2.249 -0.1754  0.3247  0.3578
 3873SOL    HW123255   2.653   4.146   2.167 -1.6966 -2.1829  2.1033
 3873SOL    HW223256   2.597   4.225   2.277  0.8698  1.8871  1.3366
 3874SOL     OW23257   2.282   2.802   5.467  0.5888 -0.0251  0.0235
 3874SOL    HW123258   2.266   2.722   5.515  1.2590  0.4271  0.9927
 3874SOL    HW223259   2.195   2.840   5.452  0.8741  0.7385  0.3241
 3875SOL     OW23260   3.280   0.005   3.218 -0.3108 -0.2791  0.3415
 3875SOL    HW123261   3.225   4.678   3.172 -1.2471  1.0082 -0.3069
 3875SOL    HW223262   3.357   4.684   3.225  0.6545  1.1246  1.3195
 3876SOL     OW23263   3.542   0.494  15.703 -0.5107  0.3833  0.3955
 3876SOL    HW123264   3.581   0.579  15.721  1.7706 -1.0097  2.1534
 3876SOL    HW223265   3.607   0.458  15.643 -1.2533 -0.1939 -0.0680
 3877SOL     OW23266   0.215   2.762   6.771  0.2300  0.1009 -0.1138
 3877SOL    HW123267   0.297   2.780   6.818 -0.5763 -0.9386  1.6894
 3877SOL    HW223268   0.246   2.717   6.693  0.8418  1.4215 -0.6296
 3878SOL     OW23269   3.324   3.898  10.064  0.2312 -0.4496  0.4658
 3878SOL    HW123270   3.275   3.917  10.145  0.7926  0.4029  0.6109
 3878SOL    HW223271   3.412   3.888  10.101  1.2540 -0.9840 -2.1724
 3879SOL     OW23272   1.947   1.739  11.181  0.6033 -0.2673 -0.3799
 3879SOL    HW123273   1.862   1.775  11.158  0.0293 -1.7910 -0.6801
 3879SOL    HW223274   2.002   1.807  11.143  0.9556  0.5479  1.5920
 3880SOL     OW23275   1.675   4.570  15.823  0.0412 -0.0428  0.1676
 3880SOL    HW123276   1.617   4.497  15.798  1.2886 -0.0806 -2.5932
 3880SOL    HW223277   1.635   4.630  15.761  0.0260 -0.7516 -0.5105
 3881SOL     OW23278   3.519   2.524   4.461  0.3294 -0.2325 -0.5689
 3881SOL    HW123279   3.567   2.519   4.544  1.7609  1.5619 -1.3001
 3881SOL    HW223280   3.539   2.612   4.430  0.3068  0.0556  0.2326
 3882SOL     OW23281   1.928   2.159   0.741 -0.9599 -0.6156  0.3396
 3882SOL    HW123282   2.005   2.154   0.798  0.0266  1.1355 -0.8223
 3882SOL    HW223283   1.864   2.145   0.810 -0.6144 -0.1314  0.7666
 3883SOL     OW23284   3.703   0.893   7.917  0.1559 -0.3027  0.2279
 3883SOL    HW123285   3.742   0.817   7.960 -0.9485 -1.0762 -0.1219
 3883SOL    HW223286   3.782   0.905   7.865 -0.0339 -1.7298 -0.4028
 3884SOL     OW23287   2.143   2.245   7.434  0.7309  0.0886 -0.2234
 3884SOL    HW123288   2.193   2.170   7.468  0.4259  1.6585  3.6337
 3884SOL    HW223289   2.117   2.292   7.513  0.5322 -0.7366  0.1990
 3885SOL     OW23290   4.605   3.123  10.943  0.0873 -0.6774  0.0559
 3885SOL    HW123291   4.528   3.176  10.923  0.4427 -1.0167 -2.1859
 3885SOL    HW223292   4.663   3.154  10.873 -0.2835  2.9002  1.3498
 3886SOL     OW23293   2.835   2.169  10.553 -0.5903 -0.2826  0.4304
 3886SOL    HW123294   2.762   2.207  10.505  0.0321 -0.0279 -0.3271
 3886SOL    HW223295   2.907   2.159  10.490 -0.5033 -1.3921  0.6963
 3887SOL     OW23296   2.571   4.152   5.674 -0.1048  0.1462  0.6092
 3887SOL    HW123297   2.505   4.087   5.651 -1.6953  1.2672  1.9616
 3887SOL    HW223298   2.552   4.225   5.615  0.6545  0.1499  0.3745
 3888SOL     OW23299   1.777   3.123   4.087  0.3934 -0.4144  0.1094
 3888SOL    HW123300   1.848   3.141   4.148 -0.8583 -0.2221  1.5074
 3888SOL    HW223301   1.777   3.206   4.040 -2.9956 -0.1965  0.4817
 3889SOL     OW23302   4.328   4.159  13.421  0.1931  0.4301 -1.1164
 3889SOL    HW123303   4.244   4.176  13.378 -0.4421  1.8804  0.6993
 3889SOL    HW223304   4.380   4.202  13.353 -1.0945  2.8759 -0.5788
 3890SOL     OW23305   1.327   0.972   5.638 -0.6605 -0.5225  0.5727
 3890SOL    HW123306   1.330   0.936   5.726  1.8628 -0.0254  0.6829
 3890SOL    HW223307   1.262   0.916   5.595  0.5660 -0.3325 -1.5029
 3891SOL     OW23308   0.910   3.006   4.991  0.1258  0.4423  0.6154
 3891SOL    HW123309   0.955   3.060   5.056  1.4798 -0.6696  0.6072
 3891SOL    HW223310   0.970   3.006   4.916 -1.1568  0.1404 -0.4065
 3892SOL     OW23311   2.218   3.028   2.494 -0.6850  0.4927 -0.4720
 3892SOL    HW123312   2.273   3.082   2.552 -1.6866  0.4534  0.5161
 3892SOL    HW223313   2.265   2.946   2.483 -0.3643  0.7033 -0.6516
 3893SOL     OW23314   0.911   1.774   8.775 -0.1711  0.1326 -0.5038
 3893SOL    HW123315   0.900   1.832   8.851  1.1612  2.4424 -2.0689
 3893SOL    HW223316   0.854   1.705   8.808 -0.0682  0.8302  1.1572
 3894SOL     OW23317   1.046   0.481   3.746  0.2649 -0.3035 -0.2368
 3894SOL    HW123318   1.097   0.498   3.667 -1.6641 -1.6827 -1.7686
 3894SOL    HW223319   1.118   0.478   3.810  1.5345 -0.9651 -1.6865
 3895SOL     OW23320   2.602   1.752   4.267  0.7788 -0.0880  0.1371
 3895SOL    HW123321   2.510   1.755   4.296  0.1586 -0.8233 -1.7684
 3895SOL    HW223322   2.638   1.677   4.314 -0.3678 -0.4693  0.3990
 3896SOL     OW23323   4.111   1.723  12.795 -0.5556 -0.1608 -0.0984
 3896SOL    HW123324   4.187   1.664  12.786  0.1253  1.2175 -3.1989
 3896SOL    HW223325   4.037   1.663  12.787 -1.7870  1.4382 -0.3802
 3897SOL     OW23326   3.087   4.510  14.812  0.1680  0.6576  0.0565
 3897SOL    HW123327   3.126   4.574  14.751 -0.0767  1.1355  0.4085
 3897SOL    HW223328   3.123   4.432  14.770 -2.0600 -0.0095 -0.6107
 3898SOL     OW23329   4.512   0.596   6.636 -0.1577 -0.8317 -0.4662
 3898SOL    HW123330   4.588   0.623   6.584  0.9986 -2.5594  0.3617
 3898SOL    HW223331   4.523   0.511   6.678  0.2797  1.5749  4.2684
 3899SOL     OW23332   1.783   3.909   4.325 -0.0404  0.2431  0.0055
 3899SOL    HW123333   1.838   3.838   4.357 -0.3715  0.3698  0.8599
 3899SOL    HW223334   1.720   3.861   4.272  1.0926 -2.1617  0.8671
 3900SOL     OW23335   2.840   1.531   1.225  0.1516  0.2785 -0.0270
 3900SOL    HW123336   2.882   1.599   1.278  1.9242 -0.7675 -0.0987
 3900SOL    HW223337   2.752   1.566   1.216  0.3791  0.0338 -3.4265
 3901SOL     OW23338   3.782   2.595  16.486  0.3290  0.1936  0.3313
 3901SOL    HW123339   3.841   2.523  16.468 -1.6664 -1.2602 -0.4369
 3901SOL    HW223340   3.836   2.631  16.556  1.6928 -0.1117 -0.5865
 3902SOL     OW23341   2.067   2.472  11.942  0.1675  0.0005  0.0934
 3902SOL    HW123342   1.997   2.519  11.896 -1.1736 -1.9713  0.1396
 3902SOL    HW223343   2.120   2.535  11.991  1.1362 -0.6363 -0.1351
 3903SOL     OW23344   4.601   0.097   0.780 -0.6251  0.2545 -0.4189
 3903SOL    HW123345   4.674   0.054   0.735 -1.0539  1.9116 -2.6708
 3903SOL    HW223346   4.546   0.022   0.803 -1.8711  1.5599  0.7915
 3904SOL     OW23347   1.304   3.803  13.747  0.0944  0.8438 -0.2969
 3904SOL    HW123348   1.339   3.858  13.676 -1.1944 -0.2531 -1.8012
 3904SOL    HW223349   1.263   3.866  13.807 -1.1802 -0.7499  0.4985
 3905SOL     OW23350   4.255   3.335  14.254  0.0746 -0.5053  0.6514
 3905SOL    HW123351   4.182   3.367  14.202  0.0405 -0.0526  0.9811
 3905SOL    HW223352   4.281   3.253  14.211  2.9163  0.9405 -0.3821
 3906SOL     OW23353   3.927   1.202   4.032 -0.1163 -1.1744 -0.3780
 3906SOL    HW123354   3.920   1.166   3.944 -0.4094 -0.7782 -0.5213
 3906SOL    HW223355   3.897   1.289   4.006  1.9434  1.0863  4.9122
 3907SOL     OW23356   0.858   1.858   8.397  0.3375  0.1083  0.0739
 3907SOL    HW123357   0.923   1.796   8.430  0.9240 -0.0018 -1.3008
 3907SOL    HW223358   0.777   1.826   8.435  0.3964  0.0818  0.1758
 3908SOL     OW23359   0.658   3.018   2.716  0.4080  0.3485  0.0209
 3908SOL    HW123360   0.596   3.056   2.655  1.3806  0.0652 -1.1440
 3908SOL    HW223361   0.740   3.051   2.680  1.6106 -2.4626  0.1456
 3909SOL     OW23362   0.788   2.207   6.739  0.0178 -0.8267  0.2693
 3909SOL    HW123363   0.835   2.123   6.737  0.9290 -0.3637  2.1660
 3909SOL    HW223364   0.697   2.183   6.758  0.0175 -2.2694 -1.4670
 3910SOL     OW23365   2.884   1.945   0.296  0.2574  0.3646 -0.5824
 3910SOL    HW123366   2.805   1.909   0.255 -1.7712  2.2112  1.8020
 3910SOL    HW223367   2.945   1.958   0.222  1.3229 -0.3385  0.1649
 3911SOL     OW23368   0.909   2.821   2.835 -0.5105 -0.0624 -0.4476
 3911SOL    HW123369   0.879   2.733   2.815 -1.0677 -0.4826  2.2754
 3911SOL    HW223370   0.880   2.868   2.757  1.3495 -0.5637 -1.4304
 3912SOL     OW23371   0.076   1.028   1.097 -0.2544 -0.6885 -0.4108
 3912SOL    HW123372   0.041   0.987   1.176  2.4811  0.4222  1.3785
 3912SOL    HW223373   4.729   1.033   1.050 -0.6936  0.1296  0.4734
 3913SOL     OW23374   0.908   0.303   8.027  0.1279  0.4723  0.3298
 3913SOL    HW123375   0.876   0.237   8.090 -1.5323  0.3428 -0.6374
 3913SOL    HW223376   0.987   0.262   7.993 -0.6580  0.1181 -1.0843
 3914SOL     OW23377   0.807   2.116   5.867 -0.0049  0.2417 -0.1626
 3914SOL    HW123378   0.885   2.132   5.815  1.2689 -2.3088  0.9688
 3914SOL    HW223379   0.807   2.021   5.880 -0.5861  0.2419 -0.1531
 3915SOL     OW23380   3.370   3.008  17.672  0.1237 -0.1850 -0.0851
 3915SOL    HW123381   3.382   2.942  17.603 -0.9802 -0.8729  0.3801
 3915SOL    HW223382   3.286   3.047  17.649  0.6747  0.4840 -0.9820
 3916SOL     OW23383   3.207   0.281  14.191  0.4296  0.3001 -0.9102
 3916SOL    HW123384   3.271   0.351  14.181 -1.0653  1.6423 -1.0211
 3916SOL    HW223385   3.191   0.250  14.102 -0.0523  1.3264 -1.1686
 3917SOL     OW23386   3.341   4.443   2.955  0.4738  0.2565  0.1112
 3917SOL    HW123387   3.372   4.354   2.938 -2.3610 -0.7836  0.3734
 3917SOL    HW223388   3.369   4.449   3.046 -1.7034  0.0569  0.7931
 3918SOL     OW23389   0.938   3.928   5.849  0.1592 -0.3476 -0.0523
 3918SOL    HW123390   0.878   3.867   5.891  0.0493 -0.2886 -0.1240
 3918SOL    HW223391   0.904   3.943   5.761 -0.4236 -0.8965  0.0870
 3919SOL     OW23392   1.037   3.517  11.099  0.2026 -0.4201  0.5299
 3919SOL    HW123393   0.972   3.550  11.161  1.6362  0.4549  1.5632
 3919SOL    HW223394   1.048   3.577  11.025  1.5222 -2.3432 -0.8289
 3920SOL     OW23395   1.185   2.251   6.294 -0.8449 -0.1075  0.7264
 3920SOL    HW123396   1.104   2.249   6.244 -1.2216 -0.8052  1.3686
 3920SOL    HW223397   1.235   2.187   6.244 -0.1929  1.1041 -0.1711
 3921SOL     OW23398   2.571   4.606   3.001 -0.1914  0.1778  0.8687
 3921SOL    HW123399   2.509   4.574   3.066 -2.3516  1.1557 -0.7280
 3921SOL    HW223400   2.584   4.693   3.037  0.4632  1.4071 -2.3068
 3922SOL     OW23401   2.344   2.090   7.819 -0.5642 -0.0083 -0.3946
 3922SOL    HW123402   2.296   2.041   7.886 -0.4180  0.9549  0.3989
 3922SOL    HW223403   2.296   2.071   7.739 -1.1566  1.7395 -0.4315
 3923SOL     OW23404   1.124   4.425   6.517  0.5530 -0.5434  0.2041
 3923SOL    HW123405   1.168   4.375   6.447 -0.5030 -1.3023  0.0810
 3923SOL    HW223406   1.046   4.456   6.472  0.8526 -1.2691 -0.8361
 3924SOL     OW23407   0.685   3.248  13.333 -0.2585  0.1477  0.0745
 3924SOL    HW123408   0.647   3.166  13.303  0.5743 -0.1618 -0.1004
 3924SOL    HW223409   0.646   3.250  13.421  0.8245 -0.4193  0.5656
 3925SOL     OW23410   2.162   2.989   4.866  0.2192  0.6190  0.2248
 3925SOL    HW123411   2.147   2.995   4.772  0.2122 -1.0461  0.1213
 3925SOL    HW223412   2.184   2.897   4.884  1.0790  0.8654  0.4367
 3926SOL     OW23413   4.168   0.789   5.594  0.0079  0.3345 -0.2693
 3926SOL    HW123414   4.255   0.772   5.559  0.4041 -0.4831  1.1175
 3926SOL    HW223415   4.189   0.873   5.636 -0.6104 -0.0379  0.7819
 3927SOL     OW23416   1.841   0.123   4.700 -0.3185 -0.1405 -0.0390
 3927SOL    HW123417   1.894   0.055   4.742  0.0764 -1.3625 -2.4743
 3927SOL    HW223418   1.860   0.200   4.753 -0.0529 -0.2484  0.0191
 3928SOL     OW23419   2.368   3.324   9.331  0.4026  0.0115  0.0869
 3928SOL    HW123420   2.437   3.390   9.329  0.5890 -0.1865 -0.0871
 3928SOL    HW223421   2.411   3.256   9.384  0.5414  0.8118  1.0120
 3929SOL     OW23422   4.315   0.048  11.777 -0.6094  0.0642  0.1607
 3929SOL    HW123423   4.380   4.729  11.821  1.7318  1.7237 -1.1404
 3929SOL    HW223424   4.294   0.105  11.851  2.5361  0.1147  1.0602
 3930SOL     OW23425   0.688   1.945   7.870 -0.4231 -0.3484 -0.0218
 3930SOL    HW123426   0.690   1.893   7.789  0.8222  0.3421 -0.4338
 3930SOL    HW223427   0.720   2.029   7.837  1.4775 -0.9479  0.3108
 3931SOL     OW23428   1.329   4.627   6.910  0.6565 -0.0989 -0.0462
 3931SOL    HW123429   1.244   4.616   6.869  0.2163  0.2760  0.7659
 3931SOL    HW223430   1.330   4.547   6.963  1.2696 -0.4784 -0.6290
 3932SOL     OW23431   4.730   1.255   2.246  0.0132  0.1329  0.0887
 3932SOL    HW123432   0.068   1.300   2.286  0.4366  0.8609 -1.5230
 3932SOL    HW223433   4.719   1.297   2.161  0.4661  0.1227  0.0265
 3933SOL     OW23434   0.374   4.284  16.654  0.0090  0.3138  0.4101
 3933SOL    HW123435   0.450   4.228  16.666  0.0878  0.5079  0.8198
 3933SOL    HW223436   0.338   4.261  16.568  0.2365 -1.0167  0.6721
 3934SOL     OW23437   0.063   1.650   4.447  0.3366 -0.4929  0.0976
 3934SOL    HW123438   0.069   1.589   4.373  2.1535 -0.4104  0.1947
 3934SOL    HW223439   0.008   1.721   4.413  1.5374  0.1248 -0.5567
 3935SOL     OW23440   1.918   3.630   2.172 -0.1774  0.1241  0.3736
 3935SOL    HW123441   1.974   3.560   2.206 -0.2418  0.7534  1.7490
 3935SOL    HW223442   1.970   3.652   2.094  2.4875  3.0518  2.9623
 3936SOL     OW23443   3.555   0.409  13.112  0.0503  0.5135 -0.3486
 3936SOL    HW123444   3.566   0.320  13.077  2.3855  0.3227  0.8465
 3936SOL    HW223445   3.515   0.386  13.196 -0.3144 -1.2260 -0.9868
 3937SOL     OW23446   0.849   4.650  13.778  0.1689  0.1264  0.3294
 3937SOL    HW123447   0.758   4.674  13.764 -0.1242 -1.8532 -1.1138
 3937SOL    HW223448   0.857   4.621  13.869 -0.2580 -0.3760  0.1990
 3938SOL     OW23449   2.224   1.278  13.985 -0.9315  0.0877 -0.5166
 3938SOL    HW123450   2.189   1.189  13.989 -1.7278  0.3978 -0.7145
 3938SOL    HW223451   2.173   1.318  13.915  2.0835  0.2058 -2.6241
 3939SOL     OW23452   3.317   4.081   4.845 -0.2316  0.0366 -0.9085
 3939SOL    HW123453   3.351   4.106   4.931 -1.0241 -1.5011 -0.1284
 3939SOL    HW223454   3.341   3.988   4.837 -0.6221 -0.1093 -0.4152
 3940SOL     OW23455   1.698   4.386   2.429  0.6278  0.6389 -0.3555
 3940SOL    HW123456   1.637   4.423   2.493  0.1147  1.7324 -1.4897
 3940SOL    HW223457   1.743   4.322   2.485 -2.5222 -0.1475  1.2348
 3941SOL     OW23458   2.082   2.599  17.513  0.2188  0.2933 -0.5052
 3941SOL    HW123459   2.113   2.680  17.555 -1.2532  1.1756 -1.1348
 3941SOL    HW223460   2.105   2.622  17.423 -1.1005  1.4142 -0.5642
 3942SOL     OW23461   0.691   0.875   1.037  1.0857  0.4556 -0.3557
 3942SOL    HW123462   0.695   0.836   1.124 -3.1674  1.2156  0.1676
 3942SOL    HW223463   0.703   0.788   0.998  1.9833  0.2065  0.4936
 3943SOL     OW23464   3.810   0.589   6.338  0.9246  0.6430  0.3948
 3943SOL    HW123465   3.785   0.525   6.271  2.1821 -0.5894  1.0956
 3943SOL    HW223466   3.720   0.620   6.346  0.9165  0.7942 -0.2753
 3944SOL     OW23467   0.320   0.465   6.149  0.1036  0.4329  0.3153
 3944SOL    HW123468   0.306   0.525   6.075 -0.1302  0.2122  0.1806
 3944SOL    HW223469   0.281   0.392   6.101 -0.6749  2.2643 -1.8542
 3945SOL     OW23470   3.152   3.784   9.895 -0.6575 -0.2754 -0.2373
 3945SOL    HW123471   3.072   3.823   9.932 -0.6330  0.0074 -0.4838
 3945SOL    HW223472   3.222   3.803   9.958 -1.0027  0.8194 -0.1902
 3946SOL     OW23473   1.023   3.124   9.938 -0.1896  0.1044 -0.0378
 3946SOL    HW123474   1.085   3.164   9.999  1.1543 -1.2083 -0.5622
 3946SOL    HW223475   0.963   3.075   9.994  1.8626  1.2793  3.2010
 3947SOL     OW23476   3.103   0.003   1.388  0.1239  0.3665  0.3716
 3947SOL    HW123477   3.012   4.721   1.411 -1.0493 -0.1006 -4.5438
 3947SOL    HW223478   3.099   0.083   1.335 -0.8563  0.6063  0.8081
 3948SOL     OW23479   3.361   4.115   5.520  0.6215  0.5169  0.4797
 3948SOL    HW123480   3.351   4.051   5.590  0.0583 -0.5796 -0.6150
 3948SOL    HW223481   3.364   4.190   5.579  0.3269  1.2741 -0.4659
 3949SOL     OW23482   0.037   3.167   0.560 -0.0256  0.2920  0.3058
 3949SOL    HW123483   0.105   3.108   0.592 -0.2940 -0.1266  0.0974
 3949SOL    HW223484   0.082   3.251   0.552  0.3768  0.0362 -0.1015
 3950SOL     OW23485   1.472   1.024   1.042  0.2928 -0.1859  0.4710
 3950SOL    HW123486   1.473   1.001   0.949  0.0191 -0.1947  0.4697
 3950SOL    HW223487   1.400   0.964   1.061 -0.3998  0.0565 -1.3544
 3951SOL     OW23488   2.921   3.951  10.362 -0.0942  0.1978 -0.4769
 3951SOL    HW123489   3.007   3.956  10.321  0.5078 -0.5986  0.6912
 3951SOL    HW223490   2.869   3.961  10.282  0.0907 -0.3723 -0.6686
 3952SOL     OW23491   2.458   4.329  12.744 -0.3424  0.0649  0.1641
 3952SOL    HW123492   2.369   4.365  12.746 -0.2725  0.2856 -0.6480
 3952SOL    HW223493   2.452   4.250  12.798 -0.4454  0.7100  1.0973
 3953SOL     OW23494   3.997   1.849   7.451  0.8541 -0.0795  0.0385
 3953SOL    HW123495   3.951   1.926   7.485 -0.0315 -0.0901 -1.1212
 3953SOL    HW223496   3.995   1.861   7.356  0.7042 -0.5235 -0.0139
 3954SOL     OW23497   4.381   0.864   4.722 -0.1940  0.5241 -0.3786
 3954SOL    HW123498   4.451   0.802   4.699 -0.0179  0.2747  0.8201
 3954SOL    HW223499   4.417   0.900   4.803  0.5941 -1.5194  0.1992
 3955SOL     OW23500   3.618   1.073   5.150  0.1223  0.6844  0.3440
 3955SOL    HW123501   3.647   1.141   5.211  1.8124 -1.6908  2.1741
 3955SOL    HW223502   3.655   1.120   5.075  2.0808 -0.8621  0.3569
 3956SOL     OW23503   1.418   4.265   6.534 -0.5530  0.1179  0.0909
 3956SOL    HW123504   1.490   4.206   6.515 -0.7939  0.0496 -0.5854
 3956SOL    HW223505   1.362   4.236   6.462 -0.8287 -2.1381  1.2049
 3957SOL     OW23506   0.641   4.547   4.034 -0.2076 -0.1686  0.0907
 3957SOL    HW123507   0.695   4.614   4.077 -0.7689 -0.4461  1.2395
 3957SOL    HW223508   0.698   4.535   3.958  2.2542  0.7266  1.7766
 3958SOL     OW23509   3.746   3.641   0.123  0.1441 -0.3612  0.6941
 3958SOL    HW123510   3.696   3.563   0.102  1.4287 -1.3714  1.3979
 3958SOL    HW223511   3.706   3.679   0.201 -4.1875  0.6849 -2.0176
 3959SOL     OW23512   3.383   3.541   3.192 -0.3058 -0.0368 -0.1978
 3959SOL    HW123513   3.436   3.522   3.115 -1.2594 -4.2943  0.1885
 3959SOL    HW223514   3.364   3.634   3.179  0.8664  0.0361 -1.3413
 3960SOL     OW23515   3.768   4.457   6.248 -0.2108 -0.3642  0.2205
 3960SOL    HW123516   3.724   4.481   6.330 -0.4605 -0.7095  0.1852
 3960SOL    HW223517   3.831   4.530   6.245  1.0990 -1.4607  0.8325
 3961SOL     OW23518   4.388   4.401   2.695 -0.3278 -0.2228  0.3976
 3961SOL    HW123519   4.455   4.469   2.699 -2.2148  1.5158  2.2130
 3961SOL    HW223520   4.432   4.324   2.732  0.2358 -0.3237 -0.4787
 3962SOL     OW23521   1.980   1.734   8.113 -0.1687  0.2706  0.1055
 3962SOL    HW123522   2.053   1.690   8.069 -0.0802 -0.0613  0.5820
 3962SOL    HW223523   1.943   1.779   8.037 -0.5293  0.2815  0.2887
 3963SOL     OW23524   4.413   3.079  12.843  0.3436  0.5726  0.5904
 3963SOL    HW123525   4.494   3.032  12.862  0.1302  0.7937  2.0637
 3963SOL    HW223526   4.347   3.010  12.846  0.7980  0.0950 -0.1975
 3964SOL     OW23527   4.521   3.250  11.172  0.2233  0.3256 -0.7588
 3964SOL    HW123528   4.555   3.195  11.100  0.5726  0.3891 -0.6437
 3964SOL    HW223529   4.463   3.308  11.123  1.5523  1.8608 -0.5208
 3965SOL     OW23530   3.980   3.841  12.550  0.2826  0.1599  0.3615
 3965SOL    HW123531   4.056   3.850  12.493  2.1188 -0.4766  2.7176
 3965SOL    HW223532   4.026   3.821  12.632 -0.1926 -0.8437  0.3832
 3966SOL     OW23533   3.751   1.243   5.749  0.0620 -0.8478 -0.5143
 3966SOL    HW123534   3.835   1.198   5.743  1.1822  0.9597  1.3898
 3966SOL    HW223535   3.709   1.176   5.802 -0.0586  0.3094  0.8657
 3967SOL     OW23536   3.512   4.629  13.281 -0.4801 -0.2520  0.0990
 3967SOL    HW123537   3.460   4.558  13.318 -1.1635 -0.9274 -2.1174
 3967SOL    HW223538   3.520   4.591  13.193 -1.3807 -1.6097  0.6195
 3968SOL     OW23539   3.369   3.632   6.911 -0.3014  0.1693 -0.3672
 3968SOL    HW123540   3.377   3.666   7.000  0.8263  3.1647 -1.6151
 3968SOL    HW223541   3.283   3.591   6.905 -0.2615 -0.2035  1.7532
 3969SOL     OW23542   4.000   1.107  15.736 -0.4085  0.2068 -0.4383
 3969SOL    HW123543   4.069   1.050  15.704 -1.2514 -1.3104  0.4483
 3969SOL    HW223544   4.047   1.183  15.769 -1.7519  1.5169 -1.5418
 3970SOL     OW23545   0.929   2.503   8.214  0.4051  0.0493 -0.5590
 3970SOL    HW123546   0.843   2.542   8.232  0.1121 -1.0426  0.4328
 3970SOL    HW223547   0.961   2.505   8.304  1.3731 -4.0189 -0.8370
 3971SOL     OW23548   4.228   0.236  10.238  0.3697 -0.0518 -0.3689
 3971SOL    HW123549   4.170   0.239  10.314  0.2178 -2.1676 -0.4031
 3971SOL    HW223550   4.218   0.327  10.207 -1.1348 -0.1037 -0.0572
 3972SOL     OW23551   2.625   0.192  11.727  0.3718  0.1928  0.3033
 3972SOL    HW123552   2.677   0.112  11.741  0.3334 -0.6506 -4.0966
 3972SOL    HW223553   2.561   0.181  11.797 -2.2138  1.0410 -1.9114
 3973SOL     OW23554   2.061   1.038  13.993  0.1232  0.5765 -0.0854
 3973SOL    HW123555   1.972   1.071  14.005 -0.7445 -1.4859 -0.8890
 3973SOL    HW223556   2.051   0.965  13.932  0.0825  1.6724 -1.3855
 3974SOL     OW23557   1.623   1.162  16.608  0.2984 -0.3038 -0.1737
 3974SOL    HW123558   1.567   1.239  16.609 -0.0362 -0.5166 -3.1571
 3974SOL    HW223559   1.553   1.097  16.621  0.4517 -0.2240  1.0544
 3975SOL     OW23560   3.614   1.036   7.281  0.2539 -0.1212 -0.5071
 3975SOL    HW123561   3.641   1.048   7.190  1.2971  2.0723  0.1040
 3975SOL    HW223562   3.544   0.970   7.271  1.4844 -1.4705 -0.2300
 3976SOL     OW23563   4.312   4.625   4.155  0.0447  0.2558  0.6814
 3976SOL    HW123564   4.219   4.637   4.138 -0.2700 -1.5759  1.1432
 3976SOL    HW223565   4.311   4.608   4.249  1.2786 -1.9315  0.3048
 3977SOL     OW23566   2.384   2.643   1.800  0.6742  0.1328  0.7551
 3977SOL    HW123567   2.314   2.684   1.852  0.7511  0.9536  0.2099
 3977SOL    HW223568   2.357   2.671   1.713  0.2166  0.1498  0.8991
 3978SOL     OW23569   1.566   0.134   4.021 -0.4571  0.1634  0.2529
 3978SOL    HW123570   1.555   0.152   4.114 -0.6492  0.6897  0.1266
 3978SOL    HW223571   1.635   0.068   4.014  0.1604  0.6948  1.3614
 3979SOL     OW23572   4.483   3.744   9.300 -0.0217  0.2737 -0.5136
 3979SOL    HW123573   4.392   3.766   9.320  0.0738 -1.5216  1.9348
 3979SOL    HW223574   4.485   3.659   9.256  1.9254  0.5519 -0.9581
 3980SOL     OW23575   4.694   3.857  15.018  0.0070  0.2607  0.3162
 3980SOL    HW123576   4.734   3.771  15.031 -0.2763  0.2408  1.0438
 3980SOL    HW223577   4.604   3.834  14.995 -0.0299 -1.6587  2.4024
 3981SOL     OW23578   1.247   2.122  15.918  0.5978 -0.0303  0.0435
 3981SOL    HW123579   1.231   2.080  16.002  0.5736  0.5529  0.3307
 3981SOL    HW223580   1.219   2.059  15.851 -0.7866  0.0830  0.5034
 3982SOL     OW23581   2.499   3.073   0.417  0.4109  0.6050 -0.0290
 3982SOL    HW123582   2.449   2.993   0.400 -0.5684  0.8418  1.7570
 3982SOL    HW223583   2.565   3.059   0.349  2.1217  1.5701  1.4380
 3983SOL     OW23584   3.153   1.446   5.159  0.3884  0.1006  0.5602
 3983SOL    HW123585   3.176   1.535   5.187 -1.0111 -0.0638  2.2397
 3983SOL    HW223586   3.230   1.407   5.201  0.3577  0.5344  1.0314
 3984SOL     OW23587   1.476   4.650   5.067 -0.1808 -0.5753  0.1054
 3984SOL    HW123588   1.493   4.580   5.004  3.4885  0.7752 -0.4220
 3984SOL    HW223589   1.561   4.693   5.061 -0.5683  0.4499  1.8079
 3985SOL     OW23590   4.047   4.242   6.993  0.5126 -0.4300  0.6613
 3985SOL    HW123591   3.969   4.190   6.974  0.5512  0.6272 -2.3533
 3985SOL    HW223592   4.055   4.226   7.087 -1.0654 -2.3173  0.4700
 3986SOL     OW23593   3.170   0.680   7.344 -0.0701 -0.1915 -0.1918
 3986SOL    HW123594   3.219   0.630   7.409  0.6377  2.1030  1.0125
 3986SOL    HW223595   3.174   0.768   7.380  1.7351  1.0079 -3.3606
 3987SOL     OW23596   2.647   4.043   3.224 -0.2191  1.0730  0.2192
 3987SOL    HW123597   2.725   4.007   3.267  0.2710  0.8998 -0.8072
 3987SOL    HW223598   2.578   4.012   3.282 -0.4036 -0.8802 -1.0271
 3988SOL     OW23599   4.714   1.618  13.436 -0.5364  0.3059 -0.2407
 3988SOL    HW123600   0.008   1.703  13.468  0.1993 -0.5111  1.2155
 3988SOL    HW223601   0.039   1.566  13.488  0.2906  1.3132 -0.2061
 3989SOL     OW23602   3.722   2.222   7.290 -0.1503  0.1392  0.0391
 3989SOL    HW123603   3.701   2.300   7.238 -0.6094 -0.5571 -0.8077
 3989SOL    HW223604   3.817   2.224   7.277 -0.3030  0.6259 -1.0254
 3990SOL     OW23605   1.019   3.065   6.566 -0.2633  0.5755 -0.0257
 3990SOL    HW123606   1.093   3.040   6.622 -1.9202 -1.7092  1.1525
 3990SOL    HW223607   0.963   2.988   6.574  2.5548 -1.6605 -2.1603
 3991SOL     OW23608   2.112   1.590  17.626  0.1773 -0.0925 -0.2644
 3991SOL    HW123609   2.040   1.561  17.571  0.1495 -0.6665  0.0738
 3991SOL    HW223610   2.085   1.564  17.714 -0.1390  1.5835  0.1342
 3992SOL     OW23611   2.634   2.680   5.894 -0.1342  0.3011 -0.3858
 3992SOL    HW123612   2.586   2.755   5.859  1.5419  0.8618 -1.4686
 3992SOL    HW223613   2.617   2.670   5.988 -1.8299  0.9369 -0.6335
 3993SOL     OW23614   1.422   3.013   3.617 -0.2103  0.4671 -0.3656
 3993SOL    HW123615   1.417   3.108   3.613  0.6155  0.5454  0.5937
 3993SOL    HW223616   1.504   2.985   3.576  0.6191  0.0433  1.6063
 3994SOL     OW23617   1.568   4.316   3.714  0.3568  0.2654  0.4864
 3994SOL    HW123618   1.651   4.344   3.751  0.1589 -0.7872  1.7525
 3994SOL    HW223619   1.512   4.393   3.721  0.8900  0.7495 -0.6729
 3995SOL     OW23620   0.258   3.116  12.134  0.3134  0.3415  0.6640
 3995SOL    HW123621   0.324   3.185  12.124  2.0162 -1.2067  1.2555
 3995SOL    HW223622   0.233   3.144  12.221  1.7295  0.1895  1.1109
 3996SOL     OW23623   0.460   2.034   6.280  0.1135  0.0788 -0.7749
 3996SOL    HW123624   0.426   1.982   6.352  1.2017  0.2277 -0.1432
 3996SOL    HW223625   0.442   2.122   6.312 -0.8762  0.3879 -2.1448
 3997SOL     OW23626   3.062   2.925  14.875  0.2812 -0.3053  0.2325
 3997SOL    HW123627   3.036   2.966  14.792  2.0780 -0.1684 -0.2749
 3997SOL    HW223628   2.986   2.869  14.889  0.5915 -0.6519  0.5344
 3998SOL     OW23629   3.693   2.577  10.741 -0.3334  0.4825  0.6049
 3998SOL    HW123630   3.608   2.545  10.770 -0.7513  0.3589 -0.7590
 3998SOL    HW223631   3.702   2.537  10.654 -0.0419  2.1835 -0.1670
 3999SOL     OW23632   0.091   2.972   2.965  0.2379 -0.3691  0.1846
 3999SOL    HW123633   0.035   3.016   3.030 -1.2923 -2.1330  0.0876
 3999SOL    HW223634   0.035   2.895   2.953 -0.3891 -0.0336  0.9481
 4000SOL     OW23635   2.042   2.055   8.176  0.0011  0.6061  0.5273
 4000SOL    HW123636   2.100   2.077   8.249 -0.9167 -0.6709  1.6425
 4000SOL    HW223637   1.955   2.035   8.212 -0.0605  1.4988  0.8656
 4001SOL     OW23638   0.239   3.620   2.410  0.7070  0.0660 -0.3577
 4001SOL    HW123639   0.321   3.587   2.373  1.2388 -0.5153  1.3717
 4001SOL    HW223640   0.226   3.702   2.363 -2.1423 -0.7990 -1.0936
 4002SOL     OW23641   0.285   2.422  12.012 -0.3607  0.1398  0.3055
 4002SOL    HW123642   0.263   2.458  12.098 -1.3097  0.3671 -0.0408
 4002SOL    HW223643   0.362   2.473  11.988 -0.9699  1.1074  0.4444
 4003SOL     OW23644   0.433   1.761  11.006 -0.3654 -0.8611 -0.1347
 4003SOL    HW123645   0.507   1.822  11.004  0.1789 -1.5285 -0.6333
 4003SOL    HW223646   0.432   1.738  11.099  1.4554 -0.0268  0.0967
 4004SOL     OW23647   1.159   3.781   7.533  0.1418 -0.3416 -0.3233
 4004SOL    HW123648   1.146   3.713   7.466  1.7434 -1.2330  0.2760
 4004SOL    HW223649   1.226   3.735   7.583  1.4735 -0.2634 -2.0192
 4005SOL     OW23650   0.876   3.629   3.827  0.4158 -0.2553 -0.1503
 4005SOL    HW123651   0.851   3.622   3.735 -0.0863 -0.7004  0.0261
 4005SOL    HW223652   0.947   3.693   3.817  3.1973 -3.6606 -2.3566
 4006SOL     OW23653   3.296   0.845  13.176  0.1637 -0.2012  0.1732
 4006SOL    HW123654   3.309   0.787  13.101  0.0605  0.3797 -0.2908
 4006SOL    HW223655   3.275   0.784  13.246  0.9158  0.8618  1.3281
 4007SOL     OW23656   4.616   0.433   5.526  0.3623 -0.1015 -0.0487
 4007SOL    HW123657   4.526   0.412   5.549 -0.0695  2.5873  0.7600
 4007SOL    HW223658   4.620   0.387   5.442  0.8434  0.1148 -0.1470
 4008SOL     OW23659   2.608   2.198  10.243 -0.2431 -0.4425 -0.0354
 4008SOL    HW123660   2.639   2.206  10.153 -0.4767  0.6905 -0.0251
 4008SOL    HW223661   2.646   2.281  10.274 -0.0072 -0.1988 -0.9646
 4009SOL     OW23662   4.555   1.712   7.530 -0.3317 -0.0853 -0.0186
 4009SOL    HW123663   4.510   1.736   7.611 -1.9051  0.5984 -1.0754
 4009SOL    HW223664   4.484   1.672   7.479 -1.2662 -1.3065  2.2596
 4010SOL     OW23665   2.277   3.549   5.741 -0.1615 -0.1500 -0.4527
 4010SOL    HW123666   2.187   3.541   5.774  0.7609 -0.1458  2.0415
 4010SOL    HW223667   2.324   3.575   5.820  0.5987 -1.8844 -0.3342
 4011SOL     OW23668   1.921   1.420   8.869  0.1358  0.1713  0.5404
 4011SOL    HW123669   1.962   1.449   8.787 -1.3098  0.0034 -0.2421
 4011SOL    HW223670   1.842   1.373   8.844  1.3435 -0.8064 -1.4473
 4012SOL     OW23671   4.310   1.137   7.501 -0.1717 -0.1209  0.2233
 4012SOL    HW123672   4.262   1.197   7.443  1.1656 -0.5830 -1.3607
 4012SOL    HW223673   4.233   1.098   7.543 -1.0034  0.3797 -0.8261
 4013SOL     OW23674   3.714   4.331   7.291 -0.3182 -0.3240 -0.4478
 4013SOL    HW123675   3.700   4.314   7.385 -0.7348  0.3547 -0.3833
 4013SOL    HW223676   3.627   4.317   7.254 -0.1911 -0.3380 -0.7406
 4014SOL     OW23677   3.611   0.694   9.242 -0.0739 -0.3638  0.4370
 4014SOL    HW123678   3.576   0.664   9.158  1.2714 -0.7577  0.0185
 4014SOL    HW223679   3.704   0.708   9.223 -0.3626  0.0972 -0.6683
 4015SOL     OW23680   4.031   0.898   3.670 -0.0198 -0.6311 -0.3084
 4015SOL    HW123681   4.069   0.856   3.748  0.4290  0.9812  0.3313
 4015SOL    HW223682   4.104   0.918   3.613  1.0367 -0.7500  0.9955
 4016SOL     OW23683   0.267   2.993  10.292  0.2195  0.0951  0.1031
 4016SOL    HW123684   0.190   2.938  10.279 -0.1444  0.2324  1.7411
 4016SOL    HW223685   0.337   2.928  10.285 -0.1124 -0.2087 -0.3963
 4017SOL     OW23686   4.490   2.559   8.092  0.2521  0.1228  1.4810
 4017SOL    HW123687   4.439   2.640   8.094 -2.2034 -1.4144  1.4685
 4017SOL    HW223688   4.536   2.555   8.176  2.0389 -0.1494  0.5001
 4018SOL     OW23689   2.210   4.574   2.523 -0.1964 -0.2313 -0.2947
 4018SOL    HW123690   2.203   4.599   2.615  0.7351 -0.7793 -0.0719
 4018SOL    HW223691   2.144   4.506   2.515 -0.0240 -0.5435  0.9588
 4019SOL     OW23692   3.916   1.725  13.688  0.1637  0.2249 -0.1840
 4019SOL    HW123693   3.982   1.795  13.692  0.1095  0.1840  1.4542
 4019SOL    HW223694   3.963   1.668  13.627  4.4807  2.5573  0.9251
 4020SOL     OW23695   3.000   4.463   4.682 -0.1486 -0.2611  0.0713
 4020SOL    HW123696   2.984   4.557   4.689  2.5913  0.2950 -1.2723
 4020SOL    HW223697   3.034   4.463   4.592 -0.0337 -1.3928  0.1182
 4021SOL     OW23698   4.024   0.546  11.015 -0.6770 -0.5540  0.2196
 4021SOL    HW123699   3.948   0.523  10.961  0.2964 -0.5100 -1.1730
 4021SOL    HW223700   4.077   0.582  10.944  0.3686 -1.1090  0.7166
 4022SOL     OW23701   4.377   0.908   6.972  0.0727 -0.3697 -0.0008
 4022SOL    HW123702   4.408   0.825   6.936 -1.6002 -0.6301 -0.8722
 4022SOL    HW223703   4.282   0.899   6.959 -0.0749  1.3340 -0.0810
 4023SOL     OW23704   4.243   0.224  11.969  0.0433 -0.2625  0.2345
 4023SOL    HW123705   4.151   0.199  11.977  0.5167 -1.9519  0.3341
 4023SOL    HW223706   4.227   0.319  11.970  0.8604 -0.1233  0.1039
 4024SOL     OW23707   2.366   3.559   8.265  0.1795  0.5344  0.0235
 4024SOL    HW123708   2.310   3.585   8.338  1.0691  0.8277  0.6055
 4024SOL    HW223709   2.339   3.626   8.202 -2.3206 -0.5311 -0.0375
 4025SOL     OW23710   2.721   2.815   5.227 -0.0906  0.3431 -0.1299
 4025SOL    HW123711   2.634   2.835   5.263 -0.6473 -2.8020  0.2633
 4025SOL    HW223712   2.697   2.777   5.143 -0.8573 -1.7924  1.0775
 4026SOL     OW23713   1.055   2.138  14.855  0.4735 -0.0232  0.5159
 4026SOL    HW123714   1.125   2.148  14.791  1.6970 -0.2418  1.8065
 4026SOL    HW223715   1.032   2.226  14.884 -0.0749 -1.1630  3.5018
 4027SOL     OW23716   2.292   4.280   4.047  0.3028  0.5384 -0.4812
 4027SOL    HW123717   2.346   4.355   4.073  0.7960  0.7966 -2.2596
 4027SOL    HW223718   2.239   4.335   3.989 -0.8448 -0.7534 -0.6627
 4028SOL     OW23719   1.650   0.399   3.604  0.2097  0.4644  0.0212
 4028SOL    HW123720   1.733   0.353   3.618  0.7682  0.9701 -1.6456
 4028SOL    HW223721   1.660   0.456   3.528  1.4214 -0.7552 -0.7228
 4029SOL     OW23722   1.553   0.411   4.262 -0.0756 -0.4758  0.5064
 4029SOL    HW123723   1.464   0.409   4.228 -0.0846 -1.7381  0.5811
 4029SOL    HW223724   1.554   0.489   4.317  3.7239  0.0297 -0.2507
 4030SOL     OW23725   3.399   3.929  13.119 -0.0604  0.1478  0.0292
 4030SOL    HW123726   3.409   3.902  13.210  1.2994 -0.8048 -0.4023
 4030SOL    HW223727   3.370   3.848  13.077 -0.9326  0.4949 -0.0258
 4031SOL     OW23728   1.408   2.910   0.765  0.4443  0.2306 -0.5625
 4031SOL    HW123729   1.379   2.829   0.722  1.8830 -1.3279  1.4142
 4031SOL    HW223730   1.495   2.916   0.725  0.0384 -1.7590 -1.7613
 4032SOL     OW23731   4.222   2.726   3.273 -0.4813  0.0589 -0.2597
 4032SOL    HW123732   4.211   2.633   3.288  1.0102 -0.5178 -2.6763
 4032SOL    HW223733   4.243   2.770   3.355  1.0598  1.0279 -1.1622
 4033SOL     OW23734   3.706   3.256  10.289  0.1061  0.1377  0.7937
 4033SOL    HW123735   3.702   3.282  10.382 -0.6358 -2.8863  1.6052
 4033SOL    HW223736   3.738   3.169  10.314 -0.4999 -0.2890  0.0606
 4034SOL     OW23737   0.580   1.176  14.814  0.0454  0.7112  0.2605
 4034SOL    HW123738   0.591   1.140  14.726 -1.4447  4.8749 -1.6116
 4034SOL    HW223739   0.673   1.174  14.835 -0.4129 -0.6519  2.1766
 4035SOL     OW23740   0.590   4.050   7.450 -0.4645 -0.3696 -0.1204
 4035SOL    HW123741   0.544   4.122   7.409  0.9680  2.1514  2.6919
 4035SOL    HW223742   0.669   4.096   7.481 -1.9981  3.1758 -1.5702
 4036SOL     OW23743   3.296   2.401   5.438  0.1931  0.6286  0.0433
 4036SOL    HW123744   3.378   2.450   5.444 -1.3168  3.4084 -1.6945
 4036SOL    HW223745   3.241   2.478   5.448  1.4696  1.4127  1.0133
 4037SOL     OW23746   2.159   4.210  14.983  0.5489 -0.3325  0.3253
 4037SOL    HW123747   2.224   4.225  14.915 -2.1265 -0.9839 -2.3428
 4037SOL    HW223748   2.084   4.181  14.932 -0.5257  1.7840  0.6946
 4038SOL     OW23749   0.811   2.335   1.286 -0.3032 -0.3402  0.1630
 4038SOL    HW123750   0.727   2.289   1.283 -1.0060  1.0575 -1.4830
 4038SOL    HW223751   0.858   2.291   1.216  0.0726  1.6498 -0.8289
 4039SOL     OW23752   4.224   0.957   9.228 -0.1649 -0.1275 -0.3020
 4039SOL    HW123753   4.133   0.946   9.255 -0.4118  3.9005  0.6161
 4039SOL    HW223754   4.267   0.905   9.296  0.9725 -0.5581 -1.3601
 4040SOL     OW23755   2.388   3.968  14.899 -0.5165 -0.4760  0.0629
 4040SOL    HW123756   2.357   3.966  14.989  1.9003 -0.1530  0.9230
 4040SOL    HW223757   2.319   4.020  14.858  1.3334  2.2371  0.3773
 4041SOL     OW23758   2.569   4.022   0.104 -0.6070  0.1357 -0.5779
 4041SOL    HW123759   2.583   4.103   0.152 -0.6247 -0.3360  0.2163
 4041SOL    HW223760   2.558   4.062   0.017  0.0021  0.6636 -0.4129
 4042SOL     OW23761   3.410   1.904   2.913  0.1093 -0.3552  0.5008
 4042SOL    HW123762   3.410   1.932   2.821  0.2109 -0.2825  0.5236
 4042SOL    HW223763   3.460   1.975   2.953 -2.0078 -0.1299  2.6818
 4043SOL     OW23764   4.641   2.068  11.194 -0.0990 -0.0947  0.3714
 4043SOL    HW123765   4.581   1.993  11.191  0.4821 -0.5528  0.1775
 4043SOL    HW223766   4.707   2.027  11.138  0.8283  0.9413  0.7018
 4044SOL     OW23767   0.187   1.215   6.920 -0.0442  0.6278 -0.1593
 4044SOL    HW123768   0.267   1.205   6.971  0.1465 -1.1571 -0.8279
 4044SOL    HW223769   0.224   1.241   6.835 -2.4287  1.4386 -0.9370
 4045SOL     OW23770   0.849   3.129   3.563 -0.2316  0.4927 -0.0292
 4045SOL    HW123771   0.896   3.105   3.484 -0.2349  1.0103 -0.1872
 4045SOL    HW223772   0.844   3.047   3.612  0.1469 -0.1810 -1.1392
 4046SOL     OW23773   2.177   0.605   7.448 -0.1393 -0.2757  0.0332
 4046SOL    HW123774   2.084   0.584   7.450 -0.2794  0.2407 -0.8965
 4046SOL    HW223775   2.215   0.517   7.450  1.5733  0.4865  1.2219
 4047SOL     OW23776   0.565   0.269   8.050  0.7640  0.2518 -0.2256
 4047SOL    HW123777   0.645   0.225   8.021  1.3465  0.5842  0.8583
 4047SOL    HW223778   0.531   0.210   8.118  1.0272  0.1234 -0.2066
 4048SOL     OW23779   0.117   2.053   5.271 -0.2517  0.2575 -0.2267
 4048SOL    HW123780   0.063   1.975   5.255 -0.0480 -0.2447  1.6062
 4048SOL    HW223781   0.115   2.054   5.367 -3.5948  2.4220 -0.3064
 4049SOL     OW23782   4.083   4.558  12.487 -0.4543  0.0895  0.0814
 4049SOL    HW123783   3.990   4.563  12.463 -1.1275 -1.8967  2.3123
 4049SOL    HW223784   4.115   4.615  12.417  1.4730  0.1145  1.0030
 4050SOL     OW23785   3.139   2.490   6.718  0.1874 -0.2944 -0.4187
 4050SOL    HW123786   3.081   2.436   6.664 -1.0260 -0.8349  1.4359
 4050SOL    HW223787   3.187   2.539   6.651 -0.1599  0.6486  0.0187
 4051SOL     OW23788   0.662   1.036   5.620  0.0410 -0.5737  0.1854
 4051SOL    HW123789   0.607   0.975   5.668  1.6698 -2.5120 -0.3604
 4051SOL    HW223790   0.751   1.005   5.638 -0.8700 -3.1269  0.3390
 4052SOL     OW23791   4.317   0.893   7.272 -0.0451 -0.3048 -0.0623
 4052SOL    HW123792   4.234   0.931   7.301 -0.6242 -1.8868  0.3469
 4052SOL    HW223793   4.317   0.917   7.179 -3.6860  2.0169  0.5116
 4053SOL     OW23794   0.549   0.548  11.213 -0.2943  0.1101  0.3152
 4053SOL    HW123795   0.593   0.625  11.248 -2.4750  0.1694  2.8674
 4053SOL    HW223796   0.542   0.500  11.296  1.2018 -1.4428 -0.4216
 4054SOL     OW23797   0.382   2.963   5.113 -0.1814 -0.1955  0.5315
 4054SOL    HW123798   0.365   3.056   5.121  1.0886  0.1746 -0.9890
 4054SOL    HW223799   0.477   2.963   5.118 -0.0124  1.5071 -2.5003
 4055SOL     OW23800   3.337   3.993   0.447  0.2459 -0.3556  0.0432
 4055SOL    HW123801   3.365   3.978   0.537 -1.0008 -1.5177  0.2378
 4055SOL    HW223802   3.414   4.033   0.405  1.6899 -3.4741 -0.3073
 4056SOL     OW23803   3.189   0.793   8.297 -0.1436  0.1229  0.1308
 4056SOL    HW123804   3.247   0.724   8.328  1.1436  1.9237  1.6719
 4056SOL    HW223805   3.100   0.760   8.308  0.5299 -1.5987  0.3843
 4057SOL     OW23806   1.995   0.896   4.016  0.4019 -0.2372 -0.1299
 4057SOL    HW123807   2.012   0.900   4.110 -3.0978 -0.9826  0.5309
 4057SOL    HW223808   1.900   0.898   4.027  0.2858  0.6366 -1.2775
 4058SOL     OW23809   4.193   0.485  10.589  0.1418 -0.4983 -0.2932
 4058SOL    HW123810   4.252   0.545  10.543  0.3096  0.9381  1.7759
 4058SOL    HW223811   4.252   0.410  10.593  1.6729  0.7662  0.5958
 4059SOL     OW23812   3.022   3.649   7.478 -0.1360  0.5139  0.7314
 4059SOL    HW123813   3.100   3.617   7.433 -0.3996  1.0226 -0.0815
 4059SOL    HW223814   3.020   3.744   7.468  2.3620  0.4448 -0.2592
 4060SOL     OW23815   3.108   3.986   4.052  0.1975 -0.4841  0.4399
 4060SOL    HW123816   3.099   4.074   4.089 -2.3793  0.0897 -1.5448
 4060SOL    HW223817   3.108   3.936   4.133 -1.0023 -1.0293  0.1016
 4061SOL     OW23818   1.160   2.190   5.926 -0.3689  0.0934 -0.0846
 4061SOL    HW123819   1.174   2.112   5.980 -0.5411  0.2100  0.1271
 4061SOL    HW223820   1.207   2.170   5.845  0.5242 -1.6386  0.8592
 4062SOL     OW23821   4.419   2.039   3.511 -0.3668 -0.6457  0.4224
 4062SOL    HW123822   4.427   1.974   3.580 -0.0032 -0.8586  0.1792
 4062SOL    HW223823   4.484   2.107   3.530  0.3095  0.0636 -4.2229
 4063SOL     OW23824   0.070   2.875   1.784 -0.1848 -0.1940  0.2062
 4063SOL    HW123825   0.134   2.804   1.786 -0.0411 -0.1049 -2.3386
 4063SOL    HW223826   0.125   2.943   1.744  0.2021 -0.9200 -0.4817
 4064SOL     OW23827   3.754   3.795  12.416  0.4020 -0.1710  0.2103
 4064SOL    HW123828   3.794   3.744  12.346 -0.7303 -1.3422  0.3914
 4064SOL    HW223829   3.807   3.790  12.496  0.3033  1.6838  0.3865
 4065SOL     OW23830   1.982   0.271   2.430  0.5117 -0.4469  0.6088
 4065SOL    HW123831   2.033   0.223   2.496  1.0894 -1.1263 -0.3389
 4065SOL    HW223832   1.935   0.319   2.498  1.3624 -0.0302  0.8918
 4066SOL     OW23833   4.029   2.707   4.407  0.0637  0.7776 -0.0331
 4066SOL    HW123834   3.965   2.684   4.475  1.1762 -0.5375  0.5755
 4066SOL    HW223835   4.108   2.723   4.459 -0.5866 -1.3150  1.6140
 4067SOL     OW23836   3.986   3.528  12.872  0.1668 -0.3283 -0.3752
 4067SOL    HW123837   3.939   3.447  12.894 -1.2197  0.8659  0.9995
 4067SOL    HW223838   3.930   3.558  12.800  1.9224  3.6934 -0.0604
 4068SOL     OW23839   1.868   1.818   8.544  0.0397 -0.0980 -0.7025
 4068SOL    HW123840   1.867   1.894   8.602 -0.6598 -1.9474  1.7096
 4068SOL    HW223841   1.791   1.776   8.582  0.0944 -0.8008 -1.3652
 4069SOL     OW23842   1.065   3.115   4.147  0.4556 -0.0445 -0.2929
 4069SOL    HW123843   0.980   3.145   4.179  0.1041 -2.2051  0.8364
 4069SOL    HW223844   1.076   3.182   4.080 -2.6854  1.2337  0.4790
 4070SOL     OW23845   0.554   4.521  11.738 -0.3850  0.4974  0.1438
 4070SOL    HW123846   0.622   4.495  11.800 -0.3977  1.4697  0.5754
 4070SOL    HW223847   0.603   4.581  11.681  0.3568 -1.9777 -1.8500
 4071SOL     OW23848   1.607   2.860   1.414 -0.1701 -0.0274 -0.8029
 4071SOL    HW123849   1.553   2.901   1.346  0.8975  0.3758 -1.4115
 4071SOL    HW223850   1.698   2.869   1.384  0.1647  1.3219  0.5988
 4072SOL     OW23851   2.564   3.846   2.425  0.3838  0.5258  0.3719
 4072SOL    HW123852   2.619   3.793   2.483  1.4557  2.4715  1.1182
 4072SOL    HW223853   2.584   3.938   2.443  0.9337  0.4094  0.3450
 4073SOL     OW23854   4.219   2.393  17.354 -0.0434  0.2108  0.5900
 4073SOL    HW123855   4.157   2.439  17.411  2.1293  3.0407  0.6828
 4073SOL    HW223856   4.199   2.424  17.266  0.0874 -1.0856  0.0975
 4074SOL     OW23857   4.106   0.999   2.083  0.2246  0.7581 -0.4258
 4074SOL    HW123858   4.108   0.956   1.998 -0.6270 -2.9099  1.3922
 4074SOL    HW223859   4.013   0.983   2.100  0.6525 -0.1886  1.0711
 4075SOL     OW23860   3.887   1.240   1.869  0.2738 -0.2586  0.3766
 4075SOL    HW123861   3.792   1.250   1.863  0.3222  0.7296  1.2799
 4075SOL    HW223862   3.890   1.147   1.847 -0.4327  0.3910 -2.5403
 4076SOL     OW23863   1.756   3.585   0.740  0.2597  0.5300  0.0446
 4076SOL    HW123864   1.735   3.495   0.765 -1.5967  0.8387 -0.4407
 4076SOL    HW223865   1.849   3.592   0.765  0.6958 -3.6512 -0.3803
 4077SOL     OW23866   2.130   2.896   7.523 -0.8219  0.0896  0.7343
 4077SOL    HW123867   2.059   2.880   7.586 -0.1187 -0.9790  1.2494
 4077SOL    HW223868   2.080   2.955   7.466 -1.2397 -2.1932 -1.2617
 4078SOL     OW23869   0.957   2.406   0.648 -0.2291 -0.3698  0.2654
 4078SOL    HW123870   0.929   2.417   0.738 -0.4563  0.2301  0.1225
 4078SOL    HW223871   1.030   2.466   0.631 -0.6846  0.3018  0.6835
 4079SOL     OW23872   3.546   3.763   1.836 -0.5786  0.3467  0.0028
 4079SOL    HW123873   3.520   3.672   1.822  1.7362 -0.4581  0.9417
 4079SOL    HW223874   3.525   3.798   1.750 -1.9445  1.3948  0.7673
 4080SOL     OW23875   4.655   3.158   9.461 -0.1761 -0.1561  0.1635
 4080SOL    HW123876   4.661   3.089   9.395 -1.7050  2.1002 -2.3297
 4080SOL    HW223877   0.004   3.163   9.503 -0.7196 -1.3322  1.4262
 4081SOL     OW23878   0.079   2.597   3.427  0.4880 -0.1062  0.2205
 4081SOL    HW123879   0.164   2.636   3.408  0.2585  0.3948  0.2211
 4081SOL    HW223880   0.088   2.559   3.514 -0.8571  0.2103  0.4975
 4082SOL     OW23881   0.451   1.535   8.154  0.0715 -0.1866  0.2022
 4082SOL    HW123882   0.517   1.474   8.188  2.3181  3.1214  1.8034
 4082SOL    HW223883   0.510   1.562   8.084  0.4774 -0.4405  0.4414
 4083SOL     OW23884   3.929   3.995  15.887  0.4833 -0.2814 -0.0551
 4083SOL    HW123885   3.992   3.994  15.959  0.6378 -0.3833 -0.1925
 4083SOL    HW223886   3.958   4.067  15.831 -1.7088 -0.6746 -1.6594
 4084SOL     OW23887   0.556   2.093   4.991 -0.2567  0.2652  0.4786
 4084SOL    HW123888   0.479   2.075   5.045 -1.8888 -1.8010 -2.5517
 4084SOL    HW223889   0.577   2.186   5.000 -1.5322  0.5614  0.3069
 4085SOL     OW23890   3.225   2.602   2.789 -0.3428 -0.0865 -0.8838
 4085SOL    HW123891   3.166   2.528   2.797 -0.8114  0.2071 -1.6145
 4085SOL    HW223892   3.296   2.562   2.738 -0.1299 -1.5081  0.5414
 4086SOL     OW23893   4.191   2.326   5.133 -0.7264 -0.0936 -0.1562
 4086SOL    HW123894   4.115   2.338   5.076  0.8857  0.1990 -2.2288
 4086SOL    HW223895   4.263   2.348   5.075 -1.4297  0.3788 -0.8550
 4087SOL     OW23896   1.571   1.982   7.632 -0.6372 -0.3375 -0.4856
 4087SOL    HW123897   1.666   1.983   7.622 -0.6811 -1.2884 -0.9795
 4087SOL    HW223898   1.549   2.000   7.541 -1.3367 -0.0325 -0.2556
 4088SOL     OW23899   2.039   2.009   2.445 -0.1962 -0.2645  0.3242
 4088SOL    HW123900   2.003   1.932   2.401  1.1310 -0.6524 -0.0946
 4088SOL    HW223901   2.119   2.007   2.393 -0.3941  0.2020 -0.0013
 4089SOL     OW23902   2.914   3.607   6.813 -0.1340 -0.3842  0.2000
 4089SOL    HW123903   2.854   3.633   6.743  0.6179 -0.5693 -0.5164
 4089SOL    HW223904   2.966   3.687   6.812  1.3340 -1.3174  1.2932
 4090SOL     OW23905   2.465   0.133   4.216  0.2825  0.4190  0.5834
 4090SOL    HW123906   2.379   0.151   4.254 -1.2403 -1.2353 -2.1156
 4090SOL    HW223907   2.517   0.181   4.280 -0.8884  1.6709  0.6035
 4091SOL     OW23908   0.985   3.284  15.883 -0.2346  0.5343  0.2508
 4091SOL    HW123909   1.080   3.269  15.887 -0.3584 -0.3306 -0.3051
 4091SOL    HW223910   0.979   3.313  15.792  0.8703 -2.8604 -0.8829
 4092SOL     OW23911   0.512   4.347  11.148 -0.1537  0.2936  0.6197
 4092SOL    HW123912   0.576   4.277  11.159 -0.4492 -0.1743 -0.6218
 4092SOL    HW223913   0.521   4.377  11.058  3.1772  1.6706  1.4303
 4093SOL     OW23914   3.485   3.667   8.162  0.1993 -0.5757 -0.3062
 4093SOL    HW123915   3.510   3.578   8.188  2.5828  0.8612  2.3696
 4093SOL    HW223916   3.552   3.680   8.095 -0.7509  1.3815 -0.8958
 4094SOL     OW23917   0.882   4.616   4.745  0.7465  0.3282 -0.3816
 4094SOL    HW123918   0.911   4.538   4.792  0.3347  0.8444  0.7169
 4094SOL    HW223919   0.934   4.610   4.664  0.5338  0.7638 -0.5474
 4095SOL     OW23920   1.749   1.233   5.398  0.0879 -0.3224 -0.3495
 4095SOL    HW123921   1.784   1.145   5.382  0.8550  0.0291 -0.6041
 4095SOL    HW223922   1.806   1.292   5.349  1.1238 -1.8074 -0.9433
 4096SOL     OW23923   0.229   2.011   0.333 -0.1410  0.2927  0.1422
 4096SOL    HW123924   0.170   1.957   0.387  1.6203 -0.2993  1.4851
 4096SOL    HW223925   0.302   1.951   0.317 -2.2480 -2.9378  2.6658
 4097SOL     OW23926   4.070   1.960   5.826  0.6829 -0.3283  0.1146
 4097SOL    HW123927   4.127   2.016   5.773  1.3287 -1.4653 -0.3928
 4097SOL    HW223928   4.039   2.011   5.901 -0.1098  0.5570 -0.8108
 4098SOL     OW23929   4.616   3.969   2.335  0.2110 -0.4692  0.4025
 4098SOL    HW123930   4.673   4.004   2.267 -1.3104  2.9580  0.8807
 4098SOL    HW223931   4.658   3.997   2.417  2.0612  3.1018 -1.7547
 4099SOL     OW23932   0.857   4.235  10.727 -0.2532 -0.6266  0.0085
 4099SOL    HW123933   0.814   4.196  10.804 -2.3354  1.4373 -0.1127
 4099SOL    HW223934   0.887   4.166  10.668 -0.1187  0.1736 -0.8468
 4100SOL     OW23935   2.821   0.463   1.239  0.1326 -0.0712  0.2029
 4100SOL    HW123936   2.879   0.435   1.169 -1.9867  1.8134 -2.3029
 4100SOL    HW223937   2.743   0.452   1.185  0.7926 -1.3631 -0.4704
 4101SOL     OW23938   3.556   0.749  14.413  0.2978  0.5129 -0.0198
 4101SOL    HW123939   3.598   0.673  14.452 -0.5637 -0.6664 -1.3594
 4101SOL    HW223940   3.555   0.721  14.321  0.1255  0.4783 -0.0085
 4102SOL     OW23941   0.386   1.743  10.748  0.2744 -0.4780 -0.5604
 4102SOL    HW123942   0.446   1.717  10.818 -0.8265 -1.0829  0.1442
 4102SOL    HW223943   0.372   1.838  10.755 -2.5835 -1.0074  1.0158
 4103SOL     OW23944   1.469   4.614   7.845  0.7232  0.2724  0.5442
 4103SOL    HW123945   1.547   4.587   7.894  1.7017 -0.6574 -1.5580
 4103SOL    HW223946   1.395   4.582   7.897  1.5809 -1.4867  0.6967
 4104SOL     OW23947   2.893   2.041   5.045  0.3025  0.1287  0.0964
 4104SOL    HW123948   2.897   2.137   5.052  0.9316  0.1450 -0.4657
 4104SOL    HW223949   2.804   2.015   5.021 -0.0238  1.1189  0.2014
 4105SOL     OW23950   2.488   0.945   3.926 -0.0202 -0.4509  0.0224
 4105SOL    HW123951   2.573   0.903   3.940 -0.7936 -1.6548  1.1362
 4105SOL    HW223952   2.510   1.034   3.951 -2.2286  1.1095 -3.5105
 4106SOL     OW23953   1.683   0.648   5.748 -0.0537 -0.0460 -0.2990
 4106SOL    HW123954   1.690   0.675   5.840  2.0828  0.1090 -0.5024
 4106SOL    HW223955   1.612   0.705   5.718 -1.1497 -0.7686  0.9037
 4107SOL     OW23956   3.738   0.386   4.132 -0.5481 -0.2955 -0.5457
 4107SOL    HW123957   3.786   0.389   4.214  1.2864  2.1044 -1.7302
 4107SOL    HW223958   3.783   0.461   4.093 -1.7973  1.2655  1.0159
 4108SOL     OW23959   1.164   0.604   5.455 -0.1923  0.5731 -0.0847
 4108SOL    HW123960   1.101   0.559   5.512 -1.9448  1.0151 -1.6973
 4108SOL    HW223961   1.144   0.691   5.488 -3.2126 -0.0334 -0.3337
 4109SOL     OW23962   3.460   1.199  12.754 -0.7350  0.0060  0.3741
 4109SOL    HW123963   3.404   1.239  12.688  0.8451 -0.0527 -0.9947
 4109SOL    HW223964   3.547   1.231  12.732 -1.3304  0.0875 -1.7733
 4110SOL     OW23965   4.181   1.867  10.980 -0.2030  0.3602  0.6448
 4110SOL    HW123966   4.275   1.861  10.996 -0.1955  1.6802  1.1576
 4110SOL    HW223967   4.176   1.933  10.911 -1.3655 -1.5872 -1.1184
 4111SOL     OW23968   0.792   0.265   1.871 -0.7728  0.4944  0.2155
 4111SOL    HW123969   0.834   0.179   1.862 -0.4364  0.6563  0.2257
 4111SOL    HW223970   0.788   0.277   1.966  1.2901  1.1755  0.2116
 4112SOL     OW23971   2.877   3.277   6.229 -0.2452  0.0460  0.6931
 4112SOL    HW123972   2.825   3.354   6.208  0.6477 -0.3553 -3.0501
 4112SOL    HW223973   2.884   3.230   6.146  3.0267  3.5588 -1.0485
 4113SOL     OW23974   3.846   4.058   4.549 -0.0909  0.7562  0.1485
 4113SOL    HW123975   3.871   4.147   4.525  0.5529  1.0559  1.9108
 4113SOL    HW223976   3.908   4.044   4.620 -0.0802 -0.8131 -0.1710
 4114SOL     OW23977   0.247   3.435   2.139  0.5259 -0.1028 -0.2478
 4114SOL    HW123978   0.309   3.492   2.094  0.3555  0.7797  0.6265
 4114SOL    HW223979   0.183   3.499   2.171 -0.4549 -1.0705 -0.2652
 4115SOL     OW23980   0.987   0.189   4.100 -0.0044  0.0041 -0.3397
 4115SOL    HW123981   0.984   0.237   4.183 -1.6614 -0.9873  0.1612
 4115SOL    HW223982   0.927   0.116   4.116  0.9012 -0.8979 -1.0628
 4116SOL     OW23983   2.934   0.787  15.086 -0.4133  0.3298 -0.4592
 4116SOL    HW123984   2.935   0.882  15.072 -0.2116  0.4132  0.1253
 4116SOL    HW223985   3.023   0.759  15.104 -0.1161  1.5355 -0.0501
 4117SOL     OW23986   4.365   0.353   1.435 -0.3484 -0.4989  0.0634
 4117SOL    HW123987   4.331   0.268   1.406 -3.6585  1.3090 -1.3214
 4117SOL    HW223988   4.428   0.370   1.365 -1.4932  1.4971 -0.4690
 4118SOL     OW23989   1.005   1.118   8.217 -0.8649  0.3085 -0.3428
 4118SOL    HW123990   0.929   1.097   8.163 -0.1544 -3.9493  0.2789
 4118SOL    HW223991   0.992   1.209   8.244 -3.0728 -0.2346  0.3960
 4119SOL     OW23992   4.113   0.716  11.206 -0.5176 -0.4521  0.4146
 4119SOL    HW123993   4.098   0.644  11.146  2.3103 -0.4127 -0.3254
 4119SOL    HW223994   4.032   0.759  11.178 -1.2413 -2.2031 -0.1578
 4120SOL     OW23995   1.510   1.551   0.821  0.1164  0.2199 -0.3940
 4120SOL    HW123996   1.497   1.472   0.874 -1.0430 -0.4517 -1.6933
 4120SOL    HW223997   1.475   1.616   0.882 -1.9846 -2.0915  0.8951
 4121SOL     OW23998   3.217   1.218  12.924 -0.0522 -0.1064 -0.5608
 4121SOL    HW123999   3.201   1.299  12.876 -0.1287  0.5293  0.5224
 4121SOL    HW224000   3.311   1.222  12.905  0.3435  0.0381  1.3701
 4122SOL     OW24001   2.790   4.367   1.408  0.0196 -0.1872  0.4155
 4122SOL    HW124002   2.863   4.348   1.350 -1.0223  0.2552 -1.0342
 4122SOL    HW224003   2.719   4.403   1.356 -0.9164 -2.1296  0.3421
 4123SOL     OW24004   0.827   2.945   7.493  0.1817 -0.2241 -0.4599
 4123SOL    HW124005   0.757   2.989   7.444 -1.8117 -0.5042  2.1254
 4123SOL    HW224006   0.814   2.990   7.577 -0.8227 -1.1824 -0.1155
 4124SOL     OW24007   2.273   4.597   6.985  0.2148 -0.1751 -0.1434
 4124SOL    HW124008   2.240   4.510   6.965 -1.8346  1.1067 -2.3546
 4124SOL    HW224009   2.196   4.642   7.019 -0.0041 -0.4988 -0.2216
 4125SOL     OW24010   3.135   1.251   4.558 -0.1697 -0.1921  0.8084
 4125SOL    HW124011   3.143   1.241   4.653  0.7146 -2.2981  0.5289
 4125SOL    HW224012   3.188   1.178   4.524  0.5080  0.3630  0.6772
 4126SOL     OW24013   0.957   1.890   7.077 -0.0411 -0.3815 -0.1358
 4126SOL    HW124014   0.868   1.876   7.109 -1.0749  2.9857 -1.5653
 4126SOL    HW224015   0.966   1.984   7.061  2.5872 -1.1896 -3.3609
 4127SOL     OW24016   0.483   0.634   3.319  0.1450 -0.6042 -0.0380
 4127SOL    HW124017   0.519   0.679   3.396 -1.2181  1.5471 -0.6652
 4127SOL    HW224018   0.533   0.553   3.310 -0.1736 -0.8861  0.7016
 4128SOL     OW24019   2.398   3.462   7.998 -0.8003  0.4179  0.1993
 4128SOL    HW124020   2.449   3.382   7.991 -1.7365 -0.1761  0.0742
 4128SOL    HW224021   2.399   3.466   8.094 -1.3490 -1.3972  0.2736
 4129SOL     OW24022   0.836   3.150  16.256 -0.0620 -0.0296  0.2543
 4129SOL    HW124023   0.842   3.222  16.195 -1.6072 -0.0881  0.0368
 4129SOL    HW224024   0.836   3.207  16.333 -1.8228  1.3053 -0.7330
 4130SOL     OW24025   2.635   1.743   4.938 -0.0204 -0.4051 -0.2973
 4130SOL    HW124026   2.684   1.677   4.890 -0.0105  0.1400 -1.0448
 4130SOL    HW224027   2.615   1.796   4.861  1.3686 -0.4058 -0.6571
 4131SOL     OW24028   3.541   0.618  13.740  0.2235 -0.5211 -0.2793
 4131SOL    HW124029   3.630   0.632  13.772  0.3117  0.1582 -0.8303
 4131SOL    HW224030   3.555   0.631  13.646 -0.3392 -0.0282 -0.2943
 4132SOL     OW24031   0.327   2.695   2.835  0.2338 -0.2551  0.3276
 4132SOL    HW124032   0.368   2.718   2.751  0.2950  2.1988  1.0131
 4132SOL    HW224033   0.326   2.778   2.884 -1.2765 -0.8075  1.2204
 4133SOL     OW24034   1.433   2.166  16.654  0.5932 -0.4972 -0.2672
 4133SOL    HW124035   1.409   2.082  16.693 -1.3996 -0.0077 -0.4824
 4133SOL    HW224036   1.529   2.168  16.654  0.5366  1.8632 -0.7971
 4134SOL     OW24037   3.447   4.057   2.754  0.1420 -0.1128  0.0011
 4134SOL    HW124038   3.487   3.974   2.728  3.5418  1.1034  1.3227
 4134SOL    HW224039   3.388   4.076   2.681 -0.4587  0.9572  0.7714
 4135SOL     OW24040   0.021   1.217   1.594 -0.6025 -0.9536  0.1324
 4135SOL    HW124041   4.681   1.265   1.627 -0.8417 -1.7518  0.7134
 4135SOL    HW224042   0.006   1.223   1.499  2.8859  2.6838 -0.2087
 4136SOL     OW24043   4.532   1.906   8.606 -0.3299 -0.0597 -0.4726
 4136SOL    HW124044   4.580   1.847   8.665 -2.5446 -0.2236  1.1839
 4136SOL    HW224045   4.540   1.992   8.648  0.3655 -0.0671 -0.5856
 4137SOL     OW24046   0.829   2.090   0.043 -0.2028 -0.5513 -0.4303
 4137SOL    HW124047   0.757   2.050   0.094  2.0510 -2.4743  1.2637
 4137SOL    HW224048   0.827   2.180   0.075 -2.4131  0.0925 -2.3560
 4138SOL     OW24049   3.434   0.897   7.861  0.2131  0.2940 -0.1333
 4138SOL    HW124050   3.435   0.815   7.813  1.7937  0.3494 -0.1800
 4138SOL    HW224051   3.522   0.915   7.892 -0.2185  0.0827  1.2078
 4139SOL     OW24052   1.933   1.360   1.961  0.5402  0.3833  0.5911
 4139SOL    HW124053   1.961   1.320   1.878 -2.0633 -0.2293 -0.0175
 4139SOL    HW224054   1.843   1.387   1.941  0.6624 -0.2229 -0.8124
 4140SOL     OW24055   3.064   2.610   5.121  0.0281  0.1433 -0.0727
 4140SOL    HW124056   3.153   2.616   5.086 -0.9370 -0.4115 -2.6656
 4140SOL    HW224057   3.054   2.702   5.147  0.3830 -0.1461  1.1039
 4141SOL     OW24058   0.484   3.474  14.112  0.1461  0.8209  1.0154
 4141SOL    HW124059   0.487   3.513  14.199  0.0232  2.7369  0.1716
 4141SOL    HW224060   0.578   3.478  14.093  0.2771 -0.6761  1.3194
 4142SOL     OW24061   4.495   0.881  14.807  0.1064  0.2926  0.2330
 4142SOL    HW124062   4.578   0.887  14.854 -0.1495 -1.7369  0.9712
 4142SOL    HW224063   4.491   0.963  14.757 -0.7953  1.3512  2.0391
 4143SOL     OW24064   1.757   0.532   1.587  0.7696  0.4194 -0.7456
 4143SOL    HW124065   1.710   0.449   1.585 -0.5611  1.1518 -0.3025
 4143SOL    HW224066   1.757   0.562   1.497  2.7344 -0.2017 -0.9509
 4144SOL     OW24067   4.677   3.219   1.633  0.6594 -0.0298 -0.2791
 4144SOL    HW124068   4.631   3.284   1.686  0.5948  0.8579 -1.4234
 4144SOL    HW224069   4.671   3.141   1.689  0.9206 -0.7687 -1.2689
 4145SOL     OW24070   0.217   4.643   6.542 -0.1804 -0.7789 -0.3131
 4145SOL    HW124071   0.272   4.713   6.506  0.7113 -0.3593  1.8902
 4145SOL    HW224072   0.135   4.688   6.521  0.0800  0.7314  1.9068
 4146SOL     OW24073   1.320   0.914  14.573  0.1879 -0.1456 -0.2509
 4146SOL    HW124074   1.342   0.893  14.483 -0.0543  0.2994 -0.4122
 4146SOL    HW224075   1.400   0.959  14.598  1.2190 -2.4243  0.5636
 4147SOL     OW24076   0.215   3.346   9.001 -0.5760  0.6242 -0.1244
 4147SOL    HW124077   0.254   3.379   9.082 -2.6135 -1.1148  1.5448
 4147SOL    HW224078   0.229   3.425   8.948  5.2839 -0.1653  0.2637
 4148SOL     OW24079   2.371   2.426   7.747 -1.1383 -0.4152 -0.0352
 4148SOL    HW124080   2.314   2.415   7.824 -0.7885  0.1969  0.3082
 4148SOL    HW224081   2.404   2.337   7.737 -1.0758 -0.1489 -2.1338
 4149SOL     OW24082   1.663   4.116   2.513  0.0415  0.2737 -0.1407
 4149SOL    HW124083   1.682   4.104   2.606  1.5479 -1.7500 -0.6982
 4149SOL    HW224084   1.580   4.068   2.509 -0.7499  1.6384 -0.0619
 4150SOL     OW24085   2.391   1.638  13.885  0.4049 -0.2656  0.3425
 4150SOL    HW124086   2.439   1.698  13.829  1.1207  1.6592  2.9896
 4150SOL    HW224087   2.321   1.693  13.920  0.6028 -0.7299  1.4871
 4151SOL     OW24088   2.435   2.577  10.731 -0.3020  0.3777 -0.1334
 4151SOL    HW124089   2.393   2.612  10.810 -0.8727  0.6719 -0.5714
 4151SOL    HW224090   2.528   2.574  10.754 -0.4657  1.3781  0.6634
 4152SOL     OW24091   4.312   2.985   1.709 -0.1511 -0.4735  0.0254
 4152SOL    HW124092   4.267   2.925   1.648  0.1155 -1.9379  1.2694
 4152SOL    HW224093   4.239   3.038   1.742 -1.3182 -1.6950 -0.5702
 4153SOL     OW24094   3.237   4.266   9.071  0.3136  0.0756  0.6304
 4153SOL    HW124095   3.328   4.281   9.044  0.9456  1.6349  3.6440
 4153SOL    HW224096   3.257   4.191   9.128  1.4514 -1.2704 -1.5139
 4154SOL     OW24097   1.364   0.418   5.385 -0.0248 -0.9009 -0.7494
 4154SOL    HW124098   1.341   0.329   5.357 -0.9078  0.1842 -3.5065
 4154SOL    HW224099   1.283   0.459   5.414  0.5006 -1.9271  2.1621
 4155SOL     OW24100   3.234   0.539   5.549 -0.0894  0.1183  0.3849
 4155SOL    HW124101   3.262   0.480   5.618 -0.6612  1.1429  1.5006
 4155SOL    HW224102   3.319   0.547   5.505 -0.7384  3.9965 -0.2227
 4156SOL     OW24103   3.143   3.265  11.577  0.4389 -0.0109 -0.1716
 4156SOL    HW124104   3.190   3.191  11.615  1.7265  0.2891 -1.2125
 4156SOL    HW224105   3.199   3.335  11.609  0.9864 -0.5021 -0.0688
 4157SOL     OW24106   0.120   2.976   6.445 -0.6259  0.0828 -0.2516
 4157SOL    HW124107   0.112   3.063   6.407  2.3576  0.7034  0.6042
 4157SOL    HW224108   0.208   2.993   6.478  1.0094 -1.8336 -3.5419
 4158SOL     OW24109   3.110   4.727   5.920 -0.3059  0.1238  0.4092
 4158SOL    HW124110   3.054   0.051   5.968 -1.8768 -0.5740 -0.5564
 4158SOL    HW224111   3.184   0.046   5.896  0.9072 -1.6278  0.0445
 4159SOL     OW24112   1.972   1.101  16.009 -0.0169 -0.3583 -0.0008
 4159SOL    HW124113   1.918   1.104  16.088 -0.6326 -0.0165 -0.4379
 4159SOL    HW224114   2.039   1.045  16.049  0.7610  0.3020 -0.3805
 4160SOL     OW24115   3.609   2.655   7.197  0.1899  0.7732  0.1331
 4160SOL    HW124116   3.643   2.744   7.205  4.0482 -0.6841 -0.4247
 4160SOL    HW224117   3.618   2.626   7.288 -0.3938 -2.1792 -0.7543
 4161SOL     OW24118   3.175   2.116   7.285  0.0244  0.1000 -0.0100
 4161SOL    HW124119   3.113   2.057   7.243 -0.6044  0.1665  0.8471
 4161SOL    HW224120   3.246   2.056   7.307 -0.6551 -0.1585  1.4388
 4162SOL     OW24121   3.499   1.290   6.021  0.5656  0.3659  0.7496
 4162SOL    HW124122   3.471   1.284   6.113  1.1307 -1.1701  0.8194
 4162SOL    HW224123   3.416   1.304   5.976 -0.3610 -1.1205  2.0111
 4163SOL     OW24124   2.927   0.577   7.632  0.2306 -0.4473 -0.0690
 4163SOL    HW124125   2.916   0.600   7.540  1.5100 -1.2383 -0.4024
 4163SOL    HW224126   3.016   0.543   7.629  0.2962 -0.2650 -0.1898
 4164SOL     OW24127   1.868   2.068  14.055  0.0706  0.0984 -0.2974
 4164SOL    HW124128   1.961   2.085  14.039  0.0376  0.7221  0.1593
 4164SOL    HW224129   1.851   2.081  14.148  3.4995 -0.8586  0.4466
 4165SOL     OW24130   1.235   4.584   3.366 -0.2954 -0.2888  0.0448
 4165SOL    HW124131   1.175   4.636   3.418 -1.0381  1.5839 -2.6789
 4165SOL    HW224132   1.300   4.561   3.432  0.7375  0.0223 -0.8542
 4166SOL     OW24133   3.272   3.838   6.627 -0.3767  0.0784  0.3331
 4166SOL    HW124134   3.328   3.761   6.627 -2.2892 -1.3475 -2.6212
 4166SOL    HW224135   3.238   3.831   6.538 -2.8531 -0.1102  1.2886
 4167SOL     OW24136   4.576   4.056   8.024 -0.8795 -0.7727 -0.4129
 4167SOL    HW124137   4.608   4.096   8.105  2.3997 -2.7081 -0.7658
 4167SOL    HW224138   4.525   3.981   8.056 -1.4753 -0.9875 -1.8843
 4168SOL     OW24139   2.114   2.201   8.619 -0.4231 -0.6869 -0.0400
 4168SOL    HW124140   2.179   2.221   8.686 -0.8479 -1.1185  0.5016
 4168SOL    HW224141   2.173   2.174   8.548 -0.8405  1.8795 -1.3517
 4169SOL     OW24142   2.380   1.856  11.186 -0.0929  0.0156  0.7556
 4169SOL    HW124143   2.310   1.847  11.250  0.3598 -2.3448  0.9226
 4169SOL    HW224144   2.456   1.881  11.240 -0.5400 -0.8608  1.8005
 4170SOL     OW24145   1.159   2.147  12.592 -0.3258  0.7177  0.0843
 4170SOL    HW124146   1.195   2.140  12.680  0.5840 -0.6323 -0.3960
 4170SOL    HW224147   1.203   2.066  12.564 -2.5297 -0.1347 -0.9356
 4171SOL     OW24148   1.118   1.765  13.667  0.3905  0.9517 -0.2456
 4171SOL    HW124149   1.160   1.849  13.650  0.2169  1.0375 -0.2574
 4171SOL    HW224150   1.119   1.766  13.762 -0.0952  0.1580 -0.2340
 4172SOL     OW24151   0.719   4.331   4.799 -0.4990  0.2306  0.6260
 4172SOL    HW124152   0.806   4.371   4.805 -0.2833  0.0030 -0.8298
 4172SOL    HW224153   0.711   4.317   4.704  0.3686 -1.3262  0.7855
 4173SOL     OW24154   2.259   3.635  12.318  0.1698  0.6721  0.1789
 4173SOL    HW124155   2.272   3.671  12.406  1.5371 -1.8294  1.0118
 4173SOL    HW224156   2.227   3.707  12.264 -2.5455  0.0986  0.9825
 4174SOL     OW24157   2.115   2.093  14.737  0.6041 -0.7380  0.5542
 4174SOL    HW124158   2.089   2.020  14.794  0.3996  0.8762  2.5407
 4174SOL    HW224159   2.201   2.114  14.773 -1.2972  1.2563  3.8608
 4175SOL     OW24160   4.192   3.898   5.633  0.0309  0.1614 -0.7290
 4175SOL    HW124161   4.104   3.867   5.612 -0.7401  1.4946  0.5630
 4175SOL    HW224162   4.185   3.992   5.647 -1.6792 -0.1492  0.4819
 4176SOL     OW24163   2.814   3.044  14.291 -0.2447  0.1740 -0.2314
 4176SOL    HW124164   2.772   3.055  14.376  0.7247  1.8809  0.0213
 4176SOL    HW224165   2.891   2.993  14.316 -0.7909 -1.5440 -1.9862
 4177SOL     OW24166   4.394   3.775   8.368 -0.2895 -0.1821  0.1391
 4177SOL    HW124167   4.333   3.754   8.297  0.5231 -0.7250 -0.4033
 4177SOL    HW224168   4.380   3.699   8.425  0.0234  0.5784  1.2288
 4178SOL     OW24169   0.507   4.521   3.264  0.0625  0.3113 -0.4380
 4178SOL    HW124170   0.436   4.466   3.230  0.4659  0.7125 -1.9288
 4178SOL    HW224171   0.453   4.596   3.293 -0.3623 -0.4106  0.6621
 4179SOL     OW24172   3.375   4.308   4.062  0.0764 -0.2872  0.3654
 4179SOL    HW124173   3.431   4.234   4.087 -0.9185 -2.5067 -3.9927
 4179SOL    HW224174   3.384   4.303   3.967  1.8953  0.9211  0.4890
 4180SOL     OW24175   4.568   3.052   6.994 -0.5523  0.3573  0.2023
 4180SOL    HW124176   4.662   3.058   6.978 -0.4559 -0.8097  0.3541
 4180SOL    HW224177   4.536   3.138   6.965 -0.5525  0.1821 -0.3050
 4181SOL     OW24178   0.636   0.302   4.621  0.0621  0.4454  0.2304
 4181SOL    HW124179   0.708   0.241   4.605  0.0677 -0.3172  3.0327
 4181SOL    HW224180   0.565   0.239   4.629  0.5003  0.0343  0.9240
 4182SOL     OW24181   2.488   3.390  14.055  0.8020 -0.0198  0.4294
 4182SOL    HW124182   2.571   3.387  14.007  0.2356 -0.3475 -0.5283
 4182SOL    HW224183   2.448   3.307  14.027  1.2351 -0.5477  1.3704
 4183SOL     OW24184   0.001   4.530  17.358 -0.3076  0.3786  0.7296
 4183SOL    HW124185   4.733   4.454  17.301 -0.8831  0.1786  1.0391
 4183SOL    HW224186   0.064   4.496  17.422  1.2405  1.5666 -0.1487
 4184SOL     OW24187   3.106   2.633   0.396 -0.6338  0.1947  0.2748
 4184SOL    HW124188   3.140   2.552   0.359 -0.5004  0.2533  0.2668
 4184SOL    HW224189   3.072   2.678   0.319  1.4063 -0.8575 -1.2282
 4185SOL     OW24190   2.855   1.664   5.398  0.3942  0.1096 -0.0017
 4185SOL    HW124191   2.918   1.591   5.402 -1.0663 -1.2508 -1.6147
 4185SOL    HW224192   2.910   1.733   5.361  0.3960 -0.0958 -0.3808
 4186SOL     OW24193   0.770   4.255  12.266  0.4722  0.4599 -0.0193
 4186SOL    HW124194   0.778   4.160  12.252 -0.4090  0.7083 -2.2968
 4186SOL    HW224195   0.854   4.291  12.236  0.7128  0.1954  0.3325
 4187SOL     OW24196   3.941   4.048   3.905  0.3865  0.6330  0.7733
 4187SOL    HW124197   3.924   3.995   3.983  1.1140 -1.0279 -0.2072
 4187SOL    HW224198   4.030   4.080   3.921 -0.0608  1.0759  2.3664
 4188SOL     OW24199   0.291   4.479   5.891 -0.2888 -0.2405  0.4576
 4188SOL    HW124200   0.299   4.389   5.861 -2.3289  0.4427 -2.1497
 4188SOL    HW224201   0.365   4.492   5.950  0.3042  0.0669 -0.3557
 4189SOL     OW24202   3.780   1.124  13.086 -0.1211  0.3736 -0.2066
 4189SOL    HW124203   3.840   1.065  13.131 -1.6886 -1.6685 -0.7959
 4189SOL    HW224204   3.835   1.185  13.036 -0.0564  0.0116 -0.5759
 4190SOL     OW24205   2.235   0.485   3.134 -0.1309  0.6441 -0.7264
 4190SOL    HW124206   2.283   0.557   3.175  0.7566 -0.5470  0.3316
 4190SOL    HW224207   2.308   0.442   3.088  1.7000  2.1123  0.8022
 4191SOL     OW24208   0.311   3.842   4.191 -0.0632 -0.0568  0.5111
 4191SOL    HW124209   0.238   3.820   4.133 -0.6197 -1.1678  1.6221
 4191SOL    HW224210   0.346   3.922   4.152  1.7501  0.2105  2.7117
 4192SOL     OW24211   1.326   0.500   6.733  0.4419 -0.4799  0.3322
 4192SOL    HW124212   1.230   0.495   6.735  0.3482  0.5743 -1.0793
 4192SOL    HW224213   1.329   0.517   6.827  1.2936  1.0472  0.0329
 4193SOL     OW24214   3.605   0.795   6.264 -0.8348  0.5701 -0.2977
 4193SOL    HW124215   3.566   0.740   6.196 -0.4738 -0.2803  0.1819
 4193SOL    HW224216   3.623   0.869   6.206  0.5166 -0.1773 -0.8541
 4194SOL     OW24217   1.689   1.455   1.870 -0.3110 -0.7769  0.5493
 4194SOL    HW124218   1.600   1.490   1.874  0.0096  0.0137  0.8653
 4194SOL    HW224219   1.679   1.380   1.811 -3.6859  0.0663  0.0372
 4195SOL     OW24220   2.714   3.721   7.001 -0.1122 -0.6158 -0.2359
 4195SOL    HW124221   2.686   3.806   6.965  0.1612 -0.7851 -0.8418
 4195SOL    HW224222   2.806   3.712   6.976  0.3625  2.0202  0.5209
 4196SOL     OW24223   1.896   2.731   9.372 -0.5957 -0.4958 -0.3485
 4196SOL    HW124224   1.865   2.812   9.330 -0.5823 -0.1642  0.2784
 4196SOL    HW224225   1.955   2.769   9.437 -2.0891  1.0436  0.1026
 4197SOL     OW24226   1.619   0.990  14.180  0.3508 -0.0926  0.0896
 4197SOL    HW124227   1.704   0.947  14.185  0.1864  0.0028  3.6966
 4197SOL    HW224228   1.578   0.924  14.123  0.3026 -0.0099  0.0283
 4198SOL     OW24229   3.773   1.362   7.611  0.1076  0.5313  0.6853
 4198SOL    HW124230   3.698   1.318   7.572  0.4922  0.0293  0.5084
 4198SOL    HW224231   3.742   1.358   7.701  1.3232 -1.2981  1.0273
 4199SOL     OW24232   1.626   1.843   0.909  0.1998 -0.0817 -0.1102
 4199SOL    HW124233   1.685   1.774   0.938 -0.5253 -1.0464 -0.9378
 4199SOL    HW224234   1.557   1.821   0.972  1.3702 -0.2166  1.1044
 4200SOL     OW24235   0.316   3.414   6.802  0.2562  0.6114 -0.2501
 4200SOL    HW124236   0.230   3.408   6.845 -0.1037 -1.1046 -1.2429
 4200SOL    HW224237   0.348   3.325   6.810 -0.2124  0.5627  1.2181
 4201SOL     OW24238   4.370   3.867   4.903 -0.2574  1.8709  0.3226
 4201SOL    HW124239   4.322   3.814   4.840 -3.7828  2.6032  2.3818
 4201SOL    HW224240   4.447   3.895   4.854  0.1841 -0.5523 -0.3753
 4202SOL     OW24241   3.120   2.414  10.885  0.0630 -0.2031 -0.4329
 4202SOL    HW124242   3.154   2.386  10.800  2.0630  0.2076  0.2120
 4202SOL    HW224243   3.089   2.333  10.924 -0.0641  0.1675  0.2364
 4203SOL     OW24244   2.924   1.552   2.242  0.7403  0.3004  0.1803
 4203SOL    HW124245   3.015   1.568   2.266  0.3346  1.4138  0.9948
 4203SOL    HW224246   2.934   1.457   2.233  0.5373  0.1321  1.7219
 4204SOL     OW24247   3.725   4.725   7.018 -0.1662 -0.0722  0.0852
 4204SOL    HW124248   3.651   4.685   6.971  0.6368 -1.6933  0.1843
 4204SOL    HW224249   3.794   4.658   7.017 -0.4959 -0.3807 -2.5813
 4205SOL     OW24250   2.741   2.270   0.612  0.0929 -0.3108  0.2257
 4205SOL    HW124251   2.795   2.232   0.542  0.6826  1.5934 -0.3318
 4205SOL    HW224252   2.728   2.352   0.565  0.5107  0.7057  1.9043
 4206SOL     OW24253   1.871   4.046   0.377  0.0543  0.0143  0.2258
 4206SOL    HW124254   1.862   4.119   0.316  3.6190  0.2752  0.0003
 4206SOL    HW224255   1.776   4.034   0.385 -0.3354  1.9485 -1.4309
 4207SOL     OW24256   2.728   4.588   6.993  0.4643 -0.3654  0.1994
 4207SOL    HW124257   2.651   4.574   7.047  0.5825  0.4108  0.5644
 4207SOL    HW224258   2.778   4.512   7.023 -0.3283 -0.4696  1.2560
 4208SOL     OW24259   3.526   4.064   7.569 -0.6185  0.0683  0.3223
 4208SOL    HW124260   3.447   4.074   7.516  0.5867  0.7889 -1.3679
 4208SOL    HW224261   3.507   4.033   7.657 -0.1777 -2.3612 -0.4441
 4209SOL     OW24262   0.854   1.150   3.433  0.4294  0.0614 -0.5267
 4209SOL    HW124263   0.877   1.062   3.462 -1.8079 -0.8752 -1.6851
 4209SOL    HW224264   0.799   1.175   3.507  3.0166 -1.0535  1.7973
 4210SOL     OW24265   1.033   4.113  10.514  0.3543  0.3793 -0.3297
 4210SOL    HW124266   1.027   4.028  10.556  3.3658 -0.1100 -0.8839
 4210SOL    HW224267   0.974   4.089  10.442 -2.0198  3.2717  0.6866
 4211SOL     OW24268   0.455   1.271   4.628 -0.3211  0.1066 -0.0298
 4211SOL    HW124269   0.370   1.239   4.595 -0.8942  0.9802  0.6073
 4211SOL    HW224270   0.478   1.308   4.543 -0.4964  0.2405 -0.0200
 4212SOL     OW24271   1.771   2.116   1.292  0.4082 -0.0420 -0.8215
 4212SOL    HW124272   1.812   2.151   1.213  0.0307 -1.3112 -1.5713
 4212SOL    HW224273   1.850   2.125   1.345 -0.8592 -0.7919  1.1766
 4213SOL     OW24274   3.229   2.488   4.533  0.2778 -0.3289  0.0071
 4213SOL    HW124275   3.287   2.424   4.491 -0.1019 -0.2801 -0.5897
 4213SOL    HW224276   3.273   2.482   4.618  2.0620 -2.4877 -1.0510
 4214SOL     OW24277   3.879   3.772  15.093  0.1089  0.1112  0.4079
 4214SOL    HW124278   3.806   3.823  15.058  0.0507  0.2575  0.7408
 4214SOL    HW224279   3.825   3.727  15.158 -0.6331 -1.9865 -1.6477
 4215SOL     OW24280   4.075   4.636   1.872 -0.2603 -0.6849  0.5511
 4215SOL    HW124281   4.015   4.679   1.933 -0.4635  0.0461 -0.1658
 4215SOL    HW224282   4.146   4.656   1.933  2.0567 -0.9227 -2.0559
 4216SOL     OW24283   3.210   4.131  13.472 -0.4388  0.2175 -0.0992
 4216SOL    HW124284   3.274   4.188  13.514  0.3807 -1.2604  0.6515
 4216SOL    HW224285   3.245   4.132  13.383  0.4777  0.5139  0.2636
 4217SOL     OW24286   4.427   4.641   4.817 -0.2929  0.2483 -0.1580
 4217SOL    HW124287   4.379   4.575   4.866 -1.1776  0.3468 -0.9002
 4217SOL    HW224288   4.370   4.662   4.742 -2.6131  0.4701  1.6724
 4218SOL     OW24289   4.651   2.009   2.791  0.5414  0.5248  0.3049
 4218SOL    HW124290   4.665   2.061   2.870  1.8616 -1.2832  1.2636
 4218SOL    HW224291   4.707   2.052   2.728 -1.8143 -0.0808 -2.2109
 4219SOL     OW24292   0.844   0.163   6.723  0.2490  0.1018 -0.4829
 4219SOL    HW124293   0.929   0.130   6.696  0.8191  0.8669  0.3945
 4219SOL    HW224294   0.824   0.212   6.643  3.6554  0.7443 -0.9485
 4220SOL     OW24295   2.125   0.076   6.540  0.1227  0.1542  0.3713
 4220SOL    HW124296   2.105   0.163   6.505 -1.8869 -0.1683  0.7217
 4220SOL    HW224297   2.051   0.026   6.507  0.9952 -1.5539  1.0315
 4221SOL     OW24298   0.396   1.767  16.688  0.2404  0.0996 -0.6393
 4221SOL    HW124299   0.307   1.800  16.674  0.1860  0.2893  0.1383
 4221SOL    HW224300   0.440   1.843  16.725  0.8094 -0.2277 -0.6395
 4222SOL     OW24301   1.838   4.351   4.021 -0.0139  0.0693 -0.1829
 4222SOL    HW124302   1.885   4.351   4.104  0.2906 -3.1658 -0.3581
 4222SOL    HW224303   1.758   4.396   4.045 -0.0499  0.9906 -1.9947
 4223SOL     OW24304   2.050   0.556  16.813  0.1270 -0.2771 -0.3883
 4223SOL    HW124305   2.122   0.613  16.785 -1.3035  1.3775 -0.7177
 4223SOL    HW224306   1.986   0.616  16.852 -0.0131 -0.7666  0.1267
 4224SOL     OW24307   2.637   0.073  16.405  0.0923  0.7120 -0.6699
 4224SOL    HW124308   2.679   0.023  16.335  0.3997  1.7403 -1.2179
 4224SOL    HW224309   2.697   0.146  16.391 -0.7074  1.1249 -1.8858
 4225SOL     OW24310   0.557   0.083   3.101 -0.2454  0.3563  0.4032
 4225SOL    HW124311   0.546   0.155   3.163  1.1392 -0.9621  2.1898
 4225SOL    HW224312   0.499   0.019   3.142 -1.8837  1.5493 -0.0651
 4226SOL     OW24313   1.665   3.903   3.600 -0.3422 -0.7998 -0.4763
 4226SOL    HW124314   1.570   3.891   3.593 -0.1393 -1.9780 -1.1657
 4226SOL    HW224315   1.684   3.811   3.619  0.6569 -0.7549 -1.2872
 4227SOL     OW24316   4.062   2.951   6.367  0.6117  0.0736  0.3913
 4227SOL    HW124317   4.107   2.943   6.451 -0.1788 -2.6425  0.5359
 4227SOL    HW224318   4.130   2.986   6.309  0.3723 -0.5264 -0.2495
 4228SOL     OW24319   0.343   2.002   2.232  0.3705  0.4202  0.0238
 4228SOL    HW124320   0.277   2.048   2.284 -0.2352  0.6283 -0.9315
 4228SOL    HW224321   0.356   1.925   2.288  0.6372  1.7288  1.7486
 4229SOL     OW24322   0.662   2.477   5.669 -0.5105  0.1135  0.0095
 4229SOL    HW124323   0.753   2.503   5.685 -0.7340  1.0581 -0.2403
 4229SOL    HW224324   0.647   2.446   5.758 -1.4548  0.7930  0.0935
 4230SOL     OW24325   2.069   4.248   5.292  0.3953 -1.1406  0.0047
 4230SOL    HW124326   2.101   4.332   5.258 -0.4489 -0.3922  1.0440
 4230SOL    HW224327   2.068   4.197   5.211 -1.8032 -0.9893 -0.0851
 4231SOL     OW24328   2.088   0.707   5.076  0.3261 -0.4585  0.9698
 4231SOL    HW124329   2.092   0.729   4.983  0.3647  0.2666  1.1457
 4231SOL    HW224330   2.110   0.790   5.118 -0.7335  1.2371 -1.7841
 4232SOL     OW24331   2.327   4.307   4.322  0.4056 -0.1188 -0.1395
 4232SOL    HW124332   2.411   4.264   4.307  0.8436 -0.0163  2.0839
 4232SOL    HW224333   2.285   4.269   4.245  0.9455 -1.3626  0.1827
 4233SOL     OW24334   0.037   2.312   8.487  0.4938 -0.0418 -0.4502
 4233SOL    HW124335   0.091   2.355   8.553  0.8938  0.1609 -0.9067
 4233SOL    HW224336   0.051   2.219   8.502 -1.0922 -0.3697 -0.9850
 4234SOL     OW24337   3.947   0.363   8.272  0.9266  0.6037  0.2075
 4234SOL    HW124338   3.949   0.457   8.254 -1.5753  0.8329  1.1423
 4234SOL    HW224339   3.968   0.352   8.365 -0.2029  0.9356  0.4963
 4235SOL     OW24340   0.214   3.689   0.139  0.2475 -0.7134  0.0207
 4235SOL    HW124341   0.284   3.626   0.122  0.9957 -0.3365  1.6930
 4235SOL    HW224342   0.194   3.689   0.233 -0.9205  0.0417 -0.2245
 4236SOL     OW24343   0.210   3.000   0.729 -0.0994  0.1221 -0.6315
 4236SOL    HW124344   0.194   2.993   0.823  1.4821  1.2918 -0.2749
 4236SOL    HW224345   0.246   2.912   0.723 -1.4865 -0.4047 -1.2903
 4237SOL     OW24346   3.103   1.323  10.568 -0.4985  0.5958  0.3602
 4237SOL    HW124347   3.046   1.376  10.513  1.0312  1.2162 -0.6455
 4237SOL    HW224348   3.193   1.354  10.553  0.5379 -2.6645 -0.3593
 4238SOL     OW24349   1.654   1.026   3.463 -0.2880 -0.0147 -0.5345
 4238SOL    HW124350   1.613   0.980   3.536 -2.4012  2.5987 -0.0620
 4238SOL    HW224351   1.585   1.013   3.397 -0.3744 -1.6092 -0.1307
 4239SOL     OW24352   0.685   1.326   3.280 -0.2314 -0.7664  0.4861
 4239SOL    HW124353   0.726   1.395   3.332  2.3282 -1.6220 -0.3838
 4239SOL    HW224354   0.644   1.271   3.346 -0.8069 -1.2369 -0.2578
 4240SOL     OW24355   1.659   0.730   8.978 -0.2235  0.0606  0.2594
 4240SOL    HW124356   1.655   0.824   8.999 -1.3589  0.5244 -2.0078
 4240SOL    HW224357   1.568   0.706   8.965  0.0552  0.2361 -1.9857
 4241SOL     OW24358   2.567   2.540   6.131  0.1642 -0.1322  0.5911
 4241SOL    HW124359   2.580   2.591   6.211  0.6869  2.0140 -0.8621
 4241SOL    HW224360   2.476   2.513   6.141 -0.2165  0.8071 -0.2741
 4242SOL     OW24361   1.139   2.735   8.337  0.2992  0.0712  0.7339
 4242SOL    HW124362   1.217   2.767   8.383  1.0423  1.6770 -1.6313
 4242SOL    HW224363   1.136   2.783   8.255  0.8753 -0.3118  0.4848
 4243SOL     OW24364   2.304   0.664   4.483 -0.1781  0.2587  0.0892
 4243SOL    HW124365   2.256   0.667   4.400 -1.3551 -1.0788  0.7099
 4243SOL    HW224366   2.338   0.753   4.478  1.2811 -0.3264 -0.4495
 4244SOL     OW24367   0.300   3.201   3.114 -0.2443  0.2025 -0.3289
 4244SOL    HW124368   0.341   3.139   3.054 -1.0523 -0.8501  0.2045
 4244SOL    HW224369   0.366   3.233   3.174  0.0500 -2.6854  0.9025
 4245SOL     OW24370   2.301   2.307   7.191  0.1351 -0.2774  0.2515
 4245SOL    HW124371   2.257   2.262   7.263 -0.8313 -0.1167 -0.2445
 4245SOL    HW224372   2.235   2.372   7.169 -0.0431 -0.7106 -0.4683
 4246SOL     OW24373   4.460   0.678   6.874  0.0712 -0.0082  0.4649
 4246SOL    HW124374   4.379   0.628   6.862  1.4478 -1.9409 -0.7996
 4246SOL    HW224375   4.500   0.670   6.788 -0.5946  2.5177 -0.0730
 4247SOL     OW24376   3.471   2.864  13.457  0.0193  0.2539  0.0407
 4247SOL    HW124377   3.400   2.849  13.519  0.4093 -1.6101  0.0290
 4247SOL    HW224378   3.497   2.772  13.449  1.5977  0.6725  0.3258
 4248SOL     OW24379   0.992   2.419   4.301 -0.2568 -0.0876  0.3781
 4248SOL    HW124380   0.918   2.359   4.317  0.7011 -1.4235 -0.1991
 4248SOL    HW224381   1.063   2.356   4.289  0.2141  0.8793 -1.7084
 4249SOL     OW24382   4.040   4.222  13.395  0.5402 -0.2355  0.4273
 4249SOL    HW124383   4.011   4.175  13.473  0.0963  1.1684  1.1024
 4249SOL    HW224384   3.979   4.204  13.324  0.5824 -0.7911  0.5290
 4250SOL     OW24385   3.564   0.050   2.560 -0.6891 -0.1089  0.3231
 4250SOL    HW124386   3.540   4.694   2.569 -0.2933 -0.1750  0.6893
 4250SOL    HW224387   3.485   0.101   2.577 -1.8028 -0.4670 -3.6636
 4251SOL     OW24388   3.879   4.123   3.355 -0.0498  0.0032 -0.3630
 4251SOL    HW124389   3.789   4.112   3.385 -0.3895 -0.1118 -1.4311
 4251SOL    HW224390   3.888   4.216   3.375 -1.8695  0.0941 -0.0146
 4252SOL     OW24391   1.050   2.418   2.924  0.3718 -0.3700 -0.0665
 4252SOL    HW124392   0.969   2.437   2.877  0.3154  0.2084  0.2638
 4252SOL    HW224393   1.020   2.330   2.946  0.5998  0.4015  3.4789
 4253SOL     OW24394   2.211   4.559  15.711 -0.0878 -0.1465  0.4348
 4253SOL    HW124395   2.133   4.512  15.682  0.0463  0.9481 -1.7252
 4253SOL    HW224396   2.216   4.524  15.799 -2.2552 -1.7005 -0.0656
 4254SOL     OW24397   2.192   1.523   4.876 -0.1699  0.1135 -0.2499
 4254SOL    HW124398   2.242   1.455   4.831  2.1894  1.9971 -0.4968
 4254SOL    HW224399   2.247   1.601   4.866 -0.3081  0.2994  0.4376
 4255SOL     OW24400   1.336   1.982   3.633 -0.1630  0.1575  0.0443
 4255SOL    HW124401   1.305   2.068   3.603  3.3839  2.1384  2.1039
 4255SOL    HW224402   1.274   1.974   3.705 -0.2434  1.4740  0.1219
 4256SOL     OW24403   0.832   4.464   0.675 -0.5204 -0.3679  0.1709
 4256SOL    HW124404   0.840   4.447   0.769  3.6648 -2.4668 -0.5628
 4256SOL    HW224405   0.744   4.428   0.670 -1.4183  2.0588 -1.6535
 4257SOL     OW24406   1.482   0.489   2.745  0.0841  0.1297  0.0277
 4257SOL    HW124407   1.542   0.546   2.792 -0.2986 -1.0472  1.9732
 4257SOL    HW224408   1.469   0.522   2.656  1.8460 -1.7002 -0.8827
 4258SOL     OW24409   1.884   0.033   2.818  0.1529 -0.3985  0.0161
 4258SOL    HW124410   1.946   0.044   2.889 -1.5613  3.0661  0.9968
 4258SOL    HW224411   1.859   0.124   2.801  0.9713 -0.6778 -2.6553
 4259SOL     OW24412   1.295   2.507   7.563 -0.2621  0.3716 -0.4672
 4259SOL    HW124413   1.254   2.582   7.605  0.7651 -1.1964  3.2977
 4259SOL    HW224414   1.216   2.469   7.523  1.0057 -1.0313 -1.6316
 4260SOL     OW24415   0.637   1.504   7.923  0.2875  0.9453 -0.5357
 4260SOL    HW124416   0.652   1.412   7.900 -0.3454  0.3283  1.5557
 4260SOL    HW224417   0.554   1.510   7.877  0.4962  0.0122 -1.0426
 4261SOL     OW24418   4.608   0.995  11.709 -0.2377  0.1531  0.5279
 4261SOL    HW124419   4.672   0.923  11.712 -2.7224 -2.0236  1.1748
 4261SOL    HW224420   4.650   1.052  11.645 -0.1632 -2.0200 -1.3815
 4262SOL     OW24421   1.400   4.319   9.675  0.4006  0.0868  0.1399
 4262SOL    HW124422   1.446   4.235   9.676  0.4124  0.0940  0.2060
 4262SOL    HW224423   1.408   4.345   9.583 -2.9465  0.9736  0.0837
 4263SOL     OW24424   2.646   0.505  14.596  0.5128 -0.4743  0.2873
 4263SOL    HW124425   2.575   0.488  14.534 -0.4004  1.6074  0.7818
 4263SOL    HW224426   2.707   0.433  14.575  0.3315 -0.6836  0.4791
 4264SOL     OW24427   3.552   4.524   2.612 -0.3629 -0.0126 -0.0289
 4264SOL    HW124428   3.557   4.444   2.560 -1.9120  0.0030 -0.1917
 4264SOL    HW224429   3.619   4.520   2.681  0.0127 -4.0917 -0.6644
 4265SOL     OW24430   4.147   1.277   1.964 -0.1823 -0.5225 -0.2858
 4265SOL    HW124431   4.180   1.203   2.014  0.1490  0.3520  0.7787
 4265SOL    HW224432   4.057   1.252   1.945  0.0828 -0.9074 -1.0405
 4266SOL     OW24433   2.968   0.737   5.095 -0.1131 -0.6033 -0.1517
 4266SOL    HW124434   2.963   0.641   5.100  0.6293 -0.6341  0.0506
 4266SOL    HW224435   3.040   0.759   5.155 -1.0572 -1.3003  1.2326
 4267SOL     OW24436   4.194   0.543  14.684  0.2666 -0.4235  0.1852
 4267SOL    HW124437   4.174   0.543  14.777  0.8670 -0.0441  0.3181
 4267SOL    HW224438   4.145   0.465  14.657 -0.2154 -0.4274  1.0874
 4268SOL     OW24439   1.303   0.557  13.362 -0.3895 -0.4539  0.7405
 4268SOL    HW124440   1.322   0.476  13.314  0.5470 -0.0630  0.4478
 4268SOL    HW224441   1.208   0.558  13.369 -0.5008 -0.0845 -0.9405
 4269SOL     OW24442   4.166   2.939   0.424  0.7791  1.1817 -0.2332
 4269SOL    HW124443   4.248   2.987   0.417  0.7804  1.4229  1.3225
 4269SOL    HW224444   4.122   3.001   0.366 -1.2666  0.4434  0.5483
 4270SOL     OW24445   1.046   0.684   1.239 -0.4322 -0.1032  0.2165
 4270SOL    HW124446   1.085   0.667   1.325 -1.3984 -2.0218  0.2842
 4270SOL    HW224447   1.081   0.601   1.206  1.1859  1.4414 -1.8854
 4271SOL     OW24448   3.016   1.901   7.613  0.1726 -0.4583 -0.3950
 4271SOL    HW124449   2.941   1.865   7.661 -0.0600 -0.2417 -0.5929
 4271SOL    HW224450   3.017   1.837   7.542  0.9220 -0.2401 -0.5781
 4272SOL     OW24451   2.494   3.031   6.173  0.1145  0.5316 -0.0796
 4272SOL    HW124452   2.505   2.936   6.175 -1.2941  0.3858  0.9021
 4272SOL    HW224453   2.476   3.058   6.263  0.5967 -0.5542  0.3432
 4273SOL     OW24454   0.523   2.349   4.552  0.2115  0.1996  0.3452
 4273SOL    HW124455   0.550   2.378   4.639 -1.6376 -0.2252  1.0676
 4273SOL    HW224456   0.572   2.401   4.489  2.0250  0.5723  2.0795
 4274SOL     OW24457   2.891   3.143   1.840 -0.2843 -0.5109  0.1233
 4274SOL    HW124458   2.880   3.061   1.791  1.8059 -0.5571 -0.2708
 4274SOL    HW224459   2.895   3.198   1.762 -0.5121 -0.2102  0.3278
 4275SOL     OW24460   3.956   1.436  12.569  0.6421 -0.1353 -0.3252
 4275SOL    HW124461   4.047   1.404  12.573 -0.0164 -2.0371 -0.3124
 4275SOL    HW224462   3.940   1.452  12.476 -1.8753  2.8821  0.6475
 4276SOL     OW24463   0.416   3.171   6.817  0.2321  0.6781 -0.4238
 4276SOL    HW124464   0.436   3.088   6.774 -0.7455  2.1148 -3.6736
 4276SOL    HW224465   0.406   3.146   6.909  1.0411 -2.0568 -1.0786
 4277SOL     OW24466   1.813   0.676   4.929  0.5233  0.7308  0.5341
 4277SOL    HW124467   1.745   0.618   4.896  0.5754  1.1187 -0.2592
 4277SOL    HW224468   1.782   0.703   5.016 -2.2337 -1.6762  0.2764
 4278SOL     OW24469   2.045   1.749  16.061 -0.6608 -1.1038 -0.4642
 4278SOL    HW124470   1.966   1.753  16.114 -1.5324  1.1627 -1.9109
 4278SOL    HW224471   2.021   1.785  15.975 -0.3415 -1.3814 -0.6686
 4279SOL     OW24472   4.280   0.146  12.660  0.0763  0.0882 -0.0027
 4279SOL    HW124473   4.326   0.149  12.744  0.7830  0.5403 -0.3979
 4279SOL    HW224474   4.206   0.093  12.690 -0.0807 -0.0783 -0.6903
 4280SOL     OW24475   0.867   3.456  10.774  0.0885  0.1915 -0.3424
 4280SOL    HW124476   0.940   3.467  10.713  1.1254 -0.6430  0.7455
 4280SOL    HW224477   0.877   3.362  10.789  3.4979  0.6903  0.4861
 4281SOL     OW24478   0.112   3.508   3.687 -0.1345  0.0064  0.4231
 4281SOL    HW124479   0.091   3.487   3.596 -0.7225  2.3340  0.0121
 4281SOL    HW224480   0.033   3.474   3.728 -1.2017 -0.5905 -2.1486
 4282SOL     OW24481   1.012   4.048  13.701 -0.1047  0.4335  0.1050
 4282SOL    HW124482   0.954   4.105  13.650 -0.2948 -0.1742 -0.3614
 4282SOL    HW224483   0.957   3.975  13.731 -0.1617 -0.1536 -1.3946
 4283SOL     OW24484   0.952   2.044  10.827  0.1826 -0.0804  0.3495
 4283SOL    HW124485   0.967   2.121  10.772  1.4781  0.3708  1.3235
 4283SOL    HW224486   1.008   2.082  10.895 -0.4698  0.1334  0.7653
 4284SOL     OW24487   2.183   1.936   1.105 -0.4700 -0.1523 -0.2501
 4284SOL    HW124488   2.134   1.986   1.040 -1.3743  0.7031  1.1051
 4284SOL    HW224489   2.267   1.982   1.111  0.8213 -2.0924 -3.4630
 4285SOL     OW24490   4.076   2.099   4.121  0.0374  0.4267 -0.9289
 4285SOL    HW124491   4.071   2.192   4.143  1.3280  0.2231  0.3093
 4285SOL    HW224492   4.109   2.066   4.205 -1.2825 -0.9693 -0.9824
 4286SOL     OW24493   1.476   1.621   9.181 -0.0113  0.1899  0.0674
 4286SOL    HW124494   1.495   1.612   9.274  0.1194 -0.9090 -0.0717
 4286SOL    HW224495   1.395   1.570   9.188  1.2877 -1.5993  1.6210
 4287SOL     OW24496   0.185   1.380   5.440 -0.3435  0.5101  0.0956
 4287SOL    HW124497   0.194   1.418   5.528 -0.9798 -1.9296  1.2229
 4287SOL    HW224498   0.272   1.350   5.413 -1.0182 -2.0486  0.7531
 4288SOL     OW24499   2.209   4.272  10.326 -1.3544 -0.6776 -0.0169
 4288SOL    HW124500   2.133   4.230  10.368 -2.4385  0.5400 -0.7521
 4288SOL    HW224501   2.223   4.210  10.255 -0.7085  2.2777 -2.4434
 4289SOL     OW24502   0.049   3.307   4.053  0.5757 -0.3955 -0.4978
 4289SOL    HW124503   0.122   3.361   4.025  0.6343  0.8990  2.1262
 4289SOL    HW224504   0.046   3.237   3.988 -1.1069  0.8618 -1.7769
 4290SOL     OW24505   2.512   3.326   5.735  0.0722 -0.5718 -0.1146
 4290SOL    HW124506   2.491   3.280   5.816 -2.8404 -0.4800 -0.8288
 4290SOL    HW224507   2.504   3.415   5.768  0.7349 -1.2475  1.8988
 4291SOL     OW24508   3.573   2.565  17.672 -0.6809  0.4397 -0.0250
 4291SOL    HW124509   3.490   2.549  17.628  0.0695 -1.9157 -0.6067
 4291SOL    HW224510   3.621   2.483  17.659 -0.4158  0.6230 -0.2392
 4292SOL     OW24511   2.293   4.552   4.144  0.3095  0.2063 -0.1551
 4292SOL    HW124512   2.307   4.523   4.234  2.6868 -2.5226 -1.4043
 4292SOL    HW224513   2.382   4.547   4.110 -1.2697 -1.2311 -4.0677
 4293SOL     OW24514   1.962   0.133   4.969 -0.6188 -0.3755 -0.1051
 4293SOL    HW124515   1.959   0.216   4.921  0.0966 -0.3778 -0.1461
 4293SOL    HW224516   2.000   0.167   5.050  2.2145  0.3120 -1.7346
 4294SOL     OW24517   1.235   0.773   5.843 -0.0649 -0.0652  0.4541
 4294SOL    HW124518   1.243   0.779   5.938  0.2973  0.8434  0.3580
 4294SOL    HW224519   1.139   0.774   5.834 -0.3285 -2.3892  2.6424
 4295SOL     OW24520   1.344   0.012   8.645 -0.5430  0.4970 -0.1876
 4295SOL    HW124521   1.300   0.087   8.687 -3.2170 -1.6459  0.8614
 4295SOL    HW224522   1.412   0.061   8.598 -1.5497  0.3140 -1.8550
 4296SOL     OW24523   3.086   2.113  10.396 -0.7338  0.1300 -0.2220
 4296SOL    HW124524   3.106   2.199  10.359  3.0949 -1.2133 -1.2621
 4296SOL    HW224525   3.139   2.111  10.476 -0.4871  1.6266 -0.3507
 4297SOL     OW24526   3.778   4.328   3.860  0.2831  0.1110  0.0136
 4297SOL    HW124527   3.737   4.242   3.860 -0.6024  0.5339  0.5491
 4297SOL    HW224528   3.866   4.294   3.878 -0.3481 -0.2409  2.4977
 4298SOL     OW24529   3.918   0.383   2.753 -0.1173 -0.5955 -0.0812
 4298SOL    HW124530   3.845   0.441   2.776  0.1231 -0.8059  1.1874
 4298SOL    HW224531   3.865   0.304   2.762  0.1945 -0.3625  3.7960
 4299SOL     OW24532   0.829   4.422   3.038  0.3520 -0.7164 -0.7256
 4299SOL    HW124533   0.798   4.513   3.033  3.1947  0.2742 -0.0514
 4299SOL    HW224534   0.811   4.391   2.949  1.6076 -4.1806  0.2547
 4300SOL     OW24535   1.926   1.603  12.966 -0.2269  0.1481  0.2125
 4300SOL    HW124536   1.834   1.582  12.984  0.2087 -1.0784  1.0743
 4300SOL    HW224537   1.931   1.607  12.871 -1.1214  0.1064  0.1651
 4301SOL     OW24538   3.124   1.546   6.149 -0.3493 -0.2965 -0.5257
 4301SOL    HW124539   3.042   1.590   6.127 -2.1773 -1.5159  3.8346
 4301SOL    HW224540   3.164   1.602   6.215 -0.5120  1.1545 -1.6613
 4302SOL     OW24541   4.647   2.140   4.386 -0.0365  0.0129  0.2679
 4302SOL    HW124542   4.565   2.114   4.342  0.3695 -0.3717 -0.2618
 4302SOL    HW224543   4.699   2.156   4.308 -2.0596  2.9942 -0.4875
 4303SOL     OW24544   0.276   4.475   4.390  0.1180  0.0954  0.4937
 4303SOL    HW124545   0.269   4.409   4.459  1.5028  0.9121  1.4313
 4303SOL    HW224546   0.355   4.438   4.352 -0.1656  0.9559 -0.9134
 4304SOL     OW24547   1.128   0.707   0.225  0.0690 -0.3275 -0.1290
 4304SOL    HW124548   1.092   0.662   0.302  1.6510  0.5062  1.1123
 4304SOL    HW224549   1.217   0.676   0.243  0.3850 -0.0134 -1.1730
 4305SOL     OW24550   3.104   1.983   8.675  0.2513 -0.0831  0.1945
 4305SOL    HW124551   3.097   1.966   8.581 -0.8281  0.5489  0.1649
 4305SOL    HW224552   3.032   1.931   8.709  0.8774 -0.7548  0.5096
 4306SOL     OW24553   0.448   4.173   3.740 -0.1268  0.4711 -0.3537
 4306SOL    HW124554   0.473   4.082   3.726  4.2670  1.2398  2.5673
 4306SOL    HW224555   0.505   4.205   3.810 -0.0685  1.5525 -0.8888
 4307SOL     OW24556   1.596   1.466   3.335  0.6454 -0.7021 -0.3651
 4307SOL    HW124557   1.591   1.428   3.247 -0.5624  1.1658 -1.1029
 4307SOL    HW224558   1.689   1.450   3.353  0.0835 -2.0559  1.2834
 4308SOL     OW24559   4.332   4.241   6.938  0.2913 -0.1247  0.5457
 4308SOL    HW124560   4.370   4.306   6.879 -0.0969 -0.0888  0.3357
 4308SOL    HW224561   4.241   4.268   6.945  0.7864  1.1712  1.9552
 4309SOL     OW24562   1.352   0.806   6.163  0.3791 -0.1325  0.1039
 4309SOL    HW124563   1.406   0.732   6.191 -0.6442 -0.0644  2.2643
 4309SOL    HW224564   1.264   0.778   6.190  0.1447  1.4614  0.9771
 4310SOL     OW24565   2.617   0.129  11.148  0.4777 -0.2631 -0.1950
 4310SOL    HW124566   2.696   0.182  11.160 -0.1674  0.7961 -0.5937
 4310SOL    HW224567   2.643   0.082  11.069 -2.0284 -0.8921 -0.6497
 4311SOL     OW24568   1.164   4.505  17.430 -0.3180 -0.4467 -0.2773
 4311SOL    HW124569   1.196   4.495  17.340 -0.0847  2.6449 -0.5370
 4311SOL    HW224570   1.213   4.434  17.471 -2.0160 -1.7218 -0.4518
 4312SOL     OW24571   1.746   2.568   0.634 -0.5739 -0.1408  0.1399
 4312SOL    HW124572   1.699   2.632   0.689 -2.0892 -1.4172  0.3231
 4312SOL    HW224573   1.838   2.577   0.659 -1.0289 -0.7520  2.0849
 4313SOL     OW24574   2.322   2.609   6.242 -0.4102  0.4021 -0.0881
 4313SOL    HW124575   2.348   2.653   6.323 -1.5443 -1.1238  1.0803
 4313SOL    HW224576   2.302   2.687   6.190 -1.3657  0.4120  0.3074
 4314SOL     OW24577   1.314   0.937  15.530 -0.4157  0.1950 -0.1922
 4314SOL    HW124578   1.355   0.913  15.447  0.9476  2.2143 -0.0984
 4314SOL    HW224579   1.243   0.873  15.534  0.0314 -0.2566  0.3905
 4315SOL     OW24580   0.313   1.248  11.761 -0.0195  0.0911  0.1826
 4315SOL    HW124581   0.291   1.268  11.852 -1.9498  2.0482 -0.6968
 4315SOL    HW224582   0.378   1.316  11.746  1.3187 -1.7997 -2.7042
 4316SOL     OW24583   4.228   0.083   5.951  0.2403  0.1481 -0.4101
 4316SOL    HW124584   4.177   0.162   5.933  0.7532  0.7759  0.9204
 4316SOL    HW224585   4.270   0.110   6.033 -2.4926 -1.6282  1.5919
 4317SOL     OW24586   1.585   2.266  15.661 -0.4504  0.6571  0.6491
 4317SOL    HW124587   1.601   2.355  15.631 -2.8641  0.9951  0.3801
 4317SOL    HW224588   1.546   2.288  15.745 -0.0714  0.1884  0.9508
 4318SOL     OW24589   0.473   2.980   4.157  0.2174 -0.0643  0.4827
 4318SOL    HW124590   0.553   3.022   4.189  1.0965 -1.0405 -0.3983
 4318SOL    HW224591   0.505   2.910   4.100 -1.0991 -2.0652  2.1814
 4319SOL     OW24592   2.129   2.497   7.136 -0.1152  1.1625 -0.0899
 4319SOL    HW124593   2.146   2.549   7.214  1.6285  1.1271 -0.4414
 4319SOL    HW224594   2.169   2.562   7.078 -0.4850  0.5660 -1.0246
 4320SOL     OW24595   1.823   0.983   8.001 -0.1670  0.1257 -0.4858
 4320SOL    HW124596   1.847   0.967   7.909 -0.3422  0.5308 -0.5998
 4320SOL    HW224597   1.772   1.062   7.987 -0.5495  0.0160  0.3287
 4321SOL     OW24598   1.334   0.062   5.844 -0.4430  0.5396 -0.2270
 4321SOL    HW124599   1.318   0.116   5.766 -0.7893  3.0439  1.5732
 4321SOL    HW224600   1.262   0.085   5.902 -0.8288  0.3369 -0.6240
 4322SOL     OW24601   0.911   3.899  10.585 -0.1029  0.7383 -0.4624
 4322SOL    HW124602   0.834   3.889  10.529  0.8402  0.5513 -1.7192
 4322SOL    HW224603   0.888   3.836  10.653  2.3491 -0.1373 -0.4593
 4323SOL     OW24604   2.593   0.684   8.492  0.2437 -0.0569 -0.1886
 4323SOL    HW124605   2.533   0.707   8.564 -2.5742 -0.4742 -2.3967
 4323SOL    HW224606   2.551   0.737   8.424  0.8623  1.0467  0.2857
 4324SOL     OW24607   0.516   3.008   7.755 -0.2304  0.3701  0.4920
 4324SOL    HW124608   0.507   2.952   7.678  0.1176 -1.2138  1.6065
 4324SOL    HW224609   0.602   3.043   7.731  0.1286 -0.9560 -0.1704
 4325SOL     OW24610   0.228   4.736   7.785 -0.2567 -0.5065  0.1775
 4325SOL    HW124611   0.180   0.076   7.816  0.8958  1.3198 -2.6533
 4325SOL    HW224612   0.183   4.671   7.839 -2.4038 -0.8090 -1.9979
 4326SOL     OW24613   2.933   2.239  14.034 -0.3398  0.1605 -1.2489
 4326SOL    HW124614   2.962   2.226  13.944 -0.5533 -1.2200 -1.1117
 4326SOL    HW224615   2.894   2.326  14.023  0.6566  0.4363 -2.5843
 4327SOL     OW24616   0.730   3.294  10.298  0.1372 -0.0537  0.2393
 4327SOL    HW124617   0.702   3.204  10.279 -3.0837  1.0863 -0.3445
 4327SOL    HW224618   0.695   3.340  10.222 -1.1664 -1.1744  0.1427
 4328SOL     OW24619   0.279   3.373   6.507 -0.4151  0.3187 -0.2630
 4328SOL    HW124620   0.286   3.386   6.601 -0.6761 -0.6404 -0.1149
 4328SOL    HW224621   0.198   3.420   6.486  0.0418  0.9615 -0.6004
 4329SOL     OW24622   3.797   2.370   0.511 -0.4433  0.2623  0.0710
 4329SOL    HW124623   3.710   2.334   0.527 -1.0444  1.0095 -1.4704
 4329SOL    HW224624   3.793   2.452   0.561 -1.1989  0.6246 -0.5717
 4330SOL     OW24625   1.981   3.334   4.513  0.1078  0.4593  0.3374
 4330SOL    HW124626   1.997   3.380   4.431  1.0484 -0.8525 -0.2089
 4330SOL    HW224627   1.892   3.367   4.530  0.2500  1.0426 -0.0618
 4331SOL     OW24628   0.502   3.495   5.598 -0.2568 -0.4118 -0.3180
 4331SOL    HW124629   0.574   3.535   5.550 -0.5994  2.8632  1.8680
 4331SOL    HW224630   0.561   3.438   5.647  0.5543 -0.1438 -0.9877
 4332SOL     OW24631   4.161   3.034   8.368  0.1209  0.8535 -0.3338
 4332SOL    HW124632   4.067   3.021   8.367  0.0490  1.3079  0.4613
 4332SOL    HW224633   4.189   2.965   8.307  0.9959  0.8482  0.0731
 4333SOL     OW24634   0.796   1.981   7.333  0.8074 -0.0674  0.8374
 4333SOL    HW124635   0.818   1.980   7.426 -1.1168 -0.1609  1.2915
 4333SOL    HW224636   0.860   2.043   7.298 -0.1784  0.6063  0.2399
 4334SOL     OW24637   1.578   1.979   5.166  0.5701 -0.4408  0.0655
 4334SOL    HW124638   1.560   2.072   5.178  1.5558 -0.3183  0.5979
 4334SOL    HW224639   1.497   1.950   5.124  1.5171 -2.7009 -0.2562
 4335SOL     OW24640   0.403   2.851  16.463  0.4369  0.0456  0.2504
 4335SOL    HW124641   0.381   2.831  16.372 -1.3535 -3.3112  1.4650
 4335SOL    HW224642   0.455   2.781  16.501  1.7007  1.1974  0.6651
 4336SOL     OW24643   2.024   1.238   7.755  0.4303 -0.1338  0.1020
 4336SOL    HW124644   2.002   1.310   7.696  1.3779 -0.4624 -0.6388
 4336SOL    HW224645   1.936   1.201   7.769 -0.1986  2.5781  3.5240
 4337SOL     OW24646   1.570   0.065  15.681  0.3162 -0.2477 -0.0777
 4337SOL    HW124647   1.485   0.097  15.652  0.7971  1.2271  0.1420
 4337SOL    HW224648   1.594   0.006  15.609 -2.0157  0.6885 -1.6305
 4338SOL     OW24649   2.265   1.268   7.263 -0.1872 -0.0237  0.3878
 4338SOL    HW124650   2.306   1.304   7.342 -0.8845  2.4772 -0.4194
 4338SOL    HW224651   2.188   1.323   7.252 -0.5975 -0.1173  2.7519
 4339SOL     OW24652   4.610   3.228   7.794  0.4838 -0.2690 -0.2052
 4339SOL    HW124653   4.691   3.248   7.841  1.0532 -0.2739 -1.1710
 4339SOL    HW224654   4.632   3.288   7.723 -0.8957 -0.2426 -0.5989
 4340SOL     OW24655   0.131   2.353  12.519  0.8450 -0.5441 -0.3243
 4340SOL    HW124656   0.074   2.385  12.589  0.2725 -2.0227 -0.0926
 4340SOL    HW224657   0.069   2.282  12.500 -0.4745  0.2381  1.1206
 4341SOL     OW24658   1.061   0.529  14.828  0.0100 -0.2402 -0.5984
 4341SOL    HW124659   1.089   0.614  14.793 -2.1619  0.0187 -1.7254
 4341SOL    HW224660   0.974   0.522  14.789  0.2298 -0.0452 -1.1235
 4342SOL     OW24661   0.616   4.675   9.302 -0.0901  0.2282 -0.1216
 4342SOL    HW124662   0.537   4.630   9.270 -0.9955  0.0780  2.2955
 4342SOL    HW224663   0.609   4.688   9.397  0.1011 -0.2465 -0.0413
 4343SOL     OW24664   4.422   1.432   3.286  0.3773  0.4265  0.3881
 4343SOL    HW124665   4.372   1.484   3.223 -1.1937 -0.8758  0.5492
 4343SOL    HW224666   4.508   1.468   3.264 -0.5556  1.6091 -1.2656
 4344SOL     OW24667   3.494   1.373   4.516  0.6582  0.2251 -0.5462
 4344SOL    HW124668   3.471   1.434   4.586  1.2648 -0.8383  0.5906
 4344SOL    HW224669   3.574   1.326   4.540  0.0791  0.1788  1.2982
 4345SOL     OW24670   1.100   4.442   3.003  0.1585 -0.0460  0.3066
 4345SOL    HW124671   1.007   4.422   3.008 -0.3435  2.0417 -0.6686
 4345SOL    HW224672   1.145   4.359   3.016 -2.2645 -1.4242 -0.2023
 4346SOL     OW24673   4.404   0.668  10.865 -0.9287  0.2612 -0.0781
 4346SOL    HW124674   4.360   0.753  10.869  1.8275  1.6105  1.4881
 4346SOL    HW224675   4.321   0.621  10.860 -0.8707  0.2757 -1.2106
 4347SOL     OW24676   1.429   3.499  11.225 -0.2833 -0.5929  0.3734
 4347SOL    HW124677   1.387   3.425  11.268 -1.1523 -0.0397  0.4761
 4347SOL    HW224678   1.507   3.510  11.280 -0.2758 -2.2320  0.6920
 4348SOL     OW24679   4.401   2.453  16.722  0.1540 -0.4884 -0.0018
 4348SOL    HW124680   4.441   2.370  16.748  1.3528  0.1977  0.3274
 4348SOL    HW224681   4.480   2.507  16.711  0.1647 -0.2359  1.3077
 4349SOL     OW24682   3.873   2.385   5.575  0.1572 -0.3576 -0.0609
 4349SOL    HW124683   3.852   2.295   5.547 -0.1615  0.7979 -3.5808
 4349SOL    HW224684   3.937   2.404   5.506 -1.8548  0.1654 -1.7940
 4350SOL     OW24685   1.371   0.287   9.464 -0.2645  0.4017  0.4284
 4350SOL    HW124686   1.374   0.331   9.379  1.9904  1.4292  1.0209
 4350SOL    HW224687   1.290   0.236   9.456  0.1770  0.0489 -2.0495
 4351SOL     OW24688   1.516   2.802   7.454 -0.0038  0.2834 -0.0023
 4351SOL    HW124689   1.585   2.755   7.407  2.0038  3.2918 -0.0166
 4351SOL    HW224690   1.441   2.783   7.399  0.7547 -1.4620 -0.4474
 4352SOL     OW24691   2.813   2.390   9.763 -0.1891  0.1992  0.6717
 4352SOL    HW124692   2.772   2.374   9.678  2.5981 -2.4050 -0.1838
 4352SOL    HW224693   2.893   2.338   9.752  0.1885  1.4234 -2.4548
 4353SOL     OW24694   1.221   4.550  13.652 -0.4146  0.4307  0.2326
 4353SOL    HW124695   1.217   4.478  13.589  1.3065 -0.9167  1.6394
 4353SOL    HW224696   1.294   4.604  13.622  0.0669  0.6674  1.8154
 4354SOL     OW24697   3.342   2.181   2.711  0.8723  0.2424  0.3830
 4354SOL    HW124698   3.287   2.146   2.641  0.6589  0.5352  0.4069
 4354SOL    HW224699   3.403   2.107   2.716  1.1916  0.3571 -2.1154
 4355SOL     OW24700   3.284   0.627  10.138  0.4107 -0.1274  0.4610
 4355SOL    HW124701   3.203   0.605  10.094  0.4088 -0.1596  0.4801
 4355SOL    HW224702   3.244   0.619  10.225 -0.3721 -2.3089 -0.0998
 4356SOL     OW24703   0.787   1.465   9.505 -0.0207  0.5855 -0.2586
 4356SOL    HW124704   0.806   1.446   9.413 -1.5552 -0.3233 -0.4028
 4356SOL    HW224705   0.751   1.552   9.520 -0.7019  0.2890 -0.1400
 4357SOL     OW24706   2.748   2.843   6.895  0.1454  0.8980 -0.1889
 4357SOL    HW124707   2.736   2.915   6.833 -0.9593  0.7415 -0.1648
 4357SOL    HW224708   2.839   2.816   6.884 -0.2397  0.3711 -2.0845
 4358SOL     OW24709   1.922   2.977  12.852  0.0100  0.1102  0.1749
 4358SOL    HW124710   1.950   2.889  12.829  2.2690  1.1086 -0.8651
 4358SOL    HW224711   1.841   2.985  12.802  0.3722  0.5727 -0.3371
 4359SOL     OW24712   3.246   1.218  11.139  0.1856  0.1252  0.0711
 4359SOL    HW124713   3.164   1.189  11.101  0.3856  0.8144 -0.8907
 4359SOL    HW224714   3.209   1.238  11.225 -0.3552  1.1047 -0.3913
 4360SOL     OW24715   4.070   2.350   2.298  0.4165  0.4505 -0.4228
 4360SOL    HW124716   4.021   2.305   2.367  0.2370  0.7379 -0.3599
 4360SOL    HW224717   4.119   2.281   2.254  1.9390  0.1188  1.8183
 4361SOL     OW24718   3.477   0.567   2.760  0.4005  0.3371 -0.4422
 4361SOL    HW124719   3.393   0.528   2.784 -1.2882  3.6928 -0.8170
 4361SOL    HW224720   3.457   0.605   2.675 -0.5697  0.5658 -0.1134
 4362SOL     OW24721   0.415   3.043  10.771 -0.3447 -0.3385  0.1819
 4362SOL    HW124722   0.467   3.105  10.721  0.1744 -0.3638  0.6924
 4362SOL    HW224723   0.484   2.993  10.815 -1.8188 -1.6394  1.0337
 4363SOL     OW24724   3.557   2.525   2.757  0.3576 -0.4175 -0.1839
 4363SOL    HW124725   3.533   2.582   2.684  0.4056 -2.4172 -1.7695
 4363SOL    HW224726   3.633   2.482   2.718  1.8876  0.7438  1.5529
 4364SOL     OW24727   4.376   1.186   5.267 -0.3681  0.2932 -0.4926
 4364SOL    HW124728   4.461   1.154   5.238  0.0435  1.6583 -0.7629
 4364SOL    HW224729   4.335   1.197   5.181  3.0121 -1.4105 -2.3174
 4365SOL     OW24730   3.781   4.020  16.695 -0.1854 -0.0203  0.0139
 4365SOL    HW124731   3.689   4.038  16.714 -0.2896 -0.1964 -0.3262
 4365SOL    HW224732   3.775   3.936  16.649  1.1340  0.4572 -1.0278
 4366SOL     OW24733   1.722   1.837  14.007  0.4372  0.7605  0.1023
 4366SOL    HW124734   1.775   1.775  13.956  0.9820  3.0283 -2.0746
 4366SOL    HW224735   1.784   1.908  14.023  0.8768  0.2463  0.7247
 4367SOL     OW24736   2.550   4.258  13.288 -0.2838 -0.4696  0.2244
 4367SOL    HW124737   2.570   4.167  13.265 -3.9625 -0.9193 -1.0729
 4367SOL    HW224738   2.486   4.272  13.219  1.1063 -0.5313 -1.0763
 4368SOL     OW24739   2.382   1.495   6.800 -0.5316 -0.0021  0.0912
 4368SOL    HW124740   2.358   1.567   6.859 -0.4700 -0.7165  0.9922
 4368SOL    HW224741   2.300   1.448   6.814  1.0051 -2.6478  0.2616
 4369SOL     OW24742   0.296   3.335  14.014  0.9101 -0.4558 -0.2411
 4369SOL    HW124743   0.304   3.374  13.927 -0.4238 -1.3615 -0.7736
 4369SOL    HW224744   0.354   3.393  14.063 -2.4342  0.9383  2.0333
 4370SOL     OW24745   1.552   0.390   4.658  0.4340  0.0985  0.0645
 4370SOL    HW124746   1.554   0.394   4.754 -2.0768  0.4128  0.0874
 4370SOL    HW224747   1.609   0.313   4.654  1.2674  0.9415 -3.9689
 4371SOL     OW24748   1.140   0.857   8.266  0.4775  0.0749  0.2755
 4371SOL    HW124749   1.229   0.890   8.261  0.1083  1.3298  2.2737
 4371SOL    HW224750   1.090   0.939   8.268 -1.0278 -0.7181 -2.7964
 4372SOL     OW24751   0.288   3.933   2.909 -0.0442 -0.1190 -0.3267
 4372SOL    HW124752   0.360   3.917   2.969 -0.0373  0.4945 -0.1769
 4372SOL    HW224753   0.271   3.842   2.883  1.7751 -0.3794 -0.5892
 4373SOL     OW24754   1.061   2.949   7.363  0.0441  0.3710  0.0691
 4373SOL    HW124755   1.117   3.009   7.413 -1.9664  1.2008  1.3314
 4373SOL    HW224756   0.982   2.943   7.417  1.5271 -1.7776  2.0332
 4374SOL     OW24757   0.701   0.706  16.024 -0.4825  0.1978 -0.3397
 4374SOL    HW124758   0.615   0.744  16.042  0.0541  1.9128 -1.3906
 4374SOL    HW224759   0.697   0.651  16.103 -0.6338  0.3878 -0.2163
 4375SOL     OW24760   3.017   4.584   3.369 -0.2287  0.0611 -0.1374
 4375SOL    HW124761   2.935   4.572   3.321 -0.9852  1.0695  0.8943
 4375SOL    HW224762   3.076   4.541   3.308 -0.4010  0.4727 -0.5938
 4376SOL     OW24763   2.811   4.546   8.988 -0.0373  0.1744 -0.4438
 4376SOL    HW124764   2.817   4.485   8.914 -0.1661  1.0021 -1.1327
 4376SOL    HW224765   2.769   4.491   9.054 -1.2504  2.4714  0.6798
 4377SOL     OW24766   3.222   2.256   2.230  0.7919 -0.1576  0.0756
 4377SOL    HW124767   3.157   2.217   2.289  2.1743 -0.5598  1.3325
 4377SOL    HW224768   3.259   2.319   2.292  1.5205  1.2224 -1.7658
 4378SOL     OW24769   0.211   3.309  11.176 -0.1529  0.2112  0.5104
 4378SOL    HW124770   0.283   3.312  11.239 -0.7657  0.7389  1.1863
 4378SOL    HW224771   0.255   3.316  11.091 -1.3190  3.8869  0.1953
 4379SOL     OW24772   1.567   0.214   8.198  0.3516  0.0748 -0.1159
 4379SOL    HW124773   1.499   0.146   8.202  1.0197 -0.6502 -1.0510
 4379SOL    HW224774   1.647   0.161   8.200 -0.0851 -0.5414  1.3584
 4380SOL     OW24775   0.974   3.135  10.283  0.4091  0.4568  0.1735
 4380SOL    HW124776   0.903   3.186  10.321  0.0011 -0.9465  1.3169
 4380SOL    HW224777   1.020   3.206  10.238 -0.1071  0.1526 -0.8506
 4381SOL     OW24778   4.391   2.619  12.377 -0.1077  0.3261  0.2367
 4381SOL    HW124779   4.424   2.648  12.292 -1.1088  2.4638  0.5956
 4381SOL    HW224780   4.406   2.524  12.372  1.0322  0.4933  0.4010
 4382SOL     OW24781   0.510   3.048   8.066  0.0867 -0.3416  0.0103
 4382SOL    HW124782   0.507   2.998   7.984  2.6070 -1.2100  0.4546
 4382SOL    HW224783   0.574   2.997   8.115 -0.1777  0.0927  0.8093
 4383SOL     OW24784   4.047   1.911   3.905 -0.6226  0.2643  0.0123
 4383SOL    HW124785   3.997   1.843   3.950 -2.0675  0.3999 -1.4027
 4383SOL    HW224786   4.055   1.971   3.979  1.9943 -1.5123  1.1828
 4384SOL     OW24787   2.028   1.836   1.310  0.2269  0.5086  0.3128
 4384SOL    HW124788   1.938   1.834   1.275  0.7382 -1.7506 -0.8642
 4384SOL    HW224789   2.088   1.859   1.239 -1.6706 -0.2793 -1.5656
 4385SOL     OW24790   0.124   3.244   7.259 -0.0424 -0.0006  0.1700
 4385SOL    HW124791   0.105   3.151   7.244  0.8018 -0.1421 -0.0689
 4385SOL    HW224792   0.152   3.246   7.350  2.8391 -0.5678 -0.6763
 4386SOL     OW24793   1.928   3.685   4.385 -0.0914  0.2304 -0.8358
 4386SOL    HW124794   1.874   3.628   4.440  0.0378  0.4653 -0.4674
 4386SOL    HW224795   1.965   3.625   4.320 -0.1458 -0.7487  0.0451
 4387SOL     OW24796   2.828   3.495   2.149  0.1398  0.6018 -0.5318
 4387SOL    HW124797   2.855   3.497   2.057  2.1800  2.5677  0.1016
 4387SOL    HW224798   2.761   3.427   2.138  0.2384  0.6511 -1.4028
 4388SOL     OW24799   0.086   3.141  12.859  0.0057  0.3079 -0.2244
 4388SOL    HW124800   0.136   3.091  12.794 -3.4970  0.6230 -3.1232
 4388SOL    HW224801   0.071   3.065  12.915  1.6682 -1.4689 -2.1902
 4389SOL     OW24802   3.919   1.861  11.947 -0.2162  0.0133 -0.2478
 4389SOL    HW124803   3.892   1.830  11.860  4.1099 -0.0844 -1.5304
 4389SOL    HW224804   3.943   1.781  11.995  1.3412  0.0850 -0.9108
 4390SOL     OW24805   4.220   3.375   6.065 -0.3087  0.4676  0.2291
 4390SOL    HW124806   4.243   3.299   6.118 -2.6749 -2.6228 -3.1520
 4390SOL    HW224807   4.302   3.402   6.023  0.8564 -1.1335  1.4957
 4391SOL     OW24808   2.269   0.238   3.330  0.0374 -0.1581  0.3598
 4391SOL    HW124809   2.271   0.313   3.389  4.2088  1.7608 -2.2172
 4391SOL    HW224810   2.276   0.294   3.252 -1.5101 -0.7572 -0.2153
 4392SOL     OW24811   0.767   1.736   4.365  0.3729 -0.4376 -0.3405
 4392SOL    HW124812   0.822   1.700   4.297  0.2180 -1.5065  0.1094
 4392SOL    HW224813   0.713   1.661   4.389  1.1404 -1.1462 -0.8711
 4393SOL     OW24814   0.081   1.266  11.138  0.0788  0.0909  0.0547
 4393SOL    HW124815   0.130   1.244  11.059 -2.6332  2.1303 -2.1981
 4393SOL    HW224816   0.104   1.200  11.204  0.3235  0.8666  0.7392
 4394SOL     OW24817   2.538   2.326  13.846  0.1877 -0.5003  0.2269
 4394SOL    HW124818   2.492   2.317  13.762  0.3487  1.4358 -0.0502
 4394SOL    HW224819   2.462   2.320  13.904  1.2175 -2.2271  1.4303
 4395SOL     OW24820   2.006   4.180   7.212 -0.1852 -0.1507 -0.0459
 4395SOL    HW124821   2.000   4.255   7.272 -2.4327 -1.7066  1.6729
 4395SOL    HW224822   1.916   4.148   7.210  0.2407 -1.3171 -0.5114
 4396SOL     OW24823   2.031   0.570   2.934 -0.2050  0.5571 -0.3984
 4396SOL    HW124824   2.106   0.510   2.940 -1.6216 -1.0430  1.6661
 4396SOL    HW224825   2.066   0.655   2.909  2.3339 -0.9114 -1.8748
 4397SOL     OW24826   3.507   4.512  13.007  0.0639  0.1465 -0.2358
 4397SOL    HW124827   3.598   4.504  12.978  0.3865 -1.8578  1.3812
 4397SOL    HW224828   3.478   4.572  12.938 -0.7613 -1.1815 -1.0378
 4398SOL     OW24829   0.426   0.744   1.781 -0.0541 -0.1934 -0.0288
 4398SOL    HW124830   0.473   0.773   1.859 -0.5917  1.8999 -0.4795
 4398SOL    HW224831   0.374   0.824   1.776  0.1759 -0.0169  0.4020
 4399SOL     OW24832   0.469   2.337   6.320 -0.5882  0.2271 -0.0625
 4399SOL    HW124833   0.495   2.352   6.411 -2.7312 -1.4303  0.8346
 4399SOL    HW224834   0.385   2.382   6.313 -0.4440 -0.0096 -3.1645
 4400SOL     OW24835   3.307   3.867  16.838  0.1291  0.0752 -0.7311
 4400SOL    HW124836   3.384   3.922  16.823  0.5518 -0.8454 -1.9368
 4400SOL    HW224837   3.324   3.849  16.931  0.7307  2.7561 -0.3266
 4401SOL     OW24838   3.993   4.666  13.940  0.1807 -0.2766 -0.6345
 4401SOL    HW124839   3.943   4.625  13.870 -0.4869  1.3030 -1.0749
 4401SOL    HW224840   3.933   0.003  13.951 -0.2886 -0.7384 -0.1099
 4402SOL     OW24841   2.352   1.555   3.963  0.1856  0.3741 -0.2203
 4402SOL    HW124842   2.432   1.502   3.960 -0.3653 -0.3866 -1.7504
 4402SOL    HW224843   2.351   1.593   4.050  0.1278  2.0547 -0.9476
 4403SOL     OW24844   2.103   1.068  10.329 -0.8625  0.5599 -0.2759
 4403SOL    HW124845   2.045   1.047  10.256  0.0657 -1.5078 -0.4276
 4403SOL    HW224846   2.087   0.990  10.383  0.4400  1.0540  0.8116
 4404SOL     OW24847   3.357   2.309  11.426 -0.4516 -0.2925  0.2802
 4404SOL    HW124848   3.331   2.217  11.439  2.8819 -1.7014 -2.8175
 4404SOL    HW224849   3.270   2.349  11.432 -1.9278 -3.4763  0.5362
 4405SOL     OW24850   0.000   1.098   6.703 -0.4739  0.0206 -0.4969
 4405SOL    HW124851   0.036   1.074   6.788  0.4298  1.6638 -0.4160
 4405SOL    HW224852   0.068   1.158   6.671 -0.4229  0.6611  0.8123
 4406SOL     OW24853   1.775   3.384   6.415  0.2228  0.8846  0.3103
 4406SOL    HW124854   1.725   3.366   6.335  0.6094  2.7408 -0.3410
 4406SOL    HW224855   1.764   3.478   6.432  6.0244  1.6819 -0.3378
 4407SOL     OW24856   1.279   0.689   2.482  0.0599 -0.3596  0.3827
 4407SOL    HW124857   1.282   0.597   2.454  2.8947 -0.1212 -0.1283
 4407SOL    HW224858   1.327   0.738   2.414 -2.4738  0.7427 -0.6082
 4408SOL     OW24859   2.462   3.853  16.091 -0.2545 -0.3009  0.5449
 4408SOL    HW124860   2.412   3.919  16.139 -2.2222 -0.9467 -0.6143
 4408SOL    HW224861   2.479   3.906  16.012 -1.9887 -0.3307  0.1422
 4409SOL     OW24862   1.853   3.517   6.820 -0.1488 -0.3391 -0.0036
 4409SOL    HW124863   1.922   3.579   6.799  0.2978 -0.8169  0.0477
 4409SOL    HW224864   1.783   3.545   6.761  0.0253  0.4657  0.1808
 4410SOL     OW24865   2.068   0.830   0.582  0.1703  0.2805  0.7180
 4410SOL    HW124866   2.035   0.917   0.603 -1.2180  0.7113 -3.2024
 4410SOL    HW224867   2.110   0.842   0.497 -0.8038 -2.2457 -0.1169
 4411SOL     OW24868   4.021   1.463   4.329 -0.1670  0.4390  0.2421
 4411SOL    HW124869   3.991   1.374   4.347  3.6603 -0.9454 -0.1890
 4411SOL    HW224870   4.047   1.452   4.238  3.8063 -3.4984  1.8830
 4412SOL     OW24871   3.431   2.701   8.100 -0.0991 -0.4128 -0.3703
 4412SOL    HW124872   3.360   2.671   8.043 -0.9641  0.8034  0.0686
 4412SOL    HW224873   3.379   2.739   8.171  0.1828 -1.7631  0.5716
 4413SOL     OW24874   3.214   1.838  11.312  0.4807 -0.0348 -0.3604
 4413SOL    HW124875   3.280   1.781  11.352 -0.9350 -2.4668 -1.4950
 4413SOL    HW224876   3.263   1.868  11.236  0.7064 -1.7602 -0.8814
 4414SOL     OW24877   2.460   1.532   8.041  0.1249  0.2722 -0.2981
 4414SOL    HW124878   2.507   1.467   7.988 -0.1631  1.3491 -1.8864
 4414SOL    HW224879   2.536   1.581   8.071  1.1208 -0.5950 -1.4159
 4415SOL     OW24880   1.330   0.074   4.825 -0.5733  0.0491  0.2909
 4415SOL    HW124881   1.424   0.058   4.833 -0.5566  0.2833  0.5913
 4415SOL    HW224882   1.320   0.139   4.895 -0.8052  1.1207 -0.7289
 4416SOL     OW24883   0.691   4.477   7.321  0.1164  0.2763  0.5165
 4416SOL    HW124884   0.620   4.414   7.331 -0.6501  0.9186 -0.9057
 4416SOL    HW224885   0.695   4.479   7.225 -0.3063 -2.8373  0.4220
 4417SOL     OW24886   3.623   0.061  17.441  0.0303  0.1999  0.0118
 4417SOL    HW124887   3.640   4.736  17.370  3.4120  0.0999  0.9017
 4417SOL    HW224888   3.702   0.046  17.494 -0.0369 -1.5845 -0.3803
 4418SOL     OW24889   1.666   3.023  10.154  0.3055 -0.0348 -0.0499
 4418SOL    HW124890   1.690   3.031  10.062 -2.7077 -0.6225 -0.8900
 4418SOL    HW224891   1.745   2.992  10.198 -0.4639 -0.8445  0.7824
 4419SOL     OW24892   3.700   0.553   5.007  0.5004 -0.0033  0.1378
 4419SOL    HW124893   3.688   0.508   5.090  0.0948  1.3274  0.7994
 4419SOL    HW224894   3.781   0.603   5.023  0.8935 -0.1879 -1.2806
 4420SOL     OW24895   0.932   4.537  15.547 -0.0593 -0.3570  0.3100
 4420SOL    HW124896   0.923   4.627  15.578 -2.0669 -1.3049  2.5051
 4420SOL    HW224897   0.997   4.565  15.482  0.3647 -0.6162  0.6221
 4421SOL     OW24898   2.131   3.197   3.880 -0.3252 -0.1729 -0.2231
 4421SOL    HW124899   2.075   3.216   3.805 -0.8529  0.1875  0.2650
 4421SOL    HW224900   2.157   3.107   3.860 -1.1739  0.0738 -2.5179
 4422SOL     OW24901   0.024   3.046   5.501  0.3254 -0.1364  0.4316
 4422SOL    HW124902   0.096   3.005   5.454  1.1108  0.2203  1.3323
 4422SOL    HW224903   4.693   3.026   5.436  0.7683  0.0988 -0.0948
 4423SOL     OW24904   3.754   1.248   4.957  0.2142  0.1123  0.0798
 4423SOL    HW124905   3.740   1.190   4.882  1.5034  0.6612 -0.5891
 4423SOL    HW224906   3.704   1.326   4.935  3.0222  1.1733 -2.4933
 4424SOL     OW24907   2.363   1.701   5.155  0.0439 -0.1483 -0.4756
 4424SOL    HW124908   2.453   1.690   5.187 -0.2919  0.8373  0.8103
 4424SOL    HW224909   2.328   1.768   5.213  1.8733  0.4892 -0.0934
 4425SOL     OW24910   3.979   1.653   6.865  0.3713 -0.4204  0.3972
 4425SOL    HW124911   3.992   1.561   6.845 -1.8591  0.0753 -3.4613
 4425SOL    HW224912   4.022   1.696   6.791  1.3407 -0.6674  0.8240
 4426SOL     OW24913   0.855   3.828   7.982 -0.2028 -0.2434  0.2772
 4426SOL    HW124914   0.764   3.800   7.980 -0.1092 -0.4099 -1.4036
 4426SOL    HW224915   0.883   3.819   7.891 -0.5340  0.6374  0.0924
 4427SOL     OW24916   3.655   1.058   4.786  0.1024 -0.4187 -0.6704
 4427SOL    HW124917   3.685   0.998   4.718 -0.0975 -0.8841 -0.3495
 4427SOL    HW224918   3.565   1.027   4.787 -0.4545  1.3021  1.6727
 4428SOL     OW24919   0.553   2.707   8.632  0.0064 -0.0796  0.0239
 4428SOL    HW124920   0.625   2.661   8.588 -1.0044 -0.0022 -1.7045
 4428SOL    HW224921   0.507   2.750   8.559 -1.4026  0.6040  1.3201
 4429SOL     OW24922   0.619   1.647  15.588 -0.4834 -0.0789 -0.4437
 4429SOL    HW124923   0.616   1.563  15.635 -0.1130 -0.7686 -1.6438
 4429SOL    HW224924   0.529   1.678  15.598  0.6340  2.5701  1.4152
 4430SOL     OW24925   0.901   1.706   6.143  0.3622  0.1677 -0.4472
 4430SOL    HW124926   0.829   1.657   6.104  3.1629 -2.2150 -2.5249
 4430SOL    HW224927   0.874   1.796   6.124  5.5365  1.3992 -1.9152
 4431SOL     OW24928   4.303   4.557  11.977  0.0801 -0.0891  0.3401
 4431SOL    HW124929   4.279   4.512  12.058 -2.1956  0.0922 -0.2365
 4431SOL    HW224930   4.388   4.518  11.959 -1.1193 -2.3200 -0.5236
 4432SOL     OW24931   4.121   0.206   8.049 -0.0521  0.1727 -0.7627
 4432SOL    HW124932   4.098   0.242   8.135 -2.0695  1.0942 -1.6859
 4432SOL    HW224933   4.060   0.133   8.044  1.0404 -0.5907 -2.5439
 4433SOL     OW24934   0.226   2.531   6.560  0.3396 -0.3180  0.6369
 4433SOL    HW124935   0.236   2.596   6.490  0.1733 -1.2446 -0.2509
 4433SOL    HW224936   0.278   2.456   6.533 -0.5158 -1.3026  1.7040
 4434SOL     OW24937   4.623   0.801   7.883  0.2480  0.0063 -0.3065
 4434SOL    HW124938   4.695   0.780   7.942 -0.1325 -1.6478 -0.4257
 4434SOL    HW224939   4.573   0.721   7.896 -0.2253  0.1113 -1.4354
 4435SOL     OW24940   2.403   1.058   7.130 -0.1751 -0.0360 -0.1084
 4435SOL    HW124941   2.363   1.133   7.174  1.3060  1.4150 -1.2514
 4435SOL    HW224942   2.422   1.101   7.046 -0.9453 -1.9806 -1.3011
 4436SOL     OW24943   2.269   1.168   0.419  0.2277  0.7797 -0.2305
 4436SOL    HW124944   2.313   1.242   0.377 -0.4750  1.1087 -0.3960
 4436SOL    HW224945   2.228   1.216   0.490 -0.0640  0.6897 -0.3392
 4437SOL     OW24946   1.906   2.817   8.608 -0.1193 -0.1903  0.0566
 4437SOL    HW124947   1.991   2.841   8.571 -0.5560  2.7613  0.9829
 4437SOL    HW224948   1.865   2.763   8.540 -0.0428 -0.7487  0.4474
 4438SOL     OW24949   3.076   0.291  12.056  0.8259 -0.2942  0.1661
 4438SOL    HW124950   3.051   0.311  12.147 -2.7033 -0.5817 -0.7487
 4438SOL    HW224951   3.108   0.378  12.033 -2.3017  0.7515 -0.3120
 4439SOL     OW24952   1.894   0.246  11.945  0.3554  0.6111 -0.1578
 4439SOL    HW124953   1.923   0.155  11.947  1.7257  1.0913  1.4528
 4439SOL    HW224954   1.915   0.275  11.856 -1.3631 -0.0782 -0.7994
 4440SOL     OW24955   1.771   3.739   9.365  0.4316 -0.7470 -0.3688
 4440SOL    HW124956   1.797   3.739   9.457 -0.3238  0.3828 -0.1540
 4440SOL    HW224957   1.834   3.673   9.338  0.4781 -0.7064 -0.3609
 4441SOL     OW24958   1.489   3.891   2.548  0.4463  0.8040 -0.3744
 4441SOL    HW124959   1.534   3.826   2.493  1.9625  1.6635 -0.1703
 4441SOL    HW224960   1.395   3.878   2.544  0.4021  0.4818  1.8962
 4442SOL     OW24961   3.045   3.387   7.312 -0.0917  0.6606 -0.1464
 4442SOL    HW124962   3.004   3.334   7.380 -0.0326 -0.0919 -0.6881
 4442SOL    HW224963   2.972   3.445   7.292 -1.2958 -1.7405 -2.6849
 4443SOL     OW24964   1.268   3.224  11.275 -0.0506  0.1435 -0.1257
 4443SOL    HW124965   1.175   3.216  11.293 -0.4661  2.3746 -1.2318
 4443SOL    HW224966   1.318   3.169  11.335  0.0790 -1.0681 -1.3486
 4444SOL     OW24967   1.322   2.601   4.630 -0.2387 -0.1993 -0.1023
 4444SOL    HW124968   1.348   2.643   4.548 -1.2099 -1.6191 -1.1480
 4444SOL    HW224969   1.241   2.557   4.604 -0.8993  0.4685  0.8384
 4445SOL     OW24970   0.484   3.126   2.515  0.0639 -0.0958 -1.0621
 4445SOL    HW124971   0.448   3.065   2.450 -0.0050  1.1326 -2.1909
 4445SOL    HW224972   0.406   3.179   2.531  0.5791 -0.0979  1.3576
 4446SOL     OW24973   1.400   4.139   7.249 -0.5503  0.2731  0.0027
 4446SOL    HW124974   1.467   4.201   7.277 -0.0888 -0.0629 -0.3774
 4446SOL    HW224975   1.414   4.056   7.294  0.7423  0.8719  0.7042
 4447SOL     OW24976   1.077   3.912   6.532  0.0428 -0.7335  0.2656
 4447SOL    HW124977   1.025   3.992   6.527  0.7262 -0.3545 -0.8839
 4447SOL    HW224978   1.024   3.842   6.493 -1.3212  0.5692 -0.2199
 4448SOL     OW24979   3.974   2.961   0.727 -0.6501 -0.0318  0.3279
 4448SOL    HW124980   4.063   2.963   0.691 -0.5421  0.9447  0.6464
 4448SOL    HW224981   3.938   3.038   0.683  0.5598  0.4148  0.1015
 4449SOL     OW24982   3.504   0.412   3.740 -0.0437 -0.1329 -0.1449
 4449SOL    HW124983   3.531   0.431   3.830 -0.6214  0.3938 -0.0916
 4449SOL    HW224984   3.431   0.468   3.716  0.3852  1.4978  2.3524
 4450SOL     OW24985   4.521   2.926   3.799 -0.2306  0.0271 -0.0421
 4450SOL    HW124986   4.529   2.848   3.743  1.3915  0.3731 -0.2716
 4450SOL    HW224987   4.578   2.987   3.753 -2.0873  2.0109  0.3056
 4451SOL     OW24988   2.460   2.156   9.120  0.0332  0.2189  0.3380
 4451SOL    HW124989   2.439   2.169   9.213 -1.9651  1.8170 -0.3448
 4451SOL    HW224990   2.384   2.114   9.079 -0.9686  1.0463  1.3484
 4452SOL     OW24991   1.494   0.370   6.560  0.0539  0.3999  0.5853
 4452SOL    HW124992   1.486   0.400   6.650  2.0634  2.8654 -0.0544
 4452SOL    HW224993   1.433   0.419   6.505  0.3936  1.3528  1.0636
 4453SOL     OW24994   4.253   1.973   2.826  0.0020 -0.4128  0.0005
 4453SOL    HW124995   4.170   1.971   2.873 -0.1376  0.7493 -0.1802
 4453SOL    HW224996   4.275   1.883   2.802  3.0282  0.9863 -2.5343
 4454SOL     OW24997   3.787   3.199   4.020  0.4029 -0.4580 -0.1173
 4454SOL    HW124998   3.757   3.200   3.929 -1.2803 -3.4761  0.4271
 4454SOL    HW224999   3.769   3.109   4.046 -1.6432 -0.0172  0.0412
 4455SOL     OW25000   1.743   3.366   8.359  0.0244  0.1619 -0.0212
 4455SOL    HW125001   1.830   3.396   8.332  0.6110 -0.9348  0.6305
 4455SOL    HW225002   1.716   3.295   8.302 -2.5318  3.2300 -2.5776
 4456SOL     OW25003   1.229   3.453   6.587 -0.0832 -0.5991  0.6223
 4456SOL    HW125004   1.153   3.415   6.542  0.8329 -1.8782  0.1591
 4456SOL    HW225005   1.227   3.399   6.666  1.9746 -3.2179 -1.1052
 4457SOL     OW25006   0.607   1.293   5.598  0.2907 -0.2330 -0.0969
 4457SOL    HW125007   0.534   1.301   5.660  1.1367  1.3413  0.6886
 4457SOL    HW225008   0.651   1.209   5.611  1.5059  0.3494 -0.5182
 4458SOL     OW25009   3.497   0.560   4.010  0.6385 -0.4110 -0.2630
 4458SOL    HW125010   3.506   0.591   4.100 -1.4644  2.2861 -1.0004
 4458SOL    HW225011   3.405   0.576   3.987  0.5280 -1.9008 -0.8672
 4459SOL     OW25012   2.701   2.774  17.400 -0.1337 -0.5436  0.1148
 4459SOL    HW125013   2.775   2.829  17.375 -1.1297  0.2908 -1.0421
 4459SOL    HW225014   2.676   2.785  17.308  2.1516  0.0561 -0.4249
 4460SOL     OW25015   0.204   2.278   2.241 -0.3912 -0.3173  0.2539
 4460SOL    HW125016   0.126   2.332   2.226 -0.7908 -1.5130 -1.9614
 4460SOL    HW225017   0.229   2.297   2.332  1.5759 -0.7469 -0.1925
 4461SOL     OW25018   0.372   0.368   2.143 -0.0031  0.0994 -0.0428
 4461SOL    HW125019   0.288   0.403   2.114  1.2107  2.9344 -0.1680
 4461SOL    HW225020   0.399   0.457   2.164  0.8618 -0.1921  0.0939
 4462SOL     OW25021   2.270   2.366   1.713 -0.3784  0.0100 -0.6837
 4462SOL    HW125022   2.327   2.435   1.745 -0.2370 -0.5615  0.2822
 4462SOL    HW225023   2.329   2.294   1.691  0.0633 -0.2505  1.3538
 4463SOL     OW25024   0.304   0.816   8.667  0.0109  0.8561 -0.3644
 4463SOL    HW125025   0.217   0.814   8.706 -1.3317 -1.0405 -3.4252
 4463SOL    HW225026   0.285   0.821   8.574  2.0609  0.1528 -0.8166
 4464SOL     OW25027   2.563   1.863   4.713  0.2988 -0.5011  0.2148
 4464SOL    HW125028   2.650   1.883   4.679  0.2576 -0.3945  0.1693
 4464SOL    HW225029   2.521   1.946   4.689  0.4632  0.0001  1.6766
 4465SOL     OW25030   1.413   1.025   1.946  0.3237  0.8530  0.4699
 4465SOL    HW125031   1.319   1.027   1.966 -0.0150 -1.3994 -0.9246
 4465SOL    HW225032   1.423   0.930   1.938 -0.3835  1.0307 -2.5351
 4466SOL     OW25033   1.392   4.448   1.025  0.0991 -0.0538 -0.2694
 4466SOL    HW125034   1.478   4.417   1.055  0.8130  1.7754 -0.3783
 4466SOL    HW225035   1.338   4.371   1.043 -1.0297  1.0739  1.2186
 4467SOL     OW25036   1.092   4.359   3.607 -0.1004 -0.5034  0.2114
 4467SOL    HW125037   1.041   4.436   3.582  2.6567 -0.2973 -4.7728
 4467SOL    HW225038   1.125   4.337   3.520  0.4144  0.2612  0.2152
 4468SOL     OW25039   3.615   1.169   7.514 -0.1546  0.0955  0.0661
 4468SOL    HW125040   3.536   1.126   7.546 -0.0824 -0.4417 -0.4734
 4468SOL    HW225041   3.624   1.117   7.434  0.5725 -0.6547  0.6367
 4469SOL     OW25042   0.623   1.529   4.508 -0.2942  0.1724  0.5660
 4469SOL    HW125043   0.659   1.459   4.453 -2.1347  0.2397 -0.7137
 4469SOL    HW225044   0.546   1.486   4.544  0.3362 -0.0739  1.6428
 4470SOL     OW25045   2.271   0.088   9.127 -0.1578  0.0654  0.1592
 4470SOL    HW125046   2.366   0.082   9.124 -0.2553 -1.2167 -0.6138
 4470SOL    HW225047   2.267   0.166   9.182 -0.0305 -0.7955  1.3826
 4471SOL     OW25048   1.477   3.655   7.092  0.0860 -0.4617  0.0051
 4471SOL    HW125049   1.572   3.642   7.091  0.2536  0.7174  0.2620
 4471SOL    HW225050   1.441   3.569   7.115 -0.2488 -0.1980  0.4817
 4472SOL     OW25051   0.852   3.673   4.739  0.0685 -0.2011  0.5885
 4472SOL    HW125052   0.881   3.618   4.667  0.9653  2.1499 -0.8718
 4472SOL    HW225053   0.793   3.620   4.791  1.8884 -4.2193 -1.4791
 4473SOL     OW25054   2.264   3.065   1.943  0.1526  0.0790 -0.1467
 4473SOL    HW125055   2.239   3.024   2.026 -0.2046  1.8152  0.5943
 4473SOL    HW225056   2.251   3.158   1.961  2.7941  0.6120 -0.9570
 4474SOL     OW25057   4.692   1.760   8.758  0.2485 -0.2659  0.3095
 4474SOL    HW125058   0.036   1.765   8.706  0.7680 -0.5443  1.0704
 4474SOL    HW225059   4.731   1.737   8.843 -0.3948  1.8676  1.1862
 4475SOL     OW25060   4.395   0.977   3.811  0.3133 -0.9328  0.7184
 4475SOL    HW125061   4.359   0.988   3.723  2.7522 -2.5567 -0.4774
 4475SOL    HW225062   4.331   0.918   3.850  0.0744  0.0921  1.8740
 4476SOL     OW25063   0.956   0.688   1.960 -0.6613  0.3683  0.3256
 4476SOL    HW125064   0.964   0.600   1.923  1.9577  1.2317 -1.1222
 4476SOL    HW225065   1.015   0.679   2.035 -0.4147  0.9353  0.1966
 4477SOL     OW25066   2.440   3.782   4.989  0.0935  0.0340 -0.0767
 4477SOL    HW125067   2.447   3.700   5.037  1.4310 -1.0929 -2.1881
 4477SOL    HW225068   2.381   3.826   5.050 -1.0939 -0.3000 -0.9726
 4478SOL     OW25069   2.392   0.049   7.633 -0.2161  0.6437  0.1409
 4478SOL    HW125070   2.334   0.104   7.687  0.1318  0.9347  0.2158
 4478SOL    HW225071   2.347   0.064   7.550  0.1903 -1.3940 -0.4402
 4479SOL     OW25072   2.208   0.084   0.621 -0.8321 -0.2729  0.3988
 4479SOL    HW125073   2.226   0.045   0.707  1.0604 -0.7922 -0.2498
 4479SOL    HW225074   2.135   0.144   0.640 -0.1838  0.7747 -0.4567
 4480SOL     OW25075   3.052   1.329   2.563 -0.6641 -0.2450 -0.2268
 4480SOL    HW125076   3.013   1.319   2.476 -0.9160  0.9091 -0.2458
 4480SOL    HW225077   3.128   1.272   2.549 -1.3122 -1.0674 -0.3956
 4481SOL     OW25078   2.148   0.586   5.350  0.0730  0.2585  0.5387
 4481SOL    HW125079   2.231   0.543   5.328 -0.5436 -0.5596 -0.1946
 4481SOL    HW225080   2.158   0.672   5.310 -0.5420 -0.8573 -1.9938
 4482SOL     OW25081   3.160   1.056   8.896 -0.0211  0.6851 -0.1097
 4482SOL    HW125082   3.194   1.019   8.977 -2.1364 -1.9734 -0.4180
 4482SOL    HW225083   3.163   0.974   8.846  0.3057  0.2557  0.6135
 4483SOL     OW25084   3.771   2.018  12.805 -0.5385 -0.7190 -0.4301
 4483SOL    HW125085   3.789   2.076  12.879 -1.4573  1.0092 -1.5468
 4483SOL    HW225086   3.694   1.977  12.845  0.7697 -1.8899  0.9064
 4484SOL     OW25087   1.902   4.513   1.797 -0.3734  0.2223  0.4196
 4484SOL    HW125088   1.812   4.486   1.813 -0.6693  0.3199 -1.0949
 4484SOL    HW225089   1.899   4.506   1.702  2.4807  1.0191  0.2555
 4485SOL     OW25090   4.371   3.244   9.503 -0.5409 -0.3602 -0.0782
 4485SOL    HW125091   4.373   3.189   9.425  0.6730 -2.9592  1.7925
 4485SOL    HW225092   4.455   3.222   9.544 -0.6022  1.2830  0.9052
 4486SOL     OW25093   0.748   3.951   3.716  0.3605 -0.0520  0.0073
 4486SOL    HW125094   0.750   3.966   3.621  1.7825 -0.3677 -0.0046
 4486SOL    HW225095   0.792   4.033   3.737 -3.7906  2.3070 -0.4679
 4487SOL     OW25096   0.076   4.655   3.388  0.0618  0.1530 -1.0722
 4487SOL    HW125097   0.008   4.605   3.341  1.1410 -0.4520 -1.9926
 4487SOL    HW225098   0.118   4.705   3.318  0.7231 -0.3421 -1.0227
 4488SOL     OW25099   0.923   1.014  11.438 -0.0126 -0.3931  0.3627
 4488SOL    HW125100   0.851   0.994  11.497 -1.0538  0.2510 -0.7024
 4488SOL    HW225101   0.882   1.034  11.354  0.9287 -2.7394 -0.6650
 4489SOL     OW25102   4.433   2.297   5.517 -0.4752 -0.2595  0.1983
 4489SOL    HW125103   4.515   2.297   5.567 -1.2962 -1.7550  1.5062
 4489SOL    HW225104   4.465   2.283   5.427 -1.0955  1.0314 -0.2329
 4490SOL     OW25105   2.225   1.928   8.016 -0.2622 -0.1021  0.1997
 4490SOL    HW125106   2.304   1.928   8.070 -0.1054  0.2510 -0.0331
 4490SOL    HW225107   2.159   1.959   8.077 -0.1519  0.8768 -0.1791
 4491SOL     OW25108   4.183   2.765   8.196 -0.4263 -0.1563  0.0059
 4491SOL    HW125109   4.141   2.823   8.131 -0.3528 -0.0838  0.0237
 4491SOL    HW225110   4.275   2.783   8.180 -0.2009 -0.2148  1.2888
 4492SOL     OW25111   0.984   1.092   0.305  0.3978  0.2613 -0.3301
 4492SOL    HW125112   0.969   1.003   0.339  2.5834  0.6775  1.6766
 4492SOL    HW225113   0.896   1.097   0.266 -1.2416 -1.6001  3.1217
 4493SOL     OW25114   3.281   1.083   6.179 -0.0001  0.3832 -0.1877
 4493SOL    HW125115   3.265   1.174   6.156 -2.3983  0.7146  2.8050
 4493SOL    HW225116   3.352   1.102   6.239 -1.4653 -0.3044  1.7672
 4494SOL     OW25117   1.439   0.311   7.288  0.5114 -0.2177  0.2418
 4494SOL    HW125118   1.429   0.260   7.368 -3.1333 -0.6908 -0.5192
 4494SOL    HW225119   1.507   0.261   7.242  1.4986  0.8999  0.5145
 4495SOL     OW25120   2.705   4.451   7.875 -0.1294  0.1058 -0.1350
 4495SOL    HW125121   2.726   4.479   7.964 -2.5119 -0.7725  0.6961
 4495SOL    HW225122   2.725   4.533   7.831 -0.1366  0.7225  1.0207
 4496SOL     OW25123   0.013   0.220  15.026 -0.0592  0.2062  0.5313
 4496SOL    HW125124   4.687   0.280  14.984  0.0218  0.3273  0.5837
 4496SOL    HW225125   4.694   0.210  15.104 -0.4643 -2.1505 -0.0727
 4497SOL     OW25126   1.307   2.228  13.765 -0.0792  0.4414  0.1309
 4497SOL    HW125127   1.291   2.314  13.803  2.1702  0.4578  1.0116
 4497SOL    HW225128   1.237   2.172  13.799 -1.8042  0.5555 -3.1436
 4498SOL     OW25129   1.485   1.715  14.093 -0.3844  0.3209 -0.0540
 4498SOL    HW125130   1.564   1.761  14.063 -1.1955  1.0548 -1.0530
 4498SOL    HW225131   1.462   1.759  14.175  1.0578  1.9909 -0.5195
 4499SOL     OW25132   2.918   1.123   6.681 -0.2728  0.0579  0.4250
 4499SOL    HW125133   2.912   1.218   6.672  0.9097 -0.0528 -1.3290
 4499SOL    HW225134   2.882   1.096   6.597  0.1385  0.0227  0.2608
 4500SOL     OW25135   4.277   2.666   1.149  0.1180 -0.1482 -0.3062
 4500SOL    HW125136   4.349   2.617   1.111 -1.0932 -2.1425  0.0023
 4500SOL    HW225137   4.302   2.754   1.118  0.7303 -0.3403 -0.3634
 4501SOL     OW25138   3.677   0.537   7.769  0.0333  0.4856  0.1759
 4501SOL    HW125139   3.754   0.496   7.730 -0.5820 -1.4069  0.9529
 4501SOL    HW225140   3.680   0.497   7.856 -0.7562 -1.6612 -0.7642
 4502SOL     OW25141   1.338   4.610   3.122 -0.2716 -0.2033  0.0195
 4502SOL    HW125142   1.264   4.562   3.084 -0.9767  2.8702 -2.5234
 4502SOL    HW225143   1.308   4.601   3.212 -0.1703 -0.8195 -0.0067
 4503SOL     OW25144   3.990   1.953   2.968  0.1070  0.3212 -0.0643
 4503SOL    HW125145   4.024   1.863   2.965  0.2478  0.3330  1.3323
 4503SOL    HW225146   3.900   1.929   2.944  0.4628  0.7043 -1.8065
 4504SOL     OW25147   2.738   0.718   4.335  0.2600  0.0000 -0.3992
 4504SOL    HW125148   2.832   0.720   4.355  0.4557 -2.0345 -1.1403
 4504SOL    HW225149   2.718   0.785   4.400 -3.1722 -1.6744  0.2447
 4505SOL     OW25150   0.386   0.627  13.653  0.2962  0.0043  0.1966
 4505SOL    HW125151   0.452   0.579  13.703 -1.3963 -1.6348  0.8317
 4505SOL    HW225152   0.308   0.581  13.684  0.4318  0.2506  0.9065
 4506SOL     OW25153   1.582   1.618   4.984  0.3272  0.1823 -0.3788
 4506SOL    HW125154   1.611   1.639   4.895 -1.0583  0.2396 -0.8317
 4506SOL    HW225155   1.631   1.538   4.999 -2.9404 -1.6879  0.4173
 4507SOL     OW25156   3.991   4.329   7.281  0.2189 -0.2407  0.1217
 4507SOL    HW125157   3.897   4.320   7.264 -0.3820  0.6993  3.0295
 4507SOL    HW225158   3.999   4.237   7.305 -0.1271 -0.4176 -0.4274
 4508SOL     OW25159   2.787   3.567   5.864 -0.7663  0.2466 -0.1689
 4508SOL    HW125160   2.834   3.485   5.848 -0.7417 -0.2434  2.3564
 4508SOL    HW225161   2.772   3.589   5.773  1.6949 -0.5314 -0.7672
 4509SOL     OW25162   2.857   0.118  10.152  0.5088 -0.9604  0.5078
 4509SOL    HW125163   2.845   0.066  10.073 -0.9262 -2.1440  1.4894
 4509SOL    HW225164   2.770   0.140  10.186 -0.0317 -2.4836  0.1036
 4510SOL     OW25165   1.044   0.212   6.313  0.0303 -0.2223  0.2311
 4510SOL    HW125166   1.134   0.242   6.302 -0.1104  0.2753  0.3868
 4510SOL    HW225167   1.004   0.264   6.244  0.3110  2.0521  1.7605
 4511SOL     OW25168   2.919   2.165   0.409 -0.1038 -0.4919 -0.1332
 4511SOL    HW125169   2.987   2.123   0.461 -1.3074  0.6539  2.3966
 4511SOL    HW225170   2.902   2.087   0.357  1.6582 -0.0813 -1.3224
 4512SOL     OW25171   3.980   2.243   1.956  0.1848  0.3641  0.6447
 4512SOL    HW125172   4.026   2.322   1.927  0.1249  0.8018  1.7357
 4512SOL    HW225173   3.957   2.215   1.868 -0.4027  1.3220  0.5046
 4513SOL     OW25174   2.110   1.717   2.702  0.1550 -0.1402  0.2271
 4513SOL    HW125175   2.018   1.696   2.716 -0.3620  1.9576  0.0069
 4513SOL    HW225176   2.131   1.649   2.638 -1.0353 -0.0500 -0.2532
 4514SOL     OW25177   4.508   0.676   2.154  0.3639 -0.2955  0.5462
 4514SOL    HW125178   4.488   0.622   2.230  1.6909 -0.8362  0.5193
 4514SOL    HW225179   4.420   0.673   2.116 -0.0427 -0.3091  1.4932
 4515SOL     OW25180   4.106   3.266   3.963 -0.6325 -0.2373  0.4576
 4515SOL    HW125181   4.142   3.333   4.022 -1.8133 -0.9594  1.9984
 4515SOL    HW225182   4.041   3.306   3.905 -0.8931 -1.3510 -0.0197
 4516SOL     OW25183   2.682   0.591  10.572 -0.0691  0.1809 -0.2396
 4516SOL    HW125184   2.618   0.542  10.624  1.6538 -0.8834  0.9026
 4516SOL    HW225185   2.763   0.598  10.623 -1.0911 -0.1638  1.4248
 4517SOL     OW25186   1.664   3.023   3.462 -0.2061  0.4439 -0.0444
 4517SOL    HW125187   1.660   3.079   3.385  0.0771  0.3770 -0.1091
 4517SOL    HW225188   1.655   2.938   3.419 -0.1049  1.2470 -1.6558
 4518SOL     OW25189   0.032   2.398   6.403  0.3912 -0.4598  0.1219
 4518SOL    HW125190   0.068   2.464   6.464  1.6115 -0.4041 -0.6539
 4518SOL    HW225191   4.732   2.332   6.462  3.1476 -1.2591  0.9578
 4519SOL     OW25192   1.814   2.318   4.575 -0.4043 -0.1156  0.2889
 4519SOL    HW125193   1.795   2.369   4.653 -2.1677 -0.8789  0.3469
 4519SOL    HW225194   1.859   2.239   4.606  0.9063  0.9473  1.1505
 4520SOL     OW25195   3.103   1.818   2.790  0.1680 -0.0023  0.1644
 4520SOL    HW125196   3.126   1.839   2.699 -0.6649 -1.1206 -0.3002
 4520SOL    HW225197   3.086   1.905   2.824  2.7388  1.7466 -2.9694
 4521SOL     OW25198   0.062   0.563  15.195 -0.4216 -0.0917  0.1848
 4521SOL    HW125199   0.043   0.538  15.285  0.1340 -4.1839 -0.8472
 4521SOL    HW225200   0.157   0.552  15.204 -0.4463  1.5540  2.4590
 4522SOL     OW25201   4.539   3.620   4.401  0.0408  0.2140 -0.1671
 4522SOL    HW125202   4.605   3.676   4.361  0.4834 -0.6455 -0.6513
 4522SOL    HW225203   4.596   3.548   4.428  0.3008  1.0368  1.4663
 4523SOL     OW25204   0.881   1.356   1.805 -0.3627 -0.0149  0.3765
 4523SOL    HW125205   0.908   1.336   1.895 -0.1492  1.6984  0.7051
 4523SOL    HW225206   0.788   1.378   1.813 -0.8001 -1.3489 -1.1031
 4524SOL     OW25207   1.834   2.397   7.500  0.3199 -0.1293  0.3604
 4524SOL    HW125208   1.830   2.474   7.444  1.7440  0.5201  1.1374
 4524SOL    HW225209   1.910   2.423   7.554 -0.0189  0.7479  0.4006
 4525SOL     OW25210   3.204   3.105   8.288 -0.3129 -0.4492  0.5076
 4525SOL    HW125211   3.246   3.125   8.205 -2.3985  1.0578 -0.1923
 4525SOL    HW225212   3.108   3.109   8.286 -0.2724 -0.6876 -1.7893
 4526SOL     OW25213   2.329   3.369   3.059 -0.3232 -0.3133  0.3548
 4526SOL    HW125214   2.385   3.379   3.136 -2.1517 -0.5408  1.6986
 4526SOL    HW225215   2.262   3.436   3.068 -1.0098 -1.3826  3.0063
 4527SOL     OW25216   4.100   3.820   4.948 -0.5135  0.3205 -0.3937
 4527SOL    HW125217   4.094   3.728   4.976 -0.1752  0.1489 -0.8781
 4527SOL    HW225218   4.186   3.854   4.974  0.5660 -0.7362 -2.5487
 4528SOL     OW25219   3.352   3.386  13.093  0.2181 -0.1968  0.0486
 4528SOL    HW125220   3.387   3.329  13.025 -1.4480 -0.7956 -0.3241
 4528SOL    HW225221   3.403   3.375  13.173  0.1157 -0.3259  0.0961
 4529SOL     OW25222   0.429   1.305   5.361  0.5317 -0.1162 -0.0956
 4529SOL    HW125223   0.506   1.326   5.415 -1.0520  2.5994  1.1043
 4529SOL    HW225224   0.442   1.210   5.362 -0.3671 -0.2492 -1.4910
 4530SOL     OW25225   0.280   1.719   5.792 -0.4178 -0.5903  0.3440
 4530SOL    HW125226   0.368   1.756   5.798  0.0345 -2.1883  3.8156
 4530SOL    HW225227   0.239   1.789   5.742  0.0046 -2.6573 -2.8755
 4531SOL     OW25228   3.215   2.405   6.186 -0.4878  0.1181 -0.0898
 4531SOL    HW125229   3.140   2.464   6.186 -1.1354 -0.7069  0.4520
 4531SOL    HW225230   3.186   2.330   6.237  0.9292 -0.6129 -0.3660
 4532SOL     OW25231   3.583   1.949  11.997  0.1101 -0.0106 -0.2434
 4532SOL    HW125232   3.559   1.924  12.087 -0.2788  0.0477 -0.3322
 4532SOL    HW225233   3.664   1.997  12.009  0.4712 -0.4409 -0.9460
 4533SOL     OW25234   2.763   1.076   4.648 -0.0010  0.0823  0.1590
 4533SOL    HW125235   2.768   1.074   4.744 -3.6880 -1.1815  0.3026
 4533SOL    HW225236   2.670   1.091   4.635 -0.3814 -4.5737 -2.2605
 4534SOL     OW25237   2.564   3.604  16.689  0.2110  0.3757 -0.1442
 4534SOL    HW125238   2.655   3.578  16.677  0.0353 -0.5206  0.4702
 4534SOL    HW225239   2.519   3.526  16.720 -0.3545  1.6420  2.2579
 4535SOL     OW25240   4.313   3.225  16.475 -0.0877  0.3596 -0.3889
 4535SOL    HW125241   4.362   3.302  16.445  1.1271 -0.7266 -1.1893
 4535SOL    HW225242   4.358   3.155  16.429 -1.1573 -0.6966  0.1667
 4536SOL     OW25243   2.275   4.322  13.207 -0.7349 -0.0440 -0.3904
 4536SOL    HW125244   2.277   4.238  13.161  3.5443  0.1142 -0.4208
 4536SOL    HW225245   2.246   4.283  13.290 -3.1238 -1.8549 -2.0666
 4537SOL     OW25246   1.149   3.210   3.768  0.3774  0.1794 -0.1205
 4537SOL    HW125247   1.142   3.283   3.830  1.7873  0.6091 -0.4632
 4537SOL    HW225248   1.085   3.230   3.700  0.7467  1.6513 -0.0460
 4538SOL     OW25249   4.063   4.366   5.652 -0.5637  0.0659 -0.1835
 4538SOL    HW125250   4.132   4.402   5.597  0.2227  0.8371  1.3357
 4538SOL    HW225251   4.100   4.346   5.738 -1.4239 -2.4316 -0.3850
 4539SOL     OW25252   1.215   4.067   5.220 -0.0155 -0.4304 -0.1986
 4539SOL    HW125253   1.180   4.110   5.142  0.8871 -0.3184 -0.5372
 4539SOL    HW225254   1.304   4.044   5.191 -0.0070  0.2677 -0.7185
 4540SOL     OW25255   2.351   0.777   9.210 -0.3193 -0.3075  0.1808
 4540SOL    HW125256   2.430   0.805   9.163 -0.8616  0.6999 -0.1477
 4540SOL    HW225257   2.367   0.693   9.252  1.3713 -0.4897 -0.8107
 4541SOL     OW25258   2.026   0.193   4.144  0.2907  0.3189 -0.3457
 4541SOL    HW125259   2.076   0.111   4.150 -1.3683 -0.3329  4.0886
 4541SOL    HW225260   1.968   0.185   4.219 -0.8930 -1.1278 -1.4105
 4542SOL     OW25261   1.852   3.064   8.264  0.2417 -0.7836  0.2417
 4542SOL    HW125262   1.823   3.022   8.345 -1.6403  0.3611  0.1740
 4542SOL    HW225263   1.941   3.030   8.267  1.3497  2.0224 -1.0713
 4543SOL     OW25264   0.637   4.021   6.411 -0.3494 -0.2419  0.4496
 4543SOL    HW125265   0.582   4.006   6.334 -0.6752  0.9260  0.4594
 4543SOL    HW225266   0.687   3.939   6.418  2.5516  1.4389 -0.4900
 4544SOL     OW25267   0.801   3.249   5.939  0.7356  0.0846 -0.1660
 4544SOL    HW125268   0.729   3.188   5.926  0.9650 -0.3272  0.4966
 4544SOL    HW225269   0.874   3.193   5.915  0.0663 -1.2009  0.8365
 4545SOL     OW25270   0.541   2.787   5.932 -0.5952 -0.2590  0.1021
 4545SOL    HW125271   0.493   2.864   5.964 -0.2199 -0.3924  0.9819
 4545SOL    HW225272   0.484   2.721   5.972 -0.0738  0.7205  2.4793
 4546SOL     OW25273   4.403   1.580   1.551  0.2137 -0.2514  0.1059
 4546SOL    HW125274   4.361   1.584   1.465 -0.0782 -0.3285  0.2467
 4546SOL    HW225275   4.353   1.516   1.602 -2.7450  0.0920 -2.3799
 4547SOL     OW25276   1.068   4.121   2.763  0.0292  0.2506  0.0062
 4547SOL    HW125277   1.119   4.126   2.844  0.9189  1.0282 -0.6002
 4547SOL    HW225278   1.131   4.130   2.691  0.9323  4.0526  1.2397
 4548SOL     OW25279   0.159   0.224   2.859  0.2472  0.0282  0.0355
 4548SOL    HW125280   0.082   0.267   2.897  1.7103  0.0270  2.9916
 4548SOL    HW225281   0.221   0.295   2.875  0.2031  0.2459 -0.7660
 4549SOL     OW25282   3.969   2.174   0.626  0.4055  0.5744  0.0376
 4549SOL    HW125283   3.887   2.134   0.655  0.0059  1.3424 -0.0366
 4549SOL    HW225284   3.926   2.248   0.584 -0.6244 -0.3269 -0.4814
 4550SOL     OW25285   0.006   1.240   3.970  0.1484 -0.0819 -0.6935
 4550SOL    HW125286   0.094   1.269   3.992  0.3033  1.4788 -3.4569
 4550SOL    HW225287   4.693   1.318   3.945  1.2359 -0.0979 -2.8448
 4551SOL     OW25288   3.213   1.771   6.305 -0.1555  0.1495 -0.0770
 4551SOL    HW125289   3.299   1.735   6.285 -2.0724 -3.0838 -2.3633
 4551SOL    HW225290   3.205   1.765   6.400 -1.4811 -0.7826 -0.2487
 4552SOL     OW25291   0.547   3.453   3.138 -0.0341  0.3319  0.2252
 4552SOL    HW125292   0.578   3.366   3.112 -0.7027 -0.4496  2.0407
 4552SOL    HW225293   0.563   3.460   3.233 -1.1598 -2.6520  0.6339
 4553SOL     OW25294   3.707   1.466   8.331  0.2450  0.2184  0.2123
 4553SOL    HW125295   3.710   1.550   8.285  0.8569  0.9210  1.5110
 4553SOL    HW225296   3.625   1.490   8.374  0.2689 -2.5809  1.8161
 4554SOL     OW25297   2.204   1.038   5.660 -0.4762  0.2100 -0.7351
 4554SOL    HW125298   2.295   1.026   5.635 -0.4323 -0.5247 -0.1977
 4554SOL    HW225299   2.193   0.953   5.702 -0.3398 -0.4795 -2.0756
 4555SOL     OW25300   3.956   4.543   6.755 -0.2828  0.1931  0.1663
 4555SOL    HW125301   3.959   4.449   6.739 -1.8785 -0.0848  1.4909
 4555SOL    HW225302   3.966   4.549   6.850 -2.0973  1.2128  0.2875
 4556SOL     OW25303   2.466   4.723  16.930 -0.2518  0.1659 -0.2674
 4556SOL    HW125304   2.513   4.683  17.003 -1.3053  1.3043  1.0419
 4556SOL    HW225305   2.399   0.032  16.981  1.1658  1.7557  0.1741
 4557SOL     OW25306   3.814   3.291  15.920  0.5029 -0.0964 -0.5023
 4557SOL    HW125307   3.889   3.313  15.864  0.9323  0.3107  0.2430
 4557SOL    HW225308   3.815   3.371  15.971 -2.1273  0.1343 -0.8200
 4558SOL     OW25309   1.450   0.486   1.052 -0.7191  0.0311 -0.2349
 4558SOL    HW125310   1.500   0.405   1.052 -0.0678  0.4412  1.6474
 4558SOL    HW225311   1.497   0.531   1.122  0.8980 -1.2966 -0.4769
 4559SOL     OW25312   3.759   3.071   1.388  0.2120 -0.3997 -0.1842
 4559SOL    HW125313   3.726   3.036   1.471  0.7934 -0.2921  0.0871
 4559SOL    HW225314   3.677   3.098   1.347 -0.2445 -1.3605  0.0955
 4560SOL     OW25315   3.347   1.414   2.146 -0.6688  0.1530 -0.1719
 4560SOL    HW125316   3.321   1.339   2.094 -0.4279 -0.1800  0.1861
 4560SOL    HW225317   3.343   1.475   2.072 -1.8472  0.0025 -0.2261
 4561SOL     OW25318   4.469   1.286  12.660  0.0345 -0.1107 -0.8497
 4561SOL    HW125319   4.515   1.272  12.577  2.7776  2.3318  0.2609
 4561SOL    HW225320   4.550   1.286  12.710  0.2618  0.5377 -1.2073
 4562SOL     OW25321   1.981   4.195   7.944  0.1087  0.1101 -0.3822
 4562SOL    HW125322   2.050   4.249   7.906  0.7209 -0.4733 -0.1077
 4562SOL    HW225323   1.936   4.260   7.997  1.8687  1.0627 -0.0544
 4563SOL     OW25324   2.397   1.022   4.759 -0.6653 -0.4201 -0.0625
 4563SOL    HW125325   2.367   1.060   4.841 -2.2377 -0.4957 -0.6094
 4563SOL    HW225326   2.448   1.092   4.719  0.4022 -1.1555  0.0010
 4564SOL     OW25327   2.915   4.501  10.964  0.5224  0.7814  0.1130
 4564SOL    HW125328   3.005   4.506  10.933  0.1066  3.5557 -0.7194
 4564SOL    HW225329   2.911   4.436  11.033  1.6718 -0.3701 -0.9137
 4565SOL     OW25330   0.306   4.195   6.295  0.2553  0.0393 -0.1343
 4565SOL    HW125331   0.328   4.284   6.325 -0.7138 -0.4067  1.9144
 4565SOL    HW225332   0.286   4.154   6.379  0.8242 -3.2945 -1.6598
 4566SOL     OW25333   0.594   4.074   7.003  0.1304  0.3118  0.0267
 4566SOL    HW125334   0.670   4.127   6.980  0.6238 -1.4255 -2.3436
 4566SOL    HW225335   0.597   4.015   6.928  1.9908 -1.0280  1.1616
 4567SOL     OW25336   2.802   2.106   5.620  0.1723  0.1382  0.0727
 4567SOL    HW125337   2.814   2.182   5.677 -2.9038  1.2403 -0.6970
 4567SOL    HW225338   2.768   2.040   5.680 -1.9403 -1.4450 -2.8139
 4568SOL     OW25339   0.602   4.194   8.137  0.1504  0.1597  0.1643
 4568SOL    HW125340   0.628   4.124   8.077  1.8622  0.6564  0.3383
 4568SOL    HW225341   0.679   4.249   8.130  1.0454 -1.1163 -0.0647
 4569SOL     OW25342   1.795   1.520  11.651  0.2089 -0.0430  0.2765
 4569SOL    HW125343   1.859   1.559  11.710  1.9636  0.2643 -1.8456
 4569SOL    HW225344   1.720   1.576  11.671 -0.5216  0.3620 -3.5629
 4570SOL     OW25345   2.170   0.240   5.468  0.0370 -1.2586 -0.6524
 4570SOL    HW125346   2.122   0.322   5.476  1.7892 -0.3685  0.5448
 4570SOL    HW225347   2.210   0.228   5.554 -0.2047 -1.2332 -0.5376
 4571SOL     OW25348   2.157   3.031  10.876 -0.2228 -0.0389  0.8611
 4571SOL    HW125349   2.138   3.058  10.966 -3.6551 -1.1083  0.4414
 4571SOL    HW225350   2.124   2.942  10.883  1.4781 -0.8167 -1.0091
 4572SOL     OW25351   2.505   1.601   6.106  0.0121 -0.5163 -0.1695
 4572SOL    HW125352   2.541   1.688   6.123  1.8371 -1.4971  0.9809
 4572SOL    HW225353   2.420   1.631   6.073 -0.2496  0.6165  1.5663
 4573SOL     OW25354   2.992   2.435   1.714  0.2960 -0.2058 -0.0959
 4573SOL    HW125355   3.084   2.409   1.705  0.7336  1.2106  0.2317
 4573SOL    HW225356   2.976   2.356   1.765 -2.2294  1.4492  1.6736
 4574SOL     OW25357   2.061   3.031   9.990  0.7076  0.0247 -0.0702
 4574SOL    HW125358   2.052   3.121  10.023  0.8165  0.4959 -1.3427
 4574SOL    HW225359   2.149   3.010  10.022 -0.0754 -1.5933  1.0136
 4575SOL     OW25360   4.060   3.253   6.481 -0.6380  0.3285  0.3836
 4575SOL    HW125361   4.084   3.170   6.440  1.4027  0.5963  1.0562
 4575SOL    HW225362   4.136   3.260   6.538 -0.2152 -3.2338  0.2692
 4576SOL     OW25363   2.795   1.426   3.581  0.3972 -0.1932 -0.0155
 4576SOL    HW125364   2.794   1.494   3.649 -0.6635 -1.1012  0.8817
 4576SOL    HW225365   2.884   1.419   3.548 -0.8777 -2.5424 -2.9722
 4577SOL     OW25366   0.523   4.171   8.934 -0.1491  0.0754  0.5255
 4577SOL    HW125367   0.457   4.164   8.865 -0.9082  1.9229  1.0777
 4577SOL    HW225368   0.548   4.079   8.935  1.1823  0.4196 -0.3429
 4578SOL     OW25369   1.405   3.582   7.973  0.3499 -0.5633  0.0790
 4578SOL    HW125370   1.359   3.624   8.045  1.1900  1.9932 -0.8750
 4578SOL    HW225371   1.499   3.600   7.983  0.4588 -1.4306  0.5418
 4579SOL     OW25372   2.112   3.344   3.394  0.4032 -1.0625 -0.1923
 4579SOL    HW125373   2.205   3.362   3.381  0.3477  0.6818  1.7891
 4579SOL    HW225374   2.111   3.258   3.436 -1.1352 -1.1874 -0.4789
 4580SOL     OW25375   3.051   1.563   7.145  0.6469  0.1182  0.6742
 4580SOL    HW125376   3.056   1.507   7.068 -3.0390  0.9124 -0.1078
 4580SOL    HW225377   2.985   1.625   7.114 -0.0093 -0.7052  0.4387
 4581SOL     OW25378   0.628   3.417   3.720  0.4793 -0.1401 -0.1608
 4581SOL    HW125379   0.675   3.424   3.803 -0.7541  1.4480  0.4015
 4581SOL    HW225380   0.568   3.489   3.739 -1.1907 -1.4749 -0.4731
 4582SOL     OW25381   3.689   4.265   4.661  0.5539  0.1442 -0.5500
 4582SOL    HW125382   3.772   4.264   4.709  0.4871  1.6283 -0.4295
 4582SOL    HW225383   3.633   4.305   4.726 -0.8903 -2.0510 -0.4276
 4583SOL     OW25384   0.445   1.984   0.518 -0.1634 -0.1582 -0.1944
 4583SOL    HW125385   0.397   1.923   0.462 -2.7969 -0.8390  2.8235
 4583SOL    HW225386   0.412   2.071   0.494  2.3873  0.3095 -2.0183
 4584SOL     OW25387   3.467   0.361  13.836  0.1143  0.1320 -0.0800
 4584SOL    HW125388   3.399   0.352  13.902 -1.7229 -1.3417 -2.1969
 4584SOL    HW225389   3.502   0.450  13.842 -0.6384  0.7508 -4.6320
 4585SOL     OW25390   1.721   0.668   7.247  0.4942  0.1299  0.9612
 4585SOL    HW125391   1.728   0.583   7.204  0.2427 -0.2399  1.6516
 4585SOL    HW225392   1.668   0.647   7.324  0.9969  0.9414  1.5309
 4586SOL     OW25393   4.439   4.370   3.212 -0.3647 -0.6054  0.3126
 4586SOL    HW125394   4.422   4.282   3.246 -0.6049 -0.3858  0.7524
 4586SOL    HW225395   4.523   4.384   3.255 -0.7870  0.0000  0.9312
 4587SOL     OW25396   0.795   1.600   8.283  0.1705 -0.3913 -0.0095
 4587SOL    HW125397   0.767   1.594   8.374  1.3135  0.1537  0.3763
 4587SOL    HW225398   0.758   1.520   8.246 -1.2569  1.3448 -2.4100
 4588SOL     OW25399   0.703   3.523   6.170 -0.4672  0.6793 -0.2510
 4588SOL    HW125400   0.619   3.480   6.160  0.6324 -1.4635 -0.2168
 4588SOL    HW225401   0.758   3.444   6.169  0.6395  1.4274  0.6243
 4589SOL     OW25402   0.605   4.615   7.996  0.0494 -0.1356  0.2537
 4589SOL    HW125403   0.601   4.616   8.092  0.9928 -0.0917  0.2962
 4589SOL    HW225404   0.522   4.588   7.957 -0.4157  2.7413 -0.6875
 4590SOL     OW25405   0.129   0.671  11.479  0.2445  0.1129  0.0295
 4590SOL    HW125406   0.137   0.603  11.413  0.2807  1.1320 -1.0212
 4590SOL    HW225407   0.066   0.719  11.426  1.3547  1.6512  0.1076
 4591SOL     OW25408   2.339   1.152   5.286  0.1108  0.1776  0.1215
 4591SOL    HW125409   2.389   1.231   5.268 -0.1573 -0.0265 -1.5141
 4591SOL    HW225410   2.406   1.086   5.305 -0.2906  0.0050  0.9159
 4592SOL     OW25411   1.100   0.744  14.677  0.5366 -0.0995  0.2548
 4592SOL    HW125412   1.155   0.809  14.633  1.9693 -1.1403  0.5088
 4592SOL    HW225413   1.044   0.693  14.618  1.5760 -0.6158 -0.2802
 4593SOL     OW25414   4.488   2.737  12.985 -1.0332 -0.5969  0.1465
 4593SOL    HW125415   4.476   2.655  13.033  0.3748 -2.0109 -1.8902
 4593SOL    HW225416   4.459   2.798  13.053  2.4734 -2.4607  3.3420
 4594SOL     OW25417   0.402   1.110   8.718 -0.0013  0.1633  0.1336
 4594SOL    HW125418   0.430   1.112   8.626  0.2327 -1.4252  0.1757
 4594SOL    HW225419   0.392   1.015   8.716  2.7581 -0.0969 -2.2306
 4595SOL     OW25420   2.750   0.268   2.591  0.5244 -0.4715 -0.1856
 4595SOL    HW125421   2.792   0.184   2.573  1.6058  0.0307 -0.0290
 4595SOL    HW225422   2.817   0.307   2.647 -1.0360 -1.0847  2.1238
 4596SOL     OW25423   2.322   2.701   1.554 -0.6712 -0.1393 -0.3884
 4596SOL    HW125424   2.365   2.711   1.469 -0.8628 -2.7007 -0.7908
 4596SOL    HW225425   2.231   2.729   1.542 -0.7915 -0.1758  0.4673
 4597SOL     OW25426   3.857   1.050  12.752  0.1171 -0.3740  0.0805
 4597SOL    HW125427   3.903   1.013  12.676  0.8924  0.1306  0.3051
 4597SOL    HW225428   3.925   1.109  12.782 -0.1419  0.0928 -0.2514
 4598SOL     OW25429   0.070   0.490   2.507 -0.1542 -0.0080  0.7749
 4598SOL    HW125430   0.031   0.459   2.425 -0.9310  0.9283  0.7996
 4598SOL    HW225431   4.736   0.472   2.569 -0.8483 -0.3387 -0.1204
 4599SOL     OW25432   2.267   2.071   8.398 -0.1067  0.4682  0.0216
 4599SOL    HW125433   2.339   2.065   8.335  0.5784  0.8590  0.7700
 4599SOL    HW225434   2.286   1.998   8.457 -1.7016 -0.5626 -0.7370
 4600SOL     OW25435   4.029   3.246   6.867 -0.4495  0.0873 -0.6876
 4600SOL    HW125436   3.991   3.332   6.886 -0.7653  0.7200 -4.2238
 4600SOL    HW225437   4.078   3.222   6.946  1.2082  0.3279 -1.6398
 4601SOL     OW25438   2.880   0.968  14.644  0.2236 -0.7614  0.3982
 4601SOL    HW125439   2.868   0.874  14.659  2.5040 -0.6494  2.7717
 4601SOL    HW225440   2.974   0.985  14.637 -0.4345  2.6563 -0.2810
 4602SOL     OW25441   0.788   0.295   1.226  0.0288  0.1112 -0.2134
 4602SOL    HW125442   0.710   0.277   1.174  0.3212  0.7967 -0.8761
 4602SOL    HW225443   0.759   0.289   1.317 -1.9704 -2.7302 -1.0415
 4603SOL     OW25444   1.205   3.701  11.929 -0.4271  0.6126 -0.1366
 4603SOL    HW125445   1.278   3.675  11.985 -0.6775 -0.4012 -0.2755
 4603SOL    HW225446   1.133   3.638  11.933  0.6784 -0.7005 -0.9723
 4604SOL     OW25447   2.105   1.215   8.686 -0.1819 -0.5178  0.3112
 4604SOL    HW125448   2.069   1.176   8.765  0.5028 -0.2461  0.7556
 4604SOL    HW225449   2.068   1.152   8.624  0.0025  0.0911 -0.4125
 4605SOL     OW25450   3.427   4.066  13.995  0.3494 -0.1995  0.4199
 4605SOL    HW125451   3.437   4.149  14.041  1.1543  0.0849 -0.2643
 4605SOL    HW225452   3.457   4.003  14.060  1.3077 -0.0333  0.1471
 4606SOL     OW25453   3.758   0.998   2.477  0.2814  0.0302  0.4459
 4606SOL    HW125454   3.828   1.061   2.493  0.1596 -0.0679  1.3390
 4606SOL    HW225455   3.803   0.914   2.486 -1.0299 -0.8408 -1.0355
 4607SOL     OW25456   0.619   2.056   5.285  0.2017  0.0875 -0.1889
 4607SOL    HW125457   0.690   2.041   5.347 -0.7110 -1.9170  0.3951
 4607SOL    HW225458   0.571   1.974   5.301  0.0003  0.0532 -0.9560
 4608SOL     OW25459   1.011   0.096   0.290  0.3585  0.2299 -0.4303
 4608SOL    HW125460   1.060   0.076   0.211  0.0648  0.0168 -0.5578
 4608SOL    HW225461   1.060   0.044   0.354 -0.6398 -0.1126  0.0579
 4609SOL     OW25462   4.528   2.236  16.595  0.1116 -0.4312  0.4338
 4609SOL    HW125463   4.593   2.188  16.646  0.2041  0.8498  1.5272
 4609SOL    HW225464   4.575   2.252  16.513 -0.1798 -0.2196  0.3090
 4610SOL     OW25465   2.768   0.236   3.231  0.0717 -0.8429 -0.5574
 4610SOL    HW125466   2.680   0.270   3.210 -0.2936 -1.1311  0.4921
 4610SOL    HW225467   2.748   0.143   3.238  0.3154 -0.9269 -0.9816
 4611SOL     OW25468   4.424   2.457   2.647  0.0137  0.4859 -0.6285
 4611SOL    HW125469   4.497   2.430   2.592  0.4012  1.4130 -0.5755
 4611SOL    HW225470   4.432   2.385   2.710  0.0666  1.6050  0.6499
 4612SOL     OW25471   0.917   4.725  10.861 -0.1173  0.6645 -0.1122
 4612SOL    HW125472   0.928   4.659  10.792 -0.4974 -0.2231  0.6808
 4612SOL    HW225473   0.949   0.068  10.817 -2.0376  0.9240 -1.0244
 4613SOL     OW25474   3.627   2.798   1.335 -0.8429 -0.5446  0.1562
 4613SOL    HW125475   3.663   2.783   1.247 -0.3205 -1.8976  0.5953
 4613SOL    HW225476   3.690   2.748   1.386 -1.8870 -1.5647  0.4382
 4614SOL     OW25477   0.675   2.928   8.234  0.6492  0.2071 -0.5989
 4614SOL    HW125478   0.761   2.928   8.277  0.1239  0.1855  0.4539
 4614SOL    HW225479   0.625   2.868   8.290  0.2213  0.1697 -1.0268
 4615SOL     OW25480   4.433   3.838  13.516  0.2583 -0.1401  0.6569
 4615SOL    HW125481   4.468   3.783  13.587 -1.9710  1.1207  2.7066
 4615SOL    HW225482   4.359   3.793  13.475 -0.1089  0.6253  0.4859
 4616SOL     OW25483   4.041   2.840   7.090  0.0349 -0.7096 -0.3843
 4616SOL    HW125484   4.070   2.823   7.000 -1.6253  1.7770 -1.3972
 4616SOL    HW225485   4.124   2.877   7.122 -1.1614  0.9586  0.8226
 4617SOL     OW25486   1.416   3.587   0.709 -0.0026  0.1442  0.0193
 4617SOL    HW125487   1.345   3.534   0.744 -0.2347  1.1997  1.1619
 4617SOL    HW225488   1.461   3.509   0.675  0.5505 -0.3322  1.8461
 4618SOL     OW25489   3.434   1.881  16.861 -0.1233 -0.1579 -0.6497
 4618SOL    HW125490   3.457   1.793  16.889 -0.3665  0.1958  0.6605
 4618SOL    HW225491   3.400   1.870  16.773  1.0947 -0.1970 -1.1133
 4619SOL     OW25492   0.178   1.954  14.647  0.2347  0.9499  0.1049
 4619SOL    HW125493   0.093   1.949  14.690 -0.3303  1.8054 -0.9141
 4619SOL    HW225494   0.236   1.966  14.722 -1.5904  2.5660  1.2308
 4620SOL     OW25495   3.671   2.755  17.032  0.2020  0.0722  0.0560
 4620SOL    HW125496   3.637   2.803  17.108  0.7455 -0.0633  0.3827
 4620SOL    HW225497   3.760   2.732  17.057  1.0211  0.4046 -2.5435
 4621SOL     OW25498   2.787   3.483   7.265 -0.4706 -0.2521  0.4040
 4621SOL    HW125499   2.751   3.428   7.335 -0.9039 -1.7308 -0.9758
 4621SOL    HW225500   2.723   3.489   7.194  0.1792  0.9880 -0.0761
 4622SOL     OW25501   0.275   1.014   0.264 -0.0283 -0.1519 -0.1409
 4622SOL    HW125502   0.274   1.007   0.359 -0.2766  0.0284 -0.1304
 4622SOL    HW225503   0.188   0.979   0.242 -1.2423  1.7510  1.5673
 4623SOL     OW25504   0.562   1.965  11.304 -0.7712  0.4685 -0.0020
 4623SOL    HW125505   0.486   2.018  11.330 -0.2043  1.5910 -0.6332
 4623SOL    HW225506   0.622   2.038  11.286  1.6661 -1.4391  0.5161
 4624SOL     OW25507   0.289   0.465  10.596 -0.5400  0.0714  0.4977
 4624SOL    HW125508   0.370   0.513  10.579  1.7140 -4.3487 -1.2817
 4624SOL    HW225509   0.302   0.382  10.550 -0.1075  0.0726  0.6193
 4625SOL     OW25510   1.407   2.750   6.154  0.1395  0.4343 -0.0216
 4625SOL    HW125511   1.431   2.838   6.185 -3.2427  1.2633  0.2397
 4625SOL    HW225512   1.366   2.779   6.072 -0.3020 -2.5770 -0.8835
 4626SOL     OW25513   1.677   0.759   5.160  0.1718  0.3960 -0.8697
 4626SOL    HW125514   1.646   0.725   5.244  0.2598 -1.5806 -1.6513
 4626SOL    HW225515   1.599   0.779   5.108 -1.7075 -0.8552  1.4942
 4627SOL     OW25516   1.683   1.576   2.245 -0.0874  0.1737 -0.3741
 4627SOL    HW125517   1.668   1.501   2.186  0.1621  0.9007 -1.3560
 4627SOL    HW225518   1.778   1.584   2.232 -0.0005  1.6845  1.3150
 4628SOL     OW25519   3.806   0.950   1.519 -0.1048 -0.4196 -0.3738
 4628SOL    HW125520   3.781   0.865   1.552 -0.2215  0.5825  2.1257
 4628SOL    HW225521   3.723   0.982   1.484 -0.5771 -2.4923 -1.1040
 4629SOL     OW25522   1.076   1.135   1.588  0.2711 -0.3545 -0.2769
 4629SOL    HW125523   1.025   1.150   1.667  0.5366 -0.0345 -0.1649
 4629SOL    HW225524   1.085   1.224   1.552  1.3654  0.5090  2.1332
 4630SOL     OW25525   4.455   0.368   7.580 -0.2823  0.8769  0.4126
 4630SOL    HW125526   4.451   0.435   7.511  2.0942  0.9356  0.3067
 4630SOL    HW225527   4.435   0.287   7.532  1.1858  0.6477  0.1764
 4631SOL     OW25528   2.294   0.111  10.007  0.1276  1.1613 -0.0407
 4631SOL    HW125529   2.349   0.042  10.043 -1.3464  0.3179  0.6235
 4631SOL    HW225530   2.271   0.080   9.920  0.2921 -0.1601  0.3834
 4632SOL     OW25531   2.033   1.105   8.936  0.5589  0.4652  0.6224
 4632SOL    HW125532   2.077   1.073   9.014  1.2776  1.3335  0.5647
 4632SOL    HW225533   1.960   1.158   8.967 -0.0180 -0.9313  1.6528
 4633SOL     OW25534   0.833   3.917   4.602 -0.0779 -0.1512 -0.8473
 4633SOL    HW125535   0.844   3.828   4.634 -2.5665 -0.0990  0.1686
 4633SOL    HW225536   0.917   3.957   4.623 -0.8060  1.2168 -0.5409
 4634SOL     OW25537   0.226   0.555   1.837  0.2508  0.3406 -0.0042
 4634SOL    HW125538   0.154   0.618   1.832  0.6504  0.7570 -0.3808
 4634SOL    HW225539   0.300   0.614   1.829  1.9259 -1.4059  2.5662
 4635SOL     OW25540   1.444   3.740   2.915 -0.1924  0.0496  0.2724
 4635SOL    HW125541   1.409   3.826   2.893  0.7397  0.4493  0.3382
 4635SOL    HW225542   1.534   3.772   2.922 -0.1790  0.3051 -0.9511
 4636SOL     OW25543   0.619   0.159   2.841  0.9917 -0.4894 -0.5610
 4636SOL    HW125544   0.662   0.073   2.843  1.6016 -0.1949 -0.9274
 4636SOL    HW225545   0.582   0.145   2.928 -1.1858  0.4164 -1.3471
 4637SOL     OW25546   3.531   3.495  11.831  0.6209 -0.4772 -0.3677
 4637SOL    HW125547   3.557   3.438  11.904  1.9388 -1.1617 -1.3756
 4637SOL    HW225548   3.441   3.477  11.805  0.5031 -1.7055  0.9033
 4638SOL     OW25549   0.430   4.130   3.318 -0.1076 -0.0385  0.1797
 4638SOL    HW125550   0.406   4.039   3.337 -0.6325  0.2434  0.8663
 4638SOL    HW225551   0.496   4.117   3.250  0.3379  0.2805  0.5554
 4639SOL     OW25552   2.366   1.252   8.878 -0.4058 -0.1394 -0.1389
 4639SOL    HW125553   2.280   1.292   8.891  0.7943  2.6314 -0.6567
 4639SOL    HW225554   2.403   1.251   8.966 -0.4284 -1.6624 -0.1561
 4640SOL     OW25555   1.045   3.648  13.711  0.4921 -0.1819 -0.1855
 4640SOL    HW125556   0.972   3.709  13.717  0.7240 -0.0154  0.8501
 4640SOL    HW225557   1.120   3.707  13.711 -0.0020  0.4565 -1.0212
 4641SOL     OW25558   1.815   2.582   1.493  0.3517 -0.2782  0.4049
 4641SOL    HW125559   1.888   2.545   1.544  0.5812  1.0790  1.0761
 4641SOL    HW225560   1.762   2.613   1.567  2.1109  2.3963  0.5768
 4642SOL     OW25561   4.713   0.662   6.442 -0.3536  0.4591 -0.0140
 4642SOL    HW125562   4.717   0.758   6.436  1.6733  0.4849  1.6426
 4642SOL    HW225563   0.061   0.647   6.398  0.4542 -0.4419  1.8550
 4643SOL     OW25564   4.188   0.692  11.453 -0.1573 -0.4632  0.7014
 4643SOL    HW125565   4.153   0.686  11.365  3.4832  3.1232 -0.9923
 4643SOL    HW225566   4.122   0.635  11.493 -0.7460 -0.0841  0.2510
 4644SOL     OW25567   4.199   4.202   7.835 -0.0090 -0.8339 -0.3719
 4644SOL    HW125568   4.284   4.163   7.815  1.1442  1.6762 -0.3485
 4644SOL    HW225569   4.194   4.196   7.931  0.5432  0.9524 -0.2299
 4645SOL     OW25570   3.319   2.718   5.014  0.3821  0.3928 -0.6827
 4645SOL    HW125571   3.365   2.741   5.094 -0.7528 -0.1213  0.1037
 4645SOL    HW225572   3.367   2.773   4.953  0.1189 -0.3047 -1.5300
 4646SOL     OW25573   2.376   4.578   2.166  0.1192 -0.3455 -0.1216
 4646SOL    HW125574   2.468   4.559   2.187  0.5357  1.0300 -0.6793
 4646SOL    HW225575   2.324   4.515   2.215  1.9027 -0.7963  1.1998
 4647SOL     OW25576   4.148   0.520   3.254 -0.0367  0.0055 -0.3813
 4647SOL    HW125577   4.183   0.482   3.174  2.7508  0.8625  0.4131
 4647SOL    HW225578   4.055   0.542   3.247  0.3345  1.9284  0.6934
 4648SOL     OW25579   0.646   3.796   9.636 -0.0286  0.1092  0.2198
 4648SOL    HW125580   0.623   3.791   9.543  1.3529  3.9057 -0.3556
 4648SOL    HW225581   0.640   3.891   9.648  1.6723  0.2361 -0.0379
 4649SOL     OW25582   4.168   3.845   6.378 -0.3707  0.3806 -0.2634
 4649SOL    HW125583   4.238   3.853   6.313  0.1614 -1.9327  0.0015
 4649SOL    HW225584   4.179   3.753   6.404 -0.6922  0.9294  1.7879
 4650SOL     OW25585   2.904   0.834   2.491  0.1349 -0.5224 -0.9188
 4650SOL    HW125586   2.829   0.789   2.528  0.0470  0.0234 -0.4334
 4650SOL    HW225587   2.981   0.781   2.511 -0.0036 -0.9015 -1.3988
 4651SOL     OW25588   4.174   2.474   6.643  0.3990  0.0004 -0.1478
 4651SOL    HW125589   4.264   2.508   6.638  0.0679  0.5285 -2.4223
 4651SOL    HW225590   4.131   2.516   6.569 -3.6190  0.4059  2.4327
 4652SOL     OW25591   2.927   4.239   8.041 -0.1533 -0.4681  0.0487
 4652SOL    HW125592   2.954   4.323   8.077 -2.4374 -0.3595  1.4550
 4652SOL    HW225593   2.838   4.230   8.074 -0.7162  0.3113 -1.2466
 4653SOL     OW25594   0.040   0.164   7.890  0.8402 -0.3821 -1.0776
 4653SOL    HW125595   4.692   0.196   7.860 -0.1287  0.0193  2.1523
 4653SOL    HW225596   0.023   0.133   7.979  0.3962 -1.1206 -1.4097
 4654SOL     OW25597   2.066   3.249   7.269  0.2075  0.3004 -0.1262
 4654SOL    HW125598   2.081   3.320   7.331  3.4876 -0.6903  0.1895
 4654SOL    HW225599   2.006   3.286   7.204 -1.3823  2.5055  2.6029
 4655SOL     OW25600   2.178   4.153   2.730  0.5285 -0.1730 -0.2531
 4655SOL    HW125601   2.132   4.070   2.737  0.3201 -0.1359 -1.1233
 4655SOL    HW225602   2.114   4.220   2.753  0.2899 -1.1407  1.8707
 4656SOL     OW25603   2.774   4.037  16.889  0.0628  0.8655 -0.0084
 4656SOL    HW125604   2.719   3.988  16.829  2.1242 -0.9302 -0.4520
 4656SOL    HW225605   2.862   4.009  16.863  0.2362 -0.6417  2.1512
 4657SOL     OW25606   2.899   1.558   3.034  0.0993 -0.0847  0.7595
 4657SOL    HW125607   2.966   1.541   2.968 -0.0129  0.3455  0.5335
 4657SOL    HW225608   2.834   1.584   2.969  1.1004  0.9322  0.1834
 4658SOL     OW25609   2.665   1.000   4.367  0.2352  0.3356 -0.1236
 4658SOL    HW125610   2.697   1.031   4.452 -0.2553 -2.2784  1.0303
 4658SOL    HW225611   2.574   1.026   4.354  0.5783  0.7704 -1.6571
 4659SOL     OW25612   1.771   1.924   9.004  0.1813  0.0545  0.0017
 4659SOL    HW125613   1.801   2.012   8.980 -1.1725  0.8779  1.2926
 4659SOL    HW225614   1.852   1.883   9.036  0.1260  0.7829  1.0775
 4660SOL     OW25615   3.903   4.019   2.718 -0.6162  0.1463 -0.2094
 4660SOL    HW125616   3.931   3.962   2.647 -0.9491  0.7943 -0.8536
 4660SOL    HW225617   3.959   4.096   2.706  1.0584 -1.2954 -1.5985
 4661SOL     OW25618   3.190   2.119   4.542 -0.6214  0.5131  0.7041
 4661SOL    HW125619   3.246   2.111   4.619 -0.9458  0.4191  0.9301
 4661SOL    HW225620   3.244   2.171   4.483 -0.1444 -0.8605 -0.0763
 4662SOL     OW25621   3.861   1.641   4.428 -0.2004 -0.5124  0.0904
 4662SOL    HW125622   3.921   1.576   4.393  1.5830  0.9519  0.3919
 4662SOL    HW225623   3.838   1.599   4.511 -0.9442  0.4346  0.3709
 4663SOL     OW25624   2.802   1.497   4.350  0.0811 -0.0573  0.2799
 4663SOL    HW125625   2.761   1.416   4.321  0.1858 -0.2914  0.7832
 4663SOL    HW225626   2.833   1.534   4.267  1.2572  0.0910  0.7833
 4664SOL     OW25627   2.532   1.502  10.523 -0.8750 -0.1785 -0.4576
 4664SOL    HW125628   2.605   1.563  10.539 -0.2007 -1.3300  0.8134
 4664SOL    HW225629   2.483   1.578  10.492  1.1766  1.5830  0.6099
 4665SOL     OW25630   2.803   2.465   0.975 -0.2231 -0.0651 -0.4687
 4665SOL    HW125631   2.802   2.370   0.968  0.3661 -0.0894 -0.2498
 4665SOL    HW225632   2.713   2.491   0.960 -0.4136 -1.0178 -0.9891
 4666SOL     OW25633   3.336   0.095   7.151  0.3059  0.3972  0.1224
 4666SOL    HW125634   3.254   0.140   7.172  0.6418 -0.2211  2.6783
 4666SOL    HW225635   3.315   0.070   7.061  0.8068 -0.6034  0.2914
 4667SOL     OW25636   4.397   4.349  15.882  0.7997  0.2112 -0.2490
 4667SOL    HW125637   4.395   4.346  15.787 -1.3374  0.6447 -0.2131
 4667SOL    HW225638   4.329   4.413  15.906  0.6158  1.2731 -3.5958
 4668SOL     OW25639   0.202   4.218   7.513  0.2830 -0.3487 -0.2302
 4668SOL    HW125640   0.291   4.211   7.548 -0.0845 -2.2628  0.3182
 4668SOL    HW225641   0.212   4.195   7.421  0.4711  0.4999 -0.4201
 4669SOL     OW25642   2.175   2.948   3.764  0.3666 -0.1574  0.3254
 4669SOL    HW125643   2.092   2.941   3.717  1.0768 -0.5189 -0.8607
 4669SOL    HW225644   2.183   2.855   3.785  1.1203 -0.1138  0.2564
 4670SOL     OW25645   2.331   2.142  11.659  0.0735 -0.1482 -0.1376
 4670SOL    HW125646   2.382   2.218  11.632 -0.5984  0.5790  0.6668
 4670SOL    HW225647   2.286   2.117  11.578 -0.1962  3.2057 -1.0046
 4671SOL     OW25648   4.734   3.432   7.640  0.0468  0.1341 -0.0326
 4671SOL    HW125649   0.001   3.525   7.665  1.2105 -0.0648  0.5687
 4671SOL    HW225650   0.000   3.442   7.545  1.2915 -1.5178 -0.1718
 4672SOL     OW25651   2.167   2.364   6.403  0.0482  0.3204 -0.3193
 4672SOL    HW125652   2.251   2.372   6.448 -0.7263  1.3931  0.9273
 4672SOL    HW225653   2.161   2.273   6.433 -0.0026 -0.1517 -1.7614
 4673SOL     OW25654   0.933   0.036   2.156 -0.4862 -0.1030  0.5561
 4673SOL    HW125655   0.905   0.006   2.243  2.2427  0.3323  1.5885
 4673SOL    HW225656   0.873   4.727   2.097  0.7465 -1.7923  0.6166
 4674SOL     OW25657   1.712   1.930   3.247 -0.1486 -0.3889  0.5412
 4674SOL    HW125658   1.756   1.848   3.271 -0.8065 -1.3277 -1.4354
 4674SOL    HW225659   1.758   1.949   3.165 -1.1003  1.1215  0.3595
 4675SOL     OW25660   0.100   3.323   7.934  0.0056 -0.0336  0.0331
 4675SOL    HW125661   0.129   3.318   8.025 -1.0524  2.7403  0.5261
 4675SOL    HW225662   0.183   3.355   7.899  0.0743 -0.4657 -0.1939
 4676SOL     OW25663   0.631   3.542   5.290 -0.0982  0.1095 -0.0415
 4676SOL    HW125664   0.546   3.554   5.248 -0.8674  0.3766  1.5798
 4676SOL    HW225665   0.672   3.478   5.232 -3.8353 -0.9640 -1.5043
 4677SOL     OW25666   2.575   3.135   6.469 -0.4839  0.0384  0.3652
 4677SOL    HW125667   2.570   3.229   6.448  1.3296  0.2783  1.0099
 4677SOL    HW225668   2.653   3.113   6.418 -0.1894 -0.5194  1.0652
 4678SOL     OW25669   4.363   0.882   8.958 -0.0779  0.0612  0.0253
 4678SOL    HW125670   4.302   0.829   8.906 -1.2428  0.4406  1.0017
 4678SOL    HW225671   4.312   0.923   9.028  0.1355 -0.8516  0.7099
 4679SOL     OW25672   0.791   1.436   2.771 -0.0473  0.3019  0.8318
 4679SOL    HW125673   0.728   1.378   2.814 -1.0310  0.2929 -0.6045
 4679SOL    HW225674   0.873   1.387   2.777  0.0230  0.6376  2.5236
 4680SOL     OW25675   4.722   1.350   7.776 -0.6587  0.1664  0.2854
 4680SOL    HW125676   4.660   1.338   7.704  1.1780  1.2384 -1.4846
 4680SOL    HW225677   4.719   1.268   7.825  3.2769  1.6550  3.0225
 4681SOL     OW25678   2.301   2.241  16.585 -0.7451  0.4216 -0.5667
 4681SOL    HW125679   2.268   2.329  16.568  1.2043  1.5398  1.5241
 4681SOL    HW225680   2.309   2.211  16.494 -1.2648  1.9995 -1.1270
 4682SOL     OW25681   2.719   2.652  11.150  0.7029  0.3916 -0.1686
 4682SOL    HW125682   2.758   2.706  11.082  2.2230  0.2233  0.5696
 4682SOL    HW225683   2.655   2.599  11.102 -1.0821  2.0627  0.3790
 4683SOL     OW25684   2.997   2.841   5.252  0.1824 -0.3348 -0.6884
 4683SOL    HW125685   3.018   2.928   5.284  0.8943 -0.1615 -1.6237
 4683SOL    HW225686   2.904   2.854   5.232  0.4660  3.4532  0.3936
 4684SOL     OW25687   1.326   1.278  13.870  0.2220 -0.1490  0.6068
 4684SOL    HW125688   1.269   1.226  13.814 -1.0512  1.4091  0.4637
 4684SOL    HW225689   1.397   1.281  13.807 -0.3214 -1.0672 -0.0419
 4685SOL     OW25690   1.474   1.943  13.828  0.4688  0.6297  0.2547
 4685SOL    HW125691   1.425   1.946  13.910  2.7716  1.3325  1.6098
 4685SOL    HW225692   1.531   2.019  13.835  2.5648 -1.0187  1.2565
 4686SOL     OW25693   0.723   1.560   8.544 -0.0212 -0.2717  0.1490
 4686SOL    HW125694   0.721   1.588   8.635  2.2608  0.7234 -0.0909
 4686SOL    HW225695   0.764   1.473   8.553  0.7076 -0.3391 -3.7776
 4687SOL     OW25696   1.093   2.518   6.449  0.4010  0.0861 -0.2331
 4687SOL    HW125697   1.172   2.539   6.401  1.1820 -0.9627  0.5848
 4687SOL    HW225698   1.123   2.435   6.487 -0.5396 -1.0831 -2.0160
 4688SOL     OW25699   0.762   1.351   4.368 -0.1182  0.0176 -0.2085
 4688SOL    HW125700   0.805   1.331   4.285 -1.4227  0.4453 -0.9992
 4688SOL    HW225701   0.838   1.376   4.420  0.5477 -0.3437 -1.0150
 4689SOL     OW25702   3.998   4.660   6.177  0.4871 -0.3052  0.4239
 4689SOL    HW125703   4.075   4.675   6.122  0.9060  0.9307  1.3461
 4689SOL    HW225704   3.993   0.009   6.219  0.0097  0.4841 -1.2559
 4690SOL     OW25705   3.935   2.056  11.055  0.0295  0.1637  0.2819
 4690SOL    HW125706   3.926   2.152  11.057  0.6835  0.2788 -2.8710
 4690SOL    HW225707   4.015   2.050  11.003 -1.1111 -0.3658 -1.3933
 4691SOL     OW25708   1.687   4.375   1.093  0.3065 -0.5275  0.2869
 4691SOL    HW125709   1.692   4.418   1.008  0.1233 -0.5019  0.2890
 4691SOL    HW225710   1.671   4.289   1.053 -0.1770 -1.3627  2.2885
 4692SOL     OW25711   4.669   2.888   0.147  0.2516 -0.0538 -0.3705
 4692SOL    HW125712   4.671   2.880   0.242 -0.2028 -0.8596 -0.4304
 4692SOL    HW225713   4.600   2.825   0.127  2.4881 -2.1354 -1.4803
 4693SOL     OW25714   1.028   0.568   0.462  0.2176 -0.3158 -0.2419
 4693SOL    HW125715   1.033   0.636   0.529  0.8938  1.0459 -1.6772
 4693SOL    HW225716   0.953   0.529   0.507  2.2127 -3.0199  0.7272
 4694SOL     OW25717   1.924   1.438   7.598 -0.2448 -0.1975  0.2145
 4694SOL    HW125718   1.833   1.457   7.624 -0.0021  0.2010  0.7632
 4694SOL    HW225719   1.906   1.389   7.518 -0.6556 -1.7332  1.2432
 4695SOL     OW25720   0.005   2.722  15.074 -0.5527 -0.1045 -0.1401
 4695SOL    HW125721   4.688   2.785  15.026  2.2449  1.7126 -0.8944
 4695SOL    HW225722   4.728   2.763  15.159 -3.2574 -1.0987 -0.1113
 4696SOL     OW25723   0.245   4.435   2.713  0.4694  0.0828  0.2929
 4696SOL    HW125724   0.232   4.509   2.773 -0.7118 -0.3824  0.6086
 4696SOL    HW225725   0.296   4.376   2.768 -0.7727 -0.3737  0.9724
 4697SOL     OW25726   3.793   2.932   4.991  0.5529  0.1461  0.1276
 4697SOL    HW125727   3.774   2.951   5.083  1.2701 -0.8275  0.4826
 4697SOL    HW225728   3.762   3.009   4.944 -1.8787 -1.5745 -1.1114
 4698SOL     OW25729   3.071   2.888   0.518  0.1572 -0.2454 -0.2735
 4698SOL    HW125730   2.975   2.884   0.512  0.1824 -1.1729 -0.1661
 4698SOL    HW225731   3.090   2.797   0.494 -1.2848 -1.5162  3.3832
 4699SOL     OW25732   1.482   1.232   6.701  0.3034 -0.7183 -0.2242
 4699SOL    HW125733   1.402   1.180   6.711 -1.3838  2.2010  1.0641
 4699SOL    HW225734   1.542   1.166   6.665  2.9759  1.7417 -0.1959
 4700SOL     OW25735   1.142   0.930   3.872  0.9871 -0.1449 -0.6286
 4700SOL    HW125736   1.085   0.861   3.837 -1.2019  0.3285  1.9886
 4700SOL    HW225737   1.211   0.893   3.927  0.2182 -0.5461  0.0767
 4701SOL     OW25738   3.749   4.636   3.432  0.0792  0.7180  0.1270
 4701SOL    HW125739   3.768   4.608   3.521 -3.0261  0.8871  0.8526
 4701SOL    HW225740   3.654   4.645   3.435  0.2744  2.7049  0.0626
 4702SOL     OW25741   2.259   3.562   4.867  0.2466  0.0030  0.3297
 4702SOL    HW125742   2.225   3.502   4.799  1.3037 -1.3444  0.9891
 4702SOL    HW225743   2.176   3.608   4.875  0.9054  1.5235 -1.6210
 4703SOL     OW25744   0.090   1.482   6.164 -0.1733 -0.1831 -0.3336
 4703SOL    HW125745   0.048   1.530   6.236 -1.3010 -3.5009  1.1977
 4703SOL    HW225746   0.128   1.558   6.119  1.2631 -0.1228  0.9295
 4704SOL     OW25747   3.871   1.451  12.301 -0.4207  0.0224  0.3194
 4704SOL    HW125748   3.813   1.521  12.331 -0.1540  0.0127  0.8479
 4704SOL    HW225749   3.813   1.376  12.287  0.4353 -0.7044  0.7225
 4705SOL     OW25750   4.379   4.379   6.414  0.1511 -0.2665 -0.0093
 4705SOL    HW125751   4.384   4.308   6.478 -0.1169  0.8847  1.2975
 4705SOL    HW225752   4.300   4.358   6.362  1.0935 -3.1305 -0.3034
 4706SOL     OW25753   2.421   0.077  16.689  0.6360  0.4242 -0.0921
 4706SOL    HW125754   2.433   0.045  16.779 -2.6883 -0.9960 -0.1636
 4706SOL    HW225755   2.477   0.017  16.639 -1.6948 -2.1221  0.3728
 4707SOL     OW25756   3.499   1.977   2.666 -0.4988 -0.2056  0.6283
 4707SOL    HW125757   3.488   2.010   2.577 -0.7577  0.4068  0.8867
 4707SOL    HW225758   3.558   1.902   2.654 -1.1597 -0.6463  0.1394
 4708SOL     OW25759   2.468   2.403  13.371  0.1413  0.3788 -0.1553
 4708SOL    HW125760   2.403   2.347  13.412  0.6937 -0.3979 -0.3458
 4708SOL    HW225761   2.455   2.487  13.416 -0.0333 -0.0786  0.6546
 4709SOL     OW25762   0.715   3.818   3.378  0.6092  0.4136  0.6922
 4709SOL    HW125763   0.703   3.783   3.289 -0.0574 -1.0484  1.3587
 4709SOL    HW225764   0.711   3.913   3.368 -1.2809  0.2919  0.2410
 4710SOL     OW25765   2.502   4.573  11.759 -0.5889 -0.0842  0.1020
 4710SOL    HW125766   2.501   4.530  11.844  2.2219 -0.4646 -0.0430
 4710SOL    HW225767   2.449   4.502  11.723 -0.3616  0.3106 -1.0211
 4711SOL     OW25768   0.165   2.547   5.534 -0.1418 -0.3059 -0.5299
 4711SOL    HW125769   0.258   2.543   5.516  0.3246 -1.5269  2.0484
 4711SOL    HW225770   0.127   2.514   5.453  0.3226 -1.0489 -0.4467
 4712SOL     OW25771   3.773   4.632   4.905  0.3521  0.7023  0.1826
 4712SOL    HW125772   3.694   4.581   4.922  0.2050  0.6387 -0.6873
 4712SOL    HW225773   3.820   4.601   4.983  1.1733  1.1207 -0.1486
 4713SOL     OW25774   4.491   0.080  12.521  0.3882 -0.1908  0.4418
 4713SOL    HW125775   4.404   0.105  12.552  0.3564 -1.1181  1.1195
 4713SOL    HW225776   4.478   4.728  12.555 -0.8894 -0.2826 -0.2974
 4714SOL     OW25777   0.302   0.736   3.162  0.0136  0.2950 -0.5075
 4714SOL    HW125778   0.374   0.714   3.221 -2.0125 -1.0762  1.4614
 4714SOL    HW225779   0.351   0.712   3.084 -0.9799 -0.1556 -1.0071
 4715SOL     OW25780   1.951   4.117   4.441 -0.2049  0.0191  0.0383
 4715SOL    HW125781   2.030   4.063   4.429  0.6830  1.2089  0.6091
 4715SOL    HW225782   1.884   4.063   4.400 -0.6103  0.5210  0.0413
 4716SOL     OW25783   2.385   2.353   8.657 -0.0390 -0.2753  0.4538
 4716SOL    HW125784   2.392   2.438   8.699 -0.8850  0.5212 -1.0279
 4716SOL    HW225785   2.339   2.307   8.728  0.8949 -0.4874  0.9296
 4717SOL     OW25786   0.093   2.343   1.483 -0.7599  0.3348  0.0716
 4717SOL    HW125787   0.137   2.351   1.567  1.9791 -0.7008 -1.2851
 4717SOL    HW225788   0.001   2.335   1.508 -0.7902  3.3963  1.0263
 4718SOL     OW25789   0.702   0.888  15.220  0.0492  0.5257  0.1846
 4718SOL    HW125790   0.751   0.854  15.145 -2.1738  0.1298 -1.0866
 4718SOL    HW225791   0.611   0.893  15.191  0.4204  0.5733 -0.9635
 4719SOL     OW25792   0.899   4.416   2.287 -0.6111 -0.1612 -0.0068
 4719SOL    HW125793   0.867   4.502   2.315 -2.3249 -0.1503 -1.9874
 4719SOL    HW225794   0.968   4.437   2.225  0.4537  0.6669  1.4639
 4720SOL     OW25795   1.014   4.673  11.742  0.6145  0.3181 -0.2268
 4720SOL    HW125796   1.031   0.015  11.689 -0.4334  1.3930  1.0111
 4720SOL    HW225797   0.934   4.705  11.782  1.3948  0.5421  1.1486
 4721SOL     OW25798   2.441   2.055   5.573  0.0626 -0.2682  0.8071
 4721SOL    HW125799   2.348   2.047   5.552  0.6715 -1.2886 -1.4875
 4721SOL    HW225800   2.450   2.020   5.661  0.9864 -0.8202  0.5009
 4722SOL     OW25801   0.724   2.852   8.949 -0.1850 -0.2945  0.2575
 4722SOL    HW125802   0.743   2.941   8.978  1.3541 -1.1600  1.9390
 4722SOL    HW225803   0.750   2.845   8.857  0.7383 -1.4053  0.6040
 4723SOL     OW25804   3.151   2.821   2.637 -0.4642  0.2394 -0.3117
 4723SOL    HW125805   3.208   2.773   2.697 -1.0441  0.2013  0.2140
 4723SOL    HW225806   3.145   2.897   2.696  0.5796 -0.4711  0.7001
 4724SOL     OW25807   1.443   2.300   3.788  0.1094 -0.0729 -1.0742
 4724SOL    HW125808   1.438   2.394   3.805  2.2543  0.0245 -0.9466
 4724SOL    HW225809   1.361   2.268   3.825  0.4321 -2.2592 -2.1934
 4725SOL     OW25810   1.493   1.180   1.648 -0.1520 -0.6380  0.0504
 4725SOL    HW125811   1.556   1.188   1.720  0.8231  1.4241 -1.0507
 4725SOL    HW225812   1.418   1.156   1.703 -0.3085  0.3843  0.2751
 4726SOL     OW25813   3.367   1.966   1.488 -0.2244  0.1849  0.6972
 4726SOL    HW125814   3.299   2.025   1.454  2.1594  3.2250  1.1870
 4726SOL    HW225815   3.333   1.942   1.574 -1.3292 -1.8868 -0.3197
 4727SOL     OW25816   2.640   4.036   9.299 -0.2243 -0.2939 -0.3536
 4727SOL    HW125817   2.590   4.117   9.312 -3.5748 -2.4205  0.0419
 4727SOL    HW225818   2.716   4.057   9.353 -0.3065  3.6933 -1.7919
 4728SOL     OW25819   2.013   1.614   0.661 -0.2160 -0.0723 -0.7543
 4728SOL    HW125820   2.011   1.648   0.750  1.4950  0.6060 -0.9918
 4728SOL    HW225821   1.960   1.678   0.612  0.0897  0.1950 -0.7324
 4729SOL     OW25822   1.180   0.527   1.045 -0.5729 -0.0459 -0.0788
 4729SOL    HW125823   1.150   0.443   1.010  0.0509  0.0736 -0.9012
 4729SOL    HW225824   1.274   0.514   1.061 -0.0330  1.4765 -2.1570
 4730SOL     OW25825   3.565   3.135   1.969  0.5650  0.3623  0.3307
 4730SOL    HW125826   3.638   3.101   2.021 -0.0320  0.8224  1.4771
 4730SOL    HW225827   3.511   3.178   2.036 -0.3299  0.9567 -0.7719
 4731SOL     OW25828   1.039   0.177   2.911 -0.4596 -0.1727  0.2574
 4731SOL    HW125829   1.091   0.152   2.988 -2.2201 -2.5475  0.6774
 4731SOL    HW225830   1.025   0.268   2.937 -0.5574  0.6059 -2.5416
 4732SOL     OW25831   4.221   1.881  13.436 -0.3979 -0.1296  0.3585
 4732SOL    HW125832   4.306   1.919  13.456 -0.2003 -0.6185  0.4471
 4732SOL    HW225833   4.223   1.890  13.340  3.8608 -0.6505  0.4202
 4733SOL     OW25834   2.059   2.851   9.531 -1.0552  0.1391  0.1828
 4733SOL    HW125835   2.056   2.829   9.624 -1.3595 -0.4121  0.0397
 4733SOL    HW225836   2.143   2.897   9.528 -0.3217 -1.2485 -0.0582
 4734SOL     OW25837   0.830   2.452   2.512 -0.3010  0.5309  0.4121
 4734SOL    HW125838   0.781   2.384   2.466 -0.4758  0.7984  0.2035
 4734SOL    HW225839   0.919   2.419   2.523 -0.6231 -0.6212 -0.4109
 4735SOL     OW25840   4.356   0.442   8.814  0.5382  0.4235 -0.0262
 4735SOL    HW125841   4.423   0.486   8.866 -0.8983 -0.5247  2.6391
 4735SOL    HW225842   4.414   0.401   8.750  0.6922 -0.9333  0.9736
 4736SOL     OW25843   2.609   1.851   6.149 -0.1165 -0.2841  0.1063
 4736SOL    HW125844   2.693   1.807   6.163  0.8727  2.4344  2.8959
 4736SOL    HW225845   2.614   1.902   6.068 -0.9962 -0.4006 -0.0183
 4737SOL     OW25846   1.498   3.600   5.418 -0.7935 -0.2898  0.3556
 4737SOL    HW125847   1.469   3.655   5.346  0.6736 -4.2174 -3.2572
 4737SOL    HW225848   1.443   3.522   5.413  0.1925 -0.9967  0.4846
 4738SOL     OW25849   1.820   4.031  10.303 -0.2222  0.2187 -0.2329
 4738SOL    HW125850   1.845   4.020  10.395  0.8951  2.2166 -0.2953
 4738SOL    HW225851   1.878   3.968  10.259 -0.3767  0.7680 -1.2191
 4739SOL     OW25852   1.472   3.993   1.187  0.2280 -0.1510  0.2793
 4739SOL    HW125853   1.506   3.936   1.256  2.4136  0.7697 -0.0377
 4739SOL    HW225854   1.454   4.077   1.230  1.0884  0.2452 -0.1450
 4740SOL     OW25855   1.647   1.939   8.782 -0.4545  0.1449 -0.1129
 4740SOL    HW125856   1.691   1.917   8.865 -0.0714 -0.1976 -0.4099
 4740SOL    HW225857   1.653   1.862   8.726  0.6068  0.4832 -0.4536
 4741SOL     OW25858   2.530   0.663   2.202  0.0573 -0.1815  0.3328
 4741SOL    HW125859   2.455   0.617   2.240 -0.5246  1.2643  0.9693
 4741SOL    HW225860   2.517   0.755   2.227 -0.3538 -0.2912  0.5234
 4742SOL     OW25861   1.163   4.004   8.270  0.0835 -0.6574 -0.2349
 4742SOL    HW125862   1.201   4.075   8.218  0.8378 -0.4405  0.6030
 4742SOL    HW225863   1.244   3.976   8.313  0.7073  1.8423  0.2505
 4743SOL     OW25864   1.534   4.450   4.900  0.3001 -0.2217  0.1223
 4743SOL    HW125865   1.599   4.481   4.837 -1.0960  0.7286 -0.8571
 4743SOL    HW225866   1.563   4.361   4.917 -1.0547 -0.9311 -1.3130
 4744SOL     OW25867   3.013   3.250   7.041 -0.3043 -0.3660  0.2078
 4744SOL    HW125868   3.029   3.237   7.135 -1.3902 -2.9656  0.0166
 4744SOL    HW225869   2.921   3.275   7.050 -0.3979 -0.3898 -0.6981
 4745SOL     OW25870   2.217   2.273   8.871  0.0029  0.4181 -0.4232
 4745SOL    HW125871   2.125   2.252   8.889  1.1449 -2.1148  2.5602
 4745SOL    HW225872   2.246   2.310   8.954 -0.4531 -0.4560  0.1302
 4746SOL     OW25873   3.303   3.243   1.841 -0.1834 -0.1456 -0.4959
 4746SOL    HW125874   3.274   3.204   1.924  1.1292 -1.7955 -0.8170
 4746SOL    HW225875   3.374   3.180   1.830 -1.1247 -1.2721 -0.1082
 4747SOL     OW25876   0.398   3.084   7.440  0.1789 -0.6473 -0.0414
 4747SOL    HW125877   0.457   3.159   7.441  0.4673 -0.8857  0.7886
 4747SOL    HW225878   0.313   3.129   7.444  0.3299 -0.5480  2.3681
 4748SOL     OW25879   4.250   4.710  13.962 -0.0912  0.8604 -0.9196
 4748SOL    HW125880   4.270   4.690  13.870 -1.2067 -0.6761 -0.8311
 4748SOL    HW225881   4.155   4.712  13.952 -0.2993  0.7287  1.2091
 4749SOL     OW25882   2.960   3.728   6.403  0.1787 -0.0768 -0.4041
 4749SOL    HW125883   3.048   3.694   6.391  0.1310 -0.0877 -0.7399
 4749SOL    HW225884   2.947   3.789   6.330  2.3589 -0.6550 -1.2747
 4750SOL     OW25885   0.273   0.877  13.710  0.2190 -0.2300  0.4950
 4750SOL    HW125886   0.319   0.795  13.729 -1.7617 -1.3516  0.4420
 4750SOL    HW225887   0.226   0.890  13.792 -1.3149 -0.0504 -0.4149
 4751SOL     OW25888   3.139   3.048   2.789 -0.2264 -0.2052 -0.0464
 4751SOL    HW125889   3.181   3.134   2.787  0.6565 -0.6812 -1.7419
 4751SOL    HW225890   3.089   3.066   2.868 -0.3160 -2.2408  0.3758
 4752SOL     OW25891   1.222   4.024  13.870 -0.2668 -0.1462  0.3156
 4752SOL    HW125892   1.271   4.106  13.870  0.3354 -0.5079 -1.1079
 4752SOL    HW225893   1.149   4.044  13.812  1.6431  2.3394 -1.2443
 4753SOL     OW25894   4.308   3.178   0.386  0.5076  0.6137 -0.2472
 4753SOL    HW125895   4.324   3.216   0.300 -0.6727  1.2373 -0.1994
 4753SOL    HW225896   4.400   3.154   0.392 -0.1118 -1.7435 -0.4402
 4754SOL     OW25897   0.440   1.756   1.970 -0.3347 -0.1424  0.2731
 4754SOL    HW125898   0.431   1.660   1.966  0.3907 -0.3646  4.3064
 4754SOL    HW225899   0.526   1.756   2.012 -1.7403  0.8720  3.0946
 4755SOL     OW25900   1.598   1.161   8.024  0.0366  0.2175 -0.1450
 4755SOL    HW125901   1.644   1.169   8.108  2.1070 -2.5247 -1.0270
 4755SOL    HW225902   1.507   1.168   8.055  0.5962  2.4256  1.0018
 4756SOL     OW25903   1.420   2.532   8.245  0.3922 -0.6187  0.3363
 4756SOL    HW125904   1.459   2.609   8.286 -1.0199  0.5405 -0.5038
 4756SOL    HW225905   1.365   2.569   8.176  0.4589 -0.0752  0.5785
 4757SOL     OW25906   2.050   2.623   4.631 -0.6350  0.4256 -0.4372
 4757SOL    HW125907   2.073   2.646   4.541 -1.9938  3.4688  0.0071
 4757SOL    HW225908   1.959   2.654   4.634 -0.1415  1.8140  0.2153
 4758SOL     OW25909   2.213   2.453  16.413  0.0914 -0.3734 -0.3223
 4758SOL    HW125910   2.279   2.521  16.395 -2.8023  2.1735 -1.4391
 4758SOL    HW225911   2.213   2.408  16.328 -0.8376  0.5034 -0.7862
 4759SOL     OW25912   2.212   1.748  11.447 -0.6377 -0.1540  0.7320
 4759SOL    HW125913   2.118   1.736  11.461 -0.7693 -2.3415 -2.0015
 4759SOL    HW225914   2.238   1.657  11.434  2.1573  0.8385 -0.6649
 4760SOL     OW25915   1.646   2.806   2.818  0.1906  0.1179 -0.1047
 4760SOL    HW125916   1.574   2.784   2.759 -0.0612 -1.0511  0.6417
 4760SOL    HW225917   1.713   2.842   2.759  1.7332 -2.0116  0.3600
 4761SOL     OW25918   2.307   0.446   9.884 -0.3007  0.0703  0.5243
 4761SOL    HW125919   2.397   0.414   9.875 -1.3228 -2.3162 -1.4040
 4761SOL    HW225920   2.295   0.439   9.978 -2.0423 -0.1501  0.2828
 4762SOL     OW25921   1.636   3.701   8.986 -0.4650  0.6436  0.4750
 4762SOL    HW125922   1.552   3.721   9.027  0.1176  0.8235  1.5748
 4762SOL    HW225923   1.639   3.606   8.995  0.1118  0.6986  0.8578
 4763SOL     OW25924   0.378   0.960   6.755  0.0331 -0.4165 -0.1281
 4763SOL    HW125925   0.378   0.872   6.792  0.1335  0.1573  1.2305
 4763SOL    HW225926   0.364   1.008   6.836  0.3685 -0.3251 -0.1205
 4764SOL     OW25927   4.043   3.336  15.791 -0.0398  0.8967 -1.0132
 4764SOL    HW125928   4.067   3.408  15.849 -0.1554  1.3545 -1.5427
 4764SOL    HW225929   4.122   3.322  15.739 -0.8904 -1.6630 -1.6192
 4765SOL     OW25930   3.683   0.949   9.320 -0.2483 -0.3919  0.2288
 4765SOL    HW125931   3.634   0.881   9.274  0.2992 -0.6776  0.0686
 4765SOL    HW225932   3.707   0.894   9.395 -0.6131 -0.7127  0.1124
 4766SOL     OW25933   3.483   2.079   7.026 -0.4345  0.3164 -0.0717
 4766SOL    HW125934   3.453   2.087   7.117 -0.2098 -1.2788  0.1456
 4766SOL    HW225935   3.546   2.006   7.027 -0.6838  0.0865 -1.6122
 4767SOL     OW25936   2.461   1.563  14.657 -0.0174  0.5476 -0.5242
 4767SOL    HW125937   2.510   1.643  14.675  2.8372 -1.3606  0.0208
 4767SOL    HW225938   2.394   1.596  14.596 -0.3636 -0.6213 -0.7631
 4768SOL     OW25939   3.055   0.456   9.042  0.5378 -0.1945  0.5123
 4768SOL    HW125940   3.005   0.374   9.044  1.0897 -0.5595 -1.5038
 4768SOL    HW225941   2.985   0.515   9.015 -0.2377 -1.5002 -0.3327
 4769SOL     OW25942   1.347   1.198   1.270 -0.4715 -1.1020 -0.5086
 4769SOL    HW125943   1.285   1.138   1.228  2.3894 -4.4066 -0.0281
 4769SOL    HW225944   1.291   1.254   1.324  1.4322  1.7017 -1.4152
 4770SOL     OW25945   0.185   3.192   1.904 -0.0188  0.0474  0.4411
 4770SOL    HW125946   0.179   3.159   1.814  1.3139  1.9007 -0.3229
 4770SOL    HW225947   0.163   3.284   1.892 -3.9365 -0.7218  1.6996
 4771SOL     OW25948   0.039   2.970   2.553 -0.3290 -0.4340  0.2991
 4771SOL    HW125949   0.007   2.885   2.583 -1.7690 -0.7206 -2.0621
 4771SOL    HW225950   4.689   3.008   2.536  1.1036  1.7261 -2.1293
 4772SOL     OW25951   4.384   3.685   3.181  0.2502  0.3714 -0.6712
 4772SOL    HW125952   4.435   3.604   3.172  1.0266  0.7853  0.0531
 4772SOL    HW225953   4.339   3.664   3.263  0.4968 -1.8897 -1.1036
 4773SOL     OW25954   1.101   1.344   9.157 -0.5932  0.2940 -0.1425
 4773SOL    HW125955   1.193   1.359   9.137 -0.9307  2.4002 -0.0895
 4773SOL    HW225956   1.102   1.249   9.147 -1.1445  0.3875 -1.1174
 4774SOL     OW25957   2.933   1.407   7.820 -0.8099  0.4370  0.2206
 4774SOL    HW125958   2.883   1.392   7.740  0.4026 -0.4846 -0.3630
 4774SOL    HW225959   2.961   1.323   7.856 -2.2378  0.8516  2.3000
 4775SOL     OW25960   2.458   1.331   4.332  0.0051  0.2032 -0.5194
 4775SOL    HW125961   2.412   1.264   4.282  0.2381 -1.4120  1.4103
 4775SOL    HW225962   2.548   1.335   4.299 -0.5546  0.2798 -2.0349
 4776SOL     OW25963   4.164   2.158   1.155 -0.1179  0.1697 -0.0212
 4776SOL    HW125964   4.139   2.221   1.222 -0.5831 -0.0726  0.0257
 4776SOL    HW225965   4.087   2.159   1.099 -0.4228 -1.0151  0.3900
 4777SOL     OW25966   3.757   3.184   7.929 -0.0093  0.3242  0.0029
 4777SOL    HW125967   3.747   3.273   7.896 -2.2536  0.6338  1.4641
 4777SOL    HW225968   3.770   3.142   7.844  1.0686 -0.6214  0.6352
 4778SOL     OW25969   1.682   2.604   6.397  0.3911 -0.7033 -0.5224
 4778SOL    HW125970   1.599   2.634   6.360  0.9734  1.6418  0.0582
 4778SOL    HW225971   1.732   2.610   6.316  1.6442 -3.9110  0.0162
 4779SOL     OW25972   3.853   4.568   5.585  0.0710 -0.6814  0.7427
 4779SOL    HW125973   3.874   4.646   5.637 -2.0365 -0.1752  0.8146
 4779SOL    HW225974   3.913   4.500   5.616  0.0454 -1.6270 -1.2904
 4780SOL     OW25975   0.780   3.488  11.403 -0.1658  0.5390  0.0934
 4780SOL    HW125976   0.710   3.547  11.431  0.8064  1.7708 -0.0598
 4780SOL    HW225977   0.786   3.512  11.310  1.6790  2.2033  0.6308
 4781SOL     OW25978   4.103   0.295   5.843  0.4607  0.2023  0.8581
 4781SOL    HW125979   4.104   0.359   5.771 -0.2795 -1.5053 -0.6570
 4781SOL    HW225980   4.071   0.354   5.912 -0.0006 -2.0425  2.5429
 4782SOL     OW25981   1.692   2.332   7.162 -0.2128 -0.1562 -0.3037
 4782SOL    HW125982   1.684   2.293   7.075 -1.1501  1.2358 -0.8421
 4782SOL    HW225983   1.687   2.424   7.137  0.7864 -0.0435 -0.0866
 4783SOL     OW25984   2.524   3.794   0.253  0.0154 -0.5471  0.2225
 4783SOL    HW125985   2.503   3.807   0.345  0.6165  0.6186  0.1968
 4783SOL    HW225986   2.526   3.879   0.209 -2.4626 -0.6473 -0.0734
 4784SOL     OW25987   0.575   0.020  10.288  0.8411 -0.3574 -0.2119
 4784SOL    HW125988   0.648   4.736  10.346  0.4594  1.9118  1.0890
 4784SOL    HW225989   0.517   0.078  10.338  1.3508 -1.4502  1.6288
 4785SOL     OW25990   0.644   3.140   5.431  0.2808 -0.5423  0.3697
 4785SOL    HW125991   0.552   3.115   5.439 -1.0546  4.4530  0.3300
 4785SOL    HW225992   0.643   3.201   5.504 -2.1412  0.2231 -0.2871
 4786SOL     OW25993   2.411   4.299   6.004 -0.4290 -0.3611 -0.0853
 4786SOL    HW125994   2.347   4.316   5.935 -0.4691  0.3220  0.1263
 4786SOL    HW225995   2.356   4.314   6.081 -1.8556 -0.9845 -0.9938
 4787SOL     OW25996   2.432   0.785   8.686 -0.7287 -0.6339  0.1042
 4787SOL    HW125997   2.409   0.818   8.773 -0.4038  1.6179 -0.6705
 4787SOL    HW225998   2.425   0.871   8.644  0.6756  0.7880  2.7541
 4788SOL     OW25999   0.361   1.575  10.524  0.5247  0.0482  0.0728
 4788SOL    HW126000   0.390   1.645  10.583  0.4575 -1.8111  2.3320
 4788SOL    HW226001   0.360   1.623  10.441 -0.9442 -0.1486 -0.0350
 4789SOL     OW26002   3.177   2.276   4.164 -0.4843 -0.2297  0.1069
 4789SOL    HW126003   3.249   2.276   4.226 -0.3451  0.4665 -0.0530
 4789SOL    HW226004   3.184   2.363   4.123 -1.2910 -0.7363 -1.1229
 4790SOL     OW26005   2.866   3.116   0.705  0.6641 -0.1501 -0.1804
 4790SOL    HW126006   2.851   3.194   0.651  0.4681  0.1598  0.3224
 4790SOL    HW226007   2.959   3.097   0.697  1.0312  1.8007 -0.3417
 4791SOL     OW26008   2.879   0.533   6.109  0.3925 -0.4790 -0.3784
 4791SOL    HW126009   2.785   0.551   6.105  0.8576  1.6685 -1.6027
 4791SOL    HW226010   2.880   0.483   6.190 -0.9384  1.3080  0.7569
 4792SOL     OW26011   0.632   2.112   8.084  0.2034  0.6559  0.1791
 4792SOL    HW126012   0.710   2.110   8.139  1.5962  0.8463 -1.8011
 4792SOL    HW226013   0.647   2.045   8.018 -0.0882  0.6542  0.1119
 4793SOL     OW26014   0.730   1.641   5.464 -0.1974  0.4469  0.2927
 4793SOL    HW126015   0.820   1.624   5.436 -0.3350 -1.2874  0.8838
 4793SOL    HW226016   0.687   1.559   5.441 -0.9029  1.0797 -0.6279
 4794SOL     OW26017   1.896   1.652   2.081  0.1046 -0.6312  0.5188
 4794SOL    HW126018   1.982   1.619   2.055  0.4108 -0.0798  0.8386
 4794SOL    HW226019   1.844   1.642   2.001  1.7301  1.0367 -0.7369
 4795SOL     OW26020   0.445   0.146   8.257 -0.5610  0.5687 -0.1456
 4795SOL    HW126021   0.369   0.098   8.223  0.7859 -0.9876 -0.9733
 4795SOL    HW226022   0.398   0.187   8.330  0.5376 -0.8205  1.3212
 4796SOL     OW26023   2.303   0.044   8.339  0.6111 -0.4307  0.4032
 4796SOL    HW126024   2.286   0.135   8.364 -1.5355 -0.2290 -1.8266
 4796SOL    HW226025   2.347   0.052   8.255 -1.5329  1.2686 -0.5542
 4797SOL     OW26026   4.452   1.150   9.617 -0.8482 -0.0496 -0.2282
 4797SOL    HW126027   4.388   1.079   9.621 -0.5205 -0.4592 -2.3084
 4797SOL    HW226028   4.413   1.207   9.683 -1.8425 -1.1657  0.1488
 4798SOL     OW26029   0.355   3.134   7.071 -0.0484 -0.6791 -0.1238
 4798SOL    HW126030   0.433   3.095   7.112  1.4067 -0.3151 -2.5724
 4798SOL    HW226031   0.344   3.217   7.118  0.8689 -0.2985 -0.5840
 4799SOL     OW26032   2.105   1.828   7.795 -0.2304 -0.1238  0.1178
 4799SOL    HW126033   2.013   1.821   7.820  0.0271  0.7994  1.3293
 4799SOL    HW226034   2.148   1.837   7.880 -0.9040 -0.9035  0.5374
 4800SOL     OW26035   2.811   4.686  11.272 -0.1686  0.3323 -0.6969
 4800SOL    HW126036   2.799   4.597  11.240 -0.6138 -0.7256  2.3456
 4800SOL    HW226037   2.730   4.726  11.239 -1.6133 -1.0221  1.1592
 4801SOL     OW26038   2.502   2.757  10.473 -0.2265 -0.0097  0.1101
 4801SOL    HW126039   2.445   2.697  10.425 -0.1357  0.3655 -0.4748
 4801SOL    HW226040   2.436   2.786  10.536  0.0052 -2.0356  1.2487
 4802SOL     OW26041   4.735   3.644   6.794 -0.2948  0.4812  0.3290
 4802SOL    HW126042   4.643   3.632   6.819 -0.1468  0.3463  0.8255
 4802SOL    HW226043   0.006   3.738   6.811  1.2240  0.3656  0.3182
 4803SOL     OW26044   2.465   3.007   1.766 -0.2159 -0.3574 -0.5570
 4803SOL    HW126045   2.396   3.025   1.830  0.8724 -0.0437  0.5360
 4803SOL    HW226046   2.430   2.937   1.711  0.8418 -1.7928  0.6119
 4804SOL     OW26047   4.024   0.331   2.251 -0.5713 -0.1086 -0.0502
 4804SOL    HW126048   3.944   0.317   2.300 -0.7526  2.8210  0.4773
 4804SOL    HW226049   4.084   0.281   2.306  0.8359  0.7434 -0.8043
 4805SOL     OW26050   0.169   0.911  13.015 -0.1179 -0.1573  0.2244
 4805SOL    HW126051   0.194   0.818  13.012 -2.4002 -0.7450 -0.5455
 4805SOL    HW226052   0.206   0.942  13.097 -2.1002 -1.3351  1.5592
 4806SOL     OW26053   0.141   0.877   6.996  0.1105 -0.6408 -0.2761
 4806SOL    HW126054   0.090   0.930   7.057 -0.7618  0.0793 -1.6423
 4806SOL    HW226055   0.228   0.895   7.032 -0.1081 -0.9525  0.4159
 4807SOL     OW26056   1.446   3.791   6.860 -0.4188 -0.0559  0.2789
 4807SOL    HW126057   1.356   3.787   6.827  0.2450  0.4313 -1.5703
 4807SOL    HW226058   1.436   3.740   6.940 -3.1319  0.6345  0.3855
 4808SOL     OW26059   1.094   1.230   6.441  0.1932 -0.0934 -0.1478
 4808SOL    HW126060   1.127   1.164   6.381 -1.6402 -0.3417 -0.8958
 4808SOL    HW226061   1.142   1.307   6.410  0.6770 -0.9759 -1.6114
 4809SOL     OW26062   4.400   0.968   2.884 -0.5958 -0.6212  0.3169
 4809SOL    HW126063   4.312   0.985   2.920 -0.6290  0.8359 -0.4406
 4809SOL    HW226064   4.414   0.878   2.914  0.7004 -0.6657 -0.4146
 4810SOL     OW26065   2.892   3.509   2.666 -0.4748  0.1596 -0.3928
 4810SOL    HW126066   2.802   3.478   2.655 -0.7605  0.8379  0.0504
 4810SOL    HW226067   2.886   3.595   2.625 -0.5431 -0.5114 -1.7854
 4811SOL     OW26068   2.372   2.966   8.189 -0.3362 -0.2258 -0.2525
 4811SOL    HW126069   2.422   3.033   8.234 -2.4545  0.7414  0.6358
 4811SOL    HW226070   2.445   2.908   8.164 -0.1897  0.4295 -1.3227
 4812SOL     OW26071   2.538   4.219   6.377 -0.4282 -1.0094  0.1631
 4812SOL    HW126072   2.489   4.288   6.421 -1.1122 -2.0229  0.9841
 4812SOL    HW226073   2.479   4.175   6.315 -1.8335 -0.8073  1.3581
 4813SOL     OW26074   2.736   2.418   8.824  0.2255  0.3906  0.3544
 4813SOL    HW126075   2.801   2.488   8.826  0.2155  0.4269 -0.3443
 4813SOL    HW226076   2.655   2.465   8.803  2.2514  2.1592 -3.5415
 4814SOL     OW26077   3.299   1.049   4.519 -0.0731  0.2073 -0.0131
 4814SOL    HW126078   3.253   0.965   4.518  1.0377 -0.3598 -2.4960
 4814SOL    HW226079   3.346   1.034   4.601 -0.6204  1.6579  0.5555
 4815SOL     OW26080   1.950   1.059   2.230 -0.3805 -0.6138  0.5742
 4815SOL    HW126081   2.002   1.139   2.225 -2.2573  0.7607  2.6963
 4815SOL    HW226082   1.861   1.092   2.213  0.0710 -1.1087 -2.6321
 4816SOL     OW26083   4.226   3.766  15.431 -0.6473  0.0219  0.1632
 4816SOL    HW126084   4.203   3.859  15.427  2.2366  0.5692 -3.3001
 4816SOL    HW226085   4.183   3.742  15.349  0.8197  1.2289 -0.9391
 4817SOL     OW26086   3.742   3.725   3.783 -0.6403  0.3821 -0.2481
 4817SOL    HW126087   3.814   3.706   3.844 -2.4763  1.4549  2.2719
 4817SOL    HW226088   3.705   3.807   3.815  0.9744  0.7362  0.7546
 4818SOL     OW26089   3.689   0.738   1.669  0.0077 -0.1771 -0.3487
 4818SOL    HW126090   3.708   0.707   1.757 -0.1286 -0.7146 -0.5086
 4818SOL    HW226091   3.625   0.675   1.635  0.3773 -0.6600 -0.1475
 4819SOL     OW26092   1.387   0.432   8.871  0.0540 -1.0441  0.0231
 4819SOL    HW126093   1.319   0.366   8.863 -1.6655  0.7328 -0.0233
 4819SOL    HW226094   1.425   0.428   8.783  0.4002 -1.9230  0.2120
 4820SOL     OW26095   0.111   3.945   7.548 -0.2373  0.4083  0.4167
 4820SOL    HW126096   0.146   4.020   7.597 -2.5091  1.8282 -0.1391
 4820SOL    HW226097   0.122   3.974   7.457 -2.9749  1.8992  0.5650
 4821SOL     OW26098   4.451   1.073  15.073 -0.2641  0.4499  0.8047
 4821SOL    HW126099   4.444   0.984  15.107  2.3830 -0.3003 -0.6391
 4821SOL    HW226100   4.379   1.064  15.009 -1.2242  1.6486  1.7210
 4822SOL     OW26101   0.981   3.864   8.385  0.5431 -0.4770  0.7840
 4822SOL    HW126102   1.019   3.793   8.437  2.6793 -1.0828 -1.6169
 4822SOL    HW226103   1.056   3.894   8.334 -0.0171  0.3330  0.4341
 4823SOL     OW26104   1.697   1.171   4.095  0.2668  0.0837 -0.5718
 4823SOL    HW126105   1.765   1.238   4.086  0.2218  0.2849  0.6615
 4823SOL    HW226106   1.619   1.224   4.111 -0.1941 -0.1647 -1.9530
 4824SOL     OW26107   1.525   2.813   7.173 -0.6725 -0.0447 -0.0864
 4824SOL    HW126108   1.437   2.831   7.206 -0.6456  0.9336 -0.5289
 4824SOL    HW226109   1.535   2.719   7.186  3.6355  0.7614  2.2162
 4825SOL     OW26110   1.537   2.244   5.181  0.0892  0.1567  0.8200
 4825SOL    HW126111   1.552   2.283   5.095  1.6101 -0.1694  0.9411
 4825SOL    HW226112   1.581   2.297   5.248 -0.7909  2.8822 -0.7676
 4826SOL     OW26113   3.300   2.855  17.431  0.4073  0.0357  0.5854
 4826SOL    HW126114   3.295   2.836  17.337 -0.8033  0.3702  0.5811
 4826SOL    HW226115   3.395   2.864  17.443  0.9817 -1.0037 -3.0603
 4827SOL     OW26116   0.436   3.341   2.767  0.5579  0.2574 -0.0148
 4827SOL    HW126117   0.434   3.342   2.862 -2.7942  0.3024 -0.0722
 4827SOL    HW226118   0.373   3.270   2.752  1.9537 -0.6862 -1.4697
 4828SOL     OW26119   2.888   2.635   8.930 -0.3178  0.0943  0.3116
 4828SOL    HW126120   2.820   2.631   8.997 -2.4274  0.8121 -1.8419
 4828SOL    HW226121   2.938   2.704   8.974 -1.9217  2.0655 -0.9834
 4829SOL     OW26122   1.850   3.840   1.855  0.1802  0.0112  0.1201
 4829SOL    HW126123   1.820   3.763   1.806  0.2342 -0.3560  0.6679
 4829SOL    HW226124   1.822   3.908   1.794 -0.5991  0.0440  0.5082
 4830SOL     OW26125   4.720   0.901   1.330 -0.0351 -0.0035 -0.1065
 4830SOL    HW126126   0.033   0.820   1.344  0.0717  0.3151  1.3368
 4830SOL    HW226127   4.639   0.879   1.376 -0.0700  0.0939 -0.1219
 4831SOL     OW26128   1.788   1.512   4.038 -0.1649 -0.1376  0.1638
 4831SOL    HW126129   1.845   1.436   4.029  0.1965  0.4139 -2.1729
 4831SOL    HW226130   1.716   1.497   3.976  2.3424  1.1561 -3.0414
 4832SOL     OW26131   2.278   4.699   7.951 -0.3948  0.4535  0.6967
 4832SOL    HW126132   2.297   4.626   8.010  0.5089 -0.1753 -0.3769
 4832SOL    HW226133   2.184   4.682   7.958 -0.3504  0.4802  1.3591
 4833SOL     OW26134   1.055   1.479   5.933  0.8299 -0.0345 -0.6758
 4833SOL    HW126135   1.072   1.512   5.845 -1.4058  0.6235 -0.8578
 4833SOL    HW226136   1.119   1.538   5.973  0.5266 -0.3968  0.3380
 4834SOL     OW26137   1.725   2.148   2.443 -0.1817 -0.1287 -0.0615
 4834SOL    HW126138   1.721   2.058   2.476 -1.7807 -0.2586 -0.6016
 4834SOL    HW226139   1.768   2.188   2.519 -0.4627  1.1593 -0.5802
 4835SOL     OW26140   0.839   3.516   3.088  0.3938  0.3619  0.5833
 4835SOL    HW126141   0.859   3.571   3.013  3.0449 -1.7384 -0.2531
 4835SOL    HW226142   0.749   3.486   3.075  0.9925 -0.9229 -0.6347
 4836SOL     OW26143   4.511   2.880   2.232 -0.0301 -0.3396 -1.2194
 4836SOL    HW126144   4.601   2.851   2.215  1.2994  3.4267 -0.5627
 4836SOL    HW226145   4.477   2.864   2.144 -1.1572  1.6030 -1.1355
 4837SOL     OW26146   0.123   2.996  17.707 -0.2736  0.0101  0.0308
 4837SOL    HW126147   0.109   3.090  17.693  0.7915  0.4095  1.6455
 4837SOL    HW226148   0.073   2.968   0.039 -0.1881  2.6917  1.0777
 4838SOL     OW26149   0.433   0.849  14.557  0.3487 -0.3937  0.1859
 4838SOL    HW126150   0.363   0.807  14.506 -0.2258  0.3997  0.3090
 4838SOL    HW226151   0.437   0.928  14.503 -2.8398  0.0853  0.6080
 4839SOL     OW26152   0.066   1.959  12.291 -0.0018  0.0475  0.3826
 4839SOL    HW126153   0.040   1.983  12.202 -0.5642 -1.8854  0.0322
 4839SOL    HW226154   0.083   1.867  12.272 -1.1245  0.3157 -1.8807
 4840SOL     OW26155   1.388   2.857   2.029  0.5384  0.5280 -0.0714
 4840SOL    HW126156   1.315   2.882   1.973 -1.2450 -0.7083  1.7017
 4840SOL    HW226157   1.457   2.850   1.963 -1.8416 -2.1973 -2.2807
 4841SOL     OW26158   3.745   3.313   4.981 -0.2637 -0.4875  0.3760
 4841SOL    HW126159   3.716   3.251   4.914  1.1612 -0.3839 -0.3143
 4841SOL    HW226160   3.794   3.254   5.038  0.0753 -0.0233  0.5580
 4842SOL     OW26161   0.643   3.974   6.682 -0.0464  0.5456  0.1411
 4842SOL    HW126162   0.549   3.959   6.698  0.0446  1.3483  1.4972
 4842SOL    HW226163   0.647   3.999   6.590 -3.1993  2.8220  0.6182
 4843SOL     OW26164   2.385   3.887   5.907 -0.5469  0.3156 -0.1050
 4843SOL    HW126165   2.383   3.896   5.812  2.0509 -1.7037 -0.3497
 4843SOL    HW226166   2.460   3.829   5.920 -0.2660  1.7914  4.5549
 4844SOL     OW26167   0.682   3.544   8.251  0.2085  0.1357  0.0311
 4844SOL    HW126168   0.733   3.504   8.180  0.8710 -0.7112  0.9756
 4844SOL    HW226169   0.738   3.621   8.256  0.3147  0.0930 -0.5378
 4845SOL     OW26170   4.451   3.489   6.613 -0.3294 -0.5233 -0.6272
 4845SOL    HW126171   4.379   3.436   6.647 -0.0529 -1.2071 -1.1124
 4845SOL    HW226172   4.481   3.538   6.689  0.3193 -1.1789 -0.4652
 4846SOL     OW26173   4.505   1.424   9.393 -0.0547 -0.1535 -0.1617
 4846SOL    HW126174   4.529   1.336   9.423 -3.3907 -1.1959 -0.4749
 4846SOL    HW226175   4.519   1.473   9.474 -0.8305  0.3784 -0.3421
 4847SOL     OW26176   3.853   2.462   3.152 -0.1572  0.1362  0.0864
 4847SOL    HW126177   3.781   2.400   3.159  0.8396 -0.9247  1.0151
 4847SOL    HW226178   3.859   2.507   3.236  0.0093 -0.4448  0.3819
 4848SOL     OW26179   3.839   1.035   7.642 -0.1386 -0.0975 -0.2785
 4848SOL    HW126180   3.825   0.953   7.595 -1.7822 -0.3196  0.5932
 4848SOL    HW226181   3.767   1.083   7.599 -0.6430  0.1679  0.8615
 4849SOL     OW26182   2.745   4.068  17.528 -0.3619 -0.2839 -0.3853
 4849SOL    HW126183   2.670   4.105  17.482 -1.5756  1.9623  3.4079
 4849SOL    HW226184   2.813   4.055  17.462  2.4755  0.7328  2.2810
 4850SOL     OW26185   1.938   3.426  16.286 -0.4028  0.0893  0.4281
 4850SOL    HW126186   1.977   3.402  16.370 -1.4353  0.9166  1.1437
 4850SOL    HW226187   1.873   3.486  16.321 -1.0299 -0.3376 -0.0122
 4851SOL     OW26188   0.812   2.042   2.452  0.2495  0.1554 -0.1178
 4851SOL    HW126189   0.825   2.108   2.384  3.3376 -0.6091 -0.2429
 4851SOL    HW226190   0.887   1.984   2.438  0.5751  0.7409 -0.8343
 4852SOL     OW26191   1.903   0.370   9.080 -0.0706 -0.3865 -0.2941
 4852SOL    HW126192   1.882   0.457   9.114  2.7151  1.0395 -2.2744
 4852SOL    HW226193   1.818   0.350   9.040 -0.4546 -1.4233  1.0207
 4853SOL     OW26194   3.817   3.244   7.459 -0.3435  0.4223  0.4367
 4853SOL    HW126195   3.747   3.272   7.401  0.9367  2.2358 -0.2454
 4853SOL    HW226196   3.777   3.176   7.513  0.1860 -0.7691 -0.6540
 4854SOL     OW26197   1.014   3.007   1.965 -0.0643  0.3167 -0.8962
 4854SOL    HW126198   0.975   3.001   2.052  1.6207  1.7119 -0.0559
 4854SOL    HW226199   0.957   3.068   1.919 -0.2454  0.2060 -0.8181
 4855SOL     OW26200   4.473   4.588  11.491  0.3817  0.0357  0.2433
 4855SOL    HW126201   4.548   4.615  11.544  0.5411 -1.4053  0.7501
 4855SOL    HW226202   4.485   4.643  11.414 -0.8786  0.4887  0.3596
 4856SOL     OW26203   2.420   2.945  14.942  0.2614  0.2115  0.1417
 4856SOL    HW126204   2.414   2.912  15.032 -2.3645 -1.0668 -0.5209
 4856SOL    HW226205   2.514   2.947  14.922  0.5180  0.4946  1.3414
 4857SOL     OW26206   4.591   2.246   3.558  0.3515 -0.2994  0.3291
 4857SOL    HW126207   4.683   2.260   3.579  0.4487  1.7828 -1.4708
 4857SOL    HW226208   4.555   2.317   3.612  1.7568  1.5918 -1.1909
 4858SOL     OW26209   2.589   2.863   7.327  0.5698 -0.3568 -0.1425
 4858SOL    HW126210   2.575   2.813   7.408  0.6194  1.5965  1.0650
 4858SOL    HW226211   2.680   2.846   7.305  0.3892  0.1181 -1.2522
 4859SOL     OW26212   2.718   2.464  10.228  0.2858 -0.0994 -0.4362
 4859SOL    HW126213   2.711   2.538  10.168 -2.4858 -1.5235 -1.8706
 4859SOL    HW226214   2.702   2.500  10.315 -0.5964 -1.0632 -0.1883
 4860SOL     OW26215   1.719   4.206   8.238 -0.1266  0.0600  0.6692
 4860SOL    HW126216   1.786   4.241   8.180 -1.1460  0.1290 -0.4630
 4860SOL    HW226217   1.726   4.245   8.325  1.3392  0.8188  0.1985
 4861SOL     OW26218   1.132   0.176   3.850  0.4340  0.3124 -0.7369
 4861SOL    HW126219   1.152   0.258   3.805 -2.8499  1.8388  0.6074
 4861SOL    HW226220   1.106   0.199   3.939 -0.8748  0.1570 -1.0680
 4862SOL     OW26221   3.012   3.094   5.600  0.1067  0.0023  0.1112
 4862SOL    HW126222   3.043   3.004   5.589 -0.1081  0.1398 -1.5431
 4862SOL    HW226223   3.027   3.113   5.507 -1.8614 -0.0661 -0.2078
 4863SOL     OW26224   3.556   0.855  12.517 -0.3587 -0.3599 -0.4695
 4863SOL    HW126225   3.579   0.895  12.601  0.4785  0.4962 -1.1020
 4863SOL    HW226226   3.461   0.845  12.520 -0.4407  0.3393 -0.6666
 4864SOL     OW26227   0.916   0.332  13.956 -0.2138  0.6837  0.2966
 4864SOL    HW126228   0.837   0.291  13.920  1.1459 -0.5109 -1.3415
 4864SOL    HW226229   0.973   0.319  13.881  0.8953 -1.7872  1.5521
 4865SOL     OW26230   0.309   3.656   5.231 -0.7622  0.0854 -0.3110
 4865SOL    HW126231   0.286   3.725   5.169 -1.3281 -0.9956 -1.3045
 4865SOL    HW226232   0.236   3.675   5.290 -0.6448 -0.1556 -0.0884
 4866SOL     OW26233   4.017   4.607   4.467  0.0775 -0.1394 -0.1933
 4866SOL    HW126234   4.003   4.638   4.377  1.2453 -1.9449 -1.0166
 4866SOL    HW226235   4.075   4.680   4.489  0.6500 -0.5408 -0.3669
 4867SOL     OW26236   1.708   2.189   5.998 -0.8865  0.3847  0.2829
 4867SOL    HW126237   1.784   2.197   5.941 -0.7510 -1.7749  0.1637
 4867SOL    HW226238   1.745   2.133   6.067 -1.6104  0.1801  0.5017
 4868SOL     OW26239   0.599   4.294   3.976  0.4950  0.0952 -0.1825
 4868SOL    HW126240   0.586   4.389   3.984  0.5423 -0.0889  2.2544
 4868SOL    HW226241   0.693   4.278   3.976  0.6642  1.1365 -2.0296
 4869SOL     OW26242   3.994   4.177   8.061 -0.8686 -0.5009 -0.0507
 4869SOL    HW126243   4.030   4.091   8.037 -0.0289 -0.3437  0.6262
 4869SOL    HW226244   4.033   4.200   8.146  0.0415 -0.9784 -0.3403
 4870SOL     OW26245   4.713   0.360   4.093 -0.8237 -0.1669  0.0599
 4870SOL    HW126246   0.039   0.358   4.166  0.6800 -0.6917 -1.2308
 4870SOL    HW226247   4.724   0.275   4.049  1.0919  0.3126 -0.3797
 4871SOL     OW26248   4.734   1.878   4.071 -0.0354  0.2935 -0.2346
 4871SOL    HW126249   0.003   1.950   4.134 -1.6818 -0.3642  0.6519
 4871SOL    HW226250   0.049   1.811   4.115 -0.2882  0.8868  0.9665
 4872SOL     OW26251   1.196   0.884  10.290  1.0524 -0.3554 -0.6337
 4872SOL    HW126252   1.217   0.951  10.355  0.6522  0.9704 -1.8765
 4872SOL    HW226253   1.110   0.902  10.252 -0.2163 -1.6480  1.6084
 4873SOL     OW26254   1.566   3.653   2.411  0.1976  0.1312  0.2271
 4873SOL    HW126255   1.525   3.660   2.325  2.1697 -1.1559 -0.8312
 4873SOL    HW226256   1.644   3.613   2.373  2.4761  2.0141  2.9352
 4874SOL     OW26257   3.338   1.635   2.801  0.6219 -0.2991 -0.0142
 4874SOL    HW126258   3.317   1.717   2.846  0.3337 -1.1723  1.4451
 4874SOL    HW226259   3.432   1.654   2.811  0.6634 -1.4811  1.8843
 4875SOL     OW26260   0.588   3.211   3.547 -0.0680 -0.2373 -0.0030
 4875SOL    HW126261   0.676   3.174   3.542  0.2387  0.5959 -0.7542
 4875SOL    HW226262   0.597   3.269   3.623 -0.3245 -0.8346  0.4898
 4876SOL     OW26263   1.892   3.946   8.058  0.2636  0.0781 -0.0054
 4876SOL    HW126264   1.916   4.033   8.028  1.9696  0.1678  1.5693
 4876SOL    HW226265   1.861   3.973   8.145 -0.5200 -0.6826 -0.0417
 4877SOL     OW26266   2.663   3.600   0.508  0.1618 -0.4703 -0.7470
 4877SOL    HW126267   2.713   3.587   0.428  0.3659  1.0835 -0.8844
 4877SOL    HW226268   2.590   3.541   0.491  0.2506 -1.0614  0.8555
 4878SOL     OW26269   0.593   0.621  14.610 -0.1686 -0.1234 -0.5779
 4878SOL    HW126270   0.580   0.711  14.578  1.9806 -0.0907 -1.4004
 4878SOL    HW226271   0.537   0.565  14.557 -0.9697  0.5170 -0.4116
 4879SOL     OW26272   3.544   1.900   4.968 -0.0852 -0.2064 -0.1188
 4879SOL    HW126273   3.459   1.929   5.002  0.0437 -3.2449  2.9164
 4879SOL    HW226274   3.607   1.960   5.007 -0.2203  0.1724 -0.4871
 4880SOL     OW26275   3.964   0.494   5.351  0.5330 -1.0204  0.2460
 4880SOL    HW126276   4.037   0.466   5.296 -1.9302 -4.0461 -1.4512
 4880SOL    HW226277   3.976   0.589   5.356 -0.9899 -0.9244  2.1105
 4881SOL     OW26278   3.124   2.772  10.287  0.0319 -0.3032  0.4477
 4881SOL    HW126279   3.186   2.744  10.219  1.5237  1.1144  1.2328
 4881SOL    HW226280   3.044   2.776  10.235  0.4033  0.6926 -0.0468
 4882SOL     OW26281   0.824   4.250   7.457 -0.4427  0.4264 -0.1653
 4882SOL    HW126282   0.898   4.307   7.481  0.5006 -2.3338  3.3897
 4882SOL    HW226283   0.761   4.314   7.422 -1.6112 -0.3839  0.4902
 4883SOL     OW26284   0.598   0.853   2.205  0.4000 -0.1311 -0.3423
 4883SOL    HW126285   0.594   0.820   2.295 -2.1935 -1.2881 -0.8877
 4883SOL    HW226286   0.528   0.917   2.214  0.5942  0.0820 -0.3477
 4884SOL     OW26287   1.295   0.617   0.519  0.0662 -0.6963  0.0953
 4884SOL    HW126288   1.362   0.609   0.587 -1.1554 -0.0715  1.3717
 4884SOL    HW226289   1.239   0.683   0.560  0.6322  0.0982 -0.3954
 4885SOL     OW26290   4.112   0.117   4.817  0.6930  0.1669  0.5387
 4885SOL    HW126291   4.019   0.141   4.816  0.8173  0.5771 -1.0932
 4885SOL    HW226292   4.105   0.026   4.845  0.3361  0.6334  1.9703
 4886SOL     OW26293   4.430   0.412   1.691 -0.3592  0.9506 -0.5754
 4886SOL    HW126294   4.413   0.410   1.597  0.5033 -1.1652 -0.6907
 4886SOL    HW226295   4.511   0.362   1.696 -0.8629  0.1211 -0.6466
 4887SOL     OW26296   3.859   1.639   7.711 -0.3291  0.5663  0.4956
 4887SOL    HW126297   3.870   1.672   7.621  1.5804 -0.5731  0.3109
 4887SOL    HW226298   3.804   1.563   7.696  0.8274  0.1248 -1.5410
 4888SOL     OW26299   0.188   1.069   5.657 -0.3539 -0.0506 -0.2183
 4888SOL    HW126300   0.141   1.138   5.705 -0.7596 -0.7797  0.4219
 4888SOL    HW226301   0.279   1.079   5.684  0.3711 -4.4470 -1.1894
 4889SOL     OW26302   2.132   1.004   3.202 -0.0507 -0.2297 -0.2404
 4889SOL    HW126303   2.121   1.032   3.293  1.4996  1.3747 -0.5312
 4889SOL    HW226304   2.166   1.084   3.160  2.5671 -1.7296 -1.0044
 4890SOL     OW26305   0.229   4.487   3.919 -0.4037  0.4341  0.0030
 4890SOL    HW126306   0.291   4.551   3.953  0.4935 -0.6474  0.3911
 4890SOL    HW226307   0.212   4.435   3.997  2.9077  0.7789  0.9251
 4891SOL     OW26308   4.501   0.123   8.743  0.3916 -0.1520 -0.8910
 4891SOL    HW126309   4.528   0.142   8.653  1.0738 -3.0781 -1.3082
 4891SOL    HW226310   4.524   0.030   8.738 -0.0872 -0.2708 -0.8701
 4892SOL     OW26311   0.412   3.408  16.718 -0.1635  0.0368 -0.7928
 4892SOL    HW126312   0.379   3.333  16.768 -0.6523  0.4611 -0.4901
 4892SOL    HW226313   0.386   3.488  16.763 -0.4794 -0.9789  0.8243
 4893SOL     OW26314   0.744   0.058   9.839 -0.4853  0.7074  0.2011
 4893SOL    HW126315   0.664   0.095   9.877 -2.6654 -1.6765 -2.1178
 4893SOL    HW226316   0.813   0.100   9.890 -1.4162  1.1605  1.0864
 4894SOL     OW26317   4.146   3.454   7.795  0.0939  0.1244 -0.1165
 4894SOL    HW126318   4.058   3.449   7.757 -0.1170 -1.7580  0.6030
 4894SOL    HW226319   4.183   3.369   7.771  0.6213  0.1184  0.7269
 4895SOL     OW26320   4.582   0.462   9.445  0.4305  0.2474 -0.6053
 4895SOL    HW126321   4.562   0.421   9.529 -2.5276  2.3337 -0.2812
 4895SOL    HW226322   4.605   0.382   9.397  0.5470 -0.0488 -0.0492
 4896SOL     OW26323   3.903   0.630  15.289 -0.3967  0.4198 -0.2588
 4896SOL    HW126324   3.884   0.547  15.246  2.1771  0.6252 -1.7492
 4896SOL    HW226325   3.914   0.600  15.379 -1.1606  0.7398 -0.0534
 4897SOL     OW26326   4.073   2.948   5.755 -0.2706  1.3587 -0.0881
 4897SOL    HW126327   4.066   3.041   5.778  2.0799  1.3129  0.7994
 4897SOL    HW226328   4.071   2.903   5.839  1.2779 -1.3559 -1.5179
 4898SOL     OW26329   3.850   2.436   5.958  0.5972  0.0821  0.0277
 4898SOL    HW126330   3.863   2.496   5.884  2.6604  2.1509  2.0953
 4898SOL    HW226331   3.860   2.501   6.027  2.1989 -1.0392  0.8454
 4899SOL     OW26332   0.174   2.546  14.227  0.5029  0.4283  0.2540
 4899SOL    HW126333   0.199   2.615  14.166 -0.2789  0.7123  0.2628
 4899SOL    HW226334   0.097   2.585  14.267  2.3377  2.4283  1.8541
 4900SOL     OW26335   1.907   0.369   4.844 -1.0005  0.0982 -0.3320
 4900SOL    HW126336   1.957   0.430   4.790  0.5564 -2.4652 -1.7836
 4900SOL    HW226337   1.910   0.410   4.930  0.2631 -0.6763 -0.0102
 4901SOL     OW26338   1.106   2.779   2.613 -0.0422 -0.3446 -0.2794
 4901SOL    HW126339   1.121   2.717   2.683 -0.0886  1.3325  1.2109
 4901SOL    HW226340   1.127   2.863   2.652  0.0338  0.6760 -2.4776
 4902SOL     OW26341   3.403   4.575   6.199  0.2253 -0.4429 -0.1006
 4902SOL    HW126342   3.431   4.665   6.212 -2.3098  0.4715 -0.9113
 4902SOL    HW226343   3.311   4.574   6.173  0.0302 -0.3486  0.5741
 4903SOL     OW26344   0.178   2.676  11.624 -0.2314 -0.1190  0.2814
 4903SOL    HW126345   0.256   2.729  11.637  0.3242 -0.5543 -1.2272
 4903SOL    HW226346   0.112   2.739  11.594  0.9616  1.1130  0.2873
 4904SOL     OW26347   2.133   4.413   1.874 -0.2450 -0.3158  0.3623
 4904SOL    HW126348   2.149   4.350   1.803 -0.6419 -1.0297  0.8970
 4904SOL    HW226349   2.057   4.464   1.845 -2.2243 -2.2968  1.9973
 4905SOL     OW26350   4.274   3.629   5.447  0.0246 -0.0196 -0.3929
 4905SOL    HW126351   4.267   3.677   5.530  0.6385  0.5832 -0.6836
 4905SOL    HW226352   4.368   3.614   5.444 -0.2725 -2.1775  1.6085
 4906SOL     OW26353   0.023   2.068  12.025  0.2454 -0.0328  0.4939
 4906SOL    HW126354   0.074   2.059  11.944  0.5664  0.2953  0.6617
 4906SOL    HW226355   4.691   2.129  11.996 -1.7871 -2.1093  0.9534
 4907SOL     OW26356   3.470   3.757   2.711 -0.2293  0.2864 -0.2650
 4907SOL    HW126357   3.403   3.762   2.642 -0.1722 -0.8852 -0.4032
 4907SOL    HW226358   3.548   3.720   2.671  0.1291  0.3504  0.3842
 4908SOL     OW26359   1.117   4.348   9.383 -0.5172 -0.0848 -0.2639
 4908SOL    HW126360   1.207   4.377   9.371  0.6242 -2.5701  2.2198
 4908SOL    HW226361   1.129   4.265   9.428 -0.1682 -0.1312 -0.4476
 4909SOL     OW26362   0.201   1.437   8.094  0.2486 -0.3531  0.3901
 4909SOL    HW126363   0.294   1.456   8.108  0.6157 -0.6210 -1.6835
 4909SOL    HW226364   0.167   1.422   8.182 -0.4121 -0.6884  0.0728
 4910SOL     OW26365   4.342   0.438  13.297 -0.4091 -0.5342 -0.4597
 4910SOL    HW126366   4.399   0.467  13.226 -1.2072  0.9659 -0.4793
 4910SOL    HW226367   4.360   0.504  13.364  0.2159 -1.1502 -0.0115
 4911SOL     OW26368   4.634   1.324   2.801  0.2203  0.6662 -0.1178
 4911SOL    HW126369   4.604   1.415   2.792 -0.2044  0.4675 -0.7312
 4911SOL    HW226370   4.714   1.314   2.749 -0.9706 -0.1986 -1.8079
 4912SOL     OW26371   1.637   4.470   4.139 -0.5254  0.1261  0.3322
 4912SOL    HW126372   1.637   4.441   4.230  0.5399  1.2107  0.6796
 4912SOL    HW226373   1.546   4.498   4.133  0.2839  3.0877  2.0821
 4913SOL     OW26374   0.804   2.174   3.281  0.0562  0.1879 -0.3672
 4913SOL    HW126375   0.733   2.126   3.238  0.6070 -0.6783 -0.3164
 4913SOL    HW226376   0.760   2.235   3.340  3.6393 -0.4082  2.9168
 4914SOL     OW26377   3.987   3.194   4.217 -0.5429 -0.4026 -0.0995
 4914SOL    HW126378   3.938   3.159   4.143  1.3114  0.6316 -1.8170
 4914SOL    HW226379   4.063   3.231   4.172 -0.3687 -1.3330 -0.5476
 4915SOL     OW26380   0.387   3.794   1.809  0.1283  0.1435 -0.2101
 4915SOL    HW126381   0.323   3.835   1.751  0.5747  0.8602 -0.2028
 4915SOL    HW226382   0.465   3.844   1.787  0.1787 -0.3205 -1.0697
 4916SOL     OW26383   1.878   2.240   7.933  0.3712 -0.6746  0.4243
 4916SOL    HW126384   1.814   2.169   7.939  0.7253 -1.1321 -1.2844
 4916SOL    HW226385   1.888   2.263   8.026  0.0437 -3.0149  1.0389
 4917SOL     OW26386   1.077   0.795   0.623 -0.0798 -0.4291  0.1403
 4917SOL    HW126387   1.029   0.859   0.571  2.0608  1.0829 -0.0170
 4917SOL    HW226388   1.056   0.821   0.713 -0.1147 -1.8505  0.5484
 4918SOL     OW26389   3.027   3.986   5.243 -0.3306  0.3389 -0.2193
 4918SOL    HW126390   3.097   3.932   5.280  0.2693  0.5376 -1.0622
 4918SOL    HW226391   3.080   4.065   5.254  0.5760 -0.3091  0.1178
 4919SOL     OW26392   4.332   3.357   7.054  0.1867  0.0899  0.6406
 4919SOL    HW126393   4.386   3.355   7.133 -0.5769  2.0494  1.1921
 4919SOL    HW226394   4.254   3.311   7.086 -0.5361  0.9445  0.0890
 4920SOL     OW26395   3.744   4.107   1.834 -0.2229  0.5918 -0.5727
 4920SOL    HW126396   3.756   4.043   1.905 -0.4895  0.2416 -0.8399
 4920SOL    HW226397   3.757   4.189   1.881 -1.0288  0.2349  0.2738
 4921SOL     OW26398   1.038   1.021   8.592 -0.8921  0.3464 -0.1492
 4921SOL    HW126399   1.105   1.084   8.565 -0.0360 -1.2592 -1.6814
 4921SOL    HW226400   1.076   0.938   8.564  1.0309  1.9324 -2.2240
 4922SOL     OW26401   1.952   0.774   8.265 -0.3533  0.0649 -0.1197
 4922SOL    HW126402   1.974   0.867   8.259 -0.4840 -0.0154 -1.9632
 4922SOL    HW226403   2.032   0.745   8.309  0.7127  1.7968 -0.9071
 4923SOL     OW26404   1.229   1.279   8.695  0.3760 -0.8806 -0.1346
 4923SOL    HW126405   1.242   1.368   8.728 -0.5398 -1.0233  0.5957
 4923SOL    HW226406   1.314   1.259   8.656  0.5834 -0.7785  0.2636
 4924SOL     OW26407   0.050   1.950   3.149 -0.2695  0.3418 -0.2211
 4924SOL    HW126408   0.081   2.021   3.093  1.0755 -0.6864 -0.7828
 4924SOL    HW226409   4.693   1.962   3.165  0.0230  1.2777  0.8080
 4925SOL     OW26410   0.142   0.107   4.890  0.2919  0.3393  0.3030
 4925SOL    HW126411   0.119   0.200   4.895  0.4271  0.4488 -0.9120
 4925SOL    HW226412   0.223   0.106   4.941  1.2129 -2.3027 -1.1804
 4926SOL     OW26413   2.765   3.924   4.371  0.3864 -0.0111 -0.2175
 4926SOL    HW126414   2.857   3.906   4.354  0.4218 -0.7455  0.7822
 4926SOL    HW226415   2.767   3.951   4.463 -2.5397 -0.5676  0.0298
 4927SOL     OW26416   2.818   0.727   7.135 -0.8174  0.1875  0.0363
 4927SOL    HW126417   2.863   0.796   7.086  1.1854  0.0010  1.6077
 4927SOL    HW226418   2.747   0.775   7.179  1.1422  2.2493  0.9499
 4928SOL     OW26419   1.967   3.504   8.318  0.3958  0.1534 -0.4942
 4928SOL    HW126420   1.955   3.587   8.271  1.7639  0.8398  0.3847
 4928SOL    HW226421   2.054   3.514   8.356  0.1915  1.0011 -0.2422
 4929SOL     OW26422   0.734   1.239  15.304  0.0908  0.6548  0.7888
 4929SOL    HW126423   0.818   1.195  15.295 -0.1389  0.3820 -0.0248
 4929SOL    HW226424   0.675   1.203  15.238 -1.0363  0.4499  1.8913
 4930SOL     OW26425   2.927   0.258   7.746 -0.1028  0.3964 -0.1681
 4930SOL    HW126426   2.930   0.200   7.822  0.2083  1.1199  0.3723
 4930SOL    HW226427   2.834   0.249   7.726  0.0212  0.1265 -0.6364
 4931SOL     OW26428   1.830   1.188   1.463  0.0424 -0.7223 -0.6917
 4931SOL    HW126429   1.745   1.175   1.421 -0.6165 -1.3701  0.8218
 4931SOL    HW226430   1.875   1.228   1.389 -2.2985  1.5538 -0.8784
 4932SOL     OW26431   0.932   1.766  10.932  0.1381 -0.0630 -0.1069
 4932SOL    HW126432   0.985   1.704  10.883  0.6928  1.6137 -1.6518
 4932SOL    HW226433   0.940   1.852  10.889  0.9804  0.3250  0.8236
 4933SOL     OW26434   0.699   3.692  16.040 -0.2998  0.1664 -0.3603
 4933SOL    HW126435   0.673   3.655  16.124 -0.1108  0.5795 -0.1192
 4933SOL    HW226436   0.791   3.667  16.037  0.1182  1.4705  1.9355
 4934SOL     OW26437   2.600   1.218   3.691 -0.6021  0.0702 -0.1110
 4934SOL    HW126438   2.547   1.215   3.611 -1.7746  0.6991  0.6431
 4934SOL    HW226439   2.673   1.274   3.663  0.6568 -2.7028 -2.5001
 4935SOL     OW26440   3.579   3.555  15.121 -0.2478 -0.0985  0.1864
 4935SOL    HW126441   3.616   3.629  15.169  2.0315 -0.1209 -1.5686
 4935SOL    HW226442   3.650   3.521  15.066 -0.1267  2.2533 -1.1106
 4936SOL     OW26443   1.482   1.946   8.450  0.1002  0.9692  0.4297
 4936SOL    HW126444   1.406   1.999   8.425  0.8302  1.6544 -0.3256
 4936SOL    HW226445   1.519   2.005   8.515  1.1383 -1.6681  2.2431
 4937SOL     OW26446   1.042   0.266  10.752  0.3745 -0.3375 -0.2374
 4937SOL    HW126447   1.134   0.246  10.736  0.1119 -0.1121 -1.9613
 4937SOL    HW226448   1.029   0.354  10.719 -3.2106 -0.4415  0.8775
 4938SOL     OW26449   1.494   0.797   9.553  0.2402 -0.2308  0.3214
 4938SOL    HW126450   1.438   0.719   9.558 -0.8145  0.6030  1.7335
 4938SOL    HW226451   1.464   0.843   9.474  0.6161 -0.6940 -0.0914
 4939SOL     OW26452   0.609   4.120   2.845 -0.0865  0.1834  0.2304
 4939SOL    HW126453   0.690   4.169   2.853 -0.5001  0.7555  0.8667
 4939SOL    HW226454   0.610   4.097   2.752 -0.2753 -0.1192  0.3016
 4940SOL     OW26455   1.560   1.365  11.595  0.6012  0.4973 -0.0639
 4940SOL    HW126456   1.514   1.444  11.567  2.2165  2.0278  1.5632
 4940SOL    HW226457   1.490   1.301  11.591  1.3795 -0.2994 -1.0285
 4941SOL     OW26458   3.233   4.463   4.541 -0.0199 -0.8853  0.3376
 4941SOL    HW126459   3.247   4.416   4.624 -0.3504 -2.7350 -0.6405
 4941SOL    HW226460   3.270   4.412   4.469 -0.3092 -3.4218  1.9603
 4942SOL     OW26461   0.964   0.705   5.875  0.1230 -0.1054  0.0851
 4942SOL    HW126462   0.962   0.609   5.881 -1.2173  0.0595  2.2608
 4942SOL    HW226463   0.877   0.721   5.909  0.4560 -0.7509  1.2605
 4943SOL     OW26464   3.671   4.725   4.205 -0.1198 -0.1556 -0.0703
 4943SOL    HW126465   3.711   4.651   4.160  1.4798  0.5474  0.2074
 4943SOL    HW226466   3.584   4.688   4.222  0.2367 -0.2014  1.7092
 4944SOL     OW26467   1.399   4.099  15.711  0.1047 -0.3159 -0.2285
 4944SOL    HW126468   1.371   4.038  15.779  2.2619 -2.1296 -0.9621
 4944SOL    HW226469   1.389   4.046  15.632 -0.5378  1.0561 -1.0574
 4945SOL     OW26470   0.289   3.943   7.824 -0.2652 -0.4659  0.2404
 4945SOL    HW126471   0.345   3.899   7.888  0.2840 -0.0201  0.0591
 4945SOL    HW226472   0.272   4.025   7.871  0.5319 -1.0685  1.5911
 4946SOL     OW26473   2.187   1.003   9.155 -0.3347 -0.7218  0.4372
 4946SOL    HW126474   2.136   0.963   9.225 -1.8370  1.2423  0.4387
 4946SOL    HW226475   2.256   0.937   9.151 -0.1503 -0.5581  0.8971
 4947SOL     OW26476   1.266   1.572   7.841  0.4742 -0.2764  0.3199
 4947SOL    HW126477   1.290   1.639   7.778  1.1832  0.5651  1.5031
 4947SOL    HW226478   1.317   1.590   7.920 -1.0471  0.7029  1.0689
 4948SOL     OW26479   3.084   3.845   2.220  0.2109  0.8293 -0.1457
 4948SOL    HW126480   3.092   3.767   2.274 -0.4043  0.6203 -0.3655
 4948SOL    HW226481   3.006   3.818   2.172  0.1350  1.3874 -0.3440
 4949SOL     OW26482   0.326   2.338  14.294  0.2475 -0.2825  0.3141
 4949SOL    HW126483   0.276   2.407  14.250  0.0395  0.9273  2.4577
 4949SOL    HW226484   0.327   2.366  14.385 -2.3628  2.0062 -0.3521
 4950SOL     OW26485   1.950   2.127   5.937 -0.2218  0.6681 -0.2018
 4950SOL    HW126486   2.029   2.075   5.954 -1.1930 -0.2220  1.6585
 4950SOL    HW226487   1.986   2.183   5.869 -1.3453 -0.7039 -1.9476
 4951SOL     OW26488   4.677   1.372  10.728 -0.0164  0.3738  0.2644
 4951SOL    HW126489   4.607   1.331  10.676  0.6078 -2.6976  1.9056
 4951SOL    HW226490   4.705   1.297  10.780 -0.3067 -0.6066 -0.9692
 4952SOL     OW26491   0.884   0.617   0.948 -0.1878  0.2624 -0.4333
 4952SOL    HW126492   0.900   0.676   1.021  1.2199 -1.1811  0.4272
 4952SOL    HW226493   0.975   0.586   0.943  0.0981  1.1274 -0.5566
 4953SOL     OW26494   4.566   2.243  11.953  0.6514  0.4748 -0.2379
 4953SOL    HW126495   4.574   2.325  11.904 -0.0272  1.0160  0.5571
 4953SOL    HW226496   4.544   2.270  12.042 -1.4300 -3.8471  0.5395
 4954SOL     OW26497   0.962   0.721   3.770 -0.0964 -0.4329 -0.2872
 4954SOL    HW126498   0.923   0.704   3.856 -1.9192 -0.3889 -1.0983
 4954SOL    HW226499   0.975   0.632   3.737  2.2157  0.3106 -1.3822
 4955SOL     OW26500   1.290   3.040   6.343  0.3859  0.0560 -0.0061
 4955SOL    HW126501   1.290   3.135   6.333 -2.2464  0.1110  0.6041
 4955SOL    HW226502   1.202   3.019   6.374  1.0245 -3.1575 -0.3565
 4956SOL     OW26503   3.727   0.175   5.881  0.0394 -0.4475 -0.0528
 4956SOL    HW126504   3.705   0.082   5.889  3.4356 -1.2583 -0.2617
 4956SOL    HW226505   3.672   0.198   5.956  0.0803 -2.0162  0.4752
 4957SOL     OW26506   1.918   0.074   5.592 -0.2007 -0.0892  0.1719
 4957SOL    HW126507   1.849   0.079   5.658  0.3677 -0.5891  0.8134
 4957SOL    HW226508   1.926   0.165   5.565 -1.0517 -0.2537 -0.6140
 4958SOL     OW26509   0.270   2.437   2.789 -0.1592  0.4608  0.9906
 4958SOL    HW126510   0.312   2.512   2.748 -1.6670 -0.7947 -2.8192
 4958SOL    HW226511   0.188   2.483   2.807 -0.3487  0.0565  1.1610
 4959SOL     OW26512   0.841   3.226   4.697  0.0789 -0.5310  0.4855
 4959SOL    HW126513   0.802   3.254   4.779 -1.0888  0.8675 -0.5344
 4959SOL    HW226514   0.795   3.150   4.663  0.0204  0.5238 -1.8470
 4960SOL     OW26515   0.506   0.944   3.357  0.1521 -0.0612 -0.3970
 4960SOL    HW126516   0.592   0.908   3.375  0.7957  1.0818 -1.2273
 4960SOL    HW226517   0.509   0.948   3.261 -1.9571  1.4677 -0.4101
 4961SOL     OW26518   1.394   1.293   9.129 -0.9749  0.3239 -0.2101
 4961SOL    HW126519   1.448   1.232   9.078 -0.4760 -0.3791  1.1774
 4961SOL    HW226520   1.461   1.333   9.185  0.6937  0.0011 -1.9722
 4962SOL     OW26521   0.250   4.513   2.176 -0.1441  0.3700 -0.2398
 4962SOL    HW126522   0.246   4.502   2.271 -0.8631 -2.1644 -0.5620
 4962SOL    HW226523   0.217   4.603   2.181  0.7324  0.5176  2.6300
 4963SOL     OW26524   0.115   2.426  11.705 -0.5974  0.4748  0.2038
 4963SOL    HW126525   0.043   2.455  11.761 -0.9451 -0.5068  0.2739
 4963SOL    HW226526   0.154   2.505  11.668 -1.2995  1.1329  0.8674
 4964SOL     OW26527   1.342   3.768   6.161 -0.2452 -0.0406  0.4240
 4964SOL    HW126528   1.250   3.791   6.149  0.4696  2.3986 -0.3799
 4964SOL    HW226529   1.373   3.814   6.083  0.2195 -1.6409 -0.3358
 4965SOL     OW26530   3.539   3.349   7.620 -0.3157  0.0519 -0.0974
 4965SOL    HW126531   3.536   3.355   7.716  0.3764  0.7804 -0.1157
 4965SOL    HW226532   3.474   3.415   7.597 -1.3809 -0.3760  1.6863
 4966SOL     OW26533   4.701   0.626   4.383  0.1569 -0.2345  0.2321
 4966SOL    HW126534   0.046   0.611   4.336  0.4551  1.3491  0.2584
 4966SOL    HW226535   4.648   0.660   4.311  1.9933  0.9852 -0.5395
 4967SOL     OW26536   3.408   4.652   2.783 -0.5327 -0.7327  0.3471
 4967SOL    HW126537   3.444   4.600   2.712 -1.1859 -0.9423  0.1733
 4967SOL    HW226538   3.410   4.587   2.853  0.5347  0.7228  1.6733
 4968SOL     OW26539   1.717   0.776   1.719 -0.1070 -0.9826 -0.1262
 4968SOL    HW126540   1.707   0.683   1.698 -1.6080 -0.4486 -1.7214
 4968SOL    HW226541   1.653   0.813   1.659 -0.2209 -0.1257  0.5238
 4969SOL     OW26542   2.521   4.537   7.178 -0.0820  0.6589  0.1709
 4969SOL    HW126543   2.456   4.472   7.201  0.5877 -0.2460 -0.5152
 4969SOL    HW226544   2.469   4.618   7.176  1.5416  1.7308  1.0706
 4970SOL     OW26545   1.020   2.525   8.472  0.0707 -0.3638  0.0752
 4970SOL    HW126546   1.008   2.544   8.565  3.5866 -1.4324  0.7689
 4970SOL    HW226547   1.069   2.601   8.442 -0.4306 -0.3868 -0.8022
 4971SOL     OW26548   2.435   0.832   8.342  0.2570 -0.0310  0.2886
 4971SOL    HW126549   2.409   0.916   8.379 -1.7909  0.7145 -2.8754
 4971SOL    HW226550   2.351   0.787   8.344  0.0475  0.4479  3.5259
 4972SOL     OW26551   4.460   4.490  17.281  0.2815  0.3953 -0.7648
 4972SOL    HW126552   4.504   4.567  17.315 -0.5893  0.9813 -0.9571
 4972SOL    HW226553   4.496   4.483  17.193  0.4777 -0.8187 -0.5964
 4973SOL     OW26554   1.914   0.174  17.061  0.0657 -0.2151 -0.4964
 4973SOL    HW126555   1.939   0.187  16.970 -1.6603  2.4139 -0.6038
 4973SOL    HW226556   1.894   0.262  17.094 -0.0853 -0.6321  0.5145
 4974SOL     OW26557   3.187   0.356  10.562  0.4249  0.1997  0.4650
 4974SOL    HW126558   3.280   0.369  10.582  0.1638  1.3537  0.9248
 4974SOL    HW226559   3.186   0.406  10.480  0.5286 -0.7218 -0.1025
 4975SOL     OW26560   3.651   4.715  10.326 -0.0458 -0.3778 -0.1722
 4975SOL    HW126561   3.732   4.730  10.374 -0.6558  0.7931  0.4993
 4975SOL    HW226562   3.683   4.694  10.239 -1.5828 -1.7813 -0.3859
 4976SOL     OW26563   3.260   0.288   3.258  0.2299 -0.8719  0.1328
 4976SOL    HW126564   3.282   0.202   3.220  0.7575 -0.1285 -1.2323
 4976SOL    HW226565   3.166   0.291   3.244  0.1998 -2.1427  0.0037
 4977SOL     OW26566   3.032   2.377   3.557  0.3228  0.2537 -0.3130
 4977SOL    HW126567   3.017   2.320   3.632  0.6525  1.1783  0.4513
 4977SOL    HW226568   2.994   2.461   3.583  0.5342  0.4141 -0.5310
 4978SOL     OW26569   1.696   3.268   3.030  0.5844  0.2161 -0.1755
 4978SOL    HW126570   1.707   3.361   3.048  0.8202  0.9767 -4.1882
 4978SOL    HW226571   1.743   3.265   2.947  0.2000  3.1460 -0.4741
 4979SOL     OW26572   0.923   0.296   0.438 -0.0161  0.0872 -0.0127
 4979SOL    HW126573   0.844   0.277   0.489  0.0943 -0.0496  0.1085
 4979SOL    HW226574   0.940   0.215   0.389  2.6657  2.2778 -2.7105
 4980SOL     OW26575   1.680   0.772   3.848 -0.6203 -0.4027  0.2078
 4980SOL    HW126576   1.601   0.781   3.794 -1.1452  1.3744  1.2900
 4980SOL    HW226577   1.669   0.838   3.916  2.6469  0.5631 -0.2083
 4981SOL     OW26578   3.063   2.669   1.858  0.1907  0.0698 -0.0539
 4981SOL    HW126579   3.155   2.645   1.846  0.5537  1.1409  0.5834
 4981SOL    HW226580   3.021   2.599   1.808  0.3738 -0.7159  0.8796
 4982SOL     OW26581   0.130   2.718  11.303  0.5409  0.1985  0.3928
 4982SOL    HW126582   0.130   2.722  11.207  0.2041  3.1731  0.5375
 4982SOL    HW226583   0.044   2.679  11.319  0.9324  0.0060  2.0453
 4983SOL     OW26584   4.388   1.670   6.039  0.2838 -0.6352  0.0253
 4983SOL    HW126585   4.316   1.680   5.977  0.7542 -2.0680 -0.7763
 4983SOL    HW226586   4.379   1.756   6.079 -1.5033 -0.7318 -0.1480
 4984SOL     OW26587   1.758   1.349   6.404 -0.2405  0.1770  0.6208
 4984SOL    HW126588   1.724   1.263   6.428 -2.5830  1.0150  0.2279
 4984SOL    HW226589   1.738   1.405   6.479 -2.4388 -0.0266  0.1667
 4985SOL     OW26590   3.147   3.505   4.378  0.5163 -0.5315 -0.2798
 4985SOL    HW126591   3.200   3.567   4.429 -1.2629  0.4815  0.3267
 4985SOL    HW226592   3.219   3.455   4.341  1.3109  0.1020  0.3834
 4986SOL     OW26593   0.664   2.959   5.151  0.0625  0.7544 -0.1707
 4986SOL    HW126594   0.699   3.047   5.167  2.5939 -0.2924  0.1510
 4986SOL    HW226595   0.720   2.942   5.075  1.1706  1.3374  0.5061
 4987SOL     OW26596   3.764   2.190   3.988 -0.0328  0.2062  0.2068
 4987SOL    HW126597   3.736   2.117   4.043  1.5402 -1.7505 -1.5396
 4987SOL    HW226598   3.720   2.169   3.906 -0.1982 -0.1869  0.3941
 4988SOL     OW26599   1.544   4.357  15.732  0.0969  0.0120 -0.0574
 4988SOL    HW126600   1.526   4.264  15.744  0.3920 -0.0067  0.2433
 4988SOL    HW226601   1.475   4.373  15.668 -0.1895 -2.0538 -0.2632
 4989SOL     OW26602   1.599   4.702   4.650  0.1219 -0.0495  0.5931
 4989SOL    HW126603   1.651   4.658   4.717 -1.4422  0.2998  2.0185
 4989SOL    HW226604   1.659   0.036   4.626  0.1422 -0.3897 -0.3432
 4990SOL     OW26605   1.358   1.623   3.689  0.0703 -0.0462  0.1610
 4990SOL    HW126606   1.304   1.596   3.764 -1.7291 -0.9630 -1.4507
 4990SOL    HW226607   1.392   1.541   3.652 -0.6887 -0.1787 -0.2424
 4991SOL     OW26608   0.575   2.558   3.241 -0.0236 -0.2706 -0.1463
 4991SOL    HW126609   0.503   2.512   3.285 -0.7971 -0.0250 -1.1667
 4991SOL    HW226610   0.586   2.616   3.316 -0.9515 -0.7956  0.4051
 4992SOL     OW26611   0.181   2.921   3.792  0.5626  0.5284 -0.2036
 4992SOL    HW126612   0.276   2.923   3.781  0.5780  1.0749  0.0686
 4992SOL    HW226613   0.162   2.832   3.821 -1.0931  0.7781 -0.5535
 4993SOL     OW26614   3.418   2.847   5.233  0.4186  0.2060 -0.5030
 4993SOL    HW126615   3.395   2.922   5.178  0.3052  0.4617 -0.1074
 4993SOL    HW226616   3.440   2.897   5.311 -0.7108  0.1795 -0.1709
 4994SOL     OW26617   2.756   3.223  15.081  0.6541  0.2290  0.6412
 4994SOL    HW126618   2.829   3.267  15.037 -1.1975  0.1999 -2.3917
 4994SOL    HW226619   2.682   3.275  15.050  0.3247 -1.3626 -1.1729
 4995SOL     OW26620   0.225   0.109  10.802  0.3705 -0.1877 -0.1460
 4995SOL    HW126621   0.138   0.069  10.795 -0.1901  1.4242 -2.5367
 4995SOL    HW226622   0.239   0.151  10.717  1.9301 -2.4923 -1.0259
 4996SOL     OW26623   0.340   3.064  15.086 -0.3339 -0.4862 -0.0104
 4996SOL    HW126624   0.400   3.112  15.030  0.1715 -1.3690 -0.2376
 4996SOL    HW226625   0.395   3.056  15.164  0.8423  0.5315 -0.7616
 4997SOL     OW26626   4.223   2.448  13.670 -0.2740  0.0517 -0.0079
 4997SOL    HW126627   4.268   2.369  13.640 -1.3886  0.3736 -2.4966
 4997SOL    HW226628   4.198   2.411  13.754  3.2222  2.0242  1.8828
 4998SOL     OW26629   2.452   3.709   4.715  0.5476  0.0058  0.1542
 4998SOL    HW126630   2.370   3.682   4.673  0.9421 -1.1068  0.0999
 4998SOL    HW226631   2.426   3.734   4.804  0.5761 -0.3101  0.2518
 4999SOL     OW26632   4.360   1.136   3.143  0.2457  0.4535 -0.7587
 4999SOL    HW126633   4.439   1.082   3.148 -0.8090 -1.0239  0.1876
 4999SOL    HW226634   4.387   1.225   3.163  0.9671  0.6916 -2.8246
 5000SOL     OW26635   3.315   1.254   8.161 -0.1406 -0.0703  0.1156
 5000SOL    HW126636   3.280   1.324   8.107 -1.2126 -0.4986  0.2308
 5000SOL    HW226637   3.372   1.301   8.221 -0.0432  1.1163 -0.9352
 5001SOL     OW26638   0.150   0.166   8.680 -0.2909  0.4849 -0.3561
 5001SOL    HW126639   0.208   0.170   8.756 -1.0421 -0.1155  0.2649
 5001SOL    HW226640   0.094   0.242   8.697  1.3188  1.7389 -0.6545
 5002SOL     OW26641   2.252   1.743  15.665  0.4647 -0.5642 -0.2329
 5002SOL    HW126642   2.318   1.782  15.722  0.6827 -1.7026  0.2834
 5002SOL    HW226643   2.220   1.664  15.707 -2.6837  0.5398 -0.4987
 5003SOL     OW26644   3.799   4.097   7.017  0.5798  0.5597  0.0472
 5003SOL    HW126645   3.759   4.086   7.103 -0.2066  1.9027 -0.1458
 5003SOL    HW226646   3.757   4.181   6.997 -2.0097 -0.8679 -0.5186
 5004SOL     OW26647   1.388   4.458   9.379 -0.2736  0.3137  0.3383
 5004SOL    HW126648   1.449   4.492   9.444  1.7549 -2.5802 -0.0741
 5004SOL    HW226649   1.446   4.439   9.306 -0.4930  1.3466 -0.1019
 5005SOL     OW26650   2.999   3.710  17.645  0.5169 -0.0925  0.0638
 5005SOL    HW126651   3.012   3.755  17.561 -0.0374 -0.3331 -0.1458
 5005SOL    HW226652   2.956   3.771  17.704  0.4387  1.6453 -1.7866
 5006SOL     OW26653   4.259   4.293   7.256 -0.3760  0.4859  0.2224
 5006SOL    HW126654   4.263   4.209   7.211  1.7029  0.2233  0.8960
 5006SOL    HW226655   4.164   4.308   7.256 -0.2105  1.5565  0.2157
 5007SOL     OW26656   0.422   4.169  13.975  0.7962 -0.1066  0.0425
 5007SOL    HW126657   0.453   4.201  13.891 -1.4660 -1.1373 -1.1955
 5007SOL    HW226658   0.332   4.146  13.950  0.2835 -1.3437  2.9476
 5008SOL     OW26659   0.121   0.655   9.503 -0.0026  0.1958  0.5056
 5008SOL    HW126660   0.065   0.578   9.489 -0.3263  0.7809 -1.4140
 5008SOL    HW226661   0.119   0.693   9.415 -2.5559 -0.8618  0.0769
 5009SOL     OW26662   0.046   0.611   5.177 -0.1858 -0.0085 -0.1879
 5009SOL    HW126663   0.096   0.624   5.258  0.0092 -2.2830  0.0464
 5009SOL    HW226664   4.733   0.537   5.211  0.8309  0.0444  1.3893
 5010SOL     OW26665   1.730   2.989   4.350 -0.3001  0.2283  0.2327
 5010SOL    HW126666   1.659   3.037   4.309 -0.1355 -0.1090 -0.4452
 5010SOL    HW226667   1.768   2.933   4.282 -0.4622  1.7860 -1.1221
 5011SOL     OW26668   3.687   0.318  12.770  0.2359 -0.1884  0.2920
 5011SOL    HW126669   3.685   0.387  12.836 -0.4162  0.4544 -0.3960
 5011SOL    HW226670   3.714   0.260  12.841  0.1550 -3.1744 -2.1224
 5012SOL     OW26671   0.381   1.794   7.619  0.4468  0.0319 -0.6673
 5012SOL    HW126672   0.317   1.817   7.551 -1.2776  1.1964  1.3520
 5012SOL    HW226673   0.394   1.863   7.683  0.8788  0.4816 -1.2369
 5013SOL     OW26674   0.571   0.158   4.218 -0.2533 -0.1088  0.4188
 5013SOL    HW126675   0.545   0.235   4.269  1.1233 -0.0736  1.0721
 5013SOL    HW226676   0.513   0.168   4.143  0.1626  0.1874  0.1317
 5014SOL     OW26677   2.959   2.230   5.328 -0.0191  0.0585  0.5068
 5014SOL    HW126678   2.920   2.314   5.349 -0.5843  0.6823 -3.0548
 5014SOL    HW226679   2.891   2.162   5.335 -0.0425  0.1721  1.3950
 5015SOL     OW26680   3.832   3.736   5.270 -0.1414 -0.5514 -0.8545
 5015SOL    HW126681   3.888   3.662   5.293 -0.9085 -1.0081 -0.4623
 5015SOL    HW226682   3.795   3.700   5.190 -0.1643  1.4238 -1.7372
 5016SOL     OW26683   0.807   0.816  11.045 -0.3374 -0.0651  0.4419
 5016SOL    HW126684   0.798   0.740  11.102  1.5439  0.8398  1.9438
 5016SOL    HW226685   0.746   0.787  10.978 -0.2882  0.9024 -0.0263
 5017SOL     OW26686   1.382   0.653   7.894  0.4439  0.7079 -0.7055
 5017SOL    HW126687   1.374   0.661   7.989 -2.1868 -0.9934 -0.7654
 5017SOL    HW226688   1.359   0.742   7.870 -2.3432  0.4343  0.9087
 5018SOL     OW26689   3.553   3.990  11.778 -0.5710  0.0347 -0.2335
 5018SOL    HW126690   3.629   4.048  11.778 -1.2273  0.8802  2.1979
 5018SOL    HW226691   3.584   3.921  11.719 -3.7034 -0.3832 -1.4132
 5019SOL     OW26692   3.170   3.141  10.713 -0.1090 -0.8890 -0.5130
 5019SOL    HW126693   3.160   3.225  10.667  0.7497 -0.7411 -0.4347
 5019SOL    HW226694   3.265   3.127  10.709  0.1014  0.3517 -0.0190
 5020SOL     OW26695   3.398   0.373   7.059  0.1547  0.3158 -0.2414
 5020SOL    HW126696   3.343   0.322   7.119  2.3390 -1.2772  0.3943
 5020SOL    HW226697   3.470   0.392   7.119  0.4476 -0.6043 -0.2964
 5021SOL     OW26698   1.547   4.703  15.145 -0.3008  0.1725 -0.4848
 5021SOL    HW126699   1.635   4.722  15.111  1.0864 -2.5857  1.5393
 5021SOL    HW226700   1.494   0.026  15.092  0.1905  1.4176  0.4328
 5022SOL     OW26701   2.522   0.365   3.106  0.1509  0.7392 -0.4608
 5022SOL    HW126702   2.574   0.401   3.034 -0.1378 -1.1631 -1.6415
 5022SOL    HW226703   2.514   0.447   3.155 -2.2943  0.6428 -0.6940
 5023SOL     OW26704   1.632   0.162   3.004 -0.1336 -0.1903  0.2643
 5023SOL    HW126705   1.691   0.192   2.934  0.8685 -1.7216  0.4554
 5023SOL    HW226706   1.653   0.222   3.075 -0.8984  0.4669 -0.0562
 5024SOL     OW26707   4.039   3.447  10.572 -0.4839 -0.2571  0.3225
 5024SOL    HW126708   4.034   3.379  10.505  0.4578 -1.3834  1.4188
 5024SOL    HW226709   4.022   3.522  10.514 -1.3812 -0.9983 -0.3833
 5025SOL     OW26710   0.754   4.394   0.926 -0.2502  0.1708 -0.6512
 5025SOL    HW126711   0.772   4.300   0.937 -0.3807  0.2324  0.0797
 5025SOL    HW226712   0.675   4.403   0.978 -0.2856 -1.5728 -0.3939
 5026SOL     OW26713   3.128   1.360  12.088 -0.0459 -0.6281  0.2050
 5026SOL    HW126714   3.168   1.281  12.126  1.0377  0.2139  0.8196
 5026SOL    HW226715   3.118   1.416  12.165  0.6735 -0.4552  0.1736
 5027SOL     OW26716   0.313   0.917   9.580 -0.4925  0.0513 -0.5349
 5027SOL    HW126717   0.282   0.933   9.491  0.2947  0.3232 -0.7570
 5027SOL    HW226718   0.357   0.833   9.570 -1.0846 -0.2840 -0.2906
 5028SOL     OW26719   3.435   2.317  17.005 -0.1721  0.0094 -0.2437
 5028SOL    HW126720   3.428   2.334  17.099 -0.3862 -0.1876 -0.2214
 5028SOL    HW226721   3.385   2.235  17.007  0.6627 -0.5013 -0.3666
 5029SOL     OW26722   3.549   1.954   6.456  0.6836  0.1780 -0.1064
 5029SOL    HW126723   3.617   1.981   6.519  0.4019  0.2481  0.1658
 5029SOL    HW226724   3.465   1.979   6.495  1.4989  2.0689  0.4588
 5030SOL     OW26725   3.578   2.101  12.274 -0.1498  0.6190  0.2812
 5030SOL    HW126726   3.598   2.154  12.351  0.5989  0.3564  0.2747
 5030SOL    HW226727   3.594   2.019  12.321 -0.8103  0.8161  0.8460
 5031SOL     OW26728   1.003   3.926  10.873 -0.0112  0.4826 -0.1072
 5031SOL    HW126729   1.079   3.874  10.848  0.5053  0.2417  1.9526
 5031SOL    HW226730   0.945   3.849  10.870  2.6188 -1.4521 -1.0505
 5032SOL     OW26731   0.380   0.281   2.393 -0.1326 -0.2895 -0.0790
 5032SOL    HW126732   0.287   0.270   2.410 -0.0400 -0.7806  0.0973
 5032SOL    HW226733   0.385   0.305   2.300  0.2529  1.8230  0.4721
 5033SOL     OW26734   4.580   2.155   8.734  0.4146  0.1633  0.6104
 5033SOL    HW126735   4.554   2.247   8.729  2.6864  0.7715 -0.0356
 5033SOL    HW226736   4.668   2.166   8.698  0.5994 -1.9327  0.3878
 5034SOL     OW26737   4.643   4.043  14.347  0.3836  0.3124 -0.1492
 5034SOL    HW126738   4.549   4.023  14.351  0.1023  1.4204 -1.3507
 5034SOL    HW226739   4.658   4.026  14.440 -5.2723  1.1576  0.9566
 5035SOL     OW26740   3.380   2.602   4.049  0.1047  0.3276  0.2257
 5035SOL    HW126741   3.358   2.540   3.980  0.4360 -1.4023  1.6729
 5035SOL    HW226742   3.334   2.560   4.122 -0.5868 -0.0891 -0.4540
 5036SOL     OW26743   2.739   1.970   8.075  0.2370 -0.5262 -0.2948
 5036SOL    HW126744   2.773   2.045   8.123 -2.4699  1.4924 -1.5570
 5036SOL    HW226745   2.790   1.983   7.996  1.7923  1.3979  1.0423
 5037SOL     OW26746   1.076   3.779   6.913  0.4302  0.0832 -0.8681
 5037SOL    HW126747   1.111   3.742   6.832  1.1372  1.6665 -1.2842
 5037SOL    HW226748   0.999   3.826   6.882  1.2198 -0.2910 -3.3906
 5038SOL     OW26749   0.117   3.281  17.716 -0.7908  0.3002 -0.2514
 5038SOL    HW126750   0.167   3.291  17.636  0.2327  1.7370  0.5789
 5038SOL    HW226751   0.040   3.337  17.714 -1.1704 -0.2403 -0.8356
 5039SOL     OW26752   1.689   1.015   8.993 -0.5534 -0.1041 -0.0451
 5039SOL    HW126753   1.702   1.049   9.081  2.3182 -1.7039  0.1451
 5039SOL    HW226754   1.622   1.079   8.971 -0.3221 -0.0653 -0.6527
 5040SOL     OW26755   2.551   1.297   5.705 -0.2511 -0.4440 -0.4891
 5040SOL    HW126756   2.573   1.347   5.626  1.1117  1.3096  0.9967
 5040SOL    HW226757   2.596   1.214   5.688 -1.9256 -1.2069 -1.1132
 5041SOL     OW26758   1.085   3.375   7.777  0.5748 -0.1316  0.9508
 5041SOL    HW126759   1.125   3.389   7.691 -1.0519  0.0470  0.2141
 5041SOL    HW226760   1.003   3.351   7.733  2.1101 -2.0107 -0.8883
 5042SOL     OW26761   4.447   2.181   0.339  0.5990  0.1520  0.3208
 5042SOL    HW126762   4.379   2.246   0.319  0.5781 -0.1604 -0.6641
 5042SOL    HW226763   4.473   2.208   0.426  0.8036  0.5748  0.1256
 5043SOL     OW26764   4.510   3.744  17.247 -0.5093 -0.1473 -0.3358
 5043SOL    HW126765   4.597   3.703  17.254 -1.4390 -2.2667 -1.3515
 5043SOL    HW226766   4.510   3.785  17.160 -0.4301 -0.0213 -0.2772
 5044SOL     OW26767   3.753   2.201   9.031 -0.9035 -0.4231  0.1481
 5044SOL    HW126768   3.672   2.168   9.071 -0.7492 -1.2197 -0.2076
 5044SOL    HW226769   3.819   2.144   9.070  0.7865  3.1023  2.5318
 5045SOL     OW26770   4.069   4.609  16.557  0.2686 -0.0320  0.1930
 5045SOL    HW126771   4.004   4.570  16.498 -1.2169  0.7282  1.3020
 5045SOL    HW226772   4.141   4.627  16.497 -2.5220  1.8925 -2.5808
 5046SOL     OW26773   3.842   2.334  11.209 -0.0925  0.8358 -0.3744
 5046SOL    HW126774   3.800   2.253  11.237 -0.1270  0.9349 -0.1356
 5046SOL    HW226775   3.801   2.406  11.258  0.7857  0.9708  0.1697
 5047SOL     OW26776   1.602   4.128   4.375 -0.2625  0.1881  0.0240
 5047SOL    HW126777   1.654   4.048   4.363  0.4042  0.6725 -0.2855
 5047SOL    HW226778   1.644   4.154   4.457 -0.2379  0.2411 -0.0058
 5048SOL     OW26779   3.053   1.853  10.305 -0.2870 -0.7647  0.2467
 5048SOL    HW126780   3.131   1.866  10.252 -0.1483  0.0643  0.6553
 5048SOL    HW226781   3.030   1.944  10.324  2.1568  0.3685 -2.2933
 5049SOL     OW26782   0.250   2.336   1.685  0.2966  0.3544  0.4786
 5049SOL    HW126783   0.330   2.383   1.659  0.8063 -1.8935 -2.0000
 5049SOL    HW226784   0.279   2.256   1.730 -0.4587  0.3549  0.9586
 5050SOL     OW26785   0.466   0.994   6.206 -0.7507  0.4071  0.6837
 5050SOL    HW126786   0.446   0.952   6.290 -0.0233 -2.3657 -0.5336
 5050SOL    HW226787   0.530   0.930   6.176 -0.0847  1.2793  0.2649
 5051SOL     OW26788   2.888   3.276  15.377 -0.8999  0.1646 -0.0091
 5051SOL    HW126789   2.894   3.312  15.466 -0.2080  1.8448 -0.7300
 5051SOL    HW226790   2.891   3.182  15.395 -2.3254 -0.3913 -2.7354
 5052SOL     OW26791   0.030   1.905   0.498  0.2465  0.1065  0.3594
 5052SOL    HW126792   4.689   1.872   0.543 -0.2329  0.3333 -0.3049
 5052SOL    HW226793   0.089   1.904   0.573  0.4030  2.0923  0.2630
 5053SOL     OW26794   2.065   4.381  11.273 -0.1296 -0.1270 -0.2265
 5053SOL    HW126795   2.135   4.394  11.336  0.1522 -0.6949 -0.4223
 5053SOL    HW226796   2.049   4.287  11.261 -0.2189  0.0063 -1.1553
 5054SOL     OW26797   1.637   1.256  15.038  0.5335 -0.2795 -0.3370
 5054SOL    HW126798   1.658   1.169  15.003  0.8074 -0.3485  0.0028
 5054SOL    HW226799   1.684   1.312  14.975 -0.0214 -3.0088 -3.1914
 5055SOL     OW26800   4.478   4.258   6.134  0.2342  0.4196 -0.5803
 5055SOL    HW126801   4.482   4.340   6.086 -1.4793  1.0695  0.4053
 5055SOL    HW226802   4.400   4.275   6.187  1.4126  2.1019  0.6040
 5056SOL     OW26803   0.795   3.443   8.030 -0.6874  0.3058  0.4336
 5056SOL    HW126804   0.880   3.461   7.991 -0.9388  0.3070 -0.1073
 5056SOL    HW226805   0.797   3.354   8.066  0.5256  0.1498 -0.0413
 5057SOL     OW26806   0.896   1.309   2.280  0.6825  0.4231  0.6761
 5057SOL    HW126807   0.957   1.304   2.354  0.2032 -0.6650  1.0047
 5057SOL    HW226808   0.877   1.216   2.272 -0.3987  0.8759 -1.9127
 5058SOL     OW26809   1.356   1.706   8.867 -0.2108 -0.4742 -0.4734
 5058SOL    HW126810   1.356   1.710   8.963  1.5284  3.6515 -0.6532
 5058SOL    HW226811   1.282   1.760   8.839 -0.0200  0.0236 -0.0246
 5059SOL     OW26812   0.568   3.837   8.396 -0.7728 -0.0407 -0.1756
 5059SOL    HW126813   0.531   3.908   8.343 -1.7907 -1.3875 -1.2396
 5059SOL    HW226814   0.626   3.806   8.327 -2.0721  1.2239 -1.8319
 5060SOL     OW26815   4.336   2.069  11.809 -0.2149 -0.2027  0.0494
 5060SOL    HW126816   4.279   2.064  11.886 -0.4958 -1.2411 -0.2290
 5060SOL    HW226817   4.418   2.109  11.839 -2.0669  2.4790  1.4843
 5061SOL     OW26818   2.392   2.121   1.667  0.0091  0.3825 -0.9762
 5061SOL    HW126819   2.482   2.105   1.638 -0.4924 -2.6634 -0.7496
 5061SOL    HW226820   2.347   2.085   1.591  0.7081 -0.0040 -1.2067
 5062SOL     OW26821   1.222   2.468   6.044 -0.2278 -0.0700  0.1185
 5062SOL    HW126822   1.184   2.380   6.041  0.0969 -0.3172  3.7397
 5062SOL    HW226823   1.285   2.467   5.972  1.5169  1.8950  1.6416
 5063SOL     OW26824   2.863   1.244   1.742  0.7105 -0.3384 -0.4530
 5063SOL    HW126825   2.904   1.269   1.659  0.9681  0.7070 -0.0175
 5063SOL    HW226826   2.936   1.217   1.799  0.7734 -1.8998 -1.2836
 5064SOL     OW26827   4.019   4.274   6.423 -1.0424  0.1384 -0.3442
 5064SOL    HW126828   4.090   4.276   6.358 -1.7993 -1.0511 -1.2073
 5064SOL    HW226829   3.974   4.192   6.407  0.0469 -0.1781 -1.8388
 5065SOL     OW26830   2.696   3.735   2.214  0.2605  0.2658  0.3486
 5065SOL    HW126831   2.639   3.747   2.290  2.2103  0.9288  1.6924
 5065SOL    HW226832   2.709   3.642   2.236 -1.5284  0.1529  0.9536
 5066SOL     OW26833   0.403   0.364   9.534  0.0511 -0.1135  0.3112
 5066SOL    HW126834   0.402   0.417   9.454 -1.9205 -1.0368 -0.2903
 5066SOL    HW226835   0.495   0.350   9.557 -0.5429  0.2943  2.9416
 5067SOL     OW26836   2.245   1.004   6.017 -0.0025  0.3122 -0.3556
 5067SOL    HW126837   2.206   1.082   5.976 -2.4046 -1.9856 -2.4136
 5067SOL    HW226838   2.238   0.947   5.941 -0.2915  1.5214 -1.2376
 5068SOL     OW26839   0.949   1.307   2.938  0.1752 -0.1002 -0.1219
 5068SOL    HW126840   1.024   1.360   2.913  1.5059 -1.2529  1.4793
 5068SOL    HW226841   0.926   1.346   3.022 -2.2977  1.7466 -1.6422
 5069SOL     OW26842   3.076   1.732   1.727  0.8317  0.5844  0.4455
 5069SOL    HW126843   3.039   1.661   1.779 -2.6168  2.1302  0.1259
 5069SOL    HW226844   3.126   1.681   1.663 -1.6631  0.2542 -1.2559
 5070SOL     OW26845   1.363   4.040   9.324 -0.1246 -0.0536 -0.4060
 5070SOL    HW126846   1.388   4.104   9.259 -1.5281  2.7294  1.8054
 5070SOL    HW226847   1.440   3.985   9.339  0.4334  0.4024 -1.6468
 5071SOL     OW26848   1.369   2.390   0.847  0.1481 -0.0440 -0.2589
 5071SOL    HW126849   1.310   2.322   0.816 -0.4985  0.6245 -0.5023
 5071SOL    HW226850   1.317   2.437   0.913  1.7127  0.5066  0.5846
 5072SOL     OW26851   0.912   1.427   3.390  0.3753 -0.2167 -0.4898
 5072SOL    HW126852   0.896   1.333   3.404  1.4262  0.0438  2.4064
 5072SOL    HW226853   0.934   1.463   3.476 -1.4748 -1.4482  0.5173
 5073SOL     OW26854   4.661   2.286   6.684 -0.0934 -0.5585  0.0928
 5073SOL    HW126855   4.601   2.326   6.747  0.4513 -0.6861  0.6901
 5073SOL    HW226856   0.010   2.318   6.714  0.6263 -2.0502 -0.3949
 5074SOL     OW26857   3.437   4.188   2.974  0.4835  1.0224  0.1227
 5074SOL    HW126858   3.509   4.148   3.023  0.6612  0.9780 -0.1758
 5074SOL    HW226859   3.445   4.160   2.883 -0.0690  1.9273 -0.2045
 5075SOL     OW26860   1.803   2.051   8.349  0.3206 -0.1041  0.3737
 5075SOL    HW126861   1.744   2.097   8.408 -0.3261 -2.1217  1.3103
 5075SOL    HW226862   1.830   1.974   8.399 -0.9395 -1.7961 -1.5618
 5076SOL     OW26863   0.013   3.455   5.271  0.4022 -0.1422  0.1989
 5076SOL    HW126864   0.070   3.446   5.347  1.3406 -2.1113 -0.7406
 5076SOL    HW226865   0.048   3.531   5.225  0.3988  0.5128  1.2932
 5077SOL     OW26866   2.668   4.288   6.998  0.3057 -0.1197  0.3426
 5077SOL    HW126867   2.698   4.310   7.086 -0.9486  0.7224  0.5493
 5077SOL    HW226868   2.583   4.248   7.015  0.2929 -0.0581  0.4215
 5078SOL     OW26869   1.449   3.025   4.256 -0.5190 -0.0474  0.7336
 5078SOL    HW126870   1.433   2.963   4.184  2.1903  0.2691 -0.1681
 5078SOL    HW226871   1.398   2.989   4.328 -0.7350 -0.3224  0.4462
 5079SOL     OW26872   3.318   0.953  17.251 -0.7103  0.3125 -0.3751
 5079SOL    HW126873   3.291   0.862  17.257  1.9139 -0.3029  1.6983
 5079SOL    HW226874   3.352   0.967  17.339  0.6070  0.3203 -0.8838
 5080SOL     OW26875   2.200   1.463  11.980 -0.2813  0.1931  0.2741
 5080SOL    HW126876   2.234   1.380  12.016 -0.2896 -0.4027 -1.1034
 5080SOL    HW226877   2.281   1.513  11.985  0.1289 -0.3997 -0.3491
 5081SOL     OW26878   2.003   2.130   1.440 -0.8345 -0.2317  0.1599
 5081SOL    HW126879   2.015   2.091   1.526  2.9263  0.2789 -0.1454
 5081SOL    HW226880   2.065   2.203   1.443  0.2966 -1.2123  0.1945
 5082SOL     OW26881   2.570   2.081   7.705  0.5638 -0.2619  0.1780
 5082SOL    HW126882   2.492   2.065   7.758 -2.8918  1.3583 -4.3414
 5082SOL    HW226883   2.623   2.131   7.767 -1.3571  3.1629 -0.8937
 5083SOL     OW26884   3.078   1.492   1.884  0.4711  0.4586 -0.1388
 5083SOL    HW126885   3.163   1.523   1.916  0.9949 -0.2166 -0.9027
 5083SOL    HW226886   3.104   1.408   1.847  0.7563  0.1831  0.6784
 5084SOL     OW26887   1.188   4.550   9.963 -0.4641 -1.0797 -0.2714
 5084SOL    HW126888   1.263   4.560   9.904 -0.0063 -3.3354 -0.0677
 5084SOL    HW226889   1.238   4.591  10.034 -0.0135 -0.1126 -1.1458
 5085SOL     OW26890   4.081   0.354   1.365  0.0080  0.1310  0.0355
 5085SOL    HW126891   4.154   0.350   1.426 -0.6461  0.3670  0.8190
 5085SOL    HW226892   4.033   0.428   1.401  2.0974  1.6004 -0.1859
 5086SOL     OW26893   4.457   4.322  12.752  0.0665  0.2866  0.0142
 5086SOL    HW126894   4.549   4.299  12.759  0.6866  2.0924 -2.1221
 5086SOL    HW226895   4.429   4.248  12.698 -1.2274 -0.7020  1.9972
 5087SOL     OW26896   3.813   2.477   4.504  0.0545  0.4273 -0.8375
 5087SOL    HW126897   3.751   2.412   4.536  1.1132 -1.2084 -2.0871
 5087SOL    HW226898   3.877   2.485   4.575 -1.5579 -1.6749  0.8339
 5088SOL     OW26899   3.437   1.602   6.367 -0.1625 -0.0481  0.1681
 5088SOL    HW126900   3.494   1.527   6.387 -0.6640 -0.6639 -0.6979
 5088SOL    HW226901   3.497   1.668   6.334  1.1927 -0.4634  1.7782
 5089SOL     OW26902   4.684   1.978   7.381 -0.5954 -0.5036  0.3597
 5089SOL    HW126903   4.631   1.899   7.393  0.4796 -1.0761  1.4531
 5089SOL    HW226904   4.650   2.005   7.296  2.2952  0.8580 -0.3576
 5090SOL     OW26905   0.180   4.004  15.700  0.1513 -0.0700 -0.7767
 5090SOL    HW126906   0.193   4.091  15.739 -1.2281 -0.4185  0.4632
 5090SOL    HW226907   0.259   3.956  15.727 -0.2644 -0.7666 -0.7993
 5091SOL     OW26908   0.366   3.378   8.644  0.2309  0.3461 -0.7366
 5091SOL    HW126909   0.395   3.403   8.556  0.1162 -0.9756 -1.1451
 5091SOL    HW226910   0.271   3.386   8.644  0.1232 -0.9445 -0.4370
 5092SOL     OW26911   2.014   3.417  14.208  0.1105 -0.7759  0.1973
 5092SOL    HW126912   2.085   3.362  14.175 -1.3718 -1.9864 -0.9340
 5092SOL    HW226913   1.990   3.443  14.119  1.1775  2.4941  0.8678
 5093SOL     OW26914   3.969   1.602   5.522 -0.3044 -0.1458  0.3362
 5093SOL    HW126915   3.924   1.553   5.591  0.1573  0.8253  1.3201
 5093SOL    HW226916   4.002   1.670   5.581  1.3989 -0.1064 -0.6599
 5094SOL     OW26917   2.446   4.336  10.640 -0.3051  0.1742 -0.6880
 5094SOL    HW126918   2.365   4.380  10.668 -0.7824  0.1776 -2.0695
 5094SOL    HW226919   2.461   4.277  10.714 -1.5933  0.7874  0.0645
 5095SOL     OW26920   4.483   1.240   1.681 -0.0394 -0.2037  0.3419
 5095SOL    HW126921   4.388   1.234   1.680 -0.2698  3.1269  2.0122
 5095SOL    HW226922   4.490   1.308   1.748  0.2313  0.4150 -0.3267
 5096SOL     OW26923   0.707   2.759  15.203 -0.2290  0.1415 -0.7079
 5096SOL    HW126924   0.670   2.823  15.141  0.5699  0.6754 -0.6308
 5096SOL    HW226925   0.678   2.793  15.287  2.2290  0.1776  0.1287
 5097SOL     OW26926   1.131   2.897  10.280  0.2019  0.0270 -0.3944
 5097SOL    HW126927   1.080   2.978  10.270 -0.4070 -0.3008  0.0500
 5097SOL    HW226928   1.138   2.867  10.189  0.5788 -2.5394  0.4825
 5098SOL     OW26929   3.951   1.402  13.263  0.1208 -0.2135  0.2991
 5098SOL    HW126930   3.957   1.387  13.168 -2.7759 -1.7545  0.3408
 5098SOL    HW226931   3.998   1.484  13.272 -0.1675  0.0836 -0.8606
 5099SOL     OW26932   0.708   3.347   9.835 -0.0582  0.3366  0.9099
 5099SOL    HW126933   0.630   3.374   9.786 -0.6784 -1.4015  0.9087
 5099SOL    HW226934   0.787   3.374   9.789 -0.0259 -0.8146  0.2665
 5100SOL     OW26935   4.007   0.267  15.662  0.2363  0.4561 -0.0326
 5100SOL    HW126936   4.025   0.275  15.756 -0.2812 -1.2046  0.2182
 5100SOL    HW226937   4.090   0.299  15.627 -0.4630  2.9613  0.5838
 5101SOL     OW26938   4.044   3.862  16.406  0.7842 -0.3566  0.1263
 5101SOL    HW126939   4.003   3.842  16.491  2.1096  1.1905  1.1350
 5101SOL    HW226940   4.080   3.947  16.431 -0.0584  0.7424 -2.4198
 5102SOL     OW26941   0.358   4.514   1.922 -0.8637  0.6068  0.2246
 5102SOL    HW126942   0.322   4.591   1.878  1.5382  2.0090  0.7282
 5102SOL    HW226943   0.341   4.519   2.016  1.0554  0.2478  0.5893
 5103SOL     OW26944   0.231   4.703   4.504  0.0576  0.2014 -0.5275
 5103SOL    HW126945   0.141   4.709   4.472 -0.0254  1.5700 -0.0162
 5103SOL    HW226946   0.249   4.619   4.461 -1.2179  0.0408 -0.7497
 5104SOL     OW26947   1.350   3.983   6.480  0.2494 -0.4199 -0.1631
 5104SOL    HW126948   1.280   3.927   6.515 -0.0516 -0.9086 -1.5754
 5104SOL    HW226949   1.300   4.053   6.440  0.4515  0.3151  0.8539
 5105SOL     OW26950   4.076   2.367   4.199  0.4567  0.1054 -0.0081
 5105SOL    HW126951   4.027   2.441   4.164 -0.7315 -0.3724  0.6083
 5105SOL    HW226952   4.100   2.395   4.287  0.9309 -1.0319  0.2296
 5106SOL     OW26953   0.326   0.857   4.961 -0.2764 -0.9258 -0.5645
 5106SOL    HW126954   0.276   0.915   5.018  2.6173  0.5056  0.5487
 5106SOL    HW226955   0.293   0.892   4.878  2.2591  0.6374 -0.9450
 5107SOL     OW26956   2.084   2.730  15.632  0.4985  0.2311  0.1183
 5107SOL    HW126957   2.054   2.812  15.673 -1.1887 -0.1860 -0.2644
 5107SOL    HW226958   2.158   2.757  15.579 -0.1438  0.3002 -0.7449
 5108SOL     OW26959   4.725   4.041   1.716 -0.3086  0.0083  0.4620
 5108SOL    HW126960   4.694   4.116   1.665  1.4623  0.6929  0.3949
 5108SOL    HW226961   4.693   4.061   1.804  0.8065 -1.2346  1.1611
 5109SOL     OW26962   1.898   1.772   4.523  0.2557 -0.1629  1.1048
 5109SOL    HW126963   1.960   1.713   4.565 -2.3098 -3.0700  0.8141
 5109SOL    HW226964   1.958   1.838   4.488  0.3178  1.0978  3.5701
 5110SOL     OW26965   4.236   0.210   4.120 -0.9127 -0.1776  0.3224
 5110SOL    HW126966   4.226   0.146   4.050  1.6407 -1.0104  0.7378
 5110SOL    HW226967   4.314   0.197   4.174 -0.4094  0.5378 -0.2368
 5111SOL     OW26968   2.102   4.301  17.309 -0.4919  0.3730 -0.4870
 5111SOL    HW126969   2.153   4.222  17.294 -0.6152  0.0476  0.8582
 5111SOL    HW226970   2.047   4.272  17.382  1.9410  0.5581  1.4082
 5112SOL     OW26971   1.230   2.019  11.570  0.4367 -0.3074 -0.0080
 5112SOL    HW126972   1.202   2.010  11.479  3.6086 -1.8573 -0.8311
 5112SOL    HW226973   1.279   2.101  11.577 -3.5108  2.0182  0.1612
 5113SOL     OW26974   3.233   0.814   8.766 -0.3437  0.4808  0.7115
 5113SOL    HW126975   3.318   0.771   8.754 -0.3322  1.0414 -1.2690
 5113SOL    HW226976   3.165   0.754   8.736 -0.8780  0.5707  1.7599
 5114SOL     OW26977   2.413   0.799  11.420  0.1657  0.6708  0.1115
 5114SOL    HW126978   2.431   0.892  11.427  0.2636  0.7417 -1.0614
 5114SOL    HW226979   2.441   0.773  11.508 -0.8227  0.0148  0.2334
 5115SOL     OW26980   0.444   2.507  14.870  0.2600 -0.5901 -0.1515
 5115SOL    HW126981   0.427   2.562  14.946  1.1899 -1.5060  0.7229
 5115SOL    HW226982   0.369   2.449  14.882 -0.1234  0.1277  0.9014
 5116SOL     OW26983   1.983   3.731  16.266  0.3786 -0.1116  0.8191
 5116SOL    HW126984   1.911   3.724  16.204  0.6238 -1.4641  0.6844
 5116SOL    HW226985   2.048   3.701  16.202 -1.4339 -1.0991 -0.5360
 5117SOL     OW26986   0.032   3.922   3.894  0.0083 -0.1348 -0.6714
 5117SOL    HW126987   4.690   3.953   3.941  0.4758 -0.8302  0.5902
 5117SOL    HW226988   0.054   3.839   3.937  0.1372 -1.0768 -2.5536
 5118SOL     OW26989   0.360   2.617   9.483  0.9035 -0.3840  0.3259
 5118SOL    HW126990   0.338   2.710   9.479 -0.2760 -0.6948 -0.2093
 5118SOL    HW226991   0.286   2.586   9.431  2.0832 -0.8607 -1.0710
 5119SOL     OW26992   0.415   0.880  16.779  0.0115  0.1079  0.1133
 5119SOL    HW126993   0.420   0.824  16.703  1.1718  0.0095  0.2617
 5119SOL    HW226994   0.334   0.853  16.822  0.1656 -1.6861 -0.7488
 5120SOL     OW26995   0.597   0.494  13.758 -0.3196 -0.0978 -0.2088
 5120SOL    HW126996   0.663   0.540  13.811 -0.2453  0.5237 -0.8529
 5120SOL    HW226997   0.614   0.403  13.782  0.4176  0.1506  0.2075
 5121SOL     OW26998   2.467   2.136   3.412 -0.2434 -0.3683 -0.2159
 5121SOL    HW126999   2.536   2.188   3.371  0.7949 -1.8573 -0.3384
 5121SOL    HW227000   2.500   2.048   3.391 -0.6494 -0.0966 -2.0504
 5122SOL     OW27001   1.864   0.003   6.450 -0.7273 -0.1161  0.7063
 5122SOL    HW127002   1.813   0.020   6.371  0.9689  0.1198 -0.3575
 5122SOL    HW227003   1.804   4.688   6.503 -0.7766  1.9375  2.6454
 5123SOL     OW27004   3.118   1.190   7.742  0.4380 -0.3080 -0.2421
 5123SOL    HW127005   3.074   1.160   7.822 -0.1905  0.3888 -0.3152
 5123SOL    HW227006   3.102   1.111   7.690 -0.3262 -1.3174  1.5184
 5124SOL     OW27007   1.057   2.081   3.360  0.2614  0.2867 -0.8894
 5124SOL    HW127008   0.963   2.099   3.358  0.2825  0.7245  1.2165
 5124SOL    HW227009   1.063   1.999   3.312 -1.6212 -0.0585 -0.5229
 5125SOL     OW27010   4.591   1.578  11.469  0.3354  0.5496 -0.0811
 5125SOL    HW127011   4.551   1.626  11.542  0.3355 -1.0628  0.9741
 5125SOL    HW227012   4.662   1.635  11.436  2.1743 -1.2022  0.8391
 5126SOL     OW27013   1.659   1.300  11.339  0.3564 -0.4043 -0.1919
 5126SOL    HW127014   1.731   1.362  11.324 -0.5558 -0.2021 -3.7127
 5126SOL    HW227015   1.629   1.333  11.424 -0.1990 -0.1733 -0.4764
 5127SOL     OW27016   3.254   4.725   3.712 -0.3135  0.0457 -0.7916
 5127SOL    HW127017   3.173   0.004   3.663 -1.8685 -0.8611  1.4698
 5127SOL    HW227018   3.296   0.073   3.697 -1.1701  0.6205  0.0782
 5128SOL     OW27019   1.155   3.007  15.365  0.3096  0.3071 -0.0926
 5128SOL    HW127020   1.206   3.021  15.445 -0.0970 -1.0242  0.3833
 5128SOL    HW227021   1.135   2.914  15.360  0.6906  0.1848  0.7227
 5129SOL     OW27022   3.971   1.642   2.377  0.5078  0.1574  0.3625
 5129SOL    HW127023   3.935   1.553   2.380 -1.3802  0.8633 -1.5424
 5129SOL    HW227024   3.903   1.685   2.326 -0.5873 -0.7225  1.0772
 5130SOL     OW27025   0.922   0.908   3.578  0.6821 -0.5374  0.1481
 5130SOL    HW127026   1.007   0.877   3.548  0.5129 -1.1492  0.3082
 5130SOL    HW227027   0.916   0.868   3.664 -0.3224  0.9999  0.7887
 5131SOL     OW27028   0.751   3.299  15.012 -0.1798  0.2750 -0.0568
 5131SOL    HW127029   0.805   3.289  14.934 -0.5571 -2.7366  0.0926
 5131SOL    HW227030   0.807   3.350  15.071  1.9134  0.1609 -1.9490
 5132SOL     OW27031   3.629   4.177   9.530  0.5384 -0.4337  0.3610
 5132SOL    HW127032   3.567   4.190   9.458  1.8623  1.2131 -0.4693
 5132SOL    HW227033   3.677   4.260   9.527 -1.5821  0.7818  0.0813
 5133SOL     OW27034   2.643   2.697   1.715 -0.4579 -0.2338  0.5094
 5133SOL    HW127035   2.557   2.667   1.744 -2.0977  2.6730 -1.3813
 5133SOL    HW227036   2.687   2.618   1.685  0.2881  0.1535  0.5763
 5134SOL     OW27037   0.974   1.304   1.185 -0.8214 -0.1942  0.5982
 5134SOL    HW127038   0.923   1.319   1.105 -0.3658 -0.5215  0.2412
 5134SOL    HW227039   0.905   1.291   1.249 -2.2996 -0.0096 -0.9745
 5135SOL     OW27040   1.845   0.409   6.038  0.3816  0.4933  1.3293
 5135SOL    HW127041   1.839   0.474   6.109  1.1325  0.1442  1.7123
 5135SOL    HW227042   1.909   0.349   6.075  0.4822 -0.9962 -1.2725
 5136SOL     OW27043   2.529   4.427   4.062  0.4831  0.6706 -0.2638
 5136SOL    HW127044   2.612   4.420   4.013  0.2595  1.9113 -0.8287
 5136SOL    HW227045   2.562   4.474   4.138  1.2692  2.0560 -1.4431
 5137SOL     OW27046   2.846   2.728  17.655 -0.3371  0.4952  0.2192
 5137SOL    HW127047   2.929   2.704  17.615  0.4464  1.8031  1.0549
 5137SOL    HW227048   2.790   2.698  17.584  1.5490 -1.4362 -0.4585
 5138SOL     OW27049   2.770   1.500   5.698 -0.1704 -0.9761 -0.2828
 5138SOL    HW127050   2.786   1.488   5.791 -2.9317 -0.3384  0.2789
 5138SOL    HW227051   2.852   1.541   5.671 -1.4905  0.1636 -2.5371
 5139SOL     OW27052   1.811   3.661   1.494  0.0850  0.3563 -0.2394
 5139SOL    HW127053   1.785   3.594   1.432  0.7654 -1.3521  1.3207
 5139SOL    HW227054   1.802   3.627   1.583  0.0331 -1.1719 -0.8346
 5140SOL     OW27055   2.706   4.368  10.251  0.4704 -0.0781  0.1209
 5140SOL    HW127056   2.735   4.436  10.312 -1.2142 -0.4778  1.3614
 5140SOL    HW227057   2.620   4.340  10.281  0.5092  1.1933  1.4083
 5141SOL     OW27058   4.063   3.225  10.435  0.0594 -0.0618  0.7529
 5141SOL    HW127059   4.020   3.158  10.487  2.6438 -0.6055  2.2194
 5141SOL    HW227060   4.004   3.233  10.360 -0.4884  0.1593  1.2094
 5142SOL     OW27061   0.932   0.244   8.819  0.2633  0.2115  1.0306
 5142SOL    HW127062   0.887   0.219   8.738  1.4114  0.9241  0.1683
 5142SOL    HW227063   1.019   0.274   8.791 -0.6561 -0.0633 -2.0989
 5143SOL     OW27064   1.924   0.101  15.618 -0.1397 -0.1712  0.0736
 5143SOL    HW127065   2.012   0.132  15.597  0.0151 -0.9453 -0.3946
 5143SOL    HW227066   1.892   0.165  15.681  0.6989  0.8893 -0.5813
 5144SOL     OW27067   1.023   1.490  10.308  0.6356  0.0418 -0.5049
 5144SOL    HW127068   1.087   1.434  10.264  0.3535 -0.7710  0.1231
 5144SOL    HW227069   0.971   1.420  10.346 -0.0563  0.6965 -0.2396
 5145SOL     OW27070   2.990   2.340  10.199  0.6354 -0.1573  0.1354
 5145SOL    HW127071   3.047   2.392  10.256 -0.9547 -1.4814  2.9187
 5145SOL    HW227072   2.927   2.410  10.178  0.6684  0.8821  3.6102
 5146SOL     OW27073   2.062   2.060   7.165 -0.5818 -0.0248  0.1757
 5146SOL    HW127074   2.046   2.112   7.086  1.8026  2.0110  1.0370
 5146SOL    HW227075   1.995   2.089   7.227  0.7147 -2.1912  2.5490
 5147SOL     OW27076   4.563   3.296   6.875 -0.2290 -0.1620  0.0324
 5147SOL    HW127077   4.642   3.346   6.895  0.5264 -1.4220  0.2012
 5147SOL    HW227078   4.494   3.350   6.916 -1.6510 -2.3848  0.5511
 5148SOL     OW27079   0.178   2.178   7.024  0.4349 -0.2928 -0.4278
 5148SOL    HW127080   0.241   2.146   7.088 -1.2129  1.2358  1.9299
 5148SOL    HW227081   0.102   2.203   7.076  0.1100  1.2504 -1.6413
 5149SOL     OW27082   2.025   4.633   4.183 -0.2470 -0.0928 -0.4339
 5149SOL    HW127083   2.116   4.608   4.169 -0.3197 -2.1612  2.8219
 5149SOL    HW227084   1.992   4.553   4.224 -0.2833 -0.1900 -0.6494
 5150SOL     OW27085   4.354   2.374   3.037 -0.3566 -0.2624  0.4215
 5150SOL    HW127086   4.260   2.392   3.034 -0.4815 -0.9375  0.2569
 5150SOL    HW227087   4.357   2.309   2.967 -2.8562 -1.0170  1.0214
 5151SOL     OW27088   3.644   0.316   1.815 -0.3699 -0.7724  0.3702
 5151SOL    HW127089   3.609   0.319   1.726  2.4696 -2.0936 -0.7861
 5151SOL    HW227090   3.590   0.251   1.859 -0.9283 -0.9806 -0.6169
 5152SOL     OW27091   3.910   2.539  10.394 -0.2692 -0.3806  0.0251
 5152SOL    HW127092   3.824   2.498  10.400 -1.2397  2.0346  2.5975
 5152SOL    HW227093   3.973   2.469  10.411 -1.8175 -1.1073  2.7313
 5153SOL     OW27094   2.474   2.689   1.318  0.9925 -0.3056 -0.6601
 5153SOL    HW127095   2.484   2.754   1.248 -1.9104 -0.2694 -1.0302
 5153SOL    HW227096   2.462   2.606   1.272  0.3950 -0.8943  0.5538
 5154SOL     OW27097   3.836   2.920   8.991 -0.6501  0.2302 -0.1914
 5154SOL    HW127098   3.753   2.968   8.993 -0.2294  1.0011 -1.2555
 5154SOL    HW227099   3.899   2.982   8.955  0.8236 -2.1107 -1.6748
 5155SOL     OW27100   2.613   0.047   5.813 -0.5071 -0.4789  0.9462
 5155SOL    HW127101   2.671   4.710   5.833 -1.8193 -1.1316  2.3898
 5155SOL    HW227102   2.536   4.731   5.792 -0.3967  0.3182 -1.4167
 5156SOL     OW27103   4.736   0.467   9.886  0.0333  0.4696  0.0822
 5156SOL    HW127104   0.092   0.453   9.868  0.2310  0.8250  0.8396
 5156SOL    HW227105   4.734   0.562   9.875 -2.1613  0.1545 -2.2163
 5157SOL     OW27106   1.282   1.781   3.430  0.9495  0.4980 -0.1096
 5157SOL    HW127107   1.289   1.868   3.469 -1.3345  0.2730  0.8303
 5157SOL    HW227108   1.342   1.735   3.488 -0.4249 -1.9007 -0.5610
 5158SOL     OW27109   4.280   0.036   4.580 -0.4345  0.1579  0.0758
 5158SOL    HW127110   4.214   0.088   4.626  0.8451  1.5493  0.3372
 5158SOL    HW227111   4.323   0.103   4.527  0.7911  0.0966  0.9768
 5159SOL     OW27112   4.110   3.556   5.002  0.2310 -0.0711  0.1360
 5159SOL    HW127113   4.099   3.545   5.097 -0.8124  0.5917  0.0881
 5159SOL    HW227114   4.175   3.486   4.996 -0.1433 -0.6695  2.7733
 5160SOL     OW27115   2.297   3.609   1.348 -0.0064  0.5675  0.4163
 5160SOL    HW127116   2.332   3.546   1.411 -1.9502 -0.1517  0.7821
 5160SOL    HW227117   2.282   3.551   1.272 -2.5416  0.8621  0.7013
 5161SOL     OW27118   0.088   3.371   5.532 -0.2459  0.2337 -0.2534
 5161SOL    HW127119   0.182   3.363   5.514  0.1823 -0.0038  2.0561
 5161SOL    HW227120   0.082   3.343   5.623 -3.0479 -0.8259 -0.7925
 5162SOL     OW27121   3.596   4.296   6.552  0.2294 -0.0709 -0.1730
 5162SOL    HW127122   3.559   4.294   6.640 -1.6399 -0.7507 -0.9707
 5162SOL    HW227123   3.686   4.268   6.567  0.7235  0.9224 -1.3224
 5163SOL     OW27124   4.491   0.523  12.589  0.2015  0.1125  0.2361
 5163SOL    HW127125   4.521   0.608  12.559 -1.7593  0.5573 -0.4556
 5163SOL    HW227126   4.489   0.476  12.506 -1.6475 -0.8689  0.8302
 5164SOL     OW27127   4.091   0.196  10.445 -0.0338 -0.0875  0.5996
 5164SOL    HW127128   3.997   0.181  10.446 -0.1728  1.1070  3.8336
 5164SOL    HW227129   4.115   0.207  10.537 -1.3874  0.1698  0.9176
 5165SOL     OW27130   4.303   1.880   8.447  0.2265 -0.1210 -0.1233
 5165SOL    HW127131   4.286   1.965   8.487 -1.7989  0.8990 -3.1243
 5165SOL    HW227132   4.381   1.859   8.498  2.0234  1.2031 -2.3282
 5166SOL     OW27133   2.832   2.733   0.753 -0.5615  0.6184  0.0728
 5166SOL    HW127134   2.898   2.669   0.726  0.7456  1.7870  0.5089
 5166SOL    HW227135   2.782   2.665   0.799  2.0257  0.4776  2.6944
 5167SOL     OW27136   4.167   3.839   5.268  0.1800 -0.1263  0.1579
 5167SOL    HW127137   4.190   3.806   5.355 -2.5139 -3.0796 -0.2673
 5167SOL    HW227138   4.126   3.765   5.224 -2.6877  1.6054 -0.0209
 5168SOL     OW27139   2.692   0.978  14.443 -0.1480  0.0925  0.2595
 5168SOL    HW127140   2.761   0.976  14.509  0.8319 -1.9388 -0.8236
 5168SOL    HW227141   2.731   0.916  14.380  1.0608  0.4260  0.6917
 5169SOL     OW27142   1.081   3.530   7.994 -0.4338 -0.5048 -0.6255
 5169SOL    HW127143   1.105   3.611   7.948  2.4157  0.9924  3.4795
 5169SOL    HW227144   1.094   3.463   7.927 -1.1203 -1.5579  0.3099
 5170SOL     OW27145   2.495   1.304  14.696 -0.5877  0.0204 -0.1609
 5170SOL    HW127146   2.586   1.327  14.679 -0.1794 -1.9798 -0.7148
 5170SOL    HW227147   2.459   1.392  14.701  0.8316  0.5689  0.1895
 5171SOL     OW27148   3.806   3.084   6.866  0.0594  0.5681  0.5348
 5171SOL    HW127149   3.862   3.158   6.843 -1.2651  0.7744 -2.0867
 5171SOL    HW227150   3.774   3.115   6.951  0.9407 -0.1506  1.1272
 5172SOL     OW27151   3.455   0.132  15.635  0.0251 -0.4975  1.0444
 5172SOL    HW127152   3.432   0.064  15.699 -1.2567 -1.1684 -0.1318
 5172SOL    HW227153   3.528   0.091  15.589  1.0521 -0.1917  2.4066
 5173SOL     OW27154   0.791   1.594  12.746  0.3609  0.1662  0.1361
 5173SOL    HW127155   0.800   1.674  12.798  2.7821  0.1624 -0.3106
 5173SOL    HW227156   0.882   1.586  12.720  0.7975 -1.8985  2.3287
 5174SOL     OW27157   0.022   0.373   6.895 -0.2572  0.0328  0.0593
 5174SOL    HW127158   0.105   0.386   6.849 -0.3574  0.0667 -0.1123
 5174SOL    HW227159   0.006   0.465   6.916  0.8864  0.1550  0.3560
 5175SOL     OW27160   2.405   4.142   8.319  0.1618 -0.2550  0.4134
 5175SOL    HW127161   2.416   4.048   8.304  1.6888  0.2540 -1.8167
 5175SOL    HW227162   2.464   4.147   8.395  1.8053 -2.6722 -0.6712
 5176SOL     OW27163   4.093   3.962   7.949  0.0423  0.4144  0.2289
 5176SOL    HW127164   4.008   3.928   7.921  1.9110 -3.8331 -0.2945
 5176SOL    HW227165   4.139   3.955   7.865 -0.1131  0.9266  0.0978
 5177SOL     OW27166   0.998   3.715   5.534  0.3416 -0.1080  0.2399
 5177SOL    HW127167   0.932   3.784   5.540  1.0016  0.2462  2.8993
 5177SOL    HW227168   1.029   3.746   5.449 -1.3875  2.0356  0.3946
 5178SOL     OW27169   2.201   4.649  12.945  0.2643 -0.2182 -0.2131
 5178SOL    HW127170   2.290   4.683  12.941  0.4639 -0.8402 -1.2626
 5178SOL    HW227171   2.206   4.581  12.877 -1.2624 -0.9227  0.3747
 5179SOL     OW27172   4.018   4.586  10.050 -0.0838  0.0234 -0.0594
 5179SOL    HW127173   4.055   4.623  10.130  0.4758  0.6921 -0.6266
 5179SOL    HW227174   4.104   4.557  10.018 -0.3433 -0.0744 -0.6670
 5180SOL     OW27175   3.107   4.562   3.049  0.4620 -0.2346 -0.3945
 5180SOL    HW127176   3.167   4.524   2.985  1.4088 -1.8776  1.4575
 5180SOL    HW227177   3.032   4.503   3.039 -1.8618  2.1278  2.7853
 5181SOL     OW27178   4.716   0.591  16.422  0.1864 -0.5916  0.1486
 5181SOL    HW127179   0.070   0.565  16.406  0.6463  0.3482  1.2896
 5181SOL    HW227180   4.710   0.526  16.492  2.2646 -2.2335 -1.2257
 5182SOL     OW27181   1.107   2.621  15.967  0.8954  0.4533 -0.4728
 5182SOL    HW127182   1.101   2.526  15.971 -1.0267  0.5297 -1.7400
 5182SOL    HW227183   1.166   2.630  15.893  0.2490  0.6431 -0.9671
 5183SOL     OW27184   3.440   2.086  11.804  0.1981 -0.2074 -0.4534
 5183SOL    HW127185   3.533   2.063  11.803  0.8153  2.1875  1.8866
 5183SOL    HW227186   3.412   2.047  11.887  0.3323 -0.6633 -0.6221
 5184SOL     OW27187   2.071   2.772  14.664 -0.0081  0.1474 -0.1471
 5184SOL    HW127188   2.087   2.744  14.754  0.1751 -0.0547 -0.2424
 5184SOL    HW227189   2.140   2.837  14.656 -0.5311  0.2799 -3.7427
 5185SOL     OW27190   0.405   0.554  17.533 -0.5996 -0.2192 -0.7205
 5185SOL    HW127191   0.351   0.581  17.459 -1.4205 -0.0938 -0.0720
 5185SOL    HW227192   0.489   0.540  17.490  1.1923  0.3185  2.5540
 5186SOL     OW27193   4.482   4.320  13.221  0.2331 -0.3335 -0.5401
 5186SOL    HW127194   4.448   4.408  13.237 -0.4138 -0.7312  0.2587
 5186SOL    HW227195   4.434   4.295  13.142  1.9521  2.5236 -2.4920
 5187SOL     OW27196   3.998   0.991  10.872 -1.0968 -0.2393 -0.0139
 5187SOL    HW127197   3.916   0.942  10.879 -0.9055 -0.7705 -1.3867
 5187SOL    HW227198   3.980   1.027  10.785  0.7035 -1.1667 -0.7772
 5188SOL     OW27199   4.525   1.112  10.254  0.0055  0.3852 -0.5957
 5188SOL    HW127200   4.535   1.020  10.228 -3.4083 -0.2474  0.4115
 5188SOL    HW227201   4.435   1.098  10.282 -0.3739  1.0021 -1.4979
 5189SOL     OW27202   1.939   1.168  16.301  0.4297 -0.5287  0.2110
 5189SOL    HW127203   2.012   1.143  16.358  1.3799 -0.6124 -1.0479
 5189SOL    HW227204   1.912   1.250  16.344  2.3816  0.0728  0.2836
 5190SOL     OW27205   2.561   2.522   3.789 -0.0474  0.3228 -0.3112
 5190SOL    HW127206   2.472   2.553   3.772  0.0439  1.1136  0.6444
 5190SOL    HW227207   2.583   2.576   3.864 -2.0718  0.6078  0.0904
 5191SOL     OW27208   3.478   1.409  12.153 -0.3334  0.5331  0.8330
 5191SOL    HW127209   3.514   1.373  12.235  2.4463 -0.3118 -0.7744
 5191SOL    HW227210   3.550   1.401  12.090  0.3920  0.2272  1.6947
 5192SOL     OW27211   3.886   2.422   8.631 -0.5384  0.1831  0.5974
 5192SOL    HW127212   3.838   2.452   8.708 -1.5661  0.2306 -0.0630
 5192SOL    HW227213   3.807   2.426   8.578 -0.1384 -0.1902 -0.0230
 5193SOL     OW27214   3.078   2.075   4.318 -0.1392  0.5587  0.3754
 5193SOL    HW127215   3.109   2.157   4.280  0.5921 -0.5049 -1.3201
 5193SOL    HW227216   3.110   2.075   4.408  0.8030  2.2769  0.0425
 5194SOL     OW27217   4.078   2.630   0.624 -0.4125 -0.1523 -0.0247
 5194SOL    HW127218   3.983   2.629   0.612 -0.6108 -0.1510  1.4866
 5194SOL    HW227219   4.094   2.719   0.654  0.4076 -0.5611  0.7569
 5195SOL     OW27220   1.614   2.631   5.569  0.3372  0.2240  0.2417
 5195SOL    HW127221   1.519   2.625   5.559  0.5758 -2.2803 -0.5334
 5195SOL    HW227222   1.615   2.723   5.595 -2.6003  0.0341  0.9581
 5196SOL     OW27223   0.424   0.936  13.189  0.1825 -0.1730 -0.6945
 5196SOL    HW127224   0.519   0.936  13.187  0.1991  0.5954  0.2534
 5196SOL    HW227225   0.407   0.923  13.282  0.6310 -0.2309 -0.6245
 5197SOL     OW27226   1.136   3.632   4.114 -0.2108 -0.7957  0.1077
 5197SOL    HW127227   1.211   3.598   4.163  1.3492  0.9952 -1.0395
 5197SOL    HW227228   1.185   3.666   4.039  0.6691 -1.3278  0.4485
 5198SOL     OW27229   2.220   0.743   7.209  1.0715 -0.4122 -0.2419
 5198SOL    HW127230   2.211   0.702   7.295  0.3649  1.8832  0.8073
 5198SOL    HW227231   2.177   0.826   7.229 -0.7523 -1.4712  0.2364
 5199SOL     OW27232   2.389   0.681   7.005  0.4278  0.2466  0.4340
 5199SOL    HW127233   2.358   0.705   7.092  1.3157  1.3647  0.4400
 5199SOL    HW227234   2.343   0.746   6.951  0.7769 -0.4867 -0.7340
 5200SOL     OW27235   1.612   3.674  13.455  0.0114 -0.0909  0.1860
 5200SOL    HW127236   1.560   3.645  13.530  0.3121 -2.1056 -0.3779
 5200SOL    HW227237   1.638   3.594  13.409  0.8868 -0.3485  1.1397
 5201SOL     OW27238   1.266   1.926   4.287  0.5003  0.0451  0.2146
 5201SOL    HW127239   1.228   1.839   4.276 -0.8336  0.8717 -1.9109
 5201SOL    HW227240   1.301   1.923   4.376 -2.2066 -0.9692  1.2429
 5202SOL     OW27241   2.049   0.977   8.535  0.4656 -0.2135  0.8497
 5202SOL    HW127242   2.011   1.014   8.455  0.9530 -0.8085  0.3340
 5202SOL    HW227243   2.018   0.886   8.534  0.6185 -0.2518 -1.0013
 5203SOL     OW27244   3.739   4.645  12.772 -0.1134  0.2704 -0.0739
 5203SOL    HW127245   3.753   4.611  12.860 -1.5156 -0.8932 -0.2896
 5203SOL    HW227246   3.703   4.563  12.738 -0.5063  0.7916 -0.9157
 5204SOL     OW27247   1.410   2.883   7.982 -0.4598  0.4017  0.2825
 5204SOL    HW127248   1.492   2.922   8.014 -0.7680  1.3869 -0.1244
 5204SOL    HW227249   1.411   2.894   7.887 -2.4965  1.2751  0.3720
 5205SOL     OW27250   0.927   0.520  14.438  0.0037 -0.1049 -0.0120
 5205SOL    HW127251   0.894   0.488  14.354  0.6928  0.4809 -0.5065
 5205SOL    HW227252   0.983   0.595  14.415  1.5371 -1.6356 -1.2796
 5206SOL     OW27253   0.406   1.276   5.019 -0.2146 -0.2622  0.2245
 5206SOL    HW127254   0.359   1.211   4.967 -0.5338  0.8454 -0.8688
 5206SOL    HW227255   0.352   1.296   5.096  1.6080  2.2053  0.8508
 5207SOL     OW27256   2.325   2.956  13.846  0.2355  0.2393  0.0189
 5207SOL    HW127257   2.275   2.889  13.892  1.0724 -1.4659 -1.5480
 5207SOL    HW227258   2.270   2.970  13.769  0.3999 -0.9345 -0.3127
 5208SOL     OW27259   1.319   1.954  13.589  0.0646 -0.0498 -0.0086
 5208SOL    HW127260   1.388   1.917  13.644  1.0429  0.2620 -1.0266
 5208SOL    HW227261   1.341   2.047  13.588  1.4963 -0.4028 -1.0415
 5209SOL     OW27262   4.617   2.962   6.628 -0.4276 -0.2026  0.2507
 5209SOL    HW127263   4.578   3.046   6.652  0.1203 -0.6045  2.5982
 5209SOL    HW227264   4.702   2.991   6.595 -0.9999  1.3426  0.1660
 5210SOL     OW27265   1.886   1.084  16.662  0.0867  0.3200  0.5031
 5210SOL    HW127266   1.958   1.112  16.605  0.8341  1.3362  1.9329
 5210SOL    HW227267   1.822   1.155  16.661  2.4104  2.4422  3.2920
 5211SOL     OW27268   4.596   1.194  11.004  0.3600 -0.4999 -0.3541
 5211SOL    HW127269   4.680   1.192  11.049  1.2117 -2.1300 -2.0304
 5211SOL    HW227270   4.543   1.194  11.084  0.0804 -1.9120 -0.5419
 5212SOL     OW27271   1.503   1.686  13.770 -0.0654  0.0754  0.0888
 5212SOL    HW127272   1.477   1.778  13.781  0.4017  0.1019  0.9244
 5212SOL    HW227273   1.530   1.671  13.860  1.5530 -0.9360 -0.5560
 5213SOL     OW27274   3.511   4.069   1.695  0.0083  0.3655  0.2765
 5213SOL    HW127275   3.539   4.000   1.634 -0.4050 -0.9616  1.5822
 5213SOL    HW227276   3.587   4.077   1.752 -0.3541 -0.7027  0.9174
 5214SOL     OW27277   0.393   4.515   7.898  0.8057  0.4813 -0.3221
 5214SOL    HW127278   0.363   4.548   7.813  0.0506  1.7183  0.4218
 5214SOL    HW227279   0.305   4.514   7.934  1.2825  0.7262  0.8701
 5215SOL     OW27280   2.360   0.517  11.368 -0.1556 -0.1887 -0.5727
 5215SOL    HW127281   2.423   0.575  11.409 -0.4067 -0.4802  0.2235
 5215SOL    HW227282   2.365   0.435  11.418 -1.7972  0.1865  0.2173
 5216SOL     OW27283   3.151   0.362  12.954  0.0949  0.7685 -0.3900
 5216SOL    HW127284   3.207   0.284  12.949 -2.6205 -1.1309 -1.2993
 5216SOL    HW227285   3.137   0.368  12.859  2.0831 -0.0390 -0.7562
 5217SOL     OW27286   2.895   1.822   8.767  0.2550 -0.0179 -0.7044
 5217SOL    HW127287   2.872   1.867   8.848  0.8758 -1.4045  0.2541
 5217SOL    HW227288   2.813   1.821   8.718 -0.1535  1.6623 -0.0316
 5218SOL     OW27289   1.191   0.057   2.144 -0.5012  0.8604  0.0044
 5218SOL    HW127290   1.099   0.036   2.125  0.5128 -2.2036 -1.6566
 5218SOL    HW227291   1.187   0.149   2.120  1.6023  0.9059 -0.2180
 5219SOL     OW27292   3.174   4.024  17.232 -0.1166 -0.1359  0.1246
 5219SOL    HW127293   3.110   4.076  17.183 -0.6100 -0.4962  0.3929
 5219SOL    HW227294   3.196   3.952  17.174  0.1215 -0.8640  1.1188
 5220SOL     OW27295   1.937   0.143   4.440  0.2022  0.2532  0.1093
 5220SOL    HW127296   1.888   0.217   4.403 -0.2815  0.2874  0.8170
 5220SOL    HW227297   1.934   0.159   4.534 -0.4040 -0.3123  0.1866
 5221SOL     OW27298   0.394   0.894   6.471 -0.0021  0.6187 -0.0498
 5221SOL    HW127299   0.384   0.808   6.513  0.2510  0.9613  0.7211
 5221SOL    HW227300   0.394   0.948   6.550  0.4621  0.5365  0.0074
 5222SOL     OW27301   4.502   0.717   3.229  0.8637 -0.3536 -0.4797
 5222SOL    HW127302   4.563   0.697   3.158  0.0086 -1.9081 -0.7739
 5222SOL    HW227303   4.478   0.809   3.219  1.6590 -0.3163 -1.9571
 5223SOL     OW27304   1.311   1.645   5.069 -0.1934  0.3474 -1.0710
 5223SOL    HW127305   1.278   1.718   5.016  0.6536  2.7868  1.7514
 5223SOL    HW227306   1.400   1.643   5.034  0.2931  0.6363  0.1465
 5224SOL     OW27307   4.242   1.729   3.494  0.0813 -0.1896  1.2225
 5224SOL    HW127308   4.184   1.692   3.427 -1.1592  0.8090  1.7427
 5224SOL    HW227309   4.189   1.789   3.547 -1.9651  0.9919 -2.1367
 5225SOL     OW27310   2.056   3.192  12.721  0.9089 -0.4827 -0.0309
 5225SOL    HW127311   1.989   3.132  12.754  0.8398  0.2712  1.1955
 5225SOL    HW227312   2.093   3.206  12.808  0.0520 -3.0775  0.7604
 5226SOL     OW27313   0.125   2.237   7.493  0.2743 -0.7266  0.2909
 5226SOL    HW127314   0.032   2.236   7.515  0.3918  1.1238  0.9149
 5226SOL    HW227315   0.169   2.173   7.548 -1.2718  0.4117  2.8257
 5227SOL     OW27316   3.571   2.517  13.727 -0.3291 -0.1215 -0.4704
 5227SOL    HW127317   3.633   2.589  13.737  0.5308 -0.9882  0.3967
 5227SOL    HW227318   3.543   2.508  13.818 -1.2144  2.4159 -0.4864
 5228SOL     OW27319   1.396   0.161  15.045  0.3160 -0.1435 -0.2680
 5228SOL    HW127320   1.311   0.170  15.003  0.7351  0.8479 -0.8895
 5228SOL    HW227321   1.415   0.254  15.039 -2.1758  0.3286 -0.8113
 5229SOL     OW27322   4.659   3.986   4.800 -0.3675  0.1963  0.0034
 5229SOL    HW127323   4.673   3.894   4.824  3.9660  0.6143 -0.9977
 5229SOL    HW227324   4.597   3.992   4.728 -0.1627 -1.1436 -0.2864
 5230SOL     OW27325   4.150   3.771  17.347  0.1697 -0.7032  0.1519
 5230SOL    HW127326   4.193   3.695  17.308  1.3018 -0.3899  0.7902
 5230SOL    HW227327   4.114   3.796  17.262  1.3550  1.9667  0.4375
 5231SOL     OW27328   1.165   0.254   2.544  0.3468  0.6383  0.6994
 5231SOL    HW127329   1.222   0.180   2.526 -1.3078 -0.7246  1.0111
 5231SOL    HW227330   1.086   0.212   2.577  1.3108 -0.0878  2.0653
 5232SOL     OW27331   0.140   1.981   4.853  0.4693  0.4354  0.6657
 5232SOL    HW127332   0.061   1.928   4.850 -1.3468  3.1317  0.6135
 5232SOL    HW227333   0.169   1.974   4.762  2.7346  0.9736  1.3343
 5233SOL     OW27334   1.545   0.501   9.559 -0.5402 -0.0353 -0.0240
 5233SOL    HW127335   1.511   0.418   9.527 -1.0164 -0.4570  1.5397
 5233SOL    HW227336   1.586   0.533   9.479 -2.0935 -1.7041 -1.4632
 5234SOL     OW27337   0.825   0.611   6.579  0.2038 -0.2857  0.3081
 5234SOL    HW127338   0.845   0.703   6.597  0.4223 -0.5101  1.1943
 5234SOL    HW227339   0.765   0.592   6.651  0.6154 -0.7164  0.5369
 5235SOL     OW27340   4.725   3.470   3.414  0.0169 -0.1841 -0.0343
 5235SOL    HW127341   4.630   3.465   3.422  0.0925  0.3822  1.3070
 5235SOL    HW227342   0.006   3.394   3.359 -2.8780 -0.6887 -0.2454
 5236SOL     OW27343   1.691   1.675   4.746  0.0644  0.0829  0.1698
 5236SOL    HW127344   1.743   1.700   4.669 -0.9278  0.9849 -0.1968
 5236SOL    HW227345   1.752   1.716   4.807  0.6174 -0.3144 -0.1145
 5237SOL     OW27346   3.153   2.287   5.635 -0.6524  0.0020  0.0687
 5237SOL    HW127347   3.226   2.331   5.590 -1.0873  0.0669 -0.5686
 5237SOL    HW227348   3.090   2.358   5.625 -0.9815 -0.4089 -0.8509
 5238SOL     OW27349   3.180   3.169   1.593  0.0462  0.5469 -0.1898
 5238SOL    HW127350   3.195   3.199   1.683 -1.3063  2.9482 -0.7452
 5238SOL    HW227351   3.150   3.080   1.610 -0.8592  0.9273  0.2365
 5239SOL     OW27352   2.526   2.458   1.437  0.9064  0.4860  0.1946
 5239SOL    HW127353   2.501   2.550   1.428  0.7575  0.1808 -2.3819
 5239SOL    HW227354   2.524   2.453   1.533 -2.5842  2.1558  0.1906
 5240SOL     OW27355   2.813   4.713   2.518  0.4875 -0.7704  0.1799
 5240SOL    HW127356   2.732   4.664   2.523  0.4994 -1.0510 -2.2725
 5240SOL    HW227357   2.868   4.639   2.493 -0.3810 -0.8003 -1.6156
 5241SOL     OW27358   0.019   1.818   3.407 -0.6017 -0.8627 -0.7832
 5241SOL    HW127359   0.087   1.774   3.356 -0.9309 -2.5234  0.2162
 5241SOL    HW227360   4.687   1.851   3.349 -0.8749  0.4406  0.2943
 5242SOL     OW27361   0.904   1.269  10.448  0.2374  0.2670  0.3719
 5242SOL    HW127362   0.940   1.184  10.425 -1.4536 -0.5030  0.5676
 5242SOL    HW227363   0.813   1.264  10.420  0.9370 -1.5112 -1.5696
 5243SOL     OW27364   2.715   2.826   6.166  0.6911  0.0202 -0.3151
 5243SOL    HW127365   2.769   2.890   6.214 -2.1979  2.5744 -0.4614
 5243SOL    HW227366   2.743   2.853   6.078 -2.2036  1.4866 -0.7836
 5244SOL     OW27367   2.371   2.811   7.583  0.1596 -0.0995 -0.3104
 5244SOL    HW127368   2.285   2.851   7.567 -0.6406 -1.1803  1.2539
 5244SOL    HW227369   2.332   2.725   7.572 -0.8809 -0.0962  3.1569
 5245SOL     OW27370   2.146   4.528   9.331  0.3581 -0.1278  0.0980
 5245SOL    HW127371   2.089   4.604   9.316 -1.9486 -2.0535 -0.8749
 5245SOL    HW227372   2.086   4.466   9.372 -0.7021  0.5567 -0.4227
 5246SOL     OW27373   3.324   3.349   2.599 -0.3900  0.2833  0.2740
 5246SOL    HW127374   3.342   3.269   2.550  0.5543  1.0143 -0.5490
 5246SOL    HW227375   3.327   3.416   2.531  0.4476 -2.1743 -2.0797
 5247SOL     OW27376   2.659   4.203   8.106 -0.3595 -0.1705 -0.6217
 5247SOL    HW127377   2.613   4.281   8.139 -1.7590 -0.6993 -1.3404
 5247SOL    HW227378   2.611   4.196   8.024  0.2189  1.6285 -1.1259
 5248SOL     OW27379   2.338   2.744   4.170  0.2497 -0.0149  0.2190
 5248SOL    HW127380   2.434   2.742   4.175  0.2286  0.7304  0.8442
 5248SOL    HW227381   2.328   2.676   4.104  0.5392  2.3283 -2.2278
 5249SOL     OW27382   3.915   4.719   8.057  0.1753 -0.0489  0.1466
 5249SOL    HW127383   3.970   4.641   8.064  0.7887  0.2895 -1.0932
 5249SOL    HW227384   3.854   4.684   7.993 -0.9299  1.7152  0.2214
 5250SOL     OW27385   0.804   0.819  15.455  0.1709 -0.0951 -0.2178
 5250SOL    HW127386   0.899   0.825  15.462  0.0466  1.3184  0.3828
 5250SOL    HW227387   0.778   0.867  15.376 -0.5306  0.9560  0.6328
 5251SOL     OW27388   1.269   2.119   5.686 -0.2784 -0.9120 -0.0914
 5251SOL    HW127389   1.349   2.123   5.739  1.5808 -0.8307 -2.9305
 5251SOL    HW227390   1.314   2.083   5.609  0.2602  1.0515 -0.6792
 5252SOL     OW27391   0.285   4.521  11.142  0.0181 -0.7623  0.6748
 5252SOL    HW127392   0.278   4.575  11.220  0.9580  1.1519 -0.5735
 5252SOL    HW227393   0.365   4.470  11.159  1.5584  1.2572 -0.5210
 5253SOL     OW27394   3.964   4.349   4.541 -0.4281  0.1582 -0.0233
 5253SOL    HW127395   3.973   4.435   4.500  2.0891 -0.0102  0.1739
 5253SOL    HW227396   4.025   4.294   4.491  1.5843  2.6710 -0.3364
 5254SOL     OW27397   1.302   0.417  14.999  0.2916 -0.2786 -0.5197
 5254SOL    HW127398   1.217   0.399  14.959  0.3009 -0.2357 -0.5591
 5254SOL    HW227399   1.352   0.459  14.929  0.7191  1.8851  1.0626
 5255SOL     OW27400   3.619   1.018   1.905  0.4524 -0.2357  0.3735
 5255SOL    HW127401   3.707   0.991   1.875  1.4986 -0.0236  3.2309
 5255SOL    HW227402   3.612   1.102   1.861  1.8130  0.2550  1.0834
 5256SOL     OW27403   0.417   1.426   5.825  0.4102  0.1511 -0.0285
 5256SOL    HW127404   0.413   1.419   5.921  2.3568  1.8731  0.1854
 5256SOL    HW227405   0.371   1.510   5.815  0.0691  0.2690  2.3883
 5257SOL     OW27406   3.121   0.237   7.244 -0.1493  0.0607 -0.2324
 5257SOL    HW127407   3.101   0.325   7.212 -0.1097  0.6272  1.3189
 5257SOL    HW227408   3.078   0.229   7.329  1.0615 -0.2974  0.3558
 5258SOL     OW27409   2.113   3.633   0.098  0.2162  1.1554  0.3438
 5258SOL    HW127410   2.079   3.706   0.150  0.1611  1.2799  0.1343
 5258SOL    HW227411   2.065   3.648   0.017 -0.8796 -1.7998  0.4549
 5259SOL     OW27412   0.892   3.214   3.274 -0.6375 -0.0503 -0.4101
 5259SOL    HW127413   0.937   3.132   3.296  1.6221  0.9409 -1.3868
 5259SOL    HW227414   0.872   3.189   3.184  1.2056  2.6649 -1.5505
 5260SOL     OW27415   3.722   2.915   2.689  0.1167  0.1288  0.0685
 5260SOL    HW127416   3.663   2.954   2.754 -2.1895 -0.5592 -1.6082
 5260SOL    HW227417   3.697   2.954   2.605  2.9187 -0.6815 -1.1308
 5261SOL     OW27418   4.575   0.956   1.711 -0.1178 -0.4489 -0.1618
 5261SOL    HW127419   4.559   1.041   1.671  0.4873 -1.3873 -2.3880
 5261SOL    HW227420   4.658   0.953   1.759  0.4883  1.8097 -1.0875
 5262SOL     OW27421   0.236   3.625   6.105 -0.0338 -0.1771 -0.2935
 5262SOL    HW127422   0.295   3.688   6.146 -0.4410 -0.4205  0.6713
 5262SOL    HW227423   0.154   3.670   6.124  0.6622  0.6466  0.7798
 5263SOL     OW27424   2.288   1.473  11.440 -0.5668 -0.4383  0.3501
 5263SOL    HW127425   2.202   1.438  11.418 -0.7655 -0.5262  1.2917
 5263SOL    HW227426   2.344   1.395  11.433  0.4907  0.1423  2.4249
 5264SOL     OW27427   3.997   2.960   8.065 -0.1100 -0.4795  0.1402
 5264SOL    HW127428   3.939   2.909   8.121  0.3548 -0.5071  0.6020
 5264SOL    HW227429   3.958   2.942   7.980 -0.6748 -0.9259  0.5011
 5265SOL     OW27430   2.281   3.740   4.301  0.2993  0.4283 -0.2031
 5265SOL    HW127431   2.315   3.748   4.212  2.3141 -0.1105  0.5095
 5265SOL    HW227432   2.319   3.818   4.340 -2.5315  2.2071 -1.0213
 5266SOL     OW27433   2.289   0.341   8.195 -0.1685  0.0355 -0.3841
 5266SOL    HW127434   2.333   0.278   8.137 -2.7832 -0.3237 -2.0075
 5266SOL    HW227435   2.365   0.397   8.209 -0.4793  0.3741 -0.0604
 5267SOL     OW27436   2.731   4.432  17.409  0.5047  0.4374  0.2564
 5267SOL    HW127437   2.812   4.382  17.398  0.3347  0.6523 -1.9322
 5267SOL    HW227438   2.754   4.522  17.385 -1.0235  0.5159 -0.9171
 5268SOL     OW27439   1.631   1.284   6.927  0.1183 -0.4702  0.0546
 5268SOL    HW127440   1.629   1.375   6.896  0.9597  0.6633  3.2576
 5268SOL    HW227441   1.581   1.241   6.858 -0.1376  1.0538 -0.7072
 5269SOL     OW27442   3.663   2.771   0.643  0.2502 -0.8316  0.5919
 5269SOL    HW127443   3.638   2.851   0.690  0.8657 -1.7987  2.5521
 5269SOL    HW227444   3.610   2.773   0.563  1.9611 -0.3424 -0.5265
 5270SOL     OW27445   1.606   1.970   3.549 -0.1988 -0.0726 -0.2222
 5270SOL    HW127446   1.598   1.884   3.507 -0.7837 -0.1453  0.0499
 5270SOL    HW227447   1.527   1.980   3.602 -1.2708  0.2930 -1.8836
 5271SOL     OW27448   4.192   0.188   3.712 -0.3198  0.0472 -0.9004
 5271SOL    HW127449   4.199   0.280   3.689 -1.3110  0.3968  0.2195
 5271SOL    HW227450   4.119   0.166   3.655 -1.6684  1.7677  0.1898
 5272SOL     OW27451   2.947   0.240  14.836 -0.4302  0.0504 -0.8494
 5272SOL    HW127452   3.034   0.221  14.800 -0.6536 -1.6412 -0.5019
 5272SOL    HW227453   2.947   0.335  14.847  0.2172  0.0256 -0.6082
 5273SOL     OW27454   4.431   2.240   0.622  0.3683 -0.7872 -0.0437
 5273SOL    HW127455   4.373   2.316   0.617  0.6182 -0.6003 -0.0590
 5273SOL    HW227456   4.451   2.233   0.715  1.4212 -2.5798 -0.4119
 5274SOL     OW27457   4.608   3.244   2.013  0.3461 -0.0363  0.7736
 5274SOL    HW127458   4.622   3.331   1.975 -0.3012 -0.2680 -0.0086
 5274SOL    HW227459   4.576   3.188   1.942 -0.3039  1.8400 -0.4098
 5275SOL     OW27460   2.601   1.639   3.004 -0.1394 -0.1712  0.1018
 5275SOL    HW127461   2.555   1.671   3.082 -2.5241  1.8798 -2.1714
 5275SOL    HW227462   2.616   1.714   2.947 -0.8694 -1.3264 -1.6411
 5276SOL     OW27463   4.698   1.890   3.663  0.2085  0.5398 -0.0829
 5276SOL    HW127464   4.621   1.838   3.686  2.2902 -2.2030  0.6915
 5276SOL    HW227465   4.732   1.848   3.584 -0.5810 -0.5920  0.1858
 5277SOL     OW27466   1.750   2.885   5.209  0.8784 -0.1172 -0.6121
 5277SOL    HW127467   1.781   2.891   5.300 -1.1886 -0.1569  0.0997
 5277SOL    HW227468   1.657   2.862   5.210  0.4286  1.7179 -2.3397
 5278SOL     OW27469   2.279   3.693  13.268  0.2823  0.2229 -0.5135
 5278SOL    HW127470   2.222   3.770  13.267 -1.4321 -1.0512 -1.1501
 5278SOL    HW227471   2.313   3.695  13.178 -1.3382 -0.8884 -1.1551
 5279SOL     OW27472   4.486   0.054   3.963 -0.7781 -0.1947  0.1569
 5279SOL    HW127473   4.454   0.115   4.029 -2.5328 -2.6269  1.5374
 5279SOL    HW227474   4.412   4.730   3.955 -1.6219  0.7880  0.6224
 5280SOL     OW27475   4.681   4.099  14.879 -0.5327 -0.0137 -0.3823
 5280SOL    HW127476   4.730   4.154  14.941 -0.2955 -0.0159 -0.5672
 5280SOL    HW227477   4.707   4.010  14.902 -2.9245 -0.8460 -0.8844
 5281SOL     OW27478   0.493   1.334   2.615 -0.2707  0.2070 -0.4942
 5281SOL    HW127479   0.452   1.419   2.600  1.5700  0.8100 -2.0056
 5281SOL    HW227480   0.451   1.311   2.698 -0.0442 -3.5508 -1.4029
 5282SOL     OW27481   0.844   3.023  15.916  0.2416 -0.3068  0.5784
 5282SOL    HW127482   0.872   3.114  15.918  0.4282 -0.3673  0.9142
 5282SOL    HW227483   0.898   2.991  15.989  1.4451  1.5379  0.4929
 5283SOL     OW27484   0.568   0.758   5.390 -0.1654  0.0849 -0.1635
 5283SOL    HW127485   0.511   0.788   5.319  0.6296  1.6330 -0.1527
 5283SOL    HW227486   0.525   0.802   5.464  0.5023 -1.3185  1.0498
 5284SOL     OW27487   3.014   3.265  12.510 -0.1272  0.2270 -0.1535
 5284SOL    HW127488   2.989   3.180  12.547  0.8863 -0.3305 -0.7591
 5284SOL    HW227489   2.972   3.257  12.424 -1.0880 -0.2326  0.3589
 5285SOL     OW27490   1.206   3.913   2.537 -0.2477  0.0822 -0.5890
 5285SOL    HW127491   1.140   3.857   2.498 -0.1528  0.1768 -0.8874
 5285SOL    HW227492   1.180   3.996   2.496 -0.3164  0.5705  0.4339
 5286SOL     OW27493   4.725   0.154   1.228 -0.1198 -0.1791  0.3963
 5286SOL    HW127494   0.028   0.215   1.165  1.8609 -0.2432  1.5875
 5286SOL    HW227495   4.660   0.113   1.170  1.1636  0.5589 -1.5498
 5287SOL     OW27496   3.576   4.268  13.088  0.6487  0.8629  0.4474
 5287SOL    HW127497   3.548   4.356  13.062  2.4118  1.3500  0.1946
 5287SOL    HW227498   3.513   4.264  13.161 -2.0694 -1.2453 -2.0033
 5288SOL     OW27499   4.691   0.454   8.093 -0.0594 -0.2393  0.2422
 5288SOL    HW127500   0.017   0.382   8.098  0.5398  0.1371 -1.6212
 5288SOL    HW227501   4.621   0.441   8.157 -1.3614  0.2640 -1.0724
 5289SOL     OW27502   1.270   1.229   5.339 -0.4823 -0.1632 -0.1527
 5289SOL    HW127503   1.345   1.282   5.363 -1.9087  1.4328  0.7736
 5289SOL    HW227504   1.258   1.253   5.247 -1.1144  0.0344 -0.0217
 5290SOL     OW27505   2.696   3.029   6.698  0.2320  0.2129 -0.0774
 5290SOL    HW127506   2.646   3.059   6.622 -0.1792  1.2012  0.5862
 5290SOL    HW227507   2.776   3.078   6.678  0.4235 -0.0536  0.0368
 5291SOL     OW27508   4.317   1.925   1.201 -0.5161  1.0991  0.1262
 5291SOL    HW127509   4.277   1.883   1.124 -0.6487 -0.2073  0.9051
 5291SOL    HW227510   4.257   2.000   1.201 -1.0212  0.6925  1.4632
 5292SOL     OW27511   3.893   0.072   6.653 -0.5236  0.4443 -0.3396
 5292SOL    HW127512   3.898   4.736   6.715 -1.2427 -0.3401 -1.2073
 5292SOL    HW227513   3.968   0.125   6.678 -1.9330  1.4056  1.8321
 5293SOL     OW27514   2.065   1.150   3.822 -0.6719  0.1709 -0.6408
 5293SOL    HW127515   2.090   1.073   3.874 -2.8028  0.1861  0.3658
 5293SOL    HW227516   2.138   1.165   3.761  1.0694  0.5875  1.5801
 5294SOL     OW27517   2.243   4.214  11.905 -0.1901  0.1313 -0.1833
 5294SOL    HW127518   2.257   4.126  11.869 -0.3516  0.4060 -0.9198
 5294SOL    HW227519   2.188   4.201  11.982  1.9047 -1.6172  1.0335
 5295SOL     OW27520   1.439   3.429  12.705 -0.7945  0.4484 -0.4062
 5295SOL    HW127521   1.376   3.464  12.768 -2.3192 -1.2172 -1.0172
 5295SOL    HW227522   1.393   3.352  12.672 -0.5694 -0.0649  0.4894
 5296SOL     OW27523   3.125   3.137   2.029  0.0486  0.3771  0.1130
 5296SOL    HW127524   3.046   3.147   1.976  2.5072 -0.3390 -3.6717
 5296SOL    HW227525   3.139   3.043   2.038  2.4272  0.8145  0.9986
 5297SOL     OW27526   4.184   2.080   3.111  0.3903  0.3678 -0.4586
 5297SOL    HW127527   4.140   2.165   3.104 -0.1988  0.3218  2.7235
 5297SOL    HW227528   4.127   2.025   3.056  0.3426 -2.0269  1.9601
 5298SOL     OW27529   2.107   1.872   4.791 -0.3172 -0.1283 -0.4855
 5298SOL    HW127530   2.186   1.821   4.773 -0.2076  0.4339 -1.6348
 5298SOL    HW227531   2.140   1.934   4.857 -1.2975 -0.2697  0.1273
 5299SOL     OW27532   4.160   1.132  14.658  0.4204  0.8478 -0.0611
 5299SOL    HW127533   4.222   1.095  14.595  0.2126 -0.5556  0.5681
 5299SOL    HW227534   4.201   1.087  14.732 -1.2414  0.0084  0.3595
 5300SOL     OW27535   1.196   2.487   3.169  0.1030  0.0179  0.1379
 5300SOL    HW127536   1.284   2.490   3.132 -0.3972  0.1757 -1.0498
 5300SOL    HW227537   1.151   2.437   3.100 -0.8577 -1.1424  1.5983
 5301SOL     OW27538   4.498   0.374   8.274  0.3095  0.5590  0.3464
 5301SOL    HW127539   4.485   0.429   8.351 -2.2824  2.4847 -1.4760
 5301SOL    HW227540   4.419   0.397   8.224  0.4568  1.2030  0.4100
 5302SOL     OW27541   4.484   1.933  12.346  0.4323  0.6561 -0.3888
 5302SOL    HW127542   4.575   1.921  12.373  0.0103 -0.5215  0.5128
 5302SOL    HW227543   4.449   1.943  12.435  2.3942 -1.0125  0.5562
 5303SOL     OW27544   2.715   3.397   7.708  0.1780  0.2044  0.0150
 5303SOL    HW127545   2.654   3.324   7.691  0.2343  0.3343 -0.7223
 5303SOL    HW227546   2.671   3.427   7.788 -2.0564 -1.3010 -0.6466
 5304SOL     OW27547   2.372   1.381   6.212  0.4486  0.7521 -0.3822
 5304SOL    HW127548   2.404   1.443   6.146 -1.1630  1.1671 -0.7723
 5304SOL    HW227549   2.443   1.322   6.184  0.4138  0.7998 -0.5737
 5305SOL     OW27550   2.958   1.928   2.163  0.2258  0.6539 -0.4791
 5305SOL    HW127551   2.942   1.868   2.090 -0.7786  2.9074 -2.0725
 5305SOL    HW227552   3.020   1.868   2.206  1.0154 -0.0091 -2.5434
 5306SOL     OW27553   4.365   1.618  13.562  0.7785 -0.9541  0.0928
 5306SOL    HW127554   4.380   1.701  13.607  0.5329 -1.1731  0.5826
 5306SOL    HW227555   4.425   1.633  13.489 -0.2808  4.3064  0.3461
 5307SOL     OW27556   1.868   1.980   5.672 -0.4702  0.1629  0.1253
 5307SOL    HW127557   1.899   1.912   5.732  0.7293  0.4370 -0.1879
 5307SOL    HW227558   1.820   1.922   5.613  0.1413  2.1238 -2.2771
 5308SOL     OW27559   1.421   4.674   3.570 -0.2626  0.1615 -0.8805
 5308SOL    HW127560   1.396   4.713   3.654 -1.9595  0.1101 -1.3707
 5308SOL    HW227561   1.516   4.681   3.568 -0.3255  0.9131 -1.3705
 5309SOL     OW27562   2.406   1.968   8.829 -0.0858 -0.0883  0.1726
 5309SOL    HW127563   2.399   2.033   8.899  3.5209 -0.0756  0.5511
 5309SOL    HW227564   2.337   1.903   8.842 -0.0765 -0.2049 -0.3565
 5310SOL     OW27565   3.858   3.026   8.636  0.2694  0.4012  0.0677
 5310SOL    HW127566   3.933   3.016   8.696  0.0982 -2.3174 -0.1748
 5310SOL    HW227567   3.880   2.944   8.592  2.0260  0.0060  1.6331
 5311SOL     OW27568   3.079   4.670   4.048  0.2165 -0.0539 -0.0370
 5311SOL    HW127569   3.044   4.593   4.003 -0.9557 -0.6804  1.9245
 5311SOL    HW227570   2.995   4.717   4.048  0.4347  0.3362 -0.5894
 5312SOL     OW27571   0.343   0.803  14.296  0.1946 -0.0840  0.2774
 5312SOL    HW127572   0.417   0.743  14.298 -0.0333 -0.3512  0.6886
 5312SOL    HW227573   0.281   0.755  14.242 -0.2885  0.7886  0.0470
 5313SOL     OW27574   2.056   2.348   9.110 -0.3309 -0.0682 -0.1628
 5313SOL    HW127575   2.149   2.370   9.120 -0.5575  0.5167  0.6396
 5313SOL    HW227576   2.016   2.433   9.128 -0.1903 -0.7068  3.2265
 5314SOL     OW27577   2.680   1.308   9.984  0.1962 -0.2910 -0.3110
 5314SOL    HW127578   2.604   1.299  10.042  1.4873  1.5329  1.6725
 5314SOL    HW227579   2.749   1.317  10.050 -0.0223  0.3206 -0.1704
 5315SOL     OW27580   1.044   3.655   5.942 -0.1524  0.1370  0.0616
 5315SOL    HW127581   1.015   3.564   5.955 -0.4816  0.5283  2.0505
 5315SOL    HW227582   1.105   3.650   5.868  0.5283  1.0601  0.5558
 5316SOL     OW27583   4.332   4.471   5.621  0.4329 -0.4614 -0.0753
 5316SOL    HW127584   4.300   4.492   5.709  0.8467 -0.1210 -0.0089
 5316SOL    HW227585   4.421   4.440   5.635  0.4327  0.0682  1.0847
 5317SOL     OW27586   4.296   2.400   0.296 -0.2135  0.2987 -0.4771
 5317SOL    HW127587   4.300   2.491   0.325 -0.5346  0.3037 -0.4453
 5317SOL    HW227588   4.207   2.380   0.325 -0.5096 -1.1469 -2.3992
 5318SOL     OW27589   4.580   2.789   2.605  0.7689  0.3045  0.2294
 5318SOL    HW127590   4.535   2.779   2.689 -0.1373 -1.2935 -0.4495
 5318SOL    HW227591   4.514   2.754   2.546 -0.6351  0.3474  1.7630
 5319SOL     OW27592   0.009   2.785   4.151  0.0100 -0.6202  0.0140
 5319SOL    HW127593   0.057   2.783   4.068 -1.5158 -0.1738 -0.8864
 5319SOL    HW227594   4.655   2.780   4.121 -0.2191  1.5951  0.3132
 5320SOL     OW27595   1.203   2.669   3.381  0.2220 -0.2992 -0.0336
 5320SOL    HW127596   1.223   2.743   3.324  0.8590  0.4005  1.1208
 5320SOL    HW227597   1.196   2.601   3.314 -1.8564 -0.6953  0.5856
 5321SOL     OW27598   3.996   4.441   3.181 -0.0720  0.1458 -1.0429
 5321SOL    HW127599   4.069   4.451   3.242  0.3160 -2.0658 -1.1342
 5321SOL    HW227600   4.040   4.434   3.096  1.2875  0.3001 -0.3433
 5322SOL     OW27601   0.323   0.869  11.492  0.6016 -0.1675 -0.2728
 5322SOL    HW127602   0.399   0.820  11.524  0.4864 -0.5070 -0.5240
 5322SOL    HW227603   0.246   0.813  11.509 -0.2366  1.4302  1.2383
 5323SOL     OW27604   4.036   0.818  14.748 -0.0487 -0.1660  0.1139
 5323SOL    HW127605   3.954   0.857  14.719  0.2723  0.8741  0.6145
 5323SOL    HW227606   4.077   0.793  14.665 -1.5979 -0.9493 -0.4135
 5324SOL     OW27607   1.431   2.033   2.183  0.2140 -0.2074 -0.4172
 5324SOL    HW127608   1.507   1.978   2.199 -0.8692 -1.8688 -0.9381
 5324SOL    HW227609   1.366   1.967   2.208  0.2602  0.0440  0.3845
 5325SOL     OW27610   0.364   2.122   5.367 -0.5956  0.9098 -0.1885
 5325SOL    HW127611   0.332   2.097   5.281 -0.3423  2.0751 -0.6219
 5325SOL    HW227612   0.455   2.144   5.347  0.0088 -0.8811  0.6445
 5326SOL     OW27613   4.335   0.009   7.805  0.1316 -0.1336  0.5607
 5326SOL    HW127614   4.269   0.077   7.794  0.0428 -0.4421 -0.8967
 5326SOL    HW227615   4.412   0.066   7.812 -0.9419  1.3247  0.1841
 5327SOL     OW27616   1.623   0.085   8.470  0.3542  0.2464 -0.5474
 5327SOL    HW127617   1.616   0.172   8.431  0.9521  0.0073 -1.1804
 5327SOL    HW227618   1.636   0.118   8.559  1.2023 -0.9719 -0.2344
 5328SOL     OW27619   2.115   0.180   2.629  0.1238 -0.5299  0.5752
 5328SOL    HW127620   2.147   0.251   2.685  2.2485 -0.9841 -0.0707
 5328SOL    HW227621   2.139   0.097   2.671  2.3753  0.2976  0.9463
 5329SOL     OW27622   4.380   2.403   6.040 -0.5271 -0.5230  0.1161
 5329SOL    HW127623   4.386   2.467   6.111 -1.8798  1.3599 -1.4506
 5329SOL    HW227624   4.320   2.452   5.984 -0.5759 -1.6372 -0.8028
 5330SOL     OW27625   3.644   2.840   3.170 -0.1305 -0.3464  0.5773
 5330SOL    HW127626   3.590   2.912   3.138  0.4016 -0.0446  0.3516
 5330SOL    HW227627   3.609   2.764   3.124  0.9875 -0.1320 -0.6332
 5331SOL     OW27628   1.520   0.822   2.598  0.7865  0.2192 -0.6816
 5331SOL    HW127629   1.585   0.753   2.591  1.2326  0.6108 -0.3711
 5331SOL    HW227630   1.436   0.775   2.599  0.0998  1.4159 -1.5316
 5332SOL     OW27631   4.604   2.447   2.943 -0.5129 -0.3811 -0.5010
 5332SOL    HW127632   4.637   2.498   3.017  0.6789  2.1310 -2.8183
 5332SOL    HW227633   4.513   2.438   2.971 -0.4227  0.0693 -0.0783
 5333SOL     OW27634   3.303   3.035  15.001 -0.0093  0.2188 -1.1117
 5333SOL    HW127635   3.234   2.994  14.948  0.2735 -0.2651 -1.1081
 5333SOL    HW227636   3.308   3.117  14.953 -1.6991 -0.2144 -2.0438
 5334SOL     OW27637   4.205   2.703  11.370  0.4537  0.0793 -0.6475
 5334SOL    HW127638   4.216   2.766  11.299 -0.8100  1.5129  0.4129
 5334SOL    HW227639   4.259   2.749  11.435 -1.1949  1.1839 -0.0598
 5335SOL     OW27640   0.534   1.026   7.937 -0.3074 -0.0486 -0.5641
 5335SOL    HW127641   0.498   0.940   7.959  0.4596  0.5219  2.8020
 5335SOL    HW227642   0.596   0.991   7.873 -0.4754 -2.0565  0.3815
 5336SOL     OW27643   0.962   3.203   2.546  0.4326  0.7354  0.1557
 5336SOL    HW127644   0.887   3.211   2.486 -0.1536 -0.0113  0.7886
 5336SOL    HW227645   0.928   3.238   2.629 -0.9538 -0.3114  0.0321
 5337SOL     OW27646   1.447   1.859   7.196  0.2753  0.8566 -0.0076
 5337SOL    HW127647   1.419   1.791   7.258 -0.4202  0.0229 -1.2285
 5337SOL    HW227648   1.540   1.835   7.189 -0.6732 -2.7244 -0.2889
 5338SOL     OW27649   2.579   1.243   5.966  0.6396  0.5885 -0.2926
 5338SOL    HW127650   2.612   1.320   6.012 -1.5949  1.3614  0.0246
 5338SOL    HW227651   2.588   1.274   5.876 -2.6321  3.1915  0.2955
 5339SOL     OW27652   1.952   4.125  11.688 -0.1675  0.0981  0.3107
 5339SOL    HW127653   1.878   4.164  11.734 -2.1189 -2.1116 -0.9726
 5339SOL    HW227654   1.996   4.073  11.755 -1.7897 -0.2700  1.0827
 5340SOL     OW27655   4.525   0.498   3.445  0.2773  0.1017  0.2910
 5340SOL    HW127656   4.555   0.571   3.390 -1.2238  0.4909 -0.0101
 5340SOL    HW227657   4.559   0.428   3.390  1.2082  0.0141  0.9765
 5341SOL     OW27658   0.182   3.319   5.002  0.5780 -0.2171 -0.1753
 5341SOL    HW127659   0.234   3.332   4.923 -1.2298  1.8439 -1.0544
 5341SOL    HW227660   0.106   3.374   4.980 -0.2479 -0.3605  2.2049
 5342SOL     OW27661   0.308   1.607  15.224 -0.2299 -0.0109  0.3219
 5342SOL    HW127662   0.378   1.646  15.172  1.1980  0.1472  2.3950
 5342SOL    HW227663   0.337   1.516  15.223 -0.9972 -0.2592  0.6141
 5343SOL     OW27664   2.788   3.373   9.221 -0.3262 -0.5009 -0.5273
 5343SOL    HW127665   2.771   3.393   9.313  2.3125  2.0061 -0.5717
 5343SOL    HW227666   2.877   3.340   9.229  0.6642  2.0184 -1.0551
 5344SOL     OW27667   0.117   2.208   2.716 -0.1556 -0.1582  0.1319
 5344SOL    HW127668   0.174   2.272   2.759  0.0684 -1.4716  1.8137
 5344SOL    HW227669   0.177   2.149   2.670  0.7215  0.0122  1.0550
 5345SOL     OW27670   1.998   1.432   5.614  0.1569  0.4187  0.3444
 5345SOL    HW127671   2.041   1.362   5.566 -0.0068 -0.5970  1.6949
 5345SOL    HW227672   1.996   1.397   5.703  1.5204 -0.9529 -0.1701
 5346SOL     OW27673   3.374   2.231  17.579 -0.4012  0.0768 -0.3120
 5346SOL    HW127674   3.468   2.248  17.579 -0.1454 -1.3612 -0.2064
 5346SOL    HW227675   3.378   2.150  17.629  3.5640  0.3708 -0.1323
 5347SOL     OW27676   0.117   2.469   3.654 -0.4386 -0.5961  0.1456
 5347SOL    HW127677   0.206   2.441   3.673  0.4329  1.9977 -0.1402
 5347SOL    HW227678   0.066   2.432   3.726  0.3511  0.4989  1.2493
 5348SOL     OW27679   1.298   4.400  15.614  0.0168 -0.0147  0.2203
 5348SOL    HW127680   1.271   4.469  15.552 -0.3817 -0.7948 -0.4682
 5348SOL    HW227681   1.230   4.334  15.619 -0.1540  0.0531 -1.2959
 5349SOL     OW27682   0.264   0.975   7.344  0.2271  0.0824 -0.2879
 5349SOL    HW127683   0.240   0.886   7.372 -1.9860  0.2152 -1.8242
 5349SOL    HW227684   0.259   1.022   7.428  0.5245 -2.8289  1.3815
 5350SOL     OW27685   1.763   2.586  12.132 -0.1669 -0.1626 -0.1091
 5350SOL    HW127686   1.804   2.660  12.088 -0.5758 -0.5394 -1.1298
 5350SOL    HW227687   1.818   2.576  12.210 -0.6287 -2.5231 -0.0880
 5351SOL     OW27688   0.476   0.740  15.347 -0.9683  0.4556 -0.2642
 5351SOL    HW127689   0.562   0.700  15.336  0.2125  2.1532  2.6535
 5351SOL    HW227690   0.460   0.789  15.267 -0.8832  1.7950  0.5391
 5352SOL     OW27691   2.015   2.784   5.838  0.3836  0.1897  0.0742
 5352SOL    HW127692   2.002   2.712   5.776  1.7866 -0.3153  0.3596
 5352SOL    HW227693   2.018   2.858   5.777  2.9800  0.2787  0.2953
 5353SOL     OW27694   4.457   2.480   6.801 -0.2340 -0.1454  0.3551
 5353SOL    HW127695   4.465   2.493   6.707 -0.3022 -1.3166  0.1913
 5353SOL    HW227696   4.517   2.547   6.833 -1.1442  0.7530  0.1923
 5354SOL     OW27697   4.334   1.178   8.267  0.1170 -0.5628 -0.5611
 5354SOL    HW127698   4.240   1.157   8.261  0.0572  0.5126 -3.3631
 5354SOL    HW227699   4.332   1.240   8.340  0.2450 -0.6131 -0.5160
 5355SOL     OW27700   0.355   3.857   3.348  0.2582  0.1084  0.0091
 5355SOL    HW127701   0.312   3.781   3.386 -0.9926  0.2706 -1.0577
 5355SOL    HW227702   0.390   3.816   3.269  2.3191  0.8549  0.5499
 5356SOL     OW27703   0.552   2.883  16.158  0.7117 -0.2734  0.3251
 5356SOL    HW127704   0.483   2.817  16.147  1.0713 -0.5559 -0.2823
 5356SOL    HW227705   0.623   2.831  16.120  0.0920 -0.2294 -0.9143
 5357SOL     OW27706   3.124   1.203   3.320  0.1629 -0.9469 -0.3791
 5357SOL    HW127707   3.038   1.239   3.296 -1.8606 -4.6092  1.4238
 5357SOL    HW227708   3.120   1.237   3.410  1.4062 -0.3555 -0.5554
 5358SOL     OW27709   0.367   3.364  12.704 -0.1648 -0.2468  0.5172
 5358SOL    HW127710   0.415   3.286  12.732 -0.4273 -0.7313 -0.3951
 5358SOL    HW227711   0.314   3.376  12.783  0.1907  1.9158  0.4319
 5359SOL     OW27712   2.231   0.428   2.234 -0.1846  0.1028 -0.8045
 5359SOL    HW127713   2.215   0.431   2.328  1.4950  0.3027 -0.5346
 5359SOL    HW227714   2.244   0.335   2.221 -1.4382 -0.6351  3.1866
 5360SOL     OW27715   4.396   2.008   6.362 -0.3478 -0.6121 -0.1971
 5360SOL    HW127716   4.357   2.090   6.392 -0.8091 -1.0361  0.3884
 5360SOL    HW227717   4.488   2.034   6.364 -0.2414 -1.2009  2.6305
 5361SOL     OW27718   3.825   4.519   1.714 -0.3865  0.3488 -0.3807
 5361SOL    HW127719   3.848   4.526   1.622 -0.1369  1.9806 -0.1890
 5361SOL    HW227720   3.835   4.612   1.737 -0.6461  0.2472  0.1538
 5362SOL     OW27721   0.923   0.962   5.755  0.4067  0.2732 -0.1872
 5362SOL    HW127722   0.895   0.877   5.790 -0.9032  0.1207 -1.5680
 5362SOL    HW227723   0.954   1.000   5.837  1.7142  0.7239 -0.8884
 5363SOL     OW27724   4.235   3.198  15.018  0.1090  0.3945 -0.0485
 5363SOL    HW127725   4.270   3.190  15.107  3.2654 -1.6354 -1.4603
 5363SOL    HW227726   4.187   3.280  15.024  1.1237  0.9242  0.9281
 5364SOL     OW27727   1.897   3.149   6.798 -0.6556  0.0374  0.4172
 5364SOL    HW127728   1.876   3.059   6.823 -0.1474  0.0008  0.7277
 5364SOL    HW227729   1.829   3.162   6.733 -0.6908  3.7387  1.1817
 5365SOL     OW27730   1.265   3.768   8.146  0.5050  0.2864  0.2100
 5365SOL    HW127731   1.202   3.821   8.097  0.9821  1.7713  1.2172
 5365SOL    HW227732   1.348   3.812   8.126 -0.1555  1.4717  0.0486
 5366SOL     OW27733   3.158   4.268  11.781 -1.4089  0.1250  0.2019
 5366SOL    HW127734   3.181   4.207  11.851  0.9979  0.1226 -0.5931
 5366SOL    HW227735   3.074   4.293  11.819 -2.5231  0.0467 -2.2788
 5367SOL     OW27736   3.435   1.823   2.079 -0.3115  0.4105  0.6028
 5367SOL    HW127737   3.524   1.855   2.088 -0.0716 -0.4614  1.2513
 5367SOL    HW227738   3.387   1.901   2.052  0.2356  0.4634 -0.2091
 5368SOL     OW27739   2.710   0.688  15.194  0.4046 -0.0332  0.4174
 5368SOL    HW127740   2.744   0.676  15.282 -1.5781  0.0352  1.1981
 5368SOL    HW227741   2.792   0.716  15.152 -0.0279  3.4732  1.9443
 5369SOL     OW27742   3.820   1.742   4.959  0.4285 -0.0705 -0.2325
 5369SOL    HW127743   3.898   1.687   4.955 -0.6068 -1.4512 -1.4645
 5369SOL    HW227744   3.792   1.749   5.050  2.0496 -0.4937  0.2997
 5370SOL     OW27745   2.444   2.807   0.044 -0.4639  0.5108  0.1488
 5370SOL    HW127746   2.465   2.856  17.709 -0.2417 -0.6210 -0.4938
 5370SOL    HW227747   2.516   2.815   0.106 -1.3180  1.0298  1.0740
 5371SOL     OW27748   4.615   4.041   1.983 -0.8033 -0.2268  0.3439
 5371SOL    HW127749   4.564   4.122   1.980 -0.7105 -0.1904 -0.4196
 5371SOL    HW227750   4.547   3.981   1.953 -1.0883  0.8646 -1.2392
 5372SOL     OW27751   3.310   1.084   5.804 -0.3789  0.7193 -0.2649
 5372SOL    HW127752   3.247   1.014   5.818  1.7946 -0.9924  1.0445
 5372SOL    HW227753   3.376   1.060   5.869  1.4064 -0.2876 -2.4709
 5373SOL     OW27754   1.193   1.955   8.141  0.0054  0.1015  0.5270
 5373SOL    HW127755   1.128   1.961   8.071  0.0316  0.0813  0.5010
 5373SOL    HW227756   1.130   1.954   8.214 -2.7079 -2.2676 -1.8578
 5374SOL     OW27757   3.240   1.583   5.867  0.4380  0.3774  0.1110
 5374SOL    HW127758   3.332   1.564   5.887  0.5798  1.5030  0.5202
 5374SOL    HW227759   3.199   1.549   5.946 -0.8673  0.3603 -0.5805
 5375SOL     OW27760   4.585   1.452   8.490  0.3416 -0.3916  0.2021
 5375SOL    HW127761   4.608   1.540   8.461  0.2257 -0.0575  1.1371
 5375SOL    HW227762   4.578   1.405   8.407 -1.1069 -0.2345  0.2254
 5376SOL     OW27763   1.025   0.259  11.032 -0.2865  0.3519  0.4469
 5376SOL    HW127764   1.047   0.277  10.941 -1.0726  0.2602  0.2396
 5376SOL    HW227765   1.103   0.220  11.071 -0.4724 -0.6904 -0.2277
 5377SOL     OW27766   1.500   2.180   5.814 -0.7860 -0.0867 -0.2680
 5377SOL    HW127767   1.558   2.154   5.743 -0.4541 -1.7646  0.6249
 5377SOL    HW227768   1.556   2.177   5.891 -0.0146  0.6395 -0.7966
 5378SOL     OW27769   2.353   3.623   2.835 -0.2537  0.4405  0.2432
 5378SOL    HW127770   2.341   3.536   2.874 -1.4180  0.7027  0.4616
 5378SOL    HW227771   2.448   3.629   2.819 -0.4145  1.8367 -0.1913
 5379SOL     OW27772   3.454   3.119   9.471 -0.2550 -0.5406  0.2941
 5379SOL    HW127773   3.531   3.163   9.434  0.9779 -3.3388 -0.4288
 5379SOL    HW227774   3.404   3.195   9.501 -1.2748 -0.3826 -1.8349
 5380SOL     OW27775   2.910   0.909   5.890  0.1978 -0.5735 -0.3517
 5380SOL    HW127776   2.968   0.890   5.964  2.8355  0.6471 -2.1227
 5380SOL    HW227777   2.858   0.830   5.905  0.3485 -0.5315  0.3921
 5381SOL     OW27778   0.696   2.921  11.443  0.2563  0.0364  0.2240
 5381SOL    HW127779   0.706   2.871  11.524  0.4536  1.7432  1.2504
 5381SOL    HW227780   0.644   2.861  11.390 -1.1547  1.5175 -0.0902
 5382SOL     OW27781   2.527   3.621   1.937 -0.2062  0.3809 -0.0124
 5382SOL    HW127782   2.438   3.643   1.964  0.4320  1.4813  1.2213
 5382SOL    HW227783   2.573   3.675   2.002 -1.3622  0.2579  0.9150
 5383SOL     OW27784   2.797   1.648  12.483  0.0355  0.4844  0.5427
 5383SOL    HW127785   2.816   1.604  12.566  2.9770 -0.0021 -0.3911
 5383SOL    HW227786   2.820   1.581  12.419  1.9658 -1.3060  3.1243
 5384SOL     OW27787   1.424   4.615  13.451  0.1977  0.1492 -0.0877
 5384SOL    HW127788   1.440   4.602  13.358 -0.1678  1.2946 -0.3106
 5384SOL    HW227789   1.514   4.643  13.469  0.4305  0.7308 -2.1599
 5385SOL     OW27790   3.385   0.657   5.106 -0.2345 -0.2807 -0.1083
 5385SOL    HW127791   3.312   0.636   5.047 -1.9847  0.2726  1.8616
 5385SOL    HW227792   3.407   0.572   5.143 -0.5351 -0.2039  0.2490
 5386SOL     OW27793   3.192   1.419   7.979 -0.3609  0.2411 -0.0331
 5386SOL    HW127794   3.119   1.476   7.955  1.0903  1.3782 -1.6607
 5386SOL    HW227795   3.184   1.355   7.908 -0.6933 -1.6991  1.7291
 5387SOL     OW27796   1.901   2.646   3.257  0.0030  0.2025 -0.0681
 5387SOL    HW127797   1.860   2.676   3.175 -1.7356  1.0106  1.1069
 5387SOL    HW227798   1.980   2.701   3.255  1.6340 -2.1909 -0.9907
 5388SOL     OW27799   4.077   4.502  11.847  0.4672  0.4572 -0.4890
 5388SOL    HW127800   4.151   4.529  11.900  1.4201 -0.0359 -1.5656
 5388SOL    HW227801   4.123   4.484  11.765  2.6856 -3.3137  1.5820
 5389SOL     OW27802   0.779   2.884   6.654  0.4808 -0.2585  0.1499
 5389SOL    HW127803   0.778   2.845   6.567 -3.0400 -0.2765  0.1998
 5389SOL    HW227804   0.823   2.811   6.697 -0.3611 -1.7448 -1.5398
 5390SOL     OW27805   3.931   1.515   9.921  0.5599  0.2287 -0.5815
 5390SOL    HW127806   3.853   1.459   9.925  0.4444  0.3299 -1.5185
 5390SOL    HW227807   3.968   1.478   9.841 -0.4374  2.3634 -2.0113
 5391SOL     OW27808   2.835   0.024   6.767  0.3932 -0.6173 -0.2461
 5391SOL    HW127809   2.856   4.668   6.782 -0.0595 -0.6338  0.2845
 5391SOL    HW227810   2.862   0.082   6.838  0.1452 -1.5992  0.6555
 5392SOL     OW27811   0.139   3.770   3.593 -0.3170  0.0919 -0.1348
 5392SOL    HW127812   0.153   3.698   3.655  0.4055 -1.2417 -1.8118
 5392SOL    HW227813   0.155   3.720   3.513 -0.0180 -0.9329  0.5542
 5393SOL     OW27814   3.328   1.493   3.431  0.3240 -0.6361 -0.5157
 5393SOL    HW127815   3.399   1.543   3.473 -0.8476 -0.2762  1.0626
 5393SOL    HW227816   3.371   1.479   3.347 -1.3853 -0.0431 -1.4933
 5394SOL     OW27817   3.395   1.623   8.133 -0.4467  0.0435 -0.0713
 5394SOL    HW127818   3.475   1.670   8.158 -1.4752  2.0789 -0.6175
 5394SOL    HW227819   3.335   1.685   8.090  0.6504  1.2332  0.1072
 5395SOL     OW27820   1.949   2.725   8.133  0.2004  0.3884  0.2840
 5395SOL    HW127821   1.968   2.804   8.082  0.6172 -1.0614 -1.8096
 5395SOL    HW227822   2.036   2.687   8.148  0.7163  1.5321  0.2137
 5396SOL     OW27823   4.041   4.378   4.834 -0.3915  0.1745 -0.0542
 5396SOL    HW127824   4.029   4.362   4.740 -1.2376 -0.8256  0.2298
 5396SOL    HW227825   3.992   4.307   4.874  0.7078 -0.4886  0.1063
 5397SOL     OW27826   0.003   2.615   2.400  0.1356  0.0662 -0.1307
 5397SOL    HW127827   0.011   2.708   2.383  1.3929  0.0115  0.1596
 5397SOL    HW227828   4.645   2.597   2.403  0.8251 -3.7287 -0.2765
 5398SOL     OW27829   3.651   2.311   4.609 -0.3502  0.3664  0.1833
 5398SOL    HW127830   3.689   2.311   4.697  0.5783  2.1357 -0.2231
 5398SOL    HW227831   3.603   2.228   4.620  0.5624 -0.1049  0.5653
 5399SOL     OW27832   4.212   0.775   2.978 -0.2788  0.7665  0.3744
 5399SOL    HW127833   4.200   0.755   3.071  0.5566  0.1965  0.3653
 5399SOL    HW227834   4.199   0.685   2.948 -1.1066  1.2810 -0.7745
 5400SOL     OW27835   1.785   2.457   9.024 -0.4449  1.0022  0.1311
 5400SOL    HW127836   1.707   2.500   9.059 -0.9946 -0.0649  0.2327
 5400SOL    HW227837   1.848   2.520   9.059  1.5441 -0.5694 -0.6428
 5401SOL     OW27838   1.567   3.638  11.796  0.7097 -0.0925  0.6819
 5401SOL    HW127839   1.493   3.658  11.738  0.4186  1.3068  1.5511
 5401SOL    HW227840   1.641   3.621  11.738  1.0233  0.5469  0.8969
 5402SOL     OW27841   1.900   2.161   8.964  0.1193 -0.0684 -0.9186
 5402SOL    HW127842   1.863   2.242   8.929 -2.5314 -1.2644 -0.9649
 5402SOL    HW227843   1.923   2.205   9.046 -0.2095  0.3542 -1.0545
 5403SOL     OW27844   4.678   1.918   6.767 -0.3842 -0.4829 -0.3560
 5403SOL    HW127845   4.663   1.924   6.861 -1.7872 -0.8048 -0.5572
 5403SOL    HW227846   0.019   1.973   6.762 -0.5209 -0.0761  2.0118
 5404SOL     OW27847   3.327   0.567   6.594 -0.1430 -0.5217 -0.0370
 5404SOL    HW127848   3.258   0.545   6.656 -2.2431  0.3184 -2.0633
 5404SOL    HW227849   3.358   0.477   6.588 -0.6568 -0.6814 -0.2534
 5405SOL     OW27850   4.654   3.407   2.666  0.0017 -0.2790  0.0798
 5405SOL    HW127851   4.695   3.441   2.586  0.1605  1.3983  0.8849
 5405SOL    HW227852   4.578   3.464   2.680  1.5653  2.0728 -1.0990
 5406SOL     OW27853   2.933   2.171   4.635 -0.2751  1.0638  0.1580
 5406SOL    HW127854   2.966   2.242   4.692  0.3306  0.2355  0.8435
 5406SOL    HW227855   3.018   2.156   4.593  0.4674  1.9548  1.3233
 5407SOL     OW27856   1.365   3.208   2.377 -0.5474  0.2907  0.1828
 5407SOL    HW127857   1.409   3.191   2.293  1.8827 -1.2490  1.7705
 5407SOL    HW227858   1.390   3.131   2.428 -0.6567 -1.7973 -2.8467
 5408SOL     OW27859   4.154   0.304   5.261  0.3184 -0.4842  0.1111
 5408SOL    HW127860   4.201   0.246   5.202 -0.8459 -1.0515 -0.2614
 5408SOL    HW227861   4.185   0.275   5.347 -2.6614 -0.2226  1.2817
 5409SOL     OW27862   0.698   4.090   3.480  0.3392 -0.5710  0.2671
 5409SOL    HW127863   0.608   4.118   3.497  0.1551 -0.9183 -0.1434
 5409SOL    HW227864   0.728   4.174   3.444 -1.9700 -0.3175 -1.0247
 5410SOL     OW27865   0.001   3.065   8.841  0.0177  0.2369 -0.7168
 5410SOL    HW127866   0.010   3.117   8.761 -2.5881  0.2737 -0.9600
 5410SOL    HW227867   0.091   3.071   8.875 -1.3564 -2.8968  3.3840
 5411SOL     OW27868   2.614   4.466  16.248  0.7451  0.1143 -0.1429
 5411SOL    HW127869   2.552   4.415  16.196  0.3381  1.8910 -1.3905
 5411SOL    HW227870   2.623   4.408  16.324 -2.4015  2.1807  1.8225
 5412SOL     OW27871   1.938   3.191   4.864  1.2069 -0.0776 -0.3546
 5412SOL    HW127872   1.959   3.137   4.788  0.6266 -0.5611 -0.1758
 5412SOL    HW227873   1.880   3.134   4.915 -2.5082  2.2702 -1.9881
 5413SOL     OW27874   2.441   2.295   5.783  0.2336  0.4013 -0.0755
 5413SOL    HW127875   2.501   2.228   5.817 -0.3639  0.5434  1.2608
 5413SOL    HW227876   2.420   2.339   5.865  2.0004  1.4919 -0.2103
 5414SOL     OW27877   2.013   1.451  11.488 -0.5983 -0.4482 -0.4139
 5414SOL    HW127878   1.927   1.444  11.530 -0.8617  0.7760 -0.7534
 5414SOL    HW227879   2.070   1.439  11.564 -0.2075  0.7529 -0.5155
 5415SOL     OW27880   3.195   2.197   1.314 -0.4365  0.0886  0.0906
 5415SOL    HW127881   3.133   2.264   1.286  0.4750  0.5670 -0.7888
 5415SOL    HW227882   3.272   2.212   1.259 -1.1020 -1.8013 -1.3815
 5416SOL     OW27883   3.248   4.731  16.134  0.4181 -0.0560 -0.2953
 5416SOL    HW127884   3.284   0.082  16.122  1.0544 -0.4376 -1.1308
 5416SOL    HW227885   3.154   0.010  16.129  0.6871  1.3628 -0.8933
 5417SOL     OW27886   2.655   0.293   8.926  0.2212  0.0064  0.1905
 5417SOL    HW127887   2.620   0.292   8.837 -0.8895 -0.4709  0.6249
 5417SOL    HW227888   2.641   0.385   8.948 -2.2860 -0.5802  1.1070
 5418SOL     OW27889   0.391   3.478   0.135  0.2899  0.6903 -0.2318
 5418SOL    HW127890   0.437   3.490   0.052 -1.7314 -0.7741 -1.5471
 5418SOL    HW227891   0.429   3.398   0.171 -0.7319  0.4660  0.3537
 5419SOL     OW27892   0.612   1.087   6.795  0.0219 -0.2144  0.0773
 5419SOL    HW127893   0.530   1.055   6.756 -0.7306 -0.2134  1.6380
 5419SOL    HW227894   0.621   1.025   6.867 -1.3920 -1.8894 -1.1924
 5420SOL     OW27895   4.127   3.674   6.716 -0.4663  0.1504 -0.2425
 5420SOL    HW127896   4.125   3.766   6.740 -0.4733 -0.2875  1.4220
 5420SOL    HW227897   4.163   3.633   6.794  0.6324 -0.7640 -1.2165
 5421SOL     OW27898   2.566   4.606   2.499  0.0605  0.4090  0.2659
 5421SOL    HW127899   2.542   4.548   2.427 -2.1912  1.7153 -0.0204
 5421SOL    HW227900   2.488   4.659   2.509 -0.0692  0.6833 -2.0717
 5422SOL     OW27901   0.113   0.583   7.132 -0.0149 -0.2920  0.1798
 5422SOL    HW127902   0.071   0.608   7.050 -0.4470 -1.6848 -0.0098
 5422SOL    HW227903   0.034   0.544   7.170 -0.0637  3.2877  3.8158
 5423SOL     OW27904   4.654   2.341   6.066  0.1827  0.2859 -0.1639
 5423SOL    HW127905   4.655   2.437   6.074  3.7822  0.5252 -3.4548
 5423SOL    HW227906   4.559   2.337   6.073  0.4594 -2.6954  1.8161
 5424SOL     OW27907   1.836   4.314   3.099  0.1255  0.1087  0.7717
 5424SOL    HW127908   1.811   4.236   3.050  0.2263 -0.1333  1.1046
 5424SOL    HW227909   1.880   4.357   3.025  2.0766 -4.0151 -0.4429
 5425SOL     OW27910   0.581   0.649  14.251  0.1562 -0.2631  0.2680
 5425SOL    HW127911   0.637   0.725  14.269 -3.4654  2.5815 -0.4889
 5425SOL    HW227912   0.649   0.586  14.226 -0.1246 -0.5015  0.1026
 5426SOL     OW27913   4.721   3.420  11.879  0.0193 -0.4498  0.3423
 5426SOL    HW127914   0.057   3.458  11.928  0.5862 -0.0405 -0.8083
 5426SOL    HW227915   0.031   3.408  11.796 -0.6107 -0.0776 -0.0615
 5427SOL     OW27916   1.671   3.912   8.255  0.3365  0.6352 -0.0463
 5427SOL    HW127917   1.722   3.987   8.287 -0.2116  1.7723 -1.8452
 5427SOL    HW227918   1.604   3.956   8.202  0.3029  0.2889 -0.2862
 5428SOL     OW27919   3.947   3.788   3.436  0.1282 -0.0161  0.0181
 5428SOL    HW127920   3.986   3.818   3.518  1.1929 -2.1492  0.2920
 5428SOL    HW227921   3.886   3.861   3.430 -1.6868 -1.6580 -1.5137
 5429SOL     OW27922   2.304   3.430   0.185 -0.7987 -0.4739 -0.0585
 5429SOL    HW127923   2.258   3.513   0.178  0.8849  0.3405 -1.4028
 5429SOL    HW227924   2.339   3.430   0.275 -0.0388 -1.2171 -0.3523
 5430SOL     OW27925   2.547   3.742   9.514  0.4043  0.1436 -0.3820
 5430SOL    HW127926   2.595   3.814   9.474  0.7013  1.4503  2.3123
 5430SOL    HW227927   2.611   3.708   9.577 -0.9085 -1.8438 -0.1423
 5431SOL     OW27928   1.896   0.015   5.974  0.0165  0.2419  0.5060
 5431SOL    HW127929   1.979   0.038   6.016  1.1510 -0.7991 -1.2131
 5431SOL    HW227930   1.930   4.695   5.905  0.2873  0.6151  0.3348
 5432SOL     OW27931   3.542   0.532   5.823  0.3090 -0.1371  0.0311
 5432SOL    HW127932   3.626   0.542   5.868 -0.2778  2.0845  0.6400
 5432SOL    HW227933   3.537   0.607   5.764  2.0284 -0.4844 -0.5483
 5433SOL     OW27934   1.454   3.920   7.398 -0.4483 -0.1591  0.5273
 5433SOL    HW127935   1.549   3.926   7.404 -0.2021 -2.3876 -1.1912
 5433SOL    HW227936   1.441   3.827   7.378  0.9642 -0.3463  0.4541
 5434SOL     OW27937   0.038   1.726  15.168 -0.2022  0.3287  0.0170
 5434SOL    HW127938   4.730   1.721  15.083  0.5805 -3.0739 -0.2083
 5434SOL    HW227939   0.129   1.707  15.143 -0.3243 -1.1264  0.6717
 5435SOL     OW27940   2.064   1.981  11.988 -0.2167  0.2805  0.3092
 5435SOL    HW127941   1.986   2.035  12.000  0.1588  0.7136  0.7586
 5435SOL    HW227942   2.061   1.915  12.058  0.4140  0.2083  0.2640
 5436SOL     OW27943   3.219   0.899   4.880  0.4077 -0.0194  0.1964
 5436SOL    HW127944   3.267   0.940   4.952  3.6436 -1.8754 -0.9181
 5436SOL    HW227945   3.171   0.841   4.940  0.7491  0.2554  0.7383
 5437SOL     OW27946   2.322   2.639  11.007 -0.2715  0.0458  0.1391
 5437SOL    HW127947   2.282   2.588  11.078  1.8451 -0.1326  1.2039
 5437SOL    HW227948   2.319   2.726  11.047  0.8837 -0.5427  1.5077
 5438SOL     OW27949   0.577   4.200  14.200 -0.0991 -0.7546 -0.1437
 5438SOL    HW127950   0.524   4.185  14.121 -1.3621 -0.3581  0.6264
 5438SOL    HW227951   0.632   4.275  14.178  0.0940 -0.2726  2.0141
 5439SOL     OW27952   2.807   0.800   5.357 -0.0989  0.4988 -0.4529
 5439SOL    HW127953   2.814   0.891   5.329 -1.9678  0.6751 -0.3084
 5439SOL    HW227954   2.817   0.766   5.268 -0.5247  0.3012 -0.4252
 5440SOL     OW27955   2.884   1.997   7.858  0.0147  0.2072  0.0163
 5440SOL    HW127956   2.846   1.933   7.799 -0.4542  0.0437  0.5011
 5440SOL    HW227957   2.925   2.059   7.797 -2.8344  1.3782 -0.7139
 5441SOL     OW27958   4.025   4.073   7.301  0.1374 -0.5261 -0.8371
 5441SOL    HW127959   4.066   4.042   7.381 -0.1471  0.8723 -0.1424
 5441SOL    HW227960   4.074   4.029   7.232 -1.5879  0.6268 -2.8206
 5442SOL     OW27961   4.645   0.220   1.482  0.1498  0.2540 -0.1985
 5442SOL    HW127962   4.651   0.177   1.397 -0.4950 -2.1348  0.9737
 5442SOL    HW227963   4.606   0.157   1.542  2.1381 -1.2403 -0.4915
 5443SOL     OW27964   0.792   1.106   9.092 -0.4356  0.1499 -0.0730
 5443SOL    HW127965   0.738   1.136   9.165 -0.3216  1.4139 -0.4919
 5443SOL    HW227966   0.867   1.075   9.143  0.6667  2.4033 -0.3210
 5444SOL     OW27967   1.773   4.182   1.951 -0.9353  0.2472 -0.1335
 5444SOL    HW127968   1.711   4.240   1.996 -2.4094 -2.5602  1.5113
 5444SOL    HW227969   1.726   4.159   1.871 -1.0096 -0.3339  0.0730
 5445SOL     OW27970   1.051   0.203   7.526 -0.2482 -0.7296 -0.5740
 5445SOL    HW127971   0.982   0.206   7.461 -0.3565  2.6392 -0.2884
 5445SOL    HW227972   1.099   0.129   7.490 -0.0300 -0.2436 -1.2707
 5446SOL     OW27973   2.577   2.910  15.933  0.2008 -0.3316 -0.1048
 5446SOL    HW127974   2.664   2.881  15.957  1.6972  1.2303 -3.6562
 5446SOL    HW227975   2.556   2.962  16.011 -2.2693 -2.5231  0.7102
 5447SOL     OW27976   4.266   2.062   9.393 -0.1390 -0.2016  0.1708
 5447SOL    HW127977   4.182   2.046   9.350 -0.7350 -3.0976  2.4003
 5447SOL    HW227978   4.322   1.997   9.350 -0.5175  0.8929 -1.9437
 5448SOL     OW27979   3.849   0.652  12.823 -0.5254  0.2260 -0.1709
 5448SOL    HW127980   3.903   0.578  12.797 -1.1472 -0.7458  1.3174
 5448SOL    HW227981   3.842   0.651  12.918 -3.0071 -1.5724 -0.3807
 5449SOL     OW27982   1.546   3.671   8.408  0.1903 -0.1408  0.2404
 5449SOL    HW127983   1.572   3.647   8.497 -0.7656  0.7947  0.7706
 5449SOL    HW227984   1.450   3.674   8.414  0.2449  0.3413  0.8526
 5450SOL     OW27985   4.135   2.410   8.537 -0.2018 -0.1480  0.4171
 5450SOL    HW127986   4.125   2.448   8.450  0.6079  1.5331  1.0540
 5450SOL    HW227987   4.044   2.392   8.562 -0.5552 -0.5808 -1.2326
 5451SOL     OW27988   2.974   1.197   7.986 -0.0132 -0.2074 -0.0818
 5451SOL    HW127989   2.923   1.116   8.000  1.1271 -0.8541  0.2934
 5451SOL    HW227990   2.991   1.222   8.077  1.9714 -0.7648 -0.3111
 5452SOL     OW27991   1.343   3.621   5.081 -0.0642  0.1983 -0.0783
 5452SOL    HW127992   1.429   3.604   5.042  0.2745  0.9950  0.3054
 5452SOL    HW227993   1.313   3.696   5.029  0.0362 -1.0313 -1.9107
 5453SOL     OW27994   0.418   2.021   6.742  0.5630  0.0454 -0.5552
 5453SOL    HW127995   0.486   2.054   6.800  0.0736 -0.1060  0.1007
 5453SOL    HW227996   0.463   1.968   6.676 -0.5649  1.7734 -2.7166
 5454SOL     OW27997   3.222   4.409   6.668  0.5029 -0.5259 -0.0528
 5454SOL    HW127998   3.135   4.443   6.647  0.3921 -0.7908 -0.0158
 5454SOL    HW227999   3.196   4.321   6.694  1.3286 -0.7891 -0.1066
 5455SOL     OW28000   4.149   3.322  12.104 -0.3064  0.3020 -0.7383
 5455SOL    HW128001   4.194   3.344  12.022  1.3680  1.7781  0.5946
 5455SOL    HW228002   4.133   3.227  12.098 -0.9025  0.3615 -0.0667
 5456SOL     OW28003   0.938   4.460   7.605  0.1352 -0.6544  0.0257
 5456SOL    HW128004   0.948   4.449   7.699 -1.3466 -3.2231 -0.1234
 5456SOL    HW228005   0.867   4.524   7.602  2.2121  1.6653  0.1409
 5457SOL     OW28006   1.234   3.204  10.111 -0.1418  0.9646 -0.1412
 5457SOL    HW128007   1.186   3.271  10.161  1.3843  0.3797  2.0785
 5457SOL    HW228008   1.300   3.173  10.172 -0.2597 -2.5098 -1.7846
 5458SOL     OW28009   0.314   2.797   4.883 -0.3756 -0.9868  0.0099
 5458SOL    HW128010   0.297   2.712   4.923  0.3773 -0.9738  0.3557
 5458SOL    HW228011   0.293   2.853   4.958  0.3793 -0.7181  0.0206
 5459SOL     OW28012   3.803   3.032   7.682 -0.2162  0.5635 -0.3939
 5459SOL    HW128013   3.723   2.979   7.685 -0.9875  1.7614  0.5133
 5459SOL    HW228014   3.864   2.972   7.724 -0.8280  0.3842  0.2434
 5460SOL     OW28015   2.290   2.597   5.738  0.3724 -0.4274 -0.2883
 5460SOL    HW128016   2.265   2.553   5.820  1.3549  1.0035  0.7907
 5460SOL    HW228017   2.291   2.530   5.670  1.5008  0.5028 -1.1822
 5461SOL     OW28018   2.471   3.230   5.993 -0.2523 -0.3465 -0.4779
 5461SOL    HW128019   2.450   3.268   6.078 -1.1541 -1.3885 -0.2365
 5461SOL    HW228020   2.489   3.140   6.020  0.5154 -0.5188 -1.5477
 5462SOL     OW28021   4.386   2.840  12.196  0.1549 -0.5180 -0.2160
 5462SOL    HW128022   4.319   2.828  12.263  1.4884 -0.2203  1.1583
 5462SOL    HW228023   4.436   2.912  12.235 -0.4716  0.4033 -1.0999
 5463SOL     OW28024   3.549   4.685   3.134  0.1492  0.0046 -0.2685
 5463SOL    HW128025   3.632   4.662   3.092  0.1097 -0.3706 -0.1352
 5463SOL    HW228026   3.540   0.042   3.115 -1.9917 -0.3882 -1.0776
 5464SOL     OW28027   1.970   1.384   4.790  0.9559 -0.3852  0.2853
 5464SOL    HW128028   2.034   1.429   4.845  0.6721 -1.2051  1.2982
 5464SOL    HW228029   1.970   1.295   4.826 -1.7292  0.0543  1.4049
 5465SOL     OW28030   2.106   2.857   9.071 -0.2932  0.2710  0.5861
 5465SOL    HW128031   2.096   2.948   9.100  4.0473  0.3859  1.7499
 5465SOL    HW228032   2.035   2.860   9.007 -0.3563  1.2247  0.7022
 5466SOL     OW28033   4.378   3.955   7.391 -0.4446  0.2586  0.0116
 5466SOL    HW128034   4.303   3.948   7.450 -0.1893 -1.0575  0.1701
 5466SOL    HW228035   4.424   4.019   7.445  0.7183  0.4024 -1.1509
 5467SOL     OW28036   1.799   3.620   0.333  0.2473  0.2531 -0.7884
 5467SOL    HW128037   1.739   3.585   0.267 -0.0653 -1.3135  0.3302
 5467SOL    HW228038   1.735   3.652   0.398  0.6690  0.0931 -0.2910
 5468SOL     OW28039   0.810   2.334   7.546 -0.0907 -0.6100  0.4138
 5468SOL    HW128040   0.722   2.312   7.574 -1.3459  3.0292 -0.6615
 5468SOL    HW228041   0.792   2.373   7.460  1.4952 -2.1253 -0.6035
 5469SOL     OW28042   0.812   2.427   5.013  0.2539 -0.1902  0.6531
 5469SOL    HW128043   0.812   2.520   5.037  0.7801 -0.1632  0.5533
 5469SOL    HW228044   0.744   2.398   5.074  0.4595  0.5832  1.2589
 5470SOL     OW28045   3.778   1.205   5.328  0.2966 -0.7608 -0.6372
 5470SOL    HW128046   3.726   1.279   5.359 -0.2370 -1.0054 -0.9387
 5470SOL    HW228047   3.840   1.249   5.270  0.7382  1.1803  1.3235
 5471SOL     OW28048   4.327   1.056  16.690 -0.4824 -0.4736  0.9453
 5471SOL    HW128049   4.239   1.060  16.654 -1.2590 -0.6855  2.7949
 5471SOL    HW228050   4.302   1.055  16.783 -1.4981  1.0649  0.6724
 5472SOL     OW28051   3.574   3.705  14.008 -0.2731 -0.2649  0.3275
 5472SOL    HW128052   3.517   3.629  14.017 -0.6615  0.2860  2.3864
 5472SOL    HW228053   3.583   3.721  13.914  0.0689 -2.0355  0.0613
 5473SOL     OW28054   2.843   2.155   4.231  0.2450 -0.1889  0.1148
 5473SOL    HW128055   2.916   2.102   4.263 -0.4221 -0.5100  1.1181
 5473SOL    HW228056   2.774   2.101   4.270 -1.8417  2.5378  0.1246
 5474SOL     OW28057   1.306   4.511  17.172 -0.0727 -0.1421 -0.5821
 5474SOL    HW128058   1.288   4.567  17.096 -0.5575  1.1037  0.4403
 5474SOL    HW228059   1.393   4.486  17.141 -0.2390 -1.5691  0.1231
 5475SOL     OW28060   0.317   4.122   7.077  0.2424 -0.3738  0.0213
 5475SOL    HW128061   0.331   4.217   7.082  2.4328 -0.6353 -0.8908
 5475SOL    HW228062   0.406   4.087   7.068  0.4729  0.3833 -0.6820
 5476SOL     OW28063   3.272   3.563   2.460 -0.0785 -0.2158  0.8338
 5476SOL    HW128064   3.344   3.608   2.416  0.2592  0.2616  1.8847
 5476SOL    HW228065   3.227   3.638   2.498 -1.0202  0.5669 -1.8248
 5477SOL     OW28066   1.707   0.899   4.116 -0.0218 -0.1863  0.1319
 5477SOL    HW128067   1.669   0.881   4.202 -1.3073  0.5443 -0.2935
 5477SOL    HW228068   1.672   0.984   4.091  0.9767 -0.2166 -1.3563
 5478SOL     OW28069   3.975   2.138   0.990  0.0057  0.1447 -0.0235
 5478SOL    HW128070   3.947   2.223   0.957 -0.6131  0.5934  1.6270
 5478SOL    HW228071   3.914   2.072   0.958 -0.1274  0.5105 -0.5269
 5479SOL     OW28072   3.926   1.900   8.872 -0.0281 -0.3376 -0.0950
 5479SOL    HW128073   3.907   1.980   8.822  1.4695 -0.6102 -1.1290
 5479SOL    HW228074   3.923   1.836   8.800  1.8856  0.4721 -0.9057
 5480SOL     OW28075   1.821   2.657   2.998  0.0147 -0.0729  0.0110
 5480SOL    HW128076   1.841   2.602   2.922 -0.9644 -1.4142  0.7299
 5480SOL    HW228077   1.761   2.720   2.958 -1.6614 -0.5133  1.8963
 5481SOL     OW28078   2.427   3.835   3.630 -0.3398 -0.1173 -0.3574
 5481SOL    HW128079   2.399   3.926   3.642  0.9439  0.2514 -0.0812
 5481SOL    HW228080   2.489   3.833   3.703 -1.1494 -1.8890  0.2506
 5482SOL     OW28081   1.037   1.414   4.896  0.0668  0.1908  0.0134
 5482SOL    HW128082   0.963   1.354   4.903  2.1100 -2.4657 -1.2006
 5482SOL    HW228083   1.000   1.475   4.832  0.0265  0.4148  0.2476
 5483SOL     OW28084   0.010   0.863   5.058  0.1805 -0.2949  0.3668
 5483SOL    HW128085   0.013   0.786   5.115 -0.6921  0.3389  1.2815
 5483SOL    HW228086   0.036   0.930   5.120 -1.5227 -0.1922  0.9786
 5484SOL     OW28087   4.381   3.113   4.270 -0.1115 -0.3784  0.0761
 5484SOL    HW128088   4.451   3.178   4.266 -0.4434  0.1329  2.6118
 5484SOL    HW228089   4.411   3.060   4.344  1.8963  0.6745  0.0322
 5485SOL     OW28090   2.547   3.022   2.175  0.0777 -0.3788  0.0397
 5485SOL    HW128091   2.586   3.018   2.088  0.5178 -2.9960  0.3510
 5485SOL    HW228092   2.454   3.036   2.157  0.5015  0.0838 -1.8741
 5486SOL     OW28093   0.190   3.467   9.691  0.4038 -0.6213 -0.5747
 5486SOL    HW128094   0.141   3.498   9.768  0.2109  0.0931 -0.9852
 5486SOL    HW228095   0.224   3.550   9.657 -1.6180 -0.4245 -2.1053
 5487SOL     OW28096   1.585   4.312   7.357  0.1143 -0.0607 -0.3817
 5487SOL    HW128097   1.540   4.359   7.427 -0.2343 -0.3433 -0.4132
 5487SOL    HW228098   1.625   4.385   7.311  0.1776 -0.0342 -0.2832
 5488SOL     OW28099   0.563   0.893   0.357  0.1857 -0.0149 -0.8673
 5488SOL    HW128100   0.468   0.904   0.353 -0.0809 -1.3473  2.0432
 5488SOL    HW228101   0.570   0.801   0.381 -0.1966  0.3343  0.5741
 5489SOL     OW28102   0.340   3.670   8.297 -0.0031 -0.1170  0.1563
 5489SOL    HW128103   0.326   3.750   8.349  0.1523  1.0852 -1.6535
 5489SOL    HW228104   0.386   3.627   8.369  0.5652  0.5655  0.2123
 5490SOL     OW28105   0.640   2.500   4.107  0.2646 -0.5678  0.3615
 5490SOL    HW128106   0.640   2.490   4.011 -0.2365  0.0336  0.2887
 5490SOL    HW228107   0.652   2.408   4.127 -0.6019 -0.2032  2.6212
 5491SOL     OW28108   2.567   2.359   7.185 -0.1467 -0.5420  0.1167
 5491SOL    HW128109   2.561   2.314   7.270 -4.2560 -2.4994 -1.2023
 5491SOL    HW228110   2.472   2.360   7.170 -0.4329 -0.8526  1.8871
 5492SOL     OW28111   2.850   1.438  12.253 -0.0311  0.2556  0.2089
 5492SOL    HW128112   2.827   1.401  12.168 -0.6857  0.6625  0.2052
 5492SOL    HW228113   2.871   1.527  12.224 -3.1940  1.1683  0.6617
 5493SOL     OW28114   3.172   3.882   7.738  0.2200  0.0472 -0.0082
 5493SOL    HW128115   3.082   3.917   7.737  0.6826  1.2408  0.2502
 5493SOL    HW228116   3.172   3.851   7.828 -0.5649 -0.7140 -0.2619
 5494SOL     OW28117   2.423   4.043   6.142 -0.0778  0.4482  0.2478
 5494SOL    HW128118   2.427   3.962   6.090  1.4277 -0.4005  1.6666
 5494SOL    HW228119   2.446   4.116   6.084 -0.0582 -1.2859 -1.9610
 5495SOL     OW28120   3.389   1.094  14.785 -0.0736 -0.0817  1.0658
 5495SOL    HW128121   3.427   1.047  14.859  1.1007 -0.2424  0.3727
 5495SOL    HW228122   3.472   1.127  14.749 -0.2085 -1.3365 -0.4159
 5496SOL     OW28123   0.390   1.968   5.590 -0.0874  0.0611 -0.5087
 5496SOL    HW128124   0.393   2.023   5.512  2.1628  0.4861 -0.1147
 5496SOL    HW228125   0.432   2.027   5.653  0.9798 -0.8364 -0.3936
 5497SOL     OW28126   1.911   2.693  12.712 -0.2059 -0.1237 -0.1356
 5497SOL    HW128127   1.897   2.728  12.624  0.8170  2.5346  0.7667
 5497SOL    HW228128   1.984   2.632  12.702 -0.7539 -1.0241  1.2635
 5498SOL     OW28129   4.015   0.702  10.551 -0.4069 -0.0024 -0.1099
 5498SOL    HW128130   4.080   0.640  10.582  0.9445  1.6160  0.2741
 5498SOL    HW228131   4.068   0.765  10.502  1.1913  0.1152  1.8051
 5499SOL     OW28132   0.647   3.469  17.023 -0.0283  0.2640  0.1736
 5499SOL    HW128133   0.594   3.543  17.051  0.5741  0.5064  0.6851
 5499SOL    HW228134   0.725   3.480  17.077  0.9581  0.5082 -1.2993
 5500SOL     OW28135   0.269   4.626   1.086 -0.7257  0.2924 -0.3859
 5500SOL    HW128136   0.227   4.651   1.169  2.2265 -2.1898  1.8724
 5500SOL    HW228137   0.194   4.582   1.047 -2.6087  1.5189  1.8639
 5501SOL     OW28138   1.198   0.119   9.311 -0.0362 -0.1896  0.0390
 5501SOL    HW128139   1.218   0.050   9.374  0.0517 -2.9169 -2.9673
 5501SOL    HW228140   1.133   0.071   9.260  0.7512 -0.1038 -1.0539
 5502SOL     OW28141   4.434   0.976   8.467  0.9580  0.0226 -0.3515
 5502SOL    HW128142   4.441   0.916   8.394  0.9096  0.5700 -0.8050
 5502SOL    HW228143   4.403   1.057   8.426  0.9803 -1.1824 -2.7325
 5503SOL     OW28144   0.292   4.523   2.442  0.0650  0.7710 -0.2847
 5503SOL    HW128145   0.304   4.609   2.484  1.8583 -0.2459  1.2623
 5503SOL    HW228146   0.291   4.474   2.524  1.5331  0.7544 -0.2742
 5504SOL     OW28147   4.666   1.093  11.951 -0.0714  0.2319  0.7446
 5504SOL    HW128148   4.628   1.038  11.883 -2.1164 -0.4359  2.4433
 5504SOL    HW228149   0.010   1.043  11.961  0.4405  0.6260 -1.5732
 5505SOL     OW28150   4.322   1.849  13.158  0.6494  0.1737  0.0880
 5505SOL    HW128151   4.321   1.780  13.092 -0.8621  2.3189 -2.1535
 5505SOL    HW228152   4.394   1.824  13.216  0.6917 -0.3861 -0.2098
 5506SOL     OW28153   2.736   0.404   6.931  0.6675  0.4251 -0.2785
 5506SOL    HW128154   2.745   0.485   6.882  1.4926  0.8857  0.6399
 5506SOL    HW228155   2.710   0.454   7.008 -0.3580 -3.7115  2.0756
 5507SOL     OW28156   1.668   3.865   3.011 -0.5833  0.1322  0.2458
 5507SOL    HW128157   1.734   3.926   3.045  1.0623 -0.5949 -1.6734
 5507SOL    HW228158   1.705   3.780   3.034 -1.0451 -0.3217 -0.7387
 5508SOL     OW28159   0.560   2.606  15.944 -0.0445  0.0836  0.1385
 5508SOL    HW128160   0.488   2.554  15.980  0.5958 -1.4075 -0.7373
 5508SOL    HW228161   0.622   2.550  15.991 -0.9739  1.0556  2.5502
 5509SOL     OW28162   4.303   2.292   9.233 -0.2035 -0.3003  0.2182
 5509SOL    HW128163   4.329   2.297   9.141 -1.1998  0.9186 -0.0049
 5509SOL    HW228164   4.284   2.200   9.249  1.9028 -0.9143 -0.8194
 5510SOL     OW28165   4.596   2.295  16.299 -0.0316  0.3660 -0.7690
 5510SOL    HW128166   4.551   2.375  16.275 -1.4402  0.3458  1.9190
 5510SOL    HW228167   4.689   2.312  16.313 -0.5893  0.5893  2.5309
 5511SOL     OW28168   3.210   1.225  16.322 -0.5064 -0.2127  0.3391
 5511SOL    HW128169   3.280   1.172  16.285 -1.8292 -2.3508  0.8759
 5511SOL    HW228170   3.131   1.171  16.329 -0.3495 -0.5680 -0.6013
 5512SOL     OW28171   4.111   0.272   6.500  0.6088  0.1463 -0.0157
 5512SOL    HW128172   4.093   0.254   6.408 -3.2673 -0.7765  0.9472
 5512SOL    HW228173   4.165   0.195   6.513 -0.3741 -0.4277  0.6228
 5513SOL     OW28174   2.746   1.342   7.617 -0.6775  0.4003  0.4427
 5513SOL    HW128175   2.779   1.391   7.541 -0.0174  2.5101  2.0887
 5513SOL    HW228176   2.726   1.257   7.576  0.4276  1.3560 -2.1166
 5514SOL     OW28177   1.763   1.589   9.031 -0.2157 -0.1435  0.3698
 5514SOL    HW128178   1.807   1.673   9.045  0.6318 -0.4927 -0.1656
 5514SOL    HW228179   1.830   1.535   8.989 -1.6231 -1.7881  0.2509
 5515SOL     OW28180   3.990   3.076  14.732  0.2148  0.3291  0.1773
 5515SOL    HW128181   3.963   2.989  14.703  2.2480 -0.5790  0.9970
 5515SOL    HW228182   4.085   3.059  14.727  0.0705  0.9569 -4.5968
 5516SOL     OW28183   0.455   1.434   8.606 -0.0733  0.3903 -0.1611
 5516SOL    HW128184   0.392   1.401   8.543 -1.0807  0.6875  0.6825
 5516SOL    HW228185   0.533   1.392   8.571 -0.1165 -0.0383  0.2545
 5517SOL     OW28186   2.188   3.915   7.549 -0.3935 -0.1335  0.3576
 5517SOL    HW128187   2.183   3.827   7.587 -0.9075 -1.1315 -2.0578
 5517SOL    HW228188   2.127   3.906   7.476 -0.5705  0.0340  0.4810
 5518SOL     OW28189   3.527   1.811   7.905  0.0557 -0.0088  0.1156
 5518SOL    HW128190   3.615   1.781   7.883 -0.3092 -0.8839 -0.1728
 5518SOL    HW228191   3.483   1.727   7.889  0.4298 -0.1685 -0.0835
 5519SOL     OW28192   1.552   3.779   6.363 -0.3457 -0.7710  0.1244
 5519SOL    HW128193   1.508   3.752   6.283 -0.1783  0.9623 -0.5557
 5519SOL    HW228194   1.498   3.853   6.390 -0.0376  0.0704 -1.6361
 5520SOL     OW28195   1.438   0.414   8.593  0.3336 -0.1248  0.2308
 5520SOL    HW128196   1.429   0.507   8.575 -1.6591 -0.9071 -2.8099
 5520SOL    HW228197   1.524   0.399   8.554 -0.4024 -0.4982 -1.2387
 5521SOL     OW28198   2.868   0.671   2.117  0.4113 -0.4760 -0.2033
 5521SOL    HW128199   2.774   0.680   2.102  0.1437 -0.0851  1.6587
 5521SOL    HW228200   2.892   0.752   2.162  1.1569 -0.9978  0.3554
 5522SOL     OW28201   3.716   4.625   2.310 -0.1512 -0.2417 -0.1223
 5522SOL    HW128202   3.764   4.703   2.339 -2.2511  0.4400  1.5247
 5522SOL    HW228203   3.634   4.623   2.360 -1.5781  0.5948 -2.3735
 5523SOL     OW28204   0.711   2.371   5.909 -1.1872  0.6967  0.8750
 5523SOL    HW128205   0.641   2.363   5.974 -0.5931 -0.2837  1.3920
 5523SOL    HW228206   0.757   2.288   5.919  1.7007  1.8889 -2.2902
 5524SOL     OW28207   2.698   4.272   5.912 -0.1642 -0.0849  0.2611
 5524SOL    HW128208   2.634   4.299   5.979  2.0119  1.1233  1.8557
 5524SOL    HW228209   2.637   4.228   5.853 -2.9797  2.1034  1.4894
 5525SOL     OW28210   0.611   3.627   1.129  0.4450  0.0370  0.3265
 5525SOL    HW128211   0.633   3.667   1.213  0.3965 -0.8415  0.7637
 5525SOL    HW228212   0.528   3.663   1.098  1.9008  3.1002  0.0165
 5526SOL     OW28213   3.573   4.571   2.029 -0.7425  0.2976 -0.1362
 5526SOL    HW128214   3.584   4.648   2.085  2.4713  0.9821 -1.7183
 5526SOL    HW228215   3.564   4.495   2.088 -1.4387 -0.3006 -1.0237
 5527SOL     OW28216   3.301   2.070  17.022  0.4287 -0.4899  0.8097
 5527SOL    HW128217   3.281   2.045  17.112 -0.3338  1.6337  1.2419
 5527SOL    HW228218   3.368   2.008  16.995  2.3354  2.6312 -1.5608
 5528SOL     OW28219   1.826   4.590   8.897  1.0559  0.0216 -0.0954
 5528SOL    HW128220   1.871   4.607   8.980  0.5721  0.7848  0.0127
 5528SOL    HW228221   1.844   4.675   8.858 -0.1276 -0.1003 -0.8915
 5529SOL     OW28222   4.486   1.649   2.380 -0.1513  0.0621  0.5470
 5529SOL    HW128223   4.465   1.705   2.454  2.1979  0.5490  0.8452
 5529SOL    HW228224   4.394   1.624   2.376  0.3337 -1.3712 -2.0359
 5530SOL     OW28225   2.913   3.600  12.271  0.0767 -0.1029 -0.4453
 5530SOL    HW128226   2.867   3.672  12.229  0.1598  0.4344  0.3829
 5530SOL    HW228227   2.847   3.540  12.305  1.5700 -2.2004 -1.2753
 5531SOL     OW28228   3.821   4.310   5.223 -0.3794 -0.1177  0.2871
 5531SOL    HW128229   3.748   4.282   5.278 -0.2657  1.1495  1.1051
 5531SOL    HW228230   3.880   4.265   5.283 -0.3847 -0.9161 -0.3059
 5532SOL     OW28231   3.427   4.622  16.327 -0.1040 -0.8087 -1.2122
 5532SOL    HW128232   3.466   4.706  16.352  0.8989 -1.6093 -0.1080
 5532SOL    HW228233   3.355   4.651  16.272 -2.7259 -0.6276  2.3606
 5533SOL     OW28234   2.464   3.372   1.884 -0.1719 -0.9358  0.7191
 5533SOL    HW128235   2.511   3.454   1.893  1.0056 -1.5594  0.1973
 5533SOL    HW228236   2.511   3.330   1.812 -1.1918  2.8171 -2.0901
 5534SOL     OW28237   4.542   2.003   3.278 -0.3272  0.0414 -0.6133
 5534SOL    HW128238   4.577   2.090   3.294 -0.3509 -0.4221  1.9595
 5534SOL    HW228239   4.510   1.984   3.366 -0.3432 -2.2293 -1.1025
 5535SOL     OW28240   3.181   3.456   1.391  0.0158 -0.9479 -0.5434
 5535SOL    HW128241   3.107   3.453   1.452 -0.4663  1.0288 -1.0273
 5535SOL    HW228242   3.178   3.368   1.352  0.6536 -1.6168  0.9210
 5536SOL     OW28243   0.343   2.886   3.044  0.0571 -0.5157  0.4263
 5536SOL    HW128244   0.266   2.943   3.047 -0.5267 -1.2288 -1.2381
 5536SOL    HW228245   0.310   2.816   3.101 -0.4447  0.0020  0.7723
 5537SOL     OW28246   0.134   4.178   1.981 -0.0500 -0.0743  0.4652
 5537SOL    HW128247   0.145   4.159   2.074  1.0233  1.8869  0.7383
 5537SOL    HW228248   0.065   4.115   1.963 -0.6439  0.9479 -0.8247
 5538SOL     OW28249   0.814   3.468  12.792  0.0407  0.1006  1.3239
 5538SOL    HW128250   0.824   3.446  12.885 -0.3149 -1.2446  1.0430
 5538SOL    HW228251   0.790   3.387  12.747 -0.3996  0.3952  1.0454
 5539SOL     OW28252   2.900   0.213   5.717 -0.3124 -0.2813  0.3754
 5539SOL    HW128253   2.879   0.306   5.724  1.4348  0.3506 -2.6759
 5539SOL    HW228254   2.975   0.226   5.659 -1.2629 -3.2330 -1.4796
 5540SOL     OW28255   2.973   4.273   4.408 -0.1839 -0.2237 -0.0439
 5540SOL    HW128256   2.971   4.364   4.435 -1.2558 -0.2099 -0.1521
 5540SOL    HW228257   3.008   4.287   4.320 -0.8496 -0.8360 -0.4147
 5541SOL     OW28258   3.283   2.730  14.901  0.2304 -0.0110  0.3779
 5541SOL    HW128259   3.209   2.730  14.962  0.9390  2.1304  1.2322
 5541SOL    HW228260   3.264   2.803  14.843  1.3813 -0.9219 -1.1270
 5542SOL     OW28261   3.221   4.610   2.586  0.1562 -0.2799  0.2800
 5542SOL    HW128262   3.144   4.597   2.642 -1.3930  0.2422 -1.7480
 5542SOL    HW228263   3.285   4.641   2.649  0.8487 -1.7033  0.2863
 5543SOL     OW28264   1.333   0.299   3.627  0.2344  0.7698 -0.1770
 5543SOL    HW128265   1.365   0.226   3.678 -0.4881  0.0709 -0.7270
 5543SOL    HW228266   1.394   0.371   3.643 -0.5140  1.2425  0.6079
 5544SOL     OW28267   1.113   3.385  10.250 -0.4590  0.2729 -0.1206
 5544SOL    HW128268   1.043   3.449  10.268 -1.1799 -0.4466 -0.4001
 5544SOL    HW228269   1.181   3.445  10.280  0.3284 -0.7034  0.0303
 5545SOL     OW28270   3.896   4.007  13.557 -0.2067 -0.0017  0.7541
 5545SOL    HW128271   3.946   3.936  13.515  0.4440 -0.0895  1.6674
 5545SOL    HW228272   3.911   3.991  13.650  0.7561 -0.7948  0.4625
 5546SOL     OW28273   3.930   2.704   3.060  0.4666  0.4411  0.0148
 5546SOL    HW128274   3.953   2.668   2.974 -0.9704  1.8595 -0.9737
 5546SOL    HW228275   3.892   2.624   3.096 -1.8497  1.5466  0.0569
 5547SOL     OW28276   4.295   2.928   7.110  0.3710  0.0580 -0.5384
 5547SOL    HW128277   4.368   2.954   7.053  0.4300 -1.6389 -1.2660
 5547SOL    HW228278   4.338   2.855   7.155  1.0552  1.1028  0.4973
 5548SOL     OW28279   3.384   0.321   6.521 -0.4318 -0.4446 -0.3204
 5548SOL    HW128280   3.436   0.270   6.583 -1.6902 -0.3405  0.8199
 5548SOL    HW228281   3.451   0.354   6.462  0.8424 -1.5502  0.4953
 5549SOL     OW28282   4.563   2.943   5.299  0.0792  0.2147  0.3056
 5549SOL    HW128283   4.603   2.871   5.250  2.0936  1.1020  0.6653
 5549SOL    HW228284   4.483   2.894   5.320 -0.8107  1.2940 -0.5757
 5550SOL     OW28285   3.991   1.391   6.360 -0.4107 -0.5619 -0.6238
 5550SOL    HW128286   4.037   1.350   6.434 -1.7027 -0.3112  0.3155
 5550SOL    HW228287   4.015   1.478   6.392  0.9650 -0.2494 -2.5249
 5551SOL     OW28288   3.581   2.975   4.595 -0.6791  0.5949  0.1669
 5551SOL    HW128289   3.492   2.945   4.579 -0.6353  0.4311  0.2310
 5551SOL    HW228290   3.579   3.041   4.526 -0.8131  1.1231  0.6799
 5552SOL     OW28291   1.543   3.738   0.919  0.6551 -0.5603  0.2034
 5552SOL    HW128292   1.544   3.812   0.858  0.6567 -1.9695 -1.4978
 5552SOL    HW228293   1.513   3.664   0.866 -1.6172  1.7376 -1.6953
 5553SOL     OW28294   3.892   3.455   7.649 -0.3124  0.4401 -0.4510
 5553SOL    HW128295   3.870   3.376   7.600 -2.3226  0.2635  0.7058
 5553SOL    HW228296   3.829   3.514   7.606  0.5155  2.0037  0.5059
 5554SOL     OW28297   1.418   0.385   7.654  0.3965  0.1188 -0.2730
 5554SOL    HW128298   1.340   0.433   7.682 -0.1437 -0.9324  0.0375
 5554SOL    HW228299   1.405   0.312   7.715  1.1787  0.2874  0.0907
 5555SOL     OW28300   0.529   0.780   3.646  0.2857  0.2226  0.5516
 5555SOL    HW128301   0.571   0.810   3.727  0.3370 -1.0947  1.0227
 5555SOL    HW228302   0.524   0.851   3.583  2.0444  0.7642  1.0252
 5556SOL     OW28303   4.423   0.374   6.769  0.9521 -0.2044  0.6633
 5556SOL    HW128304   4.328   0.389   6.768  1.0192  0.3464  2.5558
 5556SOL    HW228305   4.443   0.365   6.862 -0.0328 -0.6666  0.8275
 5557SOL     OW28306   0.433   2.634  11.743  0.7835  0.4056 -0.3967
 5557SOL    HW128307   0.340   2.658  11.740 -0.0409 -2.5687  0.8723
 5557SOL    HW228308   0.432   2.539  11.733  2.4842  0.4844 -1.4317
 5558SOL     OW28309   0.798   2.520  15.099 -0.0276 -0.4495  0.1464
 5558SOL    HW128310   0.746   2.474  15.165  0.1922 -1.6262 -0.4929
 5558SOL    HW228311   0.787   2.611  15.126 -0.8323 -0.1099 -1.3685
 5559SOL     OW28312   4.462   0.153   2.731  0.4235  0.3317 -0.2308
 5559SOL    HW128313   4.387   0.145   2.789 -0.1162  0.2822 -0.9255
 5559SOL    HW228314   4.446   0.072   2.684 -1.5106  0.2682  0.5395
 5560SOL     OW28315   2.548   3.987   5.367 -0.1627 -0.1674  0.3082
 5560SOL    HW128316   2.531   3.961   5.458 -1.8495  1.9843  0.5992
 5560SOL    HW228317   2.484   4.058   5.362 -0.9116 -0.9837 -1.7271
 5561SOL     OW28318   1.814   4.588   7.227 -0.0183 -0.2702 -0.1137
 5561SOL    HW128319   1.737   4.636   7.257 -0.0492  0.2584 -1.0286
 5561SOL    HW228320   1.775   4.519   7.174 -1.0816 -0.7109  1.2366
 5562SOL     OW28321   4.549   1.462   3.798 -0.3212 -0.0301  0.4850
 5562SOL    HW128322   4.492   1.491   3.727 -0.2659 -0.4640  0.2619
 5562SOL    HW228323   4.634   1.487   3.761 -1.7256  1.6419 -1.6137
 5563SOL     OW28324   3.585   1.646  14.843  0.7578 -0.0634 -0.0804
 5563SOL    HW128325   3.577   1.646  14.747 -0.5609 -1.8109  0.0294
 5563SOL    HW228326   3.558   1.737  14.860  0.4427  0.0622 -1.2177
 5564SOL     OW28327   3.267   4.170  15.024 -0.1325 -0.1643  0.5993
 5564SOL    HW128328   3.237   4.080  15.039 -1.3680  0.1855  0.2241
 5564SOL    HW228329   3.188   4.206  14.983 -0.5650 -0.9765  0.6954
 5565SOL     OW28330   0.365   3.197   0.572  0.9716 -0.1172 -0.1883
 5565SOL    HW128331   0.441   3.255   0.575 -0.7338  1.9943  1.8948
 5565SOL    HW228332   0.300   3.265   0.552  0.3954 -0.9736 -1.2575
 5566SOL     OW28333   4.092   0.972   2.839 -0.2929 -0.0430  0.2981
 5566SOL    HW128334   4.130   0.899   2.888 -0.6251  0.6456  1.5747
 5566SOL    HW228335   4.013   0.925   2.814  0.3708 -0.5601 -0.8580
 5567SOL     OW28336   2.969   1.239   5.700 -0.0938 -0.5215 -0.5336
 5567SOL    HW128337   2.981   1.320   5.652 -1.3251  0.5448  0.9321
 5567SOL    HW228338   3.036   1.181   5.664 -1.0857 -0.8487 -1.8339
 5568SOL     OW28339   2.286   1.053   2.049 -0.9164  0.3599  0.0653
 5568SOL    HW128340   2.224   1.120   2.079 -1.0033 -0.2280  1.2337
 5568SOL    HW228341   2.259   1.044   1.958 -0.7788  0.5219  0.0092
 5569SOL     OW28342   2.200   1.984   7.611 -0.2816  0.3733 -0.7870
 5569SOL    HW128343   2.237   1.923   7.547 -0.6506 -1.8104  1.0757
 5569SOL    HW228344   2.144   1.935   7.671 -1.7483 -0.3596 -2.7609
 5570SOL     OW28345   3.284   3.490   5.736  0.4134  0.4577  0.1391
 5570SOL    HW128346   3.276   3.522   5.825  2.5685  0.0324  0.4654
 5570SOL    HW228347   3.251   3.401   5.750 -0.4154  0.9579  1.3776
 5571SOL     OW28348   3.057   1.610   8.646 -0.4984 -0.1360 -0.6277
 5571SOL    HW128349   2.985   1.564   8.689  0.8933 -1.7305 -0.0432
 5571SOL    HW228350   3.029   1.700   8.664  0.2556 -0.2558  1.0574
 5572SOL     OW28351   1.340   3.693   0.188 -0.3075 -0.0799 -0.8310
 5572SOL    HW128352   1.358   3.784   0.209 -1.8788  0.3828 -1.5052
 5572SOL    HW228353   1.263   3.675   0.242  1.7754  1.4475  2.6595
 5573SOL     OW28354   1.817   1.782   7.891 -0.5519 -0.0857  0.0411
 5573SOL    HW128355   1.757   1.708   7.896  0.0038 -0.3881  2.5305
 5573SOL    HW228356   1.760   1.852   7.925 -0.8812  0.5393 -1.8019
 5574SOL     OW28357   1.636   3.998   8.586 -0.0994  0.1275 -0.1488
 5574SOL    HW128358   1.564   4.054   8.615  0.0399 -0.6743  1.7558
 5574SOL    HW228359   1.679   3.979   8.669  1.5344 -0.5276 -1.1472
 5575SOL     OW28360   0.375   3.805   6.250 -0.0743  0.0180 -0.1624
 5575SOL    HW128361   0.296   3.836   6.294 -1.3096 -0.3815 -2.1283
 5575SOL    HW228362   0.398   3.734   6.310  0.0978  1.0400  0.9785
 5576SOL     OW28363   2.337   1.132  12.666  0.2721 -0.0464 -0.1735
 5576SOL    HW128364   2.303   1.043  12.656 -0.0598 -0.0243  0.7849
 5576SOL    HW228365   2.360   1.155  12.576  0.8282 -0.3397 -0.1092
 5577SOL     OW28366   3.055   1.514   2.797 -0.1234  0.6401 -0.3336
 5577SOL    HW128367   3.062   1.474   2.710 -0.3412 -0.4697  0.1617
 5577SOL    HW228368   3.088   1.602   2.777  0.2206  0.6072  0.0875
 5578SOL     OW28369   2.714   2.794   1.465  0.2770  0.4434  0.1258
 5578SOL    HW128370   2.773   2.723   1.488 -0.8812 -0.8760 -0.9871
 5578SOL    HW228371   2.640   2.774   1.523 -1.2882  2.8647 -1.0070
 5579SOL     OW28372   2.196   4.591  13.224  0.0808  0.0536  0.3321
 5579SOL    HW128373   2.211   4.503  13.189 -1.6171 -0.4382  0.8009
 5579SOL    HW228374   2.194   4.646  13.145 -0.8453  1.3584  1.2510
 5580SOL     OW28375   4.161   4.108   2.969  0.2376  0.1357  0.2952
 5580SOL    HW128376   4.218   4.050   2.918 -1.5903 -0.9000 -0.5844
 5580SOL    HW228377   4.126   4.045   3.031  0.2578 -1.7539 -1.6272
 5581SOL     OW28378   0.627   1.464   1.791  0.4271 -0.3165  0.7198
 5581SOL    HW128379   0.640   1.557   1.812  0.3882 -0.2044  0.2353
 5581SOL    HW228380   0.572   1.440   1.865 -1.6374  2.0367 -0.0765
 5582SOL     OW28381   0.047   0.342  14.551  0.0814 -0.3458 -0.4478
 5582SOL    HW128382   0.064   0.258  14.594  3.6088 -0.3123 -1.7642
 5582SOL    HW228383   4.712   0.375  14.606  0.2371 -0.5200 -0.1389
 5583SOL     OW28384   2.607   0.491   2.008 -0.4003 -0.5357 -0.2444
 5583SOL    HW128385   2.583   0.551   2.078 -0.8968 -0.2917 -0.6268
 5583SOL    HW228386   2.543   0.421   2.016 -1.2863  0.2948 -0.0963
 5584SOL     OW28387   1.063   0.964   2.821 -0.1446  0.6042 -0.7346
 5584SOL    HW128388   1.055   0.881   2.775  1.1437  0.2743 -0.3798
 5584SOL    HW228389   0.973   0.993   2.808 -0.8312 -0.9343  0.5572
 5585SOL     OW28390   3.582   2.896  17.245  0.0245  0.4809  0.8231
 5585SOL    HW128391   3.543   2.974  17.285  0.7746  0.4552  1.6003
 5585SOL    HW228392   3.572   2.834  17.317 -1.7971  2.5377  2.3366
 5586SOL     OW28393   2.439   3.288  12.717 -0.5343  0.0963  0.6672
 5586SOL    HW128394   2.422   3.320  12.805 -1.1885 -1.1913  1.0079
 5586SOL    HW228395   2.426   3.368  12.666  2.0464  2.5683  3.9142
 5587SOL     OW28396   0.858   2.157   7.035  0.0991 -0.4066 -0.2198
 5587SOL    HW128397   0.883   2.234   7.086  1.6301 -0.0344 -1.5150
 5587SOL    HW228398   0.781   2.180   6.985  0.9286  0.8923 -0.8958
 5588SOL     OW28399   0.138   4.177  10.708  0.2711 -0.1347  0.1660
 5588SOL    HW128400   0.095   4.262  10.695 -1.2738 -0.7390  1.2410
 5588SOL    HW228401   0.079   4.129  10.767  0.5603  1.9562  2.1486
 5589SOL     OW28402   3.681   2.402   7.640 -0.2576  0.5714  0.2240
 5589SOL    HW128403   3.754   2.360   7.685  0.5914  2.7528  0.8655
 5589SOL    HW228404   3.623   2.424   7.714 -0.1461  2.0210 -0.1147
 5590SOL     OW28405   1.022   3.347  13.055  0.0301  1.0358 -0.1111
 5590SOL    HW128406   0.988   3.307  13.134 -1.3684 -0.3826 -1.4197
 5590SOL    HW228407   0.962   3.422  13.057 -0.7002  0.3987  1.7245
 5591SOL     OW28408   3.118   1.038  13.108 -0.3696  0.1004  0.8739
 5591SOL    HW128409   3.198   0.986  13.116 -0.5068 -0.6033 -2.1526
 5591SOL    HW228410   3.135   1.104  13.041  0.4872 -0.3387  0.6570
 5592SOL     OW28411   0.959   0.125   4.751 -0.1125 -0.5898 -0.1175
 5592SOL    HW128412   0.926   0.036   4.747 -1.6224 -0.0850  1.0203
 5592SOL    HW228413   0.992   0.133   4.840 -4.4291  1.9464  1.2604
 5593SOL     OW28414   0.993   1.123  10.138  0.6383 -0.2017 -0.1491
 5593SOL    HW128415   0.984   1.210  10.099  0.1916  0.1492  0.7202
 5593SOL    HW228416   1.041   1.079  10.068  1.7568 -0.6161  0.8821
 5594SOL     OW28417   3.608   2.683   5.792 -0.2756 -0.0400 -0.2950
 5594SOL    HW128418   3.512   2.679   5.784 -0.2969 -0.5226  0.2851
 5594SOL    HW228419   3.616   2.720   5.880  1.3889 -1.1023  0.0006
 5595SOL     OW28420   2.633   1.337   6.936 -0.4248 -0.2368 -0.0474
 5595SOL    HW128421   2.538   1.332   6.928 -0.5454 -1.1401  2.2643
 5595SOL    HW228422   2.654   1.361   6.845  0.8997 -3.2637 -0.5213
 5596SOL     OW28423   0.816   2.351   0.164  0.3974 -0.6175  0.0243
 5596SOL    HW128424   0.821   2.335   0.259  1.8992  1.4330  0.2956
 5596SOL    HW228425   0.877   2.425   0.157  0.1493 -0.4408 -0.2685
 5597SOL     OW28426   3.567   1.024   8.125 -0.2601  0.6359  0.3814
 5597SOL    HW128427   3.633   0.978   8.074 -0.7265  3.2156 -2.5188
 5597SOL    HW228428   3.619   1.097   8.158  0.0099  0.5865  0.0708
 5598SOL     OW28429   0.461   0.686   6.828  0.2540 -0.4694  0.2931
 5598SOL    HW128430   0.423   0.650   6.908 -0.7492  0.5211  0.2546
 5598SOL    HW228431   0.554   0.679   6.849  0.6725  0.3476 -1.2905
 5599SOL     OW28432   4.646   1.776  13.024  0.0828 -0.2249 -0.5382
 5599SOL    HW128433   4.680   1.852  13.070  0.0793 -0.0167 -0.8771
 5599SOL    HW228434   4.705   1.705  13.052 -1.7637 -0.6368  2.2992
 5600SOL     OW28435   2.907   0.628   7.362 -0.2503  0.1010 -0.0461
 5600SOL    HW128436   3.002   0.640   7.358 -0.1516 -0.5387  0.3792
 5600SOL    HW228437   2.888   0.666   7.276  0.3390  0.0265 -0.2126
 5601SOL     OW28438   2.259   3.086   8.807 -0.2094  0.5803  0.4151
 5601SOL    HW128439   2.285   3.172   8.775 -0.1905  0.5701  0.4026
 5601SOL    HW228440   2.291   3.091   8.897 -1.7575  0.9866  0.9393
 5602SOL     OW28441   2.947   2.049  12.837  0.5255  0.4386 -0.1201
 5602SOL    HW128442   2.902   2.130  12.861  0.5921  0.4266  0.0444
 5602SOL    HW228443   2.891   2.000  12.776 -0.5073  2.7080 -0.9773
 5603SOL     OW28444   1.069   0.567   7.006 -0.3549 -0.1655  0.7244
 5603SOL    HW128445   1.000   0.502   6.992  0.2339 -0.7188  0.3773
 5603SOL    HW228446   1.111   0.531   7.083  0.0247  0.0743  0.6288
 5604SOL     OW28447   1.689   4.200   9.670  0.1146 -0.3600 -0.4058
 5604SOL    HW128448   1.648   4.266   9.725  1.6808 -0.0644  0.3996
 5604SOL    HW228449   1.783   4.208   9.687  0.2423 -2.6229 -0.0052
 5605SOL     OW28450   0.673   2.377   5.430 -0.4934  0.1758 -0.8606
 5605SOL    HW128451   0.663   2.410   5.519  3.2620  0.1089 -0.4230
 5605SOL    HW228452   0.761   2.339   5.432 -0.7596 -0.4517 -1.1130
 5606SOL     OW28453   1.817   2.694   8.357 -0.0434 -0.1950  0.3622
 5606SOL    HW128454   1.853   2.730   8.276  0.4328 -2.3592 -0.3892
 5606SOL    HW228455   1.865   2.612   8.348  0.0688  0.0715 -1.4727
 5607SOL     OW28456   4.524   4.058   3.973  0.2857  0.7227  0.7101
 5607SOL    HW128457   4.491   4.139   4.012 -1.1420  0.4731 -0.0018
 5607SOL    HW228458   4.475   4.056   3.891 -0.1752  2.3219  0.9626
 5608SOL     OW28459   0.560   0.333   3.225  0.2510  0.4095 -0.1121
 5608SOL    HW128460   0.596   0.393   3.159 -1.1063 -0.2235 -1.4370
 5608SOL    HW228461   0.633   0.322   3.285 -0.6802  0.3545  1.0177
 5609SOL     OW28462   2.349   2.955   4.632 -0.4814  0.0766 -0.6752
 5609SOL    HW128463   2.363   2.871   4.676 -2.9787 -0.4024 -0.7603
 5609SOL    HW228464   2.434   2.999   4.633 -1.3044  1.6400  0.8745
 5610SOL     OW28465   1.440   3.375   7.542 -0.4258  0.0446  0.5637
 5610SOL    HW128466   1.470   3.408   7.626 -2.6180 -3.8448  2.9185
 5610SOL    HW228467   1.487   3.291   7.544 -0.2663  0.1284  0.2769
 5611SOL     OW28468   0.938   1.707   8.072 -0.3843 -0.0686  0.4908
 5611SOL    HW128469   1.025   1.670   8.091 -0.6808 -1.4808 -0.9083
 5611SOL    HW228470   0.893   1.668   8.147 -0.1104  1.0895  1.2548
 5612SOL     OW28471   1.329   0.267   5.020 -0.0511  0.4336  0.3184
 5612SOL    HW128472   1.400   0.278   5.084  0.1666  2.0772 -0.2012
 5612SOL    HW228473   1.316   0.356   4.988 -0.3829  0.2094 -0.1754
 5613SOL     OW28474   3.844   3.386   6.385 -0.2652 -0.0256 -0.2187
 5613SOL    HW128475   3.875   3.357   6.299 -2.0482 -2.5583 -0.0211
 5613SOL    HW228476   3.915   3.339   6.427 -0.7984 -2.4555 -2.0260
 5614SOL     OW28477   1.226   0.152   8.918  0.6748 -0.1531 -0.1469
 5614SOL    HW128478   1.148   0.113   8.877  1.1662 -0.4951 -0.7482
 5614SOL    HW228479   1.211   0.139   9.011 -1.8893  0.4532 -0.4646
 5615SOL     OW28480   1.099   3.162   6.074  0.0731 -0.1706 -0.0910
 5615SOL    HW128481   1.058   3.151   5.988 -1.0030  1.2916  0.2278
 5615SOL    HW228482   1.073   3.087   6.128  0.4226  0.0930  0.4374
 5616SOL     OW28483   0.758   2.143   6.219  0.3344  0.2926  0.0936
 5616SOL    HW128484   0.823   2.082   6.254 -1.2337 -1.4198  0.0822
 5616SOL    HW228485   0.716   2.172   6.300  1.4620  2.0195  0.0397
 5617SOL     OW28486   0.628   2.402   4.817 -0.5236 -0.3837  0.5479
 5617SOL    HW128487   0.706   2.400   4.873  0.1531  0.9981 -0.3462
 5617SOL    HW228488   0.558   2.424   4.879 -1.2980 -2.9337  0.5758
 5618SOL     OW28489   1.582   4.369   3.177  0.0690 -0.3610 -0.2902
 5618SOL    HW128490   1.579   4.453   3.131  0.1032 -0.4847 -0.5147
 5618SOL    HW228491   1.673   4.342   3.168  0.4669  0.5708  0.9096
 5619SOL     OW28492   3.289   1.950  10.213  0.0259  0.4874  0.3708
 5619SOL    HW128493   3.351   1.918  10.147  0.6410  0.4051  0.9925
 5619SOL    HW228494   3.351   1.969  10.284 -0.9544 -0.9806  1.6203
 5620SOL     OW28495   2.837   3.813   8.562 -0.0618  0.4352 -0.1857
 5620SOL    HW128496   2.792   3.854   8.635  1.5477  0.6429  0.7059
 5620SOL    HW228497   2.907   3.870   8.531  2.2777 -2.4096 -0.2125
 5621SOL     OW28498   4.220   2.063   0.573 -0.9602  0.4478  0.6564
 5621SOL    HW128499   4.135   2.107   0.585 -0.7901  1.5687 -2.1567
 5621SOL    HW228500   4.282   2.135   0.582  0.2921 -0.3914 -1.3194
 5622SOL     OW28501   2.489   1.929  14.640 -0.0513 -0.4542 -0.0710
 5622SOL    HW128502   2.581   1.914  14.663 -0.6367 -1.6590  1.4251
 5622SOL    HW228503   2.482   1.914  14.545  0.8642 -0.6580 -0.1055
 5623SOL     OW28504   1.736   1.374   5.025 -0.0515 -0.3459 -0.8686
 5623SOL    HW128505   1.750   1.303   5.087  0.4886 -0.4499 -1.1129
 5623SOL    HW228506   1.821   1.417   5.022 -0.2553 -0.0558 -2.3826
 5624SOL     OW28507   4.324   1.549   1.213  0.0630 -0.3235  0.0232
 5624SOL    HW128508   4.311   1.608   1.139  1.4478 -0.3280 -0.2231
 5624SOL    HW228509   4.242   1.554   1.262 -0.1402 -0.8623 -0.2560
 5625SOL     OW28510   0.442   4.092   5.682 -0.2599  0.4371  0.2415
 5625SOL    HW128511   0.517   4.125   5.632  1.2393 -0.4298  1.9151
 5625SOL    HW228512   0.484   4.026   5.737 -1.4827 -0.3429  0.2199
 5626SOL     OW28513   4.458   0.309  14.952  0.2152 -0.1390  0.1544
 5626SOL    HW128514   4.383   0.266  14.912  0.7595  0.3919 -1.4222
 5626SOL    HW228515   4.411   0.357  15.020  0.7030  2.5761 -1.4425
 5627SOL     OW28516   3.086   4.411   3.577 -0.0432  0.1737 -0.1120
 5627SOL    HW128517   3.063   4.487   3.523  1.7227 -0.7802 -2.2021
 5627SOL    HW228518   3.182   4.410   3.575 -0.0629 -0.8816 -0.3694
 5628SOL     OW28519   1.538   2.493   8.513  0.6153  0.9485 -0.3388
 5628SOL    HW128520   1.627   2.481   8.479  0.8897  0.5662  0.5032
 5628SOL    HW228521   1.478   2.446   8.455  2.4267 -1.9924  0.1648
 5629SOL     OW28522   4.603   2.757   3.575  0.3199  0.7465  0.4805
 5629SOL    HW128523   4.545   2.819   3.532 -0.3715  0.2641  0.7245
 5629SOL    HW228524   4.665   2.728   3.507  0.7451  0.9183  0.7917
 5630SOL     OW28525   0.004   2.524   2.702  0.2569  0.3608 -0.3275
 5630SOL    HW128526   4.667   2.491   2.753  0.6168  2.1744  1.3429
 5630SOL    HW228527   4.700   2.603   2.665  0.4226  1.3268  1.5998
 5631SOL     OW28528   0.619   2.273   7.326 -0.4570 -0.3669  0.6853
 5631SOL    HW128529   0.579   2.219   7.258 -0.4108 -1.1212  1.2456
 5631SOL    HW228530   0.567   2.256   7.405  0.5994 -2.2346  0.9844
 5632SOL     OW28531   0.756   2.620  17.207  0.1617 -0.0028 -0.2192
 5632SOL    HW128532   0.785   2.708  17.184  2.3717 -0.8033 -0.4857
 5632SOL    HW228533   0.721   2.645  17.292 -2.6710  0.1950 -1.4552
 5633SOL     OW28534   2.030   0.512   1.597 -0.3417  0.1505  0.5406
 5633SOL    HW128535   2.031   0.422   1.630  0.4397  0.2743  0.8588
 5633SOL    HW228536   1.937   0.513   1.578  0.3212  0.5721 -2.6509
 5634SOL     OW28537   1.608   1.566   7.120 -0.8014 -0.7803  0.7930
 5634SOL    HW128538   1.641   1.586   7.207  1.8788 -3.8395  0.4692
 5634SOL    HW228539   1.683   1.598   7.070 -1.3230 -1.5927 -0.5081
 5635SOL     OW28540   2.009   4.454   5.548 -0.3723  0.3094 -0.1628
 5635SOL    HW128541   2.003   4.511   5.472  1.7348  0.1605 -0.4440
 5635SOL    HW228542   2.074   4.391   5.516  0.2846  0.6809  0.4754
 5636SOL     OW28543   0.487   2.302   6.045 -0.0491  0.3219  0.2409
 5636SOL    HW128544   0.473   2.337   6.133  0.5028 -0.3852  0.6108
 5636SOL    HW228545   0.412   2.251   6.013  1.2670 -0.0069 -2.2495
 5637SOL     OW28546   2.655   3.411   9.576  0.3173 -0.1049  0.4781
 5637SOL    HW128547   2.701   3.490   9.604 -1.8221  0.6937  1.7858
 5637SOL    HW228548   2.565   3.420   9.608  0.1604 -1.4580  0.3927
 5638SOL     OW28549   2.573   0.562   6.119 -0.1428  0.4836  0.4952
 5638SOL    HW128550   2.522   0.571   6.199 -0.7847 -2.3671  0.4349
 5638SOL    HW228551   2.517   0.498   6.075  2.6135 -1.2768 -0.4601
 5639SOL     OW28552   1.943   2.438   8.528 -0.7035  0.1668 -0.0251
 5639SOL    HW128553   1.996   2.362   8.553  0.4015  0.1997 -2.3096
 5639SOL    HW228554   1.956   2.436   8.434 -2.6521 -0.8715 -0.2891
 5640SOL     OW28555   4.456   2.523  11.627 -0.2301  0.1363 -0.2369
 5640SOL    HW128556   4.478   2.510  11.719 -1.2318  4.2777  0.5887
 5640SOL    HW228557   4.526   2.473  11.586 -0.8566 -1.1075  0.2164
 5641SOL     OW28558   0.667   1.874   4.903  0.6796 -0.5334  0.2776
 5641SOL    HW128559   0.761   1.892   4.908  0.7342 -0.7876  0.1690
 5641SOL    HW228560   0.636   1.963   4.919  2.1334 -0.1072  0.7363
 5642SOL     OW28561   4.595   2.004   0.227  0.5663  0.1125  0.7250
 5642SOL    HW128562   4.559   2.086   0.261 -0.5033 -0.9243  2.1278
 5642SOL    HW228563   4.625   1.962   0.308  2.9365  0.9026  0.2457
 5643SOL     OW28564   1.044   4.647   3.547  0.1325 -0.4058 -0.4458
 5643SOL    HW128565   0.984   4.712   3.582  0.8336  0.8904 -1.6564
 5643SOL    HW228566   1.107   4.650   3.618 -1.1526 -1.3745  0.7374
 5644SOL     OW28567   0.592   3.071  10.218  0.1502  0.1975 -1.1252
 5644SOL    HW128568   0.620   3.080  10.127  2.4768 -0.5022 -0.4661
 5644SOL    HW228569   0.567   2.979  10.229 -0.1492  0.6274  1.9976
 5645SOL     OW28570   0.461   0.271  12.705 -0.3885  0.2366 -0.4182
 5645SOL    HW128571   0.372   0.281  12.671 -0.0573  0.4776 -1.2236
 5645SOL    HW228572   0.499   0.350  12.667  2.3088 -0.4186  0.9267
 5646SOL     OW28573   3.146   0.687   7.801 -0.5269 -0.1049 -0.1331
 5646SOL    HW128574   3.061   0.648   7.782  0.2495 -1.7507 -0.1842
 5646SOL    HW228575   3.217   0.624   7.790  1.3498  1.7524  1.2381
 5647SOL     OW28576   4.177   2.585   9.046  0.0860  0.1004  0.0769
 5647SOL    HW128577   4.226   2.502   9.040  1.3303  0.9055 -0.7714
 5647SOL    HW228578   4.201   2.636   8.969 -0.9892 -1.1080 -1.0644
 5648SOL     OW28579   2.211   1.645   7.187 -0.1036 -0.0496  0.6466
 5648SOL    HW128580   2.206   1.694   7.269 -1.6918  2.3865 -0.9121
 5648SOL    HW228581   2.239   1.715   7.128 -0.0790 -1.8413 -1.4920
 5649SOL     OW28582   1.150   4.605  12.981  0.6590 -0.4605  0.1755
 5649SOL    HW128583   1.193   4.567  13.058 -1.9650 -0.4794  1.6444
 5649SOL    HW228584   1.138   4.527  12.928 -0.2379  0.9388 -1.6677
 5650SOL     OW28585   2.113   3.355   1.572  0.1809  0.2834 -0.1952
 5650SOL    HW128586   2.020   3.362   1.596  0.1193 -0.9537 -0.0568
 5650SOL    HW228587   2.109   3.362   1.477 -0.4110 -0.9449 -0.2596
 5651SOL     OW28588   4.534   0.574  15.092  0.0544  0.5589 -0.0729
 5651SOL    HW128589   4.625   0.560  15.117 -0.8610 -1.7213  2.0411
 5651SOL    HW228590   4.537   0.606  15.002  0.6417  1.8159  0.4003
 5652SOL     OW28591   3.897   1.850   6.259  0.6214 -0.0153 -0.3611
 5652SOL    HW128592   3.981   1.862   6.215  1.0950 -1.0527  0.2417
 5652SOL    HW228593   3.901   1.908   6.334  2.0209 -0.0119 -0.4366
 5653SOL     OW28594   4.467   0.589   7.974 -0.1233  0.4238 -0.1782
 5653SOL    HW128595   4.537   0.525   7.981 -0.0576  0.7002  1.7194
 5653SOL    HW228596   4.384   0.553   8.004 -1.2555  2.6660 -0.5857
 5654SOL     OW28597   1.586   3.006   8.160  0.1491  0.1526  0.1404
 5654SOL    HW128598   1.576   3.093   8.122 -2.2234  0.1898  0.8163
 5654SOL    HW228599   1.676   3.011   8.192  0.6502 -2.3710 -0.8426
 5655SOL     OW28600   2.452   0.458  14.404 -0.4905  0.7402  0.1830
 5655SOL    HW128601   2.400   0.379  14.388 -3.2411  2.1992  1.8771
 5655SOL    HW228602   2.433   0.521  14.335 -0.9509  0.3196 -0.0765
 5656SOL     OW28603   0.199   3.133  13.818 -0.4394 -0.5389 -0.2510
 5656SOL    HW128604   0.226   3.071  13.885 -2.7847 -1.1722  0.1188
 5656SOL    HW228605   0.137   3.189  13.864  2.0341  0.9845  1.1964
 5657SOL     OW28606   0.557   2.821   1.269 -0.5885  0.4865 -0.1087
 5657SOL    HW128607   0.570   2.873   1.189 -1.5671  1.6543  0.4910
 5657SOL    HW228608   0.627   2.756   1.267 -2.3552 -1.3839 -1.9522
 5658SOL     OW28609   2.051   1.846   3.408 -0.3067 -0.2325  0.3295
 5658SOL    HW128610   2.132   1.877   3.367 -1.7436  0.8916 -1.6612
 5658SOL    HW228611   2.001   1.919   3.444 -0.2019 -0.2169  0.4413
 5659SOL     OW28612   2.399   2.848   2.456 -0.5410  0.2182 -0.0446
 5659SOL    HW128613   2.401   2.760   2.495 -0.3219  0.0550 -0.4170
 5659SOL    HW228614   2.491   2.862   2.432 -0.8160  1.9429 -0.0581
 5660SOL     OW28615   0.797   2.805   6.033  0.1998 -0.0332 -0.4398
 5660SOL    HW128616   0.707   2.792   6.004 -0.0406  1.0742 -0.1857
 5660SOL    HW228617   0.824   2.713   6.030  0.3375  0.0682 -2.1452
 5661SOL     OW28618   0.364   1.700  15.637  0.6164 -0.4017  0.4681
 5661SOL    HW128619   0.302   1.691  15.710 -0.4767  1.4369 -0.2495
 5661SOL    HW228620   0.311   1.670  15.562 -0.1700 -0.3653  1.0123
 5662SOL     OW28621   4.509   3.156   5.168 -0.8686 -0.0079  0.3086
 5662SOL    HW128622   4.548   3.095   5.231  1.2213  3.6030  2.4956
 5662SOL    HW228623   4.468   3.098   5.105 -2.0533 -0.9141  1.8998
 5663SOL     OW28624   0.503   3.671  17.152  0.4912 -0.2335  0.0753
 5663SOL    HW128625   0.415   3.697  17.181 -0.0424 -0.1630 -1.6092
 5663SOL    HW228626   0.548   3.749  17.186  2.2801 -0.8518 -0.8765
 5664SOL     OW28627   3.134   1.611  15.006  0.2333 -0.6342 -0.4812
 5664SOL    HW128628   3.133   1.559  14.925  1.9138  0.8437 -1.4512
 5664SOL    HW228629   3.199   1.677  14.981 -1.0562  0.7150 -0.2782
 5665SOL     OW28630   3.600   0.054   6.275  0.3092  0.0724 -0.6405
 5665SOL    HW128631   3.678   0.094   6.314 -1.2449  1.2554  1.3025
 5665SOL    HW228632   3.583   4.724   6.343  0.8703  1.2045  0.6077
 5666SOL     OW28633   2.939   4.606   8.328 -0.1459 -0.0582 -0.2452
 5666SOL    HW128634   2.864   4.556   8.360  0.0183  0.0319  0.2798
 5666SOL    HW228635   2.998   4.578   8.398 -2.1434 -0.9842  1.0784
 5667SOL     OW28636   3.556   1.982   9.106 -0.0748  0.0623 -0.6434
 5667SOL    HW128637   3.495   2.036   9.157  0.0129  0.1078 -0.5869
 5667SOL    HW228638   3.500   1.958   9.033 -1.0119  0.2747  0.0040
 5668SOL     OW28639   2.759   4.193   3.479  0.2617  0.0056 -0.7023
 5668SOL    HW128640   2.824   4.183   3.409 -0.0137  2.1664 -1.2754
 5668SOL    HW228641   2.700   4.262   3.448  0.5857  0.5417 -0.1213
 5669SOL     OW28642   1.817   0.758   2.652 -0.1322  0.3475  0.0876
 5669SOL    HW128643   1.771   0.706   2.718 -2.0654 -0.0500 -1.5711
 5669SOL    HW228644   1.819   0.843   2.696 -1.1382  0.9590 -1.0292
 5670SOL     OW28645   2.916   0.447   2.782  0.3423  0.2458 -0.2197
 5670SOL    HW128646   2.876   0.527   2.815  1.3127  0.8650 -0.5532
 5670SOL    HW228647   2.916   0.381   2.852  0.1169  0.6208  0.1303
 5671SOL     OW28648   4.277   0.459   8.134 -0.5288  0.1387 -0.6238
 5671SOL    HW128649   4.240   0.467   8.222  3.6052 -0.4092  1.1410
 5671SOL    HW228650   4.200   0.423   8.088 -0.4731 -0.9160  0.1128
 5672SOL     OW28651   1.566   4.390   8.878  0.0148  0.2383 -0.0870
 5672SOL    HW128652   1.557   4.482   8.906  0.9731  0.3181 -0.0207
 5672SOL    HW228653   1.647   4.385   8.826 -0.5315  1.2814 -1.0284
 5673SOL     OW28654   1.710   3.510   3.124 -0.0408 -0.6173 -0.2536
 5673SOL    HW128655   1.672   3.532   3.209 -0.9470 -0.5916 -0.6657
 5673SOL    HW228656   1.769   3.586   3.118  0.8516 -1.3712 -1.0933
 5674SOL     OW28657   3.909   3.621   6.307 -0.2885  0.3586 -0.4586
 5674SOL    HW128658   3.888   3.532   6.336  3.7497  0.2316  2.0807
 5674SOL    HW228659   3.995   3.612   6.348  0.1082  0.5871 -1.2494
 5675SOL     OW28660   0.052   3.057   2.110  0.9332  0.3733 -0.1647
 5675SOL    HW128661   0.114   3.046   2.037 -0.8389 -3.0803 -1.1404
 5675SOL    HW228662   4.730   3.120   2.069 -0.7453 -1.8919 -1.2758
 5676SOL     OW28663   1.596   2.373   7.627 -0.0137  0.1440 -0.0525
 5676SOL    HW128664   1.654   2.397   7.699  0.3591  1.7916 -0.8943
 5676SOL    HW228665   1.671   2.362   7.570  0.2574 -1.8522  0.7189
 5677SOL     OW28666   4.502   1.340  12.989 -0.6202  0.1664 -0.0574
 5677SOL    HW128667   4.517   1.246  12.979  0.3240  0.2249  0.9353
 5677SOL    HW228668   4.546   1.358  13.072  0.8162  0.6714 -0.9244
 5678SOL     OW28669   4.583   2.422   1.778 -0.6720  0.4034 -0.1824
 5678SOL    HW128670   4.617   2.339   1.812  1.6095  1.5678  0.3983
 5678SOL    HW228671   4.568   2.406   1.685  0.9189 -0.0862 -0.3694
 5679SOL     OW28672   3.948   3.356  12.454 -0.1255  0.0558 -0.8741
 5679SOL    HW128673   3.922   3.347  12.363  0.3458  2.5359 -1.2605
 5679SOL    HW228674   4.035   3.396  12.443 -0.5320  1.2627  0.2118
 5680SOL     OW28675   3.031   2.321   0.749  0.2053  0.1714 -0.2103
 5680SOL    HW128676   2.937   2.302   0.743  0.5543 -1.3704 -0.7907
 5680SOL    HW228677   3.069   2.260   0.686  0.1101 -0.4293  0.3065
 5681SOL     OW28678   2.398   4.103  12.867 -0.4276  0.3720 -0.0977
 5681SOL    HW128679   2.455   4.044  12.917  0.8411 -0.0172 -2.0076
 5681SOL    HW228680   2.368   4.049  12.794  1.0802 -1.9735  1.0182
 5682SOL     OW28681   0.419   0.785   8.028  0.0490  0.0259 -0.1502
 5682SOL    HW128682   0.469   0.724   8.081 -3.0129 -1.3315  1.1859
 5682SOL    HW228683   0.340   0.737   8.004 -0.8616  1.4945 -0.1047
 5683SOL     OW28684   1.025   2.254   5.108  0.2373  0.7847 -0.1357
 5683SOL    HW128685   0.955   2.317   5.090  0.3708  0.3664 -2.0509
 5683SOL    HW228686   1.094   2.296   5.056  0.6343 -0.7787 -0.8581
 5684SOL     OW28687   3.582   1.321   4.225  0.4241 -0.1602 -0.0654
 5684SOL    HW128688   3.536   1.237   4.228 -1.3567  0.7698 -0.9691
 5684SOL    HW228689   3.614   1.319   4.315 -0.3986  1.0968  0.2577
 5685SOL     OW28690   1.233   4.254   7.095  0.0272  0.1912 -1.0382
 5685SOL    HW128691   1.288   4.269   7.017 -0.3566  1.1583 -1.1189
 5685SOL    HW228692   1.303   4.203   7.135  0.2958  0.5809 -1.0086
 5686SOL     OW28693   1.486   3.970  12.766  0.1012  0.2147 -0.5722
 5686SOL    HW128694   1.542   4.041  12.735  0.6476  0.7866  1.7069
 5686SOL    HW228695   1.515   3.972  12.857  1.6113 -2.8693 -0.9621
 5687SOL     OW28696   3.229   1.014   6.461 -0.3587 -0.0850  0.3863
 5687SOL    HW128697   3.193   0.944   6.406 -2.7721  1.6256 -0.2068
 5687SOL    HW228698   3.320   0.988   6.452 -0.5237 -1.6029  3.3925
 5688SOL     OW28699   3.310   3.083   9.238 -0.4916  0.8675 -0.2707
 5688SOL    HW128700   3.359   3.009   9.201  0.5596  0.8600  1.1420
 5688SOL    HW228701   3.363   3.088   9.317  0.4053  1.9342 -0.9442
 5689SOL     OW28702   2.451   2.931   3.716  0.2876  0.0754  0.2953
 5689SOL    HW128703   2.369   2.948   3.763  0.8313  2.7766  0.2910
 5689SOL    HW228704   2.432   2.844   3.681  3.1399  0.2446 -1.6224
 5690SOL     OW28705   3.516   0.417   6.316 -0.4675 -0.2569  0.3050
 5690SOL    HW128706   3.562   0.441   6.235  0.1643 -0.7144  0.5322
 5690SOL    HW228707   3.432   0.387   6.282 -0.5337  1.0685 -0.7009
 5691SOL     OW28708   4.070   0.200   7.243 -0.4546 -0.2723 -0.3543
 5691SOL    HW128709   4.155   0.179   7.204 -0.0707  2.8422 -1.2059
 5691SOL    HW228710   4.011   0.175   7.173 -0.5207 -0.3152 -0.2830
 5692SOL     OW28711   1.731   3.284  12.766  0.7748  0.1374  0.2536
 5692SOL    HW128712   1.777   3.343  12.706 -1.4295  2.6971  1.1021
 5692SOL    HW228713   1.672   3.241  12.705  1.3168  1.3942 -1.1566
 5693SOL     OW28714   3.158   3.341   0.531 -0.4662  0.1084  0.6178
 5693SOL    HW128715   3.241   3.387   0.532 -0.1951 -0.3354 -1.1699
 5693SOL    HW228716   3.189   3.252   0.549 -0.1732  0.4726  1.9165
 5694SOL     OW28717   0.640   3.305  15.261 -0.3867 -0.1944  0.1067
 5694SOL    HW128718   0.666   3.303  15.169 -0.1989  1.2549  0.1210
 5694SOL    HW228719   0.577   3.376  15.274  2.0183  1.5730  2.0850
 5695SOL     OW28720   2.499   1.683  12.616 -0.3457  0.4177  0.0642
 5695SOL    HW128721   2.587   1.653  12.641 -0.0196 -0.2683 -1.9084
 5695SOL    HW228722   2.507   1.654  12.525 -0.7507  0.7087 -0.0608
 5696SOL     OW28723   2.430   3.533   5.075  0.3377 -0.1745  0.1085
 5696SOL    HW128724   2.409   3.448   5.113  3.9382 -0.0764  2.3155
 5696SOL    HW228725   2.376   3.534   4.996 -0.4850  2.0254  0.6970
 5697SOL     OW28726   0.164   1.690   0.222  0.5968  0.0036 -0.2714
 5697SOL    HW128727   0.096   1.633   0.257 -2.0438  1.3246 -3.2083
 5697SOL    HW228728   0.157   1.679   0.127  1.8786  0.7151 -0.4459
 5698SOL     OW28729   2.888   3.574  14.831  0.1474  0.2193 -0.3508
 5698SOL    HW128730   2.958   3.624  14.790 -0.7444  0.7197 -1.2657
 5698SOL    HW228731   2.828   3.648  14.833 -0.3341 -0.1032 -2.7144
 5699SOL     OW28732   3.579   2.043  14.369  0.6212 -0.0275  0.0489
 5699SOL    HW128733   3.614   1.964  14.409  1.2492 -0.3142 -1.0636
 5699SOL    HW228734   3.520   2.069  14.440 -0.2547 -0.0269 -0.6817
 5700SOL     OW28735   3.371   1.480  11.892  0.5146  0.2656  0.5133
 5700SOL    HW128736   3.359   1.479  11.987 -3.9678 -0.4086 -0.0709
 5700SOL    HW228737   3.426   1.557  11.880  1.7021 -0.3875  1.7536
 5701SOL     OW28738   0.994   3.847   8.801 -0.4139 -0.3253 -0.2726
 5701SOL    HW128739   0.942   3.805   8.871 -1.1928 -1.0453 -1.2814
 5701SOL    HW228740   1.031   3.766   8.764 -0.4256  0.0423 -1.0740
 5702SOL     OW28741   0.222   4.517  12.148 -0.2678  0.3980 -0.4360
 5702SOL    HW128742   0.243   4.529  12.241 -1.0014 -1.5692 -0.0287
 5702SOL    HW228743   0.175   4.434  12.157  2.1921 -0.4414  4.6953
 5703SOL     OW28744   2.951   2.359   2.400 -0.4605  0.3821  0.3208
 5703SOL    HW128745   2.913   2.324   2.481  2.4104 -3.3815  0.0433
 5703SOL    HW228746   2.927   2.277   2.357  2.2902 -0.0062 -0.4806
 5704SOL     OW28747   2.050   2.373  11.399  0.0412  0.9186 -0.0134
 5704SOL    HW128748   1.971   2.417  11.366  0.2088  1.3103  0.1162
 5704SOL    HW228749   2.027   2.280  11.393  0.3386  0.7950  0.7743
 5705SOL     OW28750   0.410   4.219  17.371 -0.6185  0.2149 -0.2250
 5705SOL    HW128751   0.468   4.163  17.319  0.8017  1.8784 -0.4544
 5705SOL    HW228752   0.360   4.163  17.430  1.4535 -0.0431  1.2660
 5706SOL     OW28753   0.562   3.855   2.935 -0.1390  0.1169  0.2949
 5706SOL    HW128754   0.635   3.816   2.887 -0.1659  0.4868 -0.0432
 5706SOL    HW228755   0.561   3.944   2.902 -0.3104 -0.3516 -0.9563
 5707SOL     OW28756   2.337   1.684   2.296 -0.5083 -0.4847 -0.3910
 5707SOL    HW128757   2.297   1.598   2.310 -0.1488 -0.3521  1.3757
 5707SOL    HW228758   2.304   1.709   2.209 -0.6944 -1.2023 -0.5287
 5708SOL     OW28759   4.004   3.999   3.149 -0.2393  0.0083  0.0693
 5708SOL    HW128760   3.957   4.049   3.216 -0.1756  1.5491 -1.0297
 5708SOL    HW228761   4.012   3.908   3.179 -0.3702  0.2870  0.9649
 5709SOL     OW28762   1.941   0.062   7.535 -0.1014  0.5392 -0.2363
 5709SOL    HW128763   1.851   0.046   7.564  0.1815 -0.0968  0.2837
 5709SOL    HW228764   1.941   0.158   7.535  0.5131  0.5419 -0.3278
 5710SOL     OW28765   0.211   4.157  10.019 -0.2145  0.8259  0.5018
 5710SOL    HW128766   0.242   4.236  10.064  0.3315 -0.4754  2.4166
 5710SOL    HW228767   0.173   4.112  10.095  2.3907  1.0050  1.8905
 5711SOL     OW28768   3.958   3.342   6.152 -0.3629  0.2070  0.3946
 5711SOL    HW128769   4.052   3.348   6.135 -0.4072 -1.0678 -0.3435
 5711SOL    HW228770   3.920   3.393   6.080 -1.3421  0.8656  1.3923
 5712SOL     OW28771   2.325   0.435   6.769 -0.3216 -0.2132  0.1553
 5712SOL    HW128772   2.387   0.471   6.832  0.1848  0.3289 -0.6497
 5712SOL    HW228773   2.263   0.395   6.830  1.6248 -0.7484  1.7768
 5713SOL     OW28774   3.353   2.749   1.304  0.8865 -0.1596 -0.0200
 5713SOL    HW128775   3.326   2.825   1.252 -0.7473 -0.4928  0.3557
 5713SOL    HW228776   3.427   2.800   1.338  1.0917  1.5147 -2.9347
 5714SOL     OW28777   1.403   3.924   8.391 -0.0534 -0.0159  0.4320
 5714SOL    HW128778   1.355   3.848   8.425 -0.4955  0.2291  0.3475
 5714SOL    HW228779   1.490   3.886   8.378  0.5134  1.5519 -0.3805
 5715SOL     OW28780   3.294   4.114   0.173 -0.5104 -0.0424  0.5958
 5715SOL    HW128781   3.343   4.196   0.162 -0.7147 -0.1276 -0.9217
 5715SOL    HW228782   3.213   4.121   0.124  0.6925 -0.4436 -1.4420
 5716SOL     OW28783   1.234   0.594   2.106  0.7764  0.0412  0.0209
 5716SOL    HW128784   1.165   0.648   2.144  0.3536 -1.0082  0.7481
 5716SOL    HW228785   1.236   0.514   2.158  2.1813 -0.1384 -0.3235
 5717SOL     OW28786   2.996   0.607  13.016  0.0717 -0.2862  0.2049
 5717SOL    HW128787   3.087   0.590  12.993  0.5856 -0.5597  2.3792
 5717SOL    HW228788   2.953   0.554  12.949 -0.9248  0.8769 -0.0825
 5718SOL     OW28789   1.581   0.483   2.019  0.6499  0.0640  0.3598
 5718SOL    HW128790   1.660   0.537   2.028  1.6012 -1.2782  0.0263
 5718SOL    HW228791   1.590   0.428   2.096  2.7591 -0.5178 -0.2963
 5719SOL     OW28792   2.282   4.157   8.069 -0.7182 -0.4510 -0.0838
 5719SOL    HW128793   2.281   4.152   8.164 -0.4960 -1.6297 -0.1420
 5719SOL    HW228794   2.197   4.119   8.045 -0.4101 -0.9793 -0.3213
 5720SOL     OW28795   0.613   2.790  11.990  0.2024 -0.4927 -0.0297
 5720SOL    HW128796   0.593   2.730  12.061 -0.3535  1.1327  1.1785
 5720SOL    HW228797   0.705   2.768  11.977  0.7252  2.2801 -0.9814
 5721SOL     OW28798   3.494   0.976   3.561  0.0125  0.1340  0.3892
 5721SOL    HW128799   3.451   1.022   3.633  1.3913 -0.5360  1.6450
 5721SOL    HW228800   3.448   1.015   3.486 -0.0005 -0.0298  0.3137
 5722SOL     OW28801   1.802   0.175   0.805 -0.2360 -0.0964  1.1546
 5722SOL    HW128802   1.870   0.242   0.798 -0.5324  0.0377 -0.3359
 5722SOL    HW228803   1.822   0.131   0.723  0.8001  2.1707  0.1790
 5723SOL     OW28804   3.147   0.878   6.043 -0.2403 -0.0937  0.2070
 5723SOL    HW128805   3.207   0.939   6.087  1.5972 -1.5274 -0.2990
 5723SOL    HW228806   3.202   0.813   5.999  0.3584  1.4649 -1.3949
 5724SOL     OW28807   3.023   2.187   3.357  0.2166  0.4430  0.5464
 5724SOL    HW128808   3.075   2.131   3.416 -0.9044 -1.1884 -0.0088
 5724SOL    HW228809   3.045   2.270   3.401  2.7039 -0.6523  1.3992
 5725SOL     OW28810   2.350   1.291   3.521 -0.0826 -0.2938 -0.6275
 5725SOL    HW128811   2.277   1.230   3.511 -0.2837  0.0809 -1.4134
 5725SOL    HW228812   2.328   1.355   3.454 -1.5370  0.3800  0.4949
 5726SOL     OW28813   4.304   4.387   4.904 -0.0135 -0.0727 -0.6494
 5726SOL    HW128814   4.217   4.355   4.927  1.1359 -1.4832  1.7046
 5726SOL    HW228815   4.349   4.352   4.980 -0.9631 -1.4569 -0.7406
 5727SOL     OW28816   1.747   3.974   2.723 -0.1114  0.0094  0.4624
 5727SOL    HW128817   1.773   3.886   2.695 -0.9977 -0.2080  0.3063
 5727SOL    HW228818   1.731   3.969   2.817  0.1731 -0.2005  0.4998
 5728SOL     OW28819   0.214   2.892   0.450  1.0031  0.1825  0.0197
 5728SOL    HW128820   0.239   2.923   0.537  0.0082 -1.0989  0.7438
 5728SOL    HW228821   0.168   2.811   0.471  2.1239 -0.1996  0.9515
 5729SOL     OW28822   3.770   2.548   0.733 -0.2510 -0.5903  0.0280
 5729SOL    HW128823   3.834   2.605   0.777  0.0004  0.5227 -1.7902
 5729SOL    HW228824   3.720   2.619   0.693 -1.6104 -1.4150  0.2882
 5730SOL     OW28825   2.888   0.223   8.569 -0.3423  0.5768  0.1176
 5730SOL    HW128826   2.917   0.150   8.623  0.5375 -0.0065 -1.1341
 5730SOL    HW228827   2.974   0.257   8.542  0.4880 -1.1539  0.6263
 5731SOL     OW28828   4.001   2.320  17.156  0.2155  0.2607 -0.4524
 5731SOL    HW128829   4.016   2.348  17.066  0.1276 -0.5892 -0.7388
 5731SOL    HW228830   4.041   2.233  17.156  0.7552  0.5003 -2.0163
 5732SOL     OW28831   4.520   3.810  13.804 -0.2290 -0.0466  0.1487
 5732SOL    HW128832   4.511   3.894  13.849  0.1465  2.3999 -4.3495
 5732SOL    HW228833   4.426   3.793  13.801  0.0506 -1.7268  0.8332
 5733SOL     OW28834   3.702   4.275   7.597 -0.2579  0.0435 -0.1220
 5733SOL    HW128835   3.757   4.233   7.663 -1.7665 -0.9619  0.4895
 5733SOL    HW228836   3.634   4.208   7.600 -1.4397  1.1662 -1.4110
 5734SOL     OW28837   0.861   0.209   3.218 -0.4844 -0.3305 -0.4971
 5734SOL    HW128838   0.863   0.229   3.124 -1.2577  0.5208 -0.3293
 5734SOL    HW228839   0.952   0.194   3.244 -0.4179  0.9446 -0.0119
 5735SOL     OW28840   0.967   2.742   1.945  0.6596 -0.2602 -0.3928
 5735SOL    HW128841   1.035   2.712   2.006  0.7081  0.8718  0.1057
 5735SOL    HW228842   0.987   2.835   1.934 -1.3975  0.0861 -1.0561
 5736SOL     OW28843   0.461   1.168  17.099  0.3070 -0.0340 -0.4177
 5736SOL    HW128844   0.443   1.246  17.046  1.9725 -0.9747 -2.3869
 5736SOL    HW228845   0.472   1.199  17.189 -0.2350  2.1003 -1.0763
 5737SOL     OW28846   3.359   4.321   5.753 -0.0870  0.7760 -0.0497
 5737SOL    HW128847   3.432   4.365   5.709 -2.1876  0.2612 -4.0498
 5737SOL    HW228848   3.297   4.393   5.761 -1.6570 -0.5003 -0.7889
 5738SOL     OW28849   2.024   0.806   4.835 -0.2307  0.1135 -1.0315
 5738SOL    HW128850   1.941   0.767   4.862 -0.2684  1.8423  1.4184
 5738SOL    HW228851   1.998   0.866   4.765 -1.2826 -0.1343 -0.8564
 5739SOL     OW28852   0.427   0.883   1.289  0.1976 -0.4863  0.5968
 5739SOL    HW128853   0.350   0.912   1.337  0.2545 -1.8249  1.4731
 5739SOL    HW228854   0.499   0.941   1.315 -0.4236 -0.3009  1.8826
 5740SOL     OW28855   0.868   3.138   3.020 -0.1947  0.0118  0.3053
 5740SOL    HW128856   0.865   3.204   2.951 -1.4176 -1.5016 -1.1126
 5740SOL    HW228857   0.961   3.122   3.003 -0.4061 -0.9225 -0.0063
 5741SOL     OW28858   0.538   2.731  11.327  0.2691 -0.1518  0.7594
 5741SOL    HW128859   0.499   2.644  11.339 -0.9204  0.2178 -0.4340
 5741SOL    HW228860   0.548   2.722  11.232 -1.0215  0.0649  0.6071
 5742SOL     OW28861   4.545   1.797   2.906 -0.0118 -0.1343  0.0436
 5742SOL    HW128862   4.477   1.797   2.974 -0.1278 -0.4615 -0.0713
 5742SOL    HW228863   4.548   1.888   2.877 -0.7594 -0.1204  0.0072
 5743SOL     OW28864   3.803   0.520   7.082  0.1533 -0.6790 -0.2109
 5743SOL    HW128865   3.809   0.498   6.989  0.9937  1.0183 -0.5526
 5743SOL    HW228866   3.858   0.598   7.089  0.6090 -1.1915  1.9968
 5744SOL     OW28867   4.182   2.457   4.435  0.3524 -0.4610 -0.5015
 5744SOL    HW128868   4.140   2.505   4.507  2.4176 -1.8891  1.6615
 5744SOL    HW228869   4.256   2.513   4.409 -0.5133  1.5723  1.4318
 5745SOL     OW28870   1.284   4.082   1.892  0.1330  0.3105 -0.8884
 5745SOL    HW128871   1.226   4.062   1.819 -1.0789 -3.1674  0.9897
 5745SOL    HW228872   1.218   4.074   1.961  0.2205 -0.2588 -0.8651
 5746SOL     OW28873   3.109   0.231   5.224  0.0468 -0.2890 -0.0700
 5746SOL    HW128874   3.086   0.246   5.316  0.2346 -0.0320 -0.0633
 5746SOL    HW228875   3.045   0.170   5.188 -1.8951  1.4914  0.4120
 5747SOL     OW28876   4.422   3.264   2.955 -0.4629  0.0598 -0.4448
 5747SOL    HW128877   4.327   3.249   2.956 -0.6083  0.9793 -0.0971
 5747SOL    HW228878   4.427   3.320   2.878  2.4112  0.7701  0.2701
 5748SOL     OW28879   0.303   3.527   7.594 -0.5619  0.0441  0.1373
 5748SOL    HW128880   0.323   3.503   7.684  0.6104 -1.8732 -0.6270
 5748SOL    HW228881   0.211   3.553   7.601 -0.7044 -1.1532  2.5691
 5749SOL     OW28882   0.835   3.755   8.989 -0.2524  0.0029 -0.3928
 5749SOL    HW128883   0.766   3.819   8.971 -2.1849 -2.0884 -0.3971
 5749SOL    HW228884   0.786   3.691   9.042  0.6524 -2.1361 -2.1776
 5750SOL     OW28885   2.753   3.149   0.112  0.5066 -0.0684 -0.0443
 5750SOL    HW128886   2.802   3.160   0.031  0.8655  0.0808  0.1947
 5750SOL    HW228887   2.661   3.162   0.090  0.1261 -0.8781  1.0520
 5751SOL     OW28888   0.330   2.265   6.639 -0.4418 -0.2682 -0.1527
 5751SOL    HW128889   0.424   2.276   6.630 -0.3403 -0.6256  0.4085
 5751SOL    HW228890   0.338   2.182   6.687  0.0030 -0.0242  0.1933
 5752SOL     OW28891   3.742   4.608   2.968  0.4772 -0.3489  0.0606
 5752SOL    HW128892   3.829   4.613   3.007 -0.0562 -1.6185  1.3907
 5752SOL    HW228893   3.722   4.517   2.945  1.1912  0.1213 -2.5281
 5753SOL     OW28894   2.117   3.100   3.512 -0.1639 -0.5123  1.2212
 5753SOL    HW128895   2.043   3.040   3.515 -0.9975  0.5162  1.0884
 5753SOL    HW228896   2.185   3.040   3.482 -0.9633 -0.5709 -0.4522
 5754SOL     OW28897   1.576   3.456  12.940 -0.1418  0.2761 -0.1067
 5754SOL    HW128898   1.611   3.375  12.902  0.2072 -1.1817  3.2750
 5754SOL    HW228899   1.528   3.479  12.861  1.3108 -1.3887 -1.4846
 5755SOL     OW28900   2.538   2.666   6.919 -0.3271  0.0002  0.0499
 5755SOL    HW128901   2.597   2.740   6.926  0.3659 -0.4922 -0.5798
 5755SOL    HW228902   2.581   2.611   6.984  1.0386 -0.2756 -1.0787
 5756SOL     OW28903   3.545   2.655  16.085  0.1562 -0.1380  0.1161
 5756SOL    HW128904   3.542   2.704  16.167  1.9493 -3.4312  2.1570
 5756SOL    HW228905   3.532   2.562  16.106 -0.6771 -0.2558 -0.8767
 5757SOL     OW28906   3.843   3.125  12.559 -0.5729  0.4442 -0.5625
 5757SOL    HW128907   3.925   3.080  12.581  0.4773  1.9065 -1.5137
 5757SOL    HW228908   3.874   3.202  12.512  0.4687 -1.2023 -2.5929
 5758SOL     OW28909   1.697   3.436   7.696  0.0155 -0.7081  0.3969
 5758SOL    HW128910   1.751   3.438   7.775 -0.5505 -1.9381  0.8212
 5758SOL    HW228911   1.677   3.342   7.702 -1.5925 -0.5955 -3.4738
 5759SOL     OW28912   0.583   2.981   0.986  0.2880  0.1062 -0.3618
 5759SOL    HW128913   0.636   2.902   0.975 -0.8701 -0.5156 -1.4438
 5759SOL    HW228914   0.549   2.985   0.897 -0.5165  1.2771 -0.0087
 5760SOL     OW28915   2.721   3.455   4.546 -0.0350 -0.0139 -0.1783
 5760SOL    HW128916   2.673   3.507   4.481 -2.4710  0.4727  1.9853
 5760SOL    HW228917   2.706   3.509   4.624  2.5659  0.0376  0.2566
 5761SOL     OW28918   3.064   1.468   4.417  0.2224  0.2626  0.2690
 5761SOL    HW128919   3.086   1.387   4.464 -1.5607 -0.9983 -1.1155
 5761SOL    HW228920   2.970   1.465   4.429  0.6074 -0.7155  3.0574
 5762SOL     OW28921   1.418   2.039  11.264  0.1672 -0.2273 -1.1468
 5762SOL    HW128922   1.324   2.023  11.270 -0.0686  1.0312 -1.6324
 5762SOL    HW228923   1.444   1.947  11.251  1.1162  0.2598 -2.7449
 5763SOL     OW28924   0.776   4.498   3.774  0.0627 -0.4386 -0.1105
 5763SOL    HW128925   0.709   4.522   3.710  0.5773  0.4595 -0.3074
 5763SOL    HW228926   0.836   4.573   3.773 -1.4724  0.7774  1.0175
 5764SOL     OW28927   0.720   3.078  14.708 -1.0064 -0.3632 -0.2801
 5764SOL    HW128928   0.701   3.072  14.614  0.8225 -0.5136 -0.6425
 5764SOL    HW228929   0.789   3.144  14.702 -1.3422 -0.1267 -1.5854
 5765SOL     OW28930   1.973   4.496  15.595  0.4732 -0.6575 -0.0392
 5765SOL    HW128931   1.978   4.523  15.503 -0.6014 -0.3410 -0.0077
 5765SOL    HW228932   1.904   4.430  15.607 -2.1193  1.7612 -1.6067
 5766SOL     OW28933   2.427   3.060   7.470 -0.0778  0.3231 -0.1552
 5766SOL    HW128934   2.349   3.054   7.415 -0.0412 -0.7369 -0.0791
 5766SOL    HW228935   2.441   2.969   7.495 -0.8909 -0.0955 -1.2043
 5767SOL     OW28936   0.611   0.383   6.109 -0.2975  0.4122 -0.3546
 5767SOL    HW128937   0.572   0.379   6.022  0.4195 -1.1793 -0.5975
 5767SOL    HW228938   0.566   0.451   6.159 -0.9432  0.6659 -1.2752
 5768SOL     OW28939   3.355   0.199   2.586  0.3360  0.7935 -0.0911
 5768SOL    HW128940   3.300   0.246   2.524  0.6787  1.2864 -0.0158
 5768SOL    HW228941   3.311   0.215   2.670  0.7213 -2.3097  0.7315
 5769SOL     OW28942   3.916   0.298   3.481  0.3678 -0.0024 -0.4448
 5769SOL    HW128943   3.909   0.219   3.428 -2.8425 -0.2120  0.2917
 5769SOL    HW228944   3.839   0.346   3.450 -0.1628  0.3103  1.3367
 5770SOL     OW28945   3.172   1.689   5.290 -0.2346  0.4370  0.6051
 5770SOL    HW128946   3.109   1.757   5.267  0.0253  0.8985  1.2304
 5770SOL    HW228947   3.223   1.726   5.363 -0.4057  2.0499 -0.0918
 5771SOL     OW28948   1.410   4.562   5.704 -0.2992 -0.1806 -0.2519
 5771SOL    HW128949   1.474   4.523   5.644  0.2514  1.3167 -0.6492
 5771SOL    HW228950   1.439   4.653   5.708  0.2010 -0.3249 -0.5983
 5772SOL     OW28951   2.669   0.089   4.779 -0.1555 -0.3738  0.2411
 5772SOL    HW128952   2.624   0.159   4.732  1.2498  0.9845  0.9145
 5772SOL    HW228953   2.627   0.085   4.865  1.2579 -0.0227  0.9475
 5773SOL     OW28954   1.975   4.271   3.436 -0.2159  0.2264  0.0403
 5773SOL    HW128955   1.896   4.279   3.383 -0.5846 -1.3306  0.3598
 5773SOL    HW228956   1.956   4.344   3.495 -0.9764  0.4568 -0.4853
 5774SOL     OW28957   0.187   0.945  11.916 -0.2427 -0.4744 -0.1358
 5774SOL    HW128958   0.270   0.966  11.960  0.2853 -2.4266 -0.2092
 5774SOL    HW228959   0.193   0.850  11.911  0.5340 -0.5498  2.2337
 5775SOL     OW28960   2.355   2.187  14.568 -0.4206  0.1731  0.0594
 5775SOL    HW128961   2.390   2.100  14.588  0.3353 -0.0940 -2.4695
 5775SOL    HW228962   2.344   2.216  14.659 -0.4339 -2.0196  0.7639
 5776SOL     OW28963   4.299   2.377  16.468  0.1037 -0.3257 -0.4775
 5776SOL    HW128964   4.228   2.341  16.521 -0.9947 -1.2777 -2.5737
 5776SOL    HW228965   4.376   2.351  16.519 -1.2496  0.1179  1.7606
 5777SOL     OW28966   0.035   4.707   6.867  0.6338  0.5604 -0.0050
 5777SOL    HW128967   0.002   0.030   6.800  2.0150 -0.1088 -1.2764
 5777SOL    HW228968   0.055   0.030   6.940  0.8010  0.2753  0.1822
 5778SOL     OW28969   3.140   1.942   4.976  0.5983  0.3292 -0.1658
 5778SOL    HW128970   3.064   1.963   5.031 -1.1701 -1.9201 -1.7841
 5778SOL    HW228971   3.212   1.976   5.030  0.5824  1.6043 -0.9477
 5779SOL     OW28972   2.191   3.983   4.474 -0.2219 -0.1997  0.3402
 5779SOL    HW128973   2.225   3.986   4.563  0.4366 -2.2541  0.1418
 5779SOL    HW228974   2.265   4.016   4.422  0.0906  0.5273  1.2315
 5780SOL     OW28975   2.461   2.861  11.606  0.2650  0.1903  0.3012
 5780SOL    HW128976   2.492   2.857  11.515 -0.3780 -2.1387  0.1991
 5780SOL    HW228977   2.541   2.881  11.655 -1.0775  2.5929  1.5246
 5781SOL     OW28978   0.958   0.392   6.118 -0.4316 -0.5222  0.5424
 5781SOL    HW128979   0.991   0.401   6.028 -1.1288 -0.4241  0.3002
 5781SOL    HW228980   0.868   0.425   6.115  0.1974  1.0474 -2.0421
 5782SOL     OW28981   2.694   2.901   0.246  0.1533  0.6416  0.4376
 5782SOL    HW128982   2.744   2.876   0.324  0.6892 -1.5626 -0.5928
 5782SOL    HW228983   2.739   2.981   0.219  0.1291  1.2991  2.3287
 5783SOL     OW28984   3.306   1.533  10.404  0.1240  0.1834  0.3232
 5783SOL    HW128985   3.306   1.627  10.425 -1.8612  0.4235 -0.8168
 5783SOL    HW228986   3.311   1.539  10.309  1.5303 -0.5489  0.3439
 5784SOL     OW28987   4.168   1.140   7.120 -0.8157  0.2606 -0.6818
 5784SOL    HW128988   4.124   1.104   7.196  0.7023 -1.4997 -0.6239
 5784SOL    HW228989   4.111   1.121   7.045 -1.0235 -1.0274 -0.1965
 5785SOL     OW28990   3.553   0.280  17.287 -1.1067  0.0272 -0.1303
 5785SOL    HW128991   3.464   0.311  17.267 -0.5374  0.9241 -1.2916
 5785SOL    HW228992   3.544   0.221  17.362  1.0505  0.3092  0.3463
 5786SOL     OW28993   1.626   1.392  13.075  0.1397 -0.0856 -0.5028
 5786SOL    HW128994   1.603   1.318  13.019 -0.7930 -0.2555  0.1059
 5786SOL    HW228995   1.565   1.376  13.147  2.3610 -1.3837  1.1091
 5787SOL     OW28996   1.569   1.699   3.039 -0.4324 -0.6879  0.0583
 5787SOL    HW128997   1.478   1.691   3.069 -1.2608  1.8408 -1.7401
 5787SOL    HW228998   1.621   1.741   3.107  0.3946 -1.5940 -0.0166
 5788SOL     OW28999   0.160   0.728   3.621 -0.2285  0.0080  0.3632
 5788SOL    HW129000   0.165   0.635   3.643  2.2320  0.2533  0.8871
 5788SOL    HW229001   0.065   0.732   3.635 -0.1834 -0.1974  0.7250
 5789SOL     OW29002   1.400   1.010   7.280  0.1077  0.7938  0.1815
 5789SOL    HW129003   1.386   0.918   7.257 -1.0009  0.6954  1.2166
 5789SOL    HW229004   1.481   1.035   7.236  1.5193 -0.4777  2.0861
 5790SOL     OW29005   4.254   2.169  10.096 -0.4606 -0.3863  0.3061
 5790SOL    HW129006   4.183   2.168  10.160  0.2213  1.5400  1.1194
 5790SOL    HW229007   4.211   2.190  10.014  0.0981 -0.2368  0.0474
 5791SOL     OW29008   2.000   3.836   7.342 -0.1150  0.2200  0.4144
 5791SOL    HW129009   1.991   3.749   7.302  0.3220 -0.6874  2.3254
 5791SOL    HW229010   1.913   3.860   7.373  0.1423  1.9839 -0.2462
 5792SOL     OW29011   1.968   3.547   1.142 -0.0520  0.6005  0.2271
 5792SOL    HW129012   1.897   3.605   1.116  0.3306  0.0827 -1.9568
 5792SOL    HW229013   2.042   3.604   1.161 -0.8718  2.3313 -1.8549
 5793SOL     OW29014   0.561   0.185  10.033 -0.3065 -0.1562  0.9959
 5793SOL    HW129015   0.511   0.140  10.100 -3.1471  0.6079 -0.6219
 5793SOL    HW229016   0.491   0.232   9.987  0.6768 -0.9093 -1.2658
 5794SOL     OW29017   2.555   3.154   3.213  0.4316  0.2700 -0.1256
 5794SOL    HW129018   2.644   3.147   3.247  0.2152 -0.1923  0.3313
 5794SOL    HW229019   2.557   3.072   3.164  0.8109 -0.1321  0.5540
 5795SOL     OW29020   1.596   0.190   6.269 -0.2780  0.1237  0.0800
 5795SOL    HW129021   1.506   0.165   6.291 -0.8012  2.8547  0.9408
 5795SOL    HW229022   1.629   0.114   6.221  0.4363  0.5078 -0.0431
 5796SOL     OW29023   2.456   0.528   4.058 -0.4337  1.0603 -0.2844
 5796SOL    HW129024   2.392   0.457   4.070  3.1779 -1.9116  1.4700
 5796SOL    HW229025   2.492   0.504   3.973 -2.0892  1.6769 -1.1619
 5797SOL     OW29026   3.550   1.617   3.490  0.0937  0.3644 -0.3348
 5797SOL    HW129027   3.625   1.618   3.431 -0.4244  0.8976 -0.9838
 5797SOL    HW229028   3.587   1.578   3.570  0.2727  1.6704  0.2233
 5798SOL     OW29029   0.646   3.248   5.175 -0.3335 -0.6186  0.3005
 5798SOL    HW129030   0.553   3.230   5.183 -0.7745  1.1682 -0.9781
 5798SOL    HW229031   0.673   3.219   5.262  1.6372 -0.0637 -0.1310
 5799SOL     OW29032   2.272   2.234   3.572 -0.3490  0.1811  0.5494
 5799SOL    HW129033   2.260   2.155   3.625 -0.9659 -1.1165 -1.5062
 5799SOL    HW229034   2.356   2.223   3.528 -0.6635  0.4600 -0.1279
 5800SOL     OW29035   3.197   2.882   1.987 -0.0624 -0.2861  0.0589
 5800SOL    HW129036   3.200   2.821   2.061 -0.5344 -1.9111 -1.2771
 5800SOL    HW229037   3.154   2.830   1.919 -0.9935 -0.4730  0.7839
 5801SOL     OW29038   0.330   1.865   3.075 -0.3740  0.0060 -0.5166
 5801SOL    HW129039   0.254   1.910   3.110 -0.0703 -0.2929  0.5114
 5801SOL    HW229040   0.344   1.917   2.995 -1.0945  2.6570  1.1051
 5802SOL     OW29041   3.393   1.671  14.264  0.4625  0.7740  0.1347
 5802SOL    HW129042   3.431   1.588  14.290 -1.9910 -0.6368 -0.7755
 5802SOL    HW229043   3.312   1.683  14.314  0.5485  1.5961  0.0893
 5803SOL     OW29044   4.576   0.390   6.463 -0.2080 -0.0989 -0.2003
 5803SOL    HW129045   4.635   0.465   6.476 -1.4146  0.8270 -0.0854
 5803SOL    HW229046   4.488   0.426   6.460 -0.4498 -0.6042  1.0891
 5804SOL     OW29047   2.590   3.416   8.314 -0.9338  0.1851  0.6554
 5804SOL    HW129048   2.509   3.466   8.303 -2.5270 -2.7038 -0.8212
 5804SOL    HW229049   2.629   3.496   8.349  0.9039 -0.4384  0.0568
 5805SOL     OW29050   3.543   2.321  15.650  0.4344 -0.0888 -0.1175
 5805SOL    HW129051   3.584   2.400  15.685 -0.2200  0.0194  0.3893
 5805SOL    HW229052   3.509   2.275  15.726 -0.9986 -0.8011 -1.1940
 5806SOL     OW29053   2.638   3.771   6.002 -0.5730 -0.5559  0.2195
 5806SOL    HW129054   2.669   3.698   5.949  0.0109  0.1190 -0.3778
 5806SOL    HW229055   2.683   3.840   5.952  1.3685 -1.0632  1.2301
 5807SOL     OW29056   1.087   3.766   3.164  0.8818 -0.3604 -0.1857
 5807SOL    HW129057   1.089   3.670   3.157 -2.3137 -0.6132  2.5913
 5807SOL    HW229058   1.078   3.764   3.069  0.4885 -0.1141 -0.1523
 5808SOL     OW29059   3.464   2.605   5.357 -0.6507  0.3664 -0.5314
 5808SOL    HW129060   3.460   2.663   5.281  1.3972 -0.5219 -1.3202
 5808SOL    HW229061   3.539   2.643   5.404 -1.1492  1.0994 -0.3349
 5809SOL     OW29062   4.368   0.785   8.297  0.4995  0.6468 -0.0046
 5809SOL    HW129063   4.316   0.758   8.373  1.1220  2.6156  1.1350
 5809SOL    HW229064   4.308   0.772   8.224 -0.8606 -1.0740  1.4429
 5810SOL     OW29065   0.148   1.096  11.370 -0.1138 -0.1299  0.3060
 5810SOL    HW129066   0.178   1.017  11.414 -1.7155 -1.1891 -0.5136
 5810SOL    HW229067   0.158   1.167  11.433  0.1461  1.9209 -1.9952
 5811SOL     OW29068   0.409   0.320   7.826 -0.3814 -0.4336  0.0046
 5811SOL    HW129069   0.459   0.397   7.800  1.6149 -0.7056  2.9555
 5811SOL    HW229070   0.444   0.318   7.915  1.9290 -0.8692 -0.9112
 5812SOL     OW29071   4.048   2.296   6.251 -0.1505 -0.2314 -0.0192
 5812SOL    HW129072   4.066   2.257   6.336  0.3321  0.8293  0.3723
 5812SOL    HW229073   3.956   2.272   6.242  0.5545 -1.4051 -3.8459
 5813SOL     OW29074   3.678   4.077   3.126  0.1679  0.1824 -0.0751
 5813SOL    HW129075   3.763   4.081   3.082  0.3686 -0.0669  0.2951
 5813SOL    HW229076   3.635   4.004   3.082  0.4372  0.7061 -1.2169
 5814SOL     OW29077   3.303   2.475   2.064 -0.3104 -0.0367  1.2144
 5814SOL    HW129078   3.392   2.441   2.073 -0.0538  0.0703 -0.8351
 5814SOL    HW229079   3.264   2.397   2.103 -0.3164 -0.8448 -0.3767
 5815SOL     OW29080   4.295   1.154   5.001 -0.5072 -0.1340 -0.0010
 5815SOL    HW129081   4.337   1.092   4.942 -1.4139 -1.2986  0.5646
 5815SOL    HW229082   4.211   1.166   4.957 -0.6640  0.8973  0.5862
 5816SOL     OW29083   3.002   2.752   2.436  0.0937  0.2279  0.5643
 5816SOL    HW129084   3.045   2.758   2.521  1.1997 -0.4937  0.0635
 5816SOL    HW229085   3.022   2.844   2.420 -1.2808  0.2292 -1.1307
 5817SOL     OW29086   1.436   3.146  10.292 -0.3140  0.1034  0.0098
 5817SOL    HW129087   1.477   3.199  10.360 -0.4690 -1.3362  1.2280
 5817SOL    HW229088   1.507   3.128  10.232 -1.0081  1.6633 -1.2544
 5818SOL     OW29089   1.326   1.034   7.559  0.5483  0.2135  0.6302
 5818SOL    HW129090   1.326   1.039   7.464 -0.8921  1.6961  0.7088
 5818SOL    HW229091   1.234   1.061   7.569  0.8087  1.4758 -0.3021
 5819SOL     OW29092   4.024   2.516   4.651  0.5044 -0.7417  0.3830
 5819SOL    HW129093   4.031   2.468   4.733  0.8889 -1.0460  0.1687
 5819SOL    HW229094   4.079   2.594   4.664  0.8993 -1.0158  0.3423
 5820SOL     OW29095   0.683   3.822   4.371  0.8546  0.1038 -0.2585
 5820SOL    HW129096   0.727   3.878   4.436  1.0836  1.3325 -1.4803
 5820SOL    HW229097   0.708   3.858   4.286  1.1389 -1.7774 -0.9623
 5821SOL     OW29098   0.718   1.066   5.206 -0.6857 -0.3222 -0.4564
 5821SOL    HW129099   0.744   1.158   5.214 -0.2724 -0.5938  1.4882
 5821SOL    HW229100   0.760   1.051   5.122  1.0442  1.3465  0.1118
 5822SOL     OW29101   0.625   3.244   2.001  0.2566 -0.0133  0.2731
 5822SOL    HW129102   0.648   3.290   2.081 -3.6579 -0.3177  1.5491
 5822SOL    HW229103   0.537   3.215   2.025  0.3049 -0.3179  0.0918
 5823SOL     OW29104   3.037   0.642   3.186  0.5425 -0.4701 -0.0748
 5823SOL    HW129105   2.993   0.658   3.270  0.1789 -0.6347 -0.2309
 5823SOL    HW229106   3.116   0.696   3.188  1.5525 -1.9227 -0.8291
 5824SOL     OW29107   4.400   3.862   5.812 -0.4837 -0.0451  0.0474
 5824SOL    HW129108   4.331   3.869   5.746 -0.4951 -0.0516  0.0588
 5824SOL    HW229109   4.451   3.942   5.799 -0.8146  0.0534 -0.6621
 5825SOL     OW29110   1.266   0.812   1.095 -0.3970  0.1055 -0.5420
 5825SOL    HW129111   1.189   0.757   1.077 -1.1904  1.1432 -0.3080
 5825SOL    HW229112   1.228   0.880   1.152 -3.3077 -0.9685 -1.1734
 5826SOL     OW29113   1.344   1.706   6.915 -0.5289  0.3528 -0.5622
 5826SOL    HW129114   1.264   1.706   6.967 -0.4425 -0.7099 -0.4451
 5826SOL    HW229115   1.372   1.793   6.943 -1.0773  0.8910 -1.6555
 5827SOL     OW29116   0.687   0.179   2.337 -0.2277  0.2481 -0.1550
 5827SOL    HW129117   0.686   0.220   2.251  1.8112  0.4827 -0.0562
 5827SOL    HW229118   0.595   0.187   2.362 -0.3471  1.9003 -1.1649
 5828SOL     OW29119   3.797   2.639   3.365  0.4641  0.0642  0.6446
 5828SOL    HW129120   3.815   2.731   3.344  0.6723  0.2001  1.4265
 5828SOL    HW229121   3.841   2.634   3.449  2.1926  0.1778 -0.2418
 5829SOL     OW29122   3.644   3.028   2.469  0.1935  0.1840 -0.5296
 5829SOL    HW129123   3.697   3.107   2.455  1.0652  0.1235  2.3674
 5829SOL    HW229124   3.629   3.002   2.378  1.0581  1.0249 -0.9152
 5830SOL     OW29125   2.121   1.375  15.975  0.0825 -0.0173 -0.0188
 5830SOL    HW129126   2.090   1.285  15.988  2.4362 -0.7601  0.4958
 5830SOL    HW229127   2.214   1.363  15.994  0.4973 -0.0610 -2.1812
 5831SOL     OW29128   2.557   3.424   6.423 -0.3217  0.2518 -0.3394
 5831SOL    HW129129   2.499   3.438   6.497  0.4814 -0.9935  0.5407
 5831SOL    HW229130   2.629   3.486   6.438 -0.3554 -0.5216  2.9054
 5832SOL     OW29131   1.706   2.416   4.041 -0.0708  0.3329  0.2574
 5832SOL    HW129132   1.716   2.474   4.117 -3.9462 -2.4804  2.9300
 5832SOL    HW229133   1.684   2.333   4.083  1.6394 -1.1258 -1.7553
 5833SOL     OW29134   0.835   3.462   3.358 -0.4387 -0.1717  0.2106
 5833SOL    HW129135   0.842   3.486   3.266  1.5410 -2.0291 -0.1137
 5833SOL    HW229136   0.848   3.367   3.350 -1.7960 -0.2709 -0.9224
 5834SOL     OW29137   1.461   4.022   4.059  0.0692  0.6027 -0.2746
 5834SOL    HW129138   1.443   4.071   3.978 -2.5985 -1.1892 -0.7560
 5834SOL    HW229139   1.557   4.017   4.054 -0.0130 -0.4481 -0.6881
 5835SOL     OW29140   3.489   0.107  13.107 -0.0611  0.2656 -0.0300
 5835SOL    HW129141   3.500   0.037  13.172 -1.0877 -0.8979 -1.0919
 5835SOL    HW229142   3.395   0.094  13.093  0.0659 -0.4410 -0.2346
 5836SOL     OW29143   2.948   1.084   6.216 -0.1832 -0.2342 -0.5161
 5836SOL    HW129144   3.040   1.063   6.232  0.2556  0.0430 -2.6499
 5836SOL    HW229145   2.953   1.138   6.137  0.1997  1.5467  0.7206
 5837SOL     OW29146   4.571   0.998   3.243  0.4424 -0.3095 -0.0266
 5837SOL    HW129147   4.666   1.005   3.237  0.6354 -1.8967  1.2952
 5837SOL    HW229148   4.561   0.973   3.334  0.6862 -1.2437 -0.2534
 5838SOL     OW29149   2.034   4.349   2.509  0.1646 -0.8261 -0.1264
 5838SOL    HW129150   2.024   4.258   2.484 -1.8484 -0.7188  0.2889
 5838SOL    HW229151   2.026   4.342   2.604  0.8385 -2.7564 -0.2209
 5839SOL     OW29152   0.462   3.514   5.037 -0.1691 -0.1018 -0.6475
 5839SOL    HW129153   0.398   3.563   5.089  2.0504  0.8313  1.2327
 5839SOL    HW229154   0.460   3.429   5.080  2.0751  1.2548  2.1470
 5840SOL     OW29155   0.815   0.335  10.398 -0.2074  0.4308  0.2863
 5840SOL    HW129156   0.825   0.283  10.319 -0.8112 -3.4676  2.7953
 5840SOL    HW229157   0.902   0.374  10.389 -0.0005  0.3405  1.8850
 5841SOL     OW29158   1.791   1.889  14.395  0.3128  0.0292  0.3968
 5841SOL    HW129159   1.855   1.960  14.397  0.5939 -0.2214  0.1706
 5841SOL    HW229160   1.727   1.927  14.334  0.6183  1.2867  0.8433
 5842SOL     OW29161   2.575   3.975   7.353  0.3692 -0.2909 -0.4018
 5842SOL    HW129162   2.480   3.961   7.354 -0.0775  2.8448  1.7972
 5842SOL    HW229163   2.612   3.894   7.318 -1.0898 -1.1923  0.1381
 5843SOL     OW29164   0.841   1.783  14.006 -0.3099  0.2146  0.0756
 5843SOL    HW129165   0.750   1.753  14.010 -0.3620  0.7828  3.4004
 5843SOL    HW229166   0.830   1.878  14.001  1.5296  0.4932  1.1043
 5844SOL     OW29167   3.739   3.066  12.164 -0.0488 -0.2920 -0.1528
 5844SOL    HW129168   3.687   3.134  12.208  0.5770  0.1178 -0.0394
 5844SOL    HW229169   3.671   3.001  12.176  0.0923 -0.8706 -2.5884
 5845SOL     OW29170   0.141   0.787  17.231  0.5368 -0.5708  0.3439
 5845SOL    HW129171   0.141   0.861  17.170  1.2831  0.3620  1.4802
 5845SOL    HW229172   0.052   0.795  17.264  0.5269 -2.1194  0.7135
 5846SOL     OW29173   1.721   3.857   7.464 -0.6149  0.3924 -0.1332
 5846SOL    HW129174   1.737   3.882   7.555  1.3346 -0.3941 -0.2386
 5846SOL    HW229175   1.717   3.763   7.482  0.2774  0.3204 -0.3010
 5847SOL     OW29176   4.093   2.615  15.006 -0.2465  0.0890 -0.0768
 5847SOL    HW129177   4.058   2.681  15.066 -1.2580  1.2803 -1.9555
 5847SOL    HW229178   4.023   2.551  14.993  0.5252 -0.7403 -0.0945
 5848SOL     OW29179   2.109   3.988   1.873  0.3065  0.5716 -0.3597
 5848SOL    HW129180   2.144   3.983   1.962 -0.5021 -1.0528 -0.1272
 5848SOL    HW229181   2.029   3.936   1.874  1.3501 -1.0316  0.0623
 5849SOL     OW29182   3.362   3.099   2.470  0.1705 -0.4953  0.2407
 5849SOL    HW129183   3.330   3.009   2.464  0.7739 -0.5974 -1.5459
 5849SOL    HW229184   3.456   3.083   2.479  0.2578  0.1312  0.4398
 5850SOL     OW29185   2.235   2.408  11.591  0.5270  0.3016 -0.7260
 5850SOL    HW129186   2.192   2.471  11.650 -1.6685 -1.0314 -0.8938
 5850SOL    HW229187   2.181   2.411  11.512 -0.3600 -1.1351 -0.1699
 5851SOL     OW29188   3.311   1.244   6.623 -0.3627  0.7392  0.2106
 5851SOL    HW129189   3.254   1.175   6.589  0.3036  0.2871  0.0048
 5851SOL    HW229190   3.371   1.182   6.664 -0.4806  0.6530  0.2547
 5852SOL     OW29191   0.277   2.379  11.157  0.1891 -0.2476 -0.0487
 5852SOL    HW129192   0.278   2.303  11.098 -0.2659 -1.1806  1.1606
 5852SOL    HW229193   0.210   2.429  11.111  0.7630  0.1492 -0.4582
 5853SOL     OW29194   3.375   0.204   3.590 -0.5049 -0.8342 -0.0559
 5853SOL    HW129195   3.332   0.257   3.523  0.9391  1.6732  1.0068
 5853SOL    HW229196   3.421   0.274   3.636 -0.2494  0.4771 -2.3276
 5854SOL     OW29197   3.858   2.447   3.975 -0.5393 -0.1887  0.3283
 5854SOL    HW129198   3.838   2.354   3.962  0.3102 -0.3151 -0.0913
 5854SOL    HW229199   3.807   2.466   4.054 -1.1239 -3.0280  0.6121
 5855SOL     OW29200   2.302   1.838   8.515  0.4170 -0.5205 -0.3264
 5855SOL    HW129201   2.220   1.818   8.471  0.0094  0.1014  0.1466
 5855SOL    HW229202   2.272   1.817   8.604 -1.5067  2.0747 -0.3773
 5856SOL     OW29203   0.263   2.160  12.144  0.5155 -1.2878  0.0909
 5856SOL    HW129204   0.247   2.236  12.088 -0.0815 -1.2420  0.3181
 5856SOL    HW229205   0.175   2.124  12.152 -1.3649  2.9937 -1.1573
 5857SOL     OW29206   0.873   0.367  16.137 -0.1551  0.4895  0.1113
 5857SOL    HW129207   0.924   0.437  16.098 -1.0356  0.7594 -0.5638
 5857SOL    HW229208   0.793   0.378  16.085  0.0025  0.7637 -0.0704
 5858SOL     OW29209   1.314   2.951  13.366 -0.3554  0.2671 -0.0030
 5858SOL    HW129210   1.391   3.008  13.368  1.3247 -1.9728 -0.0880
 5858SOL    HW229211   1.347   2.865  13.340 -0.5091  0.0776  0.4249
 5859SOL     OW29212   0.604   4.135   4.300 -0.2552 -0.1729  0.0319
 5859SOL    HW129213   0.670   4.096   4.243 -1.2464 -0.1513 -1.1523
 5859SOL    HW229214   0.522   4.102   4.263 -1.0794  3.0000 -1.0061
 5860SOL     OW29215   3.952   3.969   3.646  0.3702 -0.0503 -0.6620
 5860SOL    HW129216   3.945   3.984   3.740 -1.3031 -0.8142 -0.6659
 5860SOL    HW229217   3.880   4.027   3.619 -0.7189 -0.5532  1.1473
 5861SOL     OW29218   2.016   4.701   9.104 -0.0710  0.4407 -0.3401
 5861SOL    HW129219   2.107   4.727   9.113 -0.2527  0.7376  0.6905
 5861SOL    HW229220   1.979   0.020   9.173  1.5644  0.6345  0.3649
 5862SOL     OW29221   3.540   2.685   6.642 -0.4379  0.2966 -0.5835
 5862SOL    HW129222   3.558   2.761   6.697  0.3932  0.9107 -1.7112
 5862SOL    HW229223   3.465   2.713   6.589 -0.2746 -0.8049 -1.4035
 5863SOL     OW29224   3.822   1.714  16.859 -0.6749  0.1427 -0.1351
 5863SOL    HW129225   3.817   1.809  16.851  0.1735  0.5858  4.3146
 5863SOL    HW229226   3.747   1.701  16.917 -0.5834 -1.8124 -0.4439
 5864SOL     OW29227   4.109   0.848   6.912  0.0995 -0.0074 -0.4259
 5864SOL    HW129228   4.057   0.927   6.925  0.6666  0.4137 -0.7508
 5864SOL    HW229229   4.107   0.836   6.817  2.8794  0.5724 -0.5436
 5865SOL     OW29230   2.487   4.729   3.549 -0.6953  0.5624  0.0340
 5865SOL    HW129231   2.549   4.686   3.490 -0.5946  1.9001 -0.8249
 5865SOL    HW229232   2.409   4.722   3.492 -0.4338  0.9895 -0.3716
 5866SOL     OW29233   1.659   4.567   4.412  0.1741  0.2452 -0.2102
 5866SOL    HW129234   1.755   4.566   4.420  0.1866  1.5618 -0.2406
 5866SOL    HW229235   1.638   4.616   4.491  0.9666  0.1433  0.0666
 5867SOL     OW29236   3.630   2.138   3.698  0.2284 -0.5919 -0.1036
 5867SOL    HW129237   3.696   2.073   3.723 -0.4488 -1.0604  0.4620
 5867SOL    HW229238   3.680   2.220   3.701  1.1758 -1.1026 -1.6532
 5868SOL     OW29239   4.247   3.390   4.677  0.2274  0.0835  0.3594
 5868SOL    HW129240   4.172   3.339   4.709  1.6080 -0.6825  2.3730
 5868SOL    HW229241   4.329   3.344   4.694  1.2110  1.1939 -1.3600
 5869SOL     OW29242   2.905   3.321  11.736  0.1891 -0.7494  0.5809
 5869SOL    HW129243   2.922   3.415  11.735 -0.0296 -0.7307 -3.0113
 5869SOL    HW229244   2.977   3.302  11.675  0.5003  0.7475  0.4905
 5870SOL     OW29245   1.899   0.244   8.299  0.4410 -0.1928 -0.2057
 5870SOL    HW129246   1.958   0.318   8.283 -2.6665  2.4435  0.7226
 5870SOL    HW229247   1.932   0.206   8.380 -0.5055 -1.2402 -0.3112
 5871SOL     OW29248   0.110   2.918  12.657 -0.2000  0.1453  0.6062
 5871SOL    HW129249   0.202   2.898  12.637 -0.1449  0.9709  0.0252
 5871SOL    HW229250   0.063   2.851  12.607  1.0057 -2.0381  2.4280
 5872SOL     OW29251   2.560   0.532   3.479  0.3622  0.2644 -0.5054
 5872SOL    HW129252   2.643   0.492   3.454  0.7028  0.9955 -0.5300
 5872SOL    HW229253   2.585   0.609   3.529 -0.1242  0.5665 -0.7256
 5873SOL     OW29254   2.716   1.338   7.193  0.3167  0.1725  0.0445
 5873SOL    HW129255   2.758   1.252   7.192  2.1010  1.0608  0.7501
 5873SOL    HW229256   2.677   1.341   7.105  0.5093 -2.8488 -0.1495
 5874SOL     OW29257   4.317   4.590   2.959  0.2091 -0.0828 -0.6258
 5874SOL    HW129258   4.404   4.607   2.994  0.0718 -1.1548  0.2229
 5874SOL    HW229259   4.265   4.661   2.995 -1.3623 -0.3937 -2.2883
 5875SOL     OW29260   1.173   1.709  13.908 -0.2146  0.0783 -0.4176
 5875SOL    HW129261   1.177   1.625  13.953 -0.8125 -1.0974 -2.5552
 5875SOL    HW229262   1.213   1.770  13.969  1.3983 -0.3900 -1.0025
 5876SOL     OW29263   0.517   3.659  11.152 -0.1453 -0.6274 -0.6447
 5876SOL    HW129264   0.520   3.724  11.082  1.3510  1.5674  1.4448
 5876SOL    HW229265   0.451   3.598  11.119 -2.7939  1.1086  1.3334
 5877SOL     OW29266   0.434   3.117  12.830 -0.3708  0.0625 -0.0798
 5877SOL    HW129267   0.526   3.127  12.854 -0.2713  0.4315 -0.6080
 5877SOL    HW229268   0.403   3.033  12.863 -0.6529  0.1700 -0.0723
 5878SOL     OW29269   2.797   2.468   6.821 -0.1289  0.0599  0.0854
 5878SOL    HW129270   2.787   2.518   6.740  1.3004  0.8452  0.3925
 5878SOL    HW229271   2.762   2.385   6.790 -0.3839  0.9213 -1.9274
 5879SOL     OW29272   3.144   2.342   6.940  0.0246 -0.1381 -0.6651
 5879SOL    HW129273   3.230   2.380   6.957 -0.9342  0.5919  2.4941
 5879SOL    HW229274   3.122   2.403   6.870 -3.9637 -0.1287  0.5905
 5880SOL     OW29275   3.893   0.131  13.205 -0.1359  0.2029 -0.1072
 5880SOL    HW129276   3.888   0.075  13.283 -0.5298  0.1552 -0.1663
 5880SOL    HW229277   3.943   0.204  13.242 -0.6208 -0.6560  2.2461
 5881SOL     OW29278   4.158   4.699   2.316 -0.0107 -0.1038 -0.2706
 5881SOL    HW129279   4.158   4.608   2.347  0.5405 -0.6822 -1.9595
 5881SOL    HW229280   4.211   4.689   2.237 -1.5729  1.9667 -1.5915
 5882SOL     OW29281   2.282   4.708   3.381 -0.4425 -0.3745  0.1442
 5882SOL    HW129282   2.276   0.063   3.354 -0.3534 -0.3620  0.1664
 5882SOL    HW229283   2.196   4.670   3.368  0.2051 -2.2588  1.2587
 5883SOL     OW29284   2.382   4.013  13.241  0.2682  0.1828 -0.0930
 5883SOL    HW129285   2.386   3.947  13.172  0.1901  1.2960 -1.1739
 5883SOL    HW229286   2.286   4.016  13.247  0.3158 -0.1430  0.7723
 5884SOL     OW29287   3.113   3.315   0.245 -0.3413 -0.4118 -0.3396
 5884SOL    HW129288   3.141   3.352   0.329 -0.1930  1.8816 -1.3804
 5884SOL    HW229289   3.075   3.391   0.200  1.4525  0.4989 -0.3039
 5885SOL     OW29290   1.885   1.346   8.436 -0.1357  0.5593  0.5402
 5885SOL    HW129291   1.846   1.432   8.419 -0.2036 -0.1528 -2.9669
 5885SOL    HW229292   1.978   1.370   8.440  0.0671  0.1388 -1.5189
 5886SOL     OW29293   1.150   4.253   5.855 -0.0631  0.1447 -0.5639
 5886SOL    HW129294   1.100   4.316   5.802 -2.4639 -1.7035 -0.5160
 5886SOL    HW229295   1.229   4.302   5.876  1.1402 -1.5551 -1.1876
 5887SOL     OW29296   2.367   3.777   4.016  0.0260  0.4898 -0.1576
 5887SOL    HW129297   2.343   3.868   3.997 -1.6507  0.3098  1.1120
 5887SOL    HW229298   2.463   3.787   4.014  0.2184 -0.9996  1.6213
 5888SOL     OW29299   3.294   0.241   4.218  0.2166  0.6836  0.5909
 5888SOL    HW129300   3.302   0.149   4.246  1.2617  0.1822 -1.3337
 5888SOL    HW229301   3.374   0.279   4.255 -0.4480  1.2038  1.4646
 5889SOL     OW29302   4.667   0.750  11.285  0.1133 -0.5947 -0.0107
 5889SOL    HW129303   4.671   0.749  11.189 -0.2114  0.4178 -0.0310
 5889SOL    HW229304   4.632   0.838  11.299 -3.3332 -1.9940  0.1339
 5890SOL     OW29305   1.764   1.016   0.424  1.0028 -0.1627  0.0816
 5890SOL    HW129306   1.842   1.020   0.480  2.8732  0.0251 -2.5630
 5890SOL    HW229307   1.740   1.108   0.418  0.7921 -0.2632 -0.5508
 5891SOL     OW29308   2.978   0.272   4.783  0.4524 -0.3428  0.0657
 5891SOL    HW129309   2.983   0.335   4.712 -0.7788 -1.3486 -0.9148
 5891SOL    HW229310   3.064   0.267   4.825 -1.0543  2.0591  3.3750
 5892SOL     OW29311   1.647   3.254   5.654  0.4750 -0.2204  0.0459
 5892SOL    HW129312   1.695   3.250   5.737  4.8488 -0.2510 -2.4885
 5892SOL    HW229313   1.712   3.239   5.586 -0.6173 -3.5672 -0.2622
 5893SOL     OW29314   1.637   3.504   2.175  0.4331 -0.7642 -0.0202
 5893SOL    HW129315   1.575   3.557   2.125  2.1593  1.0677 -0.1880
 5893SOL    HW229316   1.721   3.543   2.153  0.0699 -0.9609 -1.7199
 5894SOL     OW29317   4.412   0.019   6.860 -0.1485  0.7233 -0.1440
 5894SOL    HW129318   4.469   4.732   6.934  0.4444  0.9047 -0.5403
 5894SOL    HW229319   4.470   0.065   6.799  0.7613 -0.1560  0.0541
 5895SOL     OW29320   1.011   0.645  12.354  0.3642 -0.1824  0.0014
 5895SOL    HW129321   1.063   0.631  12.275  0.8307 -3.6356  0.9125
 5895SOL    HW229322   1.078   0.684  12.409 -2.2212  1.1651  2.2259
 5896SOL     OW29323   1.376   3.228  13.013 -0.2555 -0.2780 -0.1020
 5896SOL    HW129324   1.340   3.178  13.086 -1.0266 -1.6032 -1.3891
 5896SOL    HW229325   1.465   3.196  12.999 -0.1513 -0.0656  0.0726
 5897SOL     OW29326   0.546   1.839   9.670  0.0673  0.1414  0.0265
 5897SOL    HW129327   0.567   1.923   9.710  3.0112 -0.4206 -0.3610
 5897SOL    HW229328   0.484   1.807   9.735  0.8752  0.7055  1.0704
 5898SOL     OW29329   1.945   3.874  14.918  0.5541  0.1746  0.0232
 5898SOL    HW129330   1.927   3.820  14.995  0.5279  1.5833  1.0304
 5898SOL    HW229331   1.878   3.835  14.863  2.2135 -2.2804 -0.2547
 5899SOL     OW29332   3.453   4.286   6.789  0.1798  0.1419  0.0419
 5899SOL    HW129333   3.432   4.192   6.793  0.2183  0.1531  0.4821
 5899SOL    HW229334   3.364   4.320   6.779 -0.1376 -0.0568  2.2943
 5900SOL     OW29335   1.270   1.940  14.060 -0.1917 -0.4938 -0.2058
 5900SOL    HW129336   1.313   2.023  14.079 -1.1415  0.2023 -1.0471
 5900SOL    HW229337   1.292   1.891  14.139 -2.1564 -1.3706 -0.1769
 5901SOL     OW29338   2.844   3.921   0.026  0.3462  0.6117  0.3239
 5901SOL    HW129339   2.824   3.962  17.686 -0.8717 -0.9483 -0.1548
 5901SOL    HW229340   2.758   3.933   0.066 -0.0730  1.7122 -0.8748
 5902SOL     OW29341   4.332   2.517   1.436  0.2524  0.8479 -0.3755
 5902SOL    HW129342   4.320   2.541   1.528 -3.1189  0.6645 -0.7521
 5902SOL    HW229343   4.326   2.604   1.395  1.3919  0.2915 -1.6840
 5903SOL     OW29344   4.038   0.706   6.216  0.2885 -0.0758 -0.2330
 5903SOL    HW129345   3.968   0.672   6.272  1.9365  0.6463  2.2658
 5903SOL    HW229346   4.011   0.798   6.223 -2.0724 -0.7826 -0.1707
 5904SOL     OW29347   1.682   1.782  13.564 -0.1244  0.0564  0.3276
 5904SOL    HW129348   1.606   1.749  13.612  0.1838  3.3286  3.0296
 5904SOL    HW229349   1.754   1.737  13.609 -1.3780 -1.7602  0.5204
 5905SOL     OW29350   3.398   4.233   6.363 -0.5031  0.2074 -0.1774
 5905SOL    HW129351   3.480   4.234   6.413 -1.1512  1.3453  0.8904
 5905SOL    HW229352   3.339   4.184   6.421 -1.0661  0.3415 -0.6317
 5906SOL     OW29353   3.471   0.634   5.456  0.2578  0.5840  0.0386
 5906SOL    HW129354   3.504   0.702   5.398  0.2270  0.0100 -0.6548
 5906SOL    HW229355   3.475   0.681   5.539 -2.2025  0.7757  0.0384
 5907SOL     OW29356   0.339   4.444   8.804 -0.2993 -0.6039 -0.1182
 5907SOL    HW129357   0.385   4.443   8.887 -0.5304  1.5923  0.0137
 5907SOL    HW229358   0.365   4.360   8.766  0.1815 -1.6201  2.4828
 5908SOL     OW29359   1.637   3.434   3.464  0.2929  0.0905 -0.2547
 5908SOL    HW129360   1.592   3.359   3.425  0.0173 -0.7321  1.6528
 5908SOL    HW229361   1.715   3.383   3.486  0.3634  0.5108  0.4601
 5909SOL     OW29362   2.762   2.178   7.084  0.4661 -0.4644  0.7613
 5909SOL    HW129363   2.836   2.236   7.104 -0.4265  1.1376 -0.6369
 5909SOL    HW229364   2.687   2.227   7.118  0.5537  0.1945 -0.0003
 5910SOL     OW29365   2.532   2.046   4.357 -0.2424 -0.8143 -0.2139
 5910SOL    HW129366   2.506   2.136   4.372 -0.5700 -0.6857 -1.5762
 5910SOL    HW229367   2.482   2.026   4.279  1.2596 -0.1190 -1.3507
 5911SOL     OW29368   4.086   4.624   4.940 -0.0127  0.2489  0.1576
 5911SOL    HW129369   4.058   4.610   5.030 -1.8576  1.1177 -0.2791
 5911SOL    HW229370   4.087   4.532   4.912  0.3771 -0.2035  1.6490
 5912SOL     OW29371   0.096   1.275   2.633 -1.0116  0.4300  0.6941
 5912SOL    HW129372   0.055   1.219   2.566 -1.6593  2.7570 -0.8791
 5912SOL    HW229373   0.112   1.357   2.585 -1.2412 -1.0843 -1.9917
 5913SOL     OW29374   1.245   1.920   2.935  0.4541  0.0429  0.3060
 5913SOL    HW129375   1.271   1.862   3.007 -0.7295  0.6604  1.2276
 5913SOL    HW229376   1.250   2.006   2.975 -0.5871  0.4614 -0.4750
 5914SOL     OW29377   3.653   4.392   5.997  0.9007 -0.2564  0.0554
 5914SOL    HW129378   3.568   4.351   6.018  0.3510  0.8864  0.0882
 5914SOL    HW229379   3.685   4.409   6.086  0.8997 -2.4767  0.4892
 5915SOL     OW29380   1.630   3.288  11.785 -0.1901  0.0227 -0.4074
 5915SOL    HW129381   1.708   3.232  11.780 -0.7801 -0.7343 -0.9982
 5915SOL    HW229382   1.660   3.369  11.744  1.7859  0.1210  1.2287
 5916SOL     OW29383   3.289   1.433  13.176  0.2986 -0.2062  0.5932
 5916SOL    HW129384   3.256   1.499  13.238  1.5839  0.3705  0.6576
 5916SOL    HW229385   3.228   1.360  13.186  2.0327 -1.9901 -1.9103
 5917SOL     OW29386   2.084   3.918   2.637 -0.3341 -0.2280 -0.0960
 5917SOL    HW129387   2.040   3.969   2.569 -2.7899 -1.0405  0.8721
 5917SOL    HW229388   2.006   3.874   2.671  1.0557 -0.7782  2.4238
 5918SOL     OW29389   0.707   4.056   9.680  0.0867 -0.8997 -0.0562
 5918SOL    HW129390   0.635   4.112   9.651  1.7295  0.6307 -1.1680
 5918SOL    HW229391   0.776   4.122   9.679  0.8638 -1.7021  1.0007
 5919SOL     OW29392   0.234   1.854   3.733  0.0144  0.1137 -0.1867
 5919SOL    HW129393   0.270   1.890   3.651  1.3953  1.5959  1.0612
 5919SOL    HW229394   0.141   1.876   3.724 -0.4616 -1.7483  0.2285
 5920SOL     OW29395   4.164   3.973   6.611 -0.2524  0.1039  0.2016
 5920SOL    HW129396   4.070   3.983   6.597 -0.6015 -2.2353  1.0107
 5920SOL    HW229397   4.190   3.920   6.535 -1.1430 -0.4665  0.2981
 5921SOL     OW29398   0.635   1.911   2.161  0.4923  0.1112 -0.5720
 5921SOL    HW129399   0.616   1.849   2.231  4.5999  0.0857  0.4757
 5921SOL    HW229400   0.565   1.974   2.177  1.2759  0.3146  2.0037
 5922SOL     OW29401   2.024   0.142   3.044 -0.4859  0.2568 -0.0607
 5922SOL    HW129402   1.979   0.122   3.127 -1.9088  0.9413 -0.6621
 5922SOL    HW229403   1.993   0.232   3.037 -0.9136  0.1929  0.9917
 5923SOL     OW29404   3.790   4.495   4.102  0.5823 -0.0968  0.2478
 5923SOL    HW129405   3.759   4.453   4.022  3.5238 -1.0312 -0.4225
 5923SOL    HW229406   3.798   4.413   4.150 -1.2337 -0.8841 -0.7887
 5924SOL     OW29407   3.587   2.318   3.105 -0.3304  0.0767 -0.3295
 5924SOL    HW129408   3.509   2.334   3.052 -0.6784 -1.4473 -0.2610
 5924SOL    HW229409   3.540   2.299   3.187  1.4511 -0.5635  0.5309
 5925SOL     OW29410   2.208   1.090   2.795  0.3582  0.6817  0.1817
 5925SOL    HW129411   2.222   1.130   2.709 -1.1186  0.9002  0.0341
 5925SOL    HW229412   2.285   1.125   2.839 -0.3055  0.2627  1.7132
 5926SOL     OW29413   3.134   4.714   4.986 -0.0543 -0.5022  0.3413
 5926SOL    HW129414   3.050   0.024   4.990  0.9933  1.5470 -1.7512
 5926SOL    HW229415   3.140   4.676   4.899  1.5480 -0.9547  0.6584
 5927SOL     OW29416   3.232   1.170   5.558 -0.2095  0.5369  0.3577
 5927SOL    HW129417   3.258   1.120   5.635  1.5014  0.6053 -0.1936
 5927SOL    HW229418   3.279   1.252   5.569  0.5003  0.4381 -1.9405
 5928SOL     OW29419   1.520   3.645   3.358  0.4229 -0.2372 -0.6262
 5928SOL    HW129420   1.578   3.590   3.410 -0.2186 -1.3899 -1.1179
 5928SOL    HW229421   1.455   3.578   3.334  2.0598 -2.8504  2.1217
 5929SOL     OW29422   3.797   3.972  10.083  0.6913  0.4206 -0.5249
 5929SOL    HW129423   3.834   3.971   9.995 -1.4948 -0.0398 -1.4418
 5929SOL    HW229424   3.876   3.951  10.133  0.2261 -2.5661 -1.0705
 5930SOL     OW29425   1.838   3.863   2.338  0.3455  0.2200 -0.3743
 5930SOL    HW129426   1.845   3.772   2.308  0.5894  0.1916 -0.2304
 5930SOL    HW229427   1.799   3.903   2.260  0.8202  1.2885 -0.0649
 5931SOL     OW29428   4.533   3.135  12.588  0.2931 -0.0241  0.6554
 5931SOL    HW129429   4.586   3.207  12.622  2.2404 -1.3569  0.4275
 5931SOL    HW229430   4.496   3.105  12.671  0.8943 -1.7896  0.2799
 5932SOL     OW29431   4.183   2.545  16.028  0.1004  0.2730 -0.1259
 5932SOL    HW129432   4.100   2.573  15.991  0.4000  0.1193 -0.9099
 5932SOL    HW229433   4.231   2.505  15.956 -2.7460 -1.8225 -0.8241
 5933SOL     OW29434   4.073   2.511   8.291 -0.5309 -0.3577  0.2653
 5933SOL    HW129435   4.109   2.592   8.255  0.5014 -0.6995  0.5312
 5933SOL    HW229436   3.987   2.539   8.323 -0.3610 -0.7752  1.0763
 5934SOL     OW29437   3.514   0.894   6.973  0.5028  0.3347  0.1643
 5934SOL    HW129438   3.448   0.897   7.042 -0.6187 -1.4297 -0.8511
 5934SOL    HW229439   3.514   0.804   6.940  0.2598  0.4893 -0.2471
 5935SOL     OW29440   3.212   3.349  15.578  0.5803 -1.0982  0.6554
 5935SOL    HW129441   3.249   3.301  15.504  0.5528 -0.3373  0.1446
 5935SOL    HW229442   3.118   3.336  15.565  0.6249 -1.2943  0.5278
 5936SOL     OW29443   4.728   3.352   2.942  0.1119  0.2538  0.2257
 5936SOL    HW129444   0.081   3.321   2.928  0.5689  2.0077 -0.6685
 5936SOL    HW229445   4.701   3.364   2.851 -0.2566  0.0865  0.3114
 5937SOL     OW29446   1.780   2.164   0.988  0.0750  0.2573 -0.0642
 5937SOL    HW129447   1.730   2.239   0.958 -1.5562 -0.6294  0.4270
 5937SOL    HW229448   1.858   2.195   1.034  2.4108 -2.4100 -2.2398
 5938SOL     OW29449   4.298   1.764  16.371 -0.6041 -0.1680 -0.0631
 5938SOL    HW129450   4.350   1.840  16.398  0.6053 -0.8222 -0.5395
 5938SOL    HW229451   4.229   1.775  16.437 -0.1854 -1.3990  0.5793
 5939SOL     OW29452   4.462   0.783   5.788 -0.3680  0.0388 -0.1179
 5939SOL    HW129453   4.448   0.745   5.702 -0.8449 -0.4325  0.1678
 5939SOL    HW229454   4.510   0.862   5.767 -1.4661  0.8259  0.3177
 5940SOL     OW29455   4.415   2.365  16.988  0.1375  0.0569 -0.2488
 5940SOL    HW129456   4.419   2.320  17.073  1.8867  0.5736 -0.0536
 5940SOL    HW229457   4.327   2.340  16.959  1.0016 -1.9437 -1.1335
 5941SOL     OW29458   3.503   2.769   6.028 -0.1357 -0.0910 -0.0738
 5941SOL    HW129459   3.407   2.768   6.037 -0.1307 -0.2081 -0.0270
 5941SOL    HW229460   3.513   2.864   6.025 -1.7928  0.1395  0.9955
 5942SOL     OW29461   1.503   3.361   0.569  0.9014  0.2483  0.0175
 5942SOL    HW129462   1.429   3.300   0.562  0.7150  0.2142  2.2899
 5942SOL    HW229463   1.573   3.296   0.567  0.8169  0.1581 -0.0152
 5943SOL     OW29464   4.236   3.297   8.458 -0.4246  0.4266  0.4491
 5943SOL    HW129465   4.173   3.284   8.529 -0.1512  0.0906  0.6311
 5943SOL    HW229466   4.218   3.223   8.400  0.7137  1.6072 -1.4248
 5944SOL     OW29467   1.566   4.068  13.033  0.0979 -0.0707 -0.2241
 5944SOL    HW129468   1.563   4.146  13.088 -1.1025  0.5957 -1.2280
 5944SOL    HW229469   1.601   3.996  13.085  0.6523 -0.2744 -0.8773
 5945SOL     OW29470   2.714   2.605   8.526 -0.6416 -0.0982 -0.4793
 5945SOL    HW129471   2.625   2.581   8.501 -0.2597 -1.9174 -0.1556
 5945SOL    HW229472   2.700   2.598   8.620 -3.8470 -0.2692 -0.9839
 5946SOL     OW29473   2.456   2.416  15.395  0.1026 -0.1261  0.3321
 5946SOL    HW129474   2.518   2.410  15.468  1.1571  2.5933 -0.3228
 5946SOL    HW229475   2.508   2.377  15.326 -1.2875 -0.5187 -0.4892
 5947SOL     OW29476   3.695   2.474   8.826  0.1542 -0.0028  0.2197
 5947SOL    HW129477   3.600   2.471   8.817  0.2959  0.9500 -1.5007
 5947SOL    HW229478   3.708   2.395   8.878  0.1762 -0.8071 -1.0386
 5948SOL     OW29479   3.831   1.718   8.658  0.4017  0.2111 -0.2223
 5948SOL    HW129480   3.768   1.756   8.719 -0.7195 -1.8520 -0.1038
 5948SOL    HW229481   3.849   1.631   8.695 -2.0565  1.0627  2.8713
 5949SOL     OW29482   1.288   0.973   6.796  0.3963 -0.2596  0.1957
 5949SOL    HW129483   1.285   0.905   6.864  1.0803  1.2400  1.7488
 5949SOL    HW229484   1.244   1.037   6.852  1.5388  1.6411 -1.0436
 5950SOL     OW29485   3.153   3.800   7.255 -0.0971  0.6015  0.5430
 5950SOL    HW129486   3.101   3.825   7.178  1.9099  1.1909 -0.6311
 5950SOL    HW229487   3.132   3.854   7.330 -0.3347  2.9563 -1.2214
 5951SOL     OW29488   3.115   3.328  13.214  0.8876  0.2800  0.4874
 5951SOL    HW129489   3.183   3.348  13.150 -0.3674 -1.9809 -1.5291
 5951SOL    HW229490   3.089   3.415  13.245  1.0440 -0.1659  1.8544
 5952SOL     OW29491   3.210   0.234  14.677  0.3187  0.2370 -0.1035
 5952SOL    HW129492   3.163   0.265  14.599 -0.2163  2.5290  1.1351
 5952SOL    HW229493   3.278   0.299  14.692 -1.3765  1.4832  2.0568
 5953SOL     OW29494   3.830   0.030  14.502 -0.0581 -0.0185  0.4507
 5953SOL    HW129495   3.876   0.065  14.578  1.6024  2.7585 -1.8174
 5953SOL    HW229496   3.750   0.084  14.507  0.6636  1.0672  0.2771
 5954SOL     OW29497   1.780   0.952   9.646  0.2080 -0.2661 -0.2817
 5954SOL    HW129498   1.812   0.909   9.725  0.3576  3.3245  1.6326
 5954SOL    HW229499   1.685   0.949   9.656 -0.0122  1.6255 -1.7056
 5955SOL     OW29500   4.157   1.534  16.637  0.3700 -0.5126 -0.2601
 5955SOL    HW129501   4.136   1.494  16.553 -0.9618 -0.1712 -0.0858
 5955SOL    HW229502   4.095   1.488  16.694  1.4474 -1.6775 -0.0225
 5956SOL     OW29503   1.788   2.203   4.919  0.7609  0.4498  0.7855
 5956SOL    HW129504   1.848   2.276   4.931  1.7811 -0.5429  1.7017
 5956SOL    HW229505   1.702   2.246   4.926 -0.1047 -0.7390 -2.1233
 5957SOL     OW29506   2.927   0.061   7.955  0.4556 -0.4811 -0.4415
 5957SOL    HW129507   3.012   0.019   7.941  0.7763  0.1733 -0.4703
 5957SOL    HW229508   2.864   4.727   7.971  1.1881 -1.7433 -3.1673
 5958SOL     OW29509   0.267   3.185   6.226 -0.6605 -0.4400 -0.2935
 5958SOL    HW129510   0.337   3.149   6.280 -0.9154  0.6124  0.7475
 5958SOL    HW229511   0.195   3.199   6.287  0.2662 -0.0350  0.7116
 5959SOL     OW29512   1.317   0.736   7.266 -0.3967  0.0502 -0.2129
 5959SOL    HW129513   1.347   0.733   7.357 -0.6615 -1.0773 -0.1664
 5959SOL    HW229514   1.307   0.641   7.254 -1.3468  0.1459 -0.1705
 5960SOL     OW29515   0.296   0.387   5.385 -0.4971 -1.2546  0.0031
 5960SOL    HW129516   0.358   0.407   5.316 -0.5821  1.5169  0.7425
 5960SOL    HW229517   0.255   0.473   5.390  0.5208 -0.8818  1.9005
 5961SOL     OW29518   2.165   2.348   0.669 -0.3602  0.3615 -0.3879
 5961SOL    HW129519   2.119   2.431   0.680  2.7450  1.9444  0.5576
 5961SOL    HW229520   2.219   2.377   0.596  0.5377  0.3272  0.2700
 5962SOL     OW29521   4.258   1.458   7.401 -0.3158 -0.1805  0.3654
 5962SOL    HW129522   4.303   1.486   7.480 -1.8143  0.1526  1.0838
 5962SOL    HW229523   4.169   1.440   7.430  0.6838 -0.4678  3.2333
 5963SOL     OW29524   2.805   2.744   5.496 -0.1090  0.3735  0.4616
 5963SOL    HW129525   2.843   2.723   5.412 -0.8499  2.0489 -0.2921
 5963SOL    HW229526   2.737   2.809   5.477  1.0245  1.4167  0.0651
 5964SOL     OW29527   3.159   4.087  14.331  0.1740 -0.0631  0.3446
 5964SOL    HW129528   3.159   4.060  14.239  0.4891 -2.8176  1.1467
 5964SOL    HW229529   3.122   4.176  14.332  1.4883  0.4926 -0.6177
 5965SOL     OW29530   3.263   0.949   9.134  0.5121 -1.2807  0.5435
 5965SOL    HW129531   3.326   0.880   9.112  1.2672 -0.3373 -0.2421
 5965SOL    HW229532   3.218   0.907   9.207 -1.3815 -0.2720 -0.0395
 5966SOL     OW29533   1.380   3.704   3.950 -0.4431  0.2802 -0.5671
 5966SOL    HW129534   1.443   3.639   3.919 -0.0720 -0.2444  1.2942
 5966SOL    HW229535   1.424   3.726   4.032 -0.0874 -0.0259 -0.6790
 5967SOL     OW29536   2.661   1.478   8.344 -0.1554 -0.0985  0.0605
 5967SOL    HW129537   2.756   1.485   8.354 -0.0814  1.2462 -1.4920
 5967SOL    HW229538   2.637   1.570   8.350  2.4431  0.2878  4.3605
 5968SOL     OW29539   1.059   0.617   8.035 -0.7104  0.4221  0.4717
 5968SOL    HW129540   1.027   0.661   7.956  0.3031 -0.2794 -0.3329
 5968SOL    HW229541   0.986   0.572   8.077 -0.2934 -1.1384 -0.4902
 5969SOL     OW29542   0.252   2.981   7.734  0.0739  0.3922  0.5935
 5969SOL    HW129543   0.223   3.066   7.702 -0.2226  0.5112  1.1762
 5969SOL    HW229544   0.343   2.995   7.758  0.4681  0.0411 -0.7255
 5970SOL     OW29545   0.875   0.043  11.322 -0.3812  0.2724 -0.2602
 5970SOL    HW129546   0.880   4.712  11.255  1.4419 -1.2812  1.4283
 5970SOL    HW229547   0.877   0.122  11.268  0.7113  0.3032 -0.1861
 5971SOL     OW29548   3.146   0.303   2.371  0.9268 -0.1786  0.2459
 5971SOL    HW129549   3.094   0.367   2.322  2.4386 -0.1920 -1.3503
 5971SOL    HW229550   3.167   0.230   2.313  0.3917  2.3532 -3.1516
 5972SOL     OW29551   4.093   3.145   1.791  0.7285 -0.1531  0.1174
 5972SOL    HW129552   4.051   3.206   1.729  0.5815 -1.7578 -1.3750
 5972SOL    HW229553   4.018   3.126   1.848 -0.3428  2.2838 -0.4574
 5973SOL     OW29554   2.843   1.702   6.757  0.2786  0.0718 -0.3492
 5973SOL    HW129555   2.784   1.741   6.692 -1.5840 -1.1738  0.5739
 5973SOL    HW229556   2.918   1.699   6.698 -0.0880  1.6071 -0.8768
 5974SOL     OW29557   2.979   0.160  11.272  0.2337 -0.3853  0.3480
 5974SOL    HW129558   2.917   0.088  11.267  1.4477 -1.3953 -0.2955
 5974SOL    HW229559   2.990   0.186  11.181 -0.5709 -2.9376 -0.4640
 5975SOL     OW29560   3.859   4.545   5.130 -0.1765 -0.0213 -0.3779
 5975SOL    HW129561   3.829   4.595   5.206  0.0308  1.6516 -1.3979
 5975SOL    HW229562   3.871   4.460   5.172  0.1356  0.7545  1.1040
 5976SOL     OW29563   2.036   2.876   5.438  0.2491  0.0239  0.6467
 5976SOL    HW129564   1.948   2.914   5.444  0.5354  0.9551 -0.9197
 5976SOL    HW229565   2.075   2.951   5.395 -0.5834  0.1381  0.0764
 5977SOL     OW29566   4.162   4.082  12.828 -0.2868 -0.0023 -1.1369
 5977SOL    HW129567   4.092   4.142  12.803 -1.7539 -1.5201 -0.6777
 5977SOL    HW229568   4.231   4.092  12.762  0.2340  1.8030 -0.2894
 5978SOL     OW29569   2.139   3.917  13.272 -0.4683  0.0780  0.3007
 5978SOL    HW129570   2.077   3.883  13.208 -1.3773 -0.2576  1.3551
 5978SOL    HW229571   2.081   3.937  13.346 -0.2589 -1.3157  0.8483
 5979SOL     OW29572   4.013   3.800  13.431  0.1679 -0.1091 -0.4496
 5979SOL    HW129573   4.103   3.775  13.411  0.1700 -1.2202  0.9352
 5979SOL    HW229574   3.986   3.819  13.341  1.8038 -0.8981 -1.1058
 5980SOL     OW29575   4.571   1.382   6.565 -0.3688 -0.4718  0.0508
 5980SOL    HW129576   4.640   1.404   6.627 -1.8838  0.7117  1.3025
 5980SOL    HW229577   4.539   1.308   6.616  1.6730 -0.3890  1.4419
 5981SOL     OW29578   3.176   2.206   6.371  0.1972  0.4368  0.4028
 5981SOL    HW129579   3.243   2.226   6.436  0.4665  1.0223 -0.0613
 5981SOL    HW229580   3.178   2.111   6.362  0.1025  0.4512  0.2208
 5982SOL     OW29581   0.177   1.128   4.522  0.2478  0.0051  0.0238
 5982SOL    HW129582   0.084   1.107   4.527  0.3367 -0.3290  0.2396
 5982SOL    HW229583   0.207   1.049   4.477  0.6315  0.9963 -1.4692
 5983SOL     OW29584   4.226   3.045   4.052 -0.7570 -0.0877  0.3890
 5983SOL    HW129585   4.278   3.082   4.124 -0.2582  2.1842 -1.1717
 5983SOL    HW229586   4.174   3.122   4.029 -0.3816  0.9092  2.7873
 5984SOL     OW29587   0.874   4.640   8.033  0.2848 -0.1850  0.2481
 5984SOL    HW129588   0.780   4.632   8.020  0.5939  0.5311 -2.5070
 5984SOL    HW229589   0.905   4.586   7.960 -1.5379  0.4256 -0.9663
 5985SOL     OW29590   1.513   0.848   3.289 -0.3372 -0.0848 -0.0078
 5985SOL    HW129591   1.496   0.930   3.244 -0.1429  0.5878  1.1505
 5985SOL    HW229592   1.428   0.813   3.314 -2.3815  3.9685 -1.4600
 5986SOL     OW29593   4.481   4.421   7.367 -0.3199 -0.1057  0.1972
 5986SOL    HW129594   4.389   4.418   7.344 -0.8914  1.0195  2.3178
 5986SOL    HW229595   4.482   4.469   7.450  2.7760  0.8121 -0.3656
 5987SOL     OW29596   1.764   4.534   9.778  0.2174  0.2756 -0.1030
 5987SOL    HW129597   1.738   4.608   9.832  1.9219  1.5802 -1.0702
 5987SOL    HW229598   1.711   4.468   9.822  1.0931 -0.3213  0.0790
 5988SOL     OW29599   3.108   1.078   1.453  0.1357 -0.0627  0.2956
 5988SOL    HW129600   3.145   0.990   1.449  0.0284 -0.1148  0.4410
 5988SOL    HW229601   3.024   1.034   1.439  0.2091 -0.4393  1.0491
 5989SOL     OW29602   4.147   1.903  15.105  0.0764  0.5832  0.0301
 5989SOL    HW129603   4.063   1.938  15.134  0.6679 -1.0468  3.7059
 5989SOL    HW229604   4.200   1.980  15.126  0.9831  0.0559 -0.3494
 5990SOL     OW29605   3.204   1.003  11.328 -0.1776  0.8933  0.0927
 5990SOL    HW129606   3.205   0.991  11.423 -1.0500 -0.7634 -0.1082
 5990SOL    HW229607   3.281   1.059  11.319 -1.0411  1.8052 -1.5499
 5991SOL     OW29608   3.394   2.796   2.352 -0.0253 -0.3320 -0.4313
 5991SOL    HW129609   3.300   2.800   2.333 -0.0937 -3.2445 -0.6675
 5991SOL    HW229610   3.420   2.741   2.278  1.4006  1.6150 -1.3858
 5992SOL     OW29611   3.983   1.154   2.463 -0.1503 -0.3742 -0.1112
 5992SOL    HW129612   4.043   1.216   2.421 -0.3908  0.9064  1.4035
 5992SOL    HW229613   4.031   1.138   2.544 -2.7266 -0.1084  1.4656
 5993SOL     OW29614   2.678   0.748   7.741  0.0300  0.0911  0.3215
 5993SOL    HW129615   2.691   0.654   7.751  0.8789  0.4832  2.7443
 5993SOL    HW229616   2.596   0.764   7.693 -0.4750 -0.7451  0.8932
 5994SOL     OW29617   3.571   0.491  11.787  0.4831  0.3278 -0.4336
 5994SOL    HW129618   3.588   0.582  11.808 -0.3788  0.4545 -0.3017
 5994SOL    HW229619   3.482   0.488  11.752  0.9980  1.8032 -1.8687
 5995SOL     OW29620   3.241   2.488  10.297 -0.1797 -0.0632 -0.1947
 5995SOL    HW129621   3.169   2.548  10.315  0.8736  1.2296 -0.2345
 5995SOL    HW229622   3.296   2.528  10.229  0.1288  1.8682  1.1868
 5996SOL     OW29623   1.802   3.977   6.781 -0.6562 -0.8277  0.6099
 5996SOL    HW129624   1.714   3.982   6.742 -0.0808 -1.5368 -0.7695
 5996SOL    HW229625   1.781   3.957   6.872 -0.1004  0.5124  1.0300
 5997SOL     OW29626   3.917   4.267   6.690 -0.4722  0.3242  0.2351
 5997SOL    HW129627   3.899   4.173   6.699  1.4122 -0.0746 -0.0831
 5997SOL    HW229628   3.985   4.262   6.623 -0.5285 -1.5054  0.3169
 5998SOL     OW29629   0.976   1.885   4.454  0.1211  0.2636  0.3494
 5998SOL    HW129630   0.907   1.858   4.394  0.1332  1.6055 -0.2683
 5998SOL    HW229631   0.980   1.826   4.529 -0.0264 -1.1320 -0.7565
 5999SOL     OW29632   0.310   2.375   4.190 -0.2815 -0.2826  0.0381
 5999SOL    HW129633   0.293   2.385   4.284 -0.9557 -1.5504  0.0567
 5999SOL    HW229634   0.398   2.339   4.186  0.0093  0.5289 -0.7854
 6000SOL     OW29635   1.392   3.105   3.944  0.4733  0.0057  0.1755
 6000SOL    HW129636   1.452   3.031   3.956  0.6436  0.0823 -0.2078
 6000SOL    HW229637   1.323   3.047   3.912  0.6275  0.7900 -1.5947
 6001SOL     OW29638   3.352   0.657   2.548 -0.3777  0.2232  0.5713
 6001SOL    HW129639   3.261   0.655   2.518 -0.6804 -1.6313  1.6259
 6001SOL    HW229640   3.391   0.594   2.487  1.7057  2.8943 -0.8933
 6002SOL     OW29641   4.514   1.027   2.247  0.2882  0.4196  0.1527
 6002SOL    HW129642   4.506   1.112   2.290 -0.1149  0.6396 -0.3662
 6002SOL    HW229643   4.424   0.997   2.258 -0.3309  2.9102  1.7402
 6003SOL     OW29644   0.571   4.254   9.399 -0.1244  0.1629 -0.4720
 6003SOL    HW129645   0.563   4.337   9.445  1.9242 -1.1790  2.3323
 6003SOL    HW229646   0.666   4.242   9.405 -0.3238 -1.3372 -0.3312
 6004SOL     OW29647   4.235   2.183   6.550  0.4299  0.7473  0.2422
 6004SOL    HW129648   4.275   2.267   6.572 -1.4350  1.9195 -0.8606
 6004SOL    HW229649   4.251   2.128   6.627  1.7305  1.4368  0.4612
 6005SOL     OW29650   1.429   4.321  12.222 -0.4357  0.0715 -0.1507
 6005SOL    HW129651   1.428   4.406  12.266  1.0948 -0.5730  1.1463
 6005SOL    HW229652   1.365   4.345  12.155  0.8901  1.9962 -0.7222
 6006SOL     OW29653   3.314   2.340   4.990  0.3342  0.8127 -0.5618
 6006SOL    HW129654   3.398   2.351   5.035 -0.8593  1.7313  1.4792
 6006SOL    HW229655   3.254   2.335   5.064  0.7089 -2.3869 -0.4498
 6007SOL     OW29656   1.414   0.780   0.863  0.0181  0.1681  0.3654
 6007SOL    HW129657   1.429   0.687   0.844  2.2750  0.8300 -1.1241
 6007SOL    HW229658   1.346   0.760   0.927  0.8591 -1.7847  0.6656
 6008SOL     OW29659   3.556   1.497  12.734  0.0694  0.3176  0.0490
 6008SOL    HW129660   3.536   1.468  12.823 -0.3336  2.9023  0.7884
 6008SOL    HW229661   3.627   1.437  12.711  0.4045  0.2290  1.3291
 6009SOL     OW29662   3.342   1.792  10.507  0.6400  0.3522 -0.0587
 6009SOL    HW129663   3.314   1.860  10.568  2.0375 -0.4261  1.4322
 6009SOL    HW229664   3.379   1.849  10.439  0.9045 -0.1390 -0.3322
 6010SOL     OW29665   0.927   2.304   0.399  0.2025  0.4878  0.2570
 6010SOL    HW129666   0.923   2.336   0.489 -0.2937 -1.3852  0.8911
 6010SOL    HW229667   1.020   2.316   0.382  0.4151  0.1202  1.2064
 6011SOL     OW29668   4.018   0.349  12.686 -0.2514 -0.3353  0.4205
 6011SOL    HW129669   4.067   0.284  12.636  1.0418  0.3404  0.8077
 6011SOL    HW229670   4.012   0.414  12.616 -2.6301  0.3597  1.2829
 6012SOL     OW29671   2.824   1.569  15.671  0.7939  0.2018 -1.3616
 6012SOL    HW129672   2.868   1.511  15.733 -2.6495 -0.2528  0.6989
 6012SOL    HW229673   2.736   1.532  15.661  1.2895 -1.0054 -1.1614
 6013SOL     OW29674   1.173   2.717   7.684 -0.4408 -0.5261 -0.0627
 6013SOL    HW129675   1.094   2.722   7.631 -1.1032 -0.5904  0.9368
 6013SOL    HW229676   1.137   2.704   7.771  0.0903 -1.3324  0.0328
 6014SOL     OW29677   3.148   2.445   8.839  0.0966  0.0832 -0.3337
 6014SOL    HW129678   3.132   2.351   8.850 -0.7997 -0.0159 -2.3866
 6014SOL    HW229679   3.074   2.485   8.885 -1.0277 -0.5234 -1.6095
 6015SOL     OW29680   2.840   0.416   6.407  0.3560  0.6833  0.1481
 6015SOL    HW129681   2.790   0.498   6.416  0.3429  0.5281  1.4808
 6015SOL    HW229682   2.889   0.412   6.489 -0.9012 -0.5691  0.8405
 6016SOL     OW29683   3.433   0.035  12.566 -0.1545 -0.5873  0.1476
 6016SOL    HW129684   3.513   0.087  12.556 -1.2950  0.8988 -1.3420
 6016SOL    HW229685   3.419   4.726  12.483 -0.1928 -0.8008  0.2722
 6017SOL     OW29686   1.330   3.102  10.541 -0.1286  0.1548 -0.1344
 6017SOL    HW129687   1.266   3.031  10.538  0.0762 -0.1012  1.3195
 6017SOL    HW229688   1.362   3.103  10.451 -0.2866  0.6545 -0.1836
 6018SOL     OW29689   3.885   1.264   6.749 -0.1230 -0.0676  0.1367
 6018SOL    HW129690   3.891   1.181   6.702  0.5433 -0.2522  0.5617
 6018SOL    HW229691   3.975   1.293   6.738  0.0247 -0.9926 -0.9709
 6019SOL     OW29692   4.361   0.643   5.219 -0.1014  0.2656 -0.1568
 6019SOL    HW129693   4.406   0.622   5.137 -0.3178  0.6420 -0.3730
 6019SOL    HW229694   4.278   0.596   5.213  0.1710 -0.2705  0.3026
 6020SOL     OW29695   4.227   3.015   2.720  0.2827 -0.2390  0.3693
 6020SOL    HW129696   4.182   3.048   2.797 -0.5292 -0.0736 -0.1791
 6020SOL    HW229697   4.300   2.972   2.765 -0.4768 -1.7342  0.1749
 6021SOL     OW29698   3.044   1.719   6.567  0.1300 -0.5779  0.2631
 6021SOL    HW129699   3.070   1.627   6.566 -1.3308 -1.0055  2.2157
 6021SOL    HW229700   3.108   1.764   6.623  0.3970 -1.2594  0.5077
 6022SOL     OW29701   4.659   0.735   2.965  0.4206 -0.2450 -0.3861
 6022SOL    HW129702   4.712   0.755   2.888 -0.3071  2.9239 -0.0457
 6022SOL    HW229703   4.578   0.709   2.921  1.1143 -0.8695 -1.2939
 6023SOL     OW29704   1.311   3.754  11.681 -0.0618 -0.3102 -0.2092
 6023SOL    HW129705   1.226   3.730  11.643 -0.2215 -1.9716  1.1802
 6023SOL    HW229706   1.299   3.761  11.776  2.0482  3.3633 -0.2185
 6024SOL     OW29707   3.530   2.359   3.490  0.4805  0.4775 -0.6764
 6024SOL    HW129708   3.593   2.291   3.465  1.5252  1.0755  0.3108
 6024SOL    HW229709   3.579   2.400   3.562 -1.7315 -0.3217  1.2947
 6025SOL     OW29710   4.670   1.842  10.750  0.2453  0.5595  0.0655
 6025SOL    HW129711   4.586   1.816  10.788 -0.8803  1.6323 -1.6937
 6025SOL    HW229712   4.736   1.813  10.813 -1.2440 -0.1971  1.2797
 6026SOL     OW29713   0.748   1.014   1.741  0.0979  0.4729  0.1238
 6026SOL    HW129714   0.675   1.058   1.697 -0.4166 -2.8542 -2.2948
 6026SOL    HW229715   0.701   0.983   1.818 -1.0591  2.1231  0.1006
 6027SOL     OW29716   1.012   3.785   2.435 -0.2693  0.0822 -0.6789
 6027SOL    HW129717   0.982   3.716   2.494  1.3002 -1.6748 -1.9050
 6027SOL    HW229718   0.981   3.753   2.351  1.3719  1.1003 -1.6679
 6028SOL     OW29719   0.006   0.955   7.656  0.2013 -0.1235  0.7196
 6028SOL    HW129720   0.014   0.861   7.666 -1.7807 -0.4988 -1.0949
 6028SOL    HW229721   4.664   0.964   7.601  1.2785  2.7195 -0.3836
 6029SOL     OW29722   0.783   0.742   8.139 -0.0513 -0.5875 -0.0062
 6029SOL    HW129723   0.699   0.698   8.125 -1.1351  1.9169 -1.4509
 6029SOL    HW229724   0.814   0.751   8.049 -3.5509  0.8430 -1.0608
 6030SOL     OW29725   3.767   2.386   8.044 -0.0722 -0.0794 -0.2589
 6030SOL    HW129726   3.715   2.434   8.109 -0.3039 -0.6061 -0.0611
 6030SOL    HW229727   3.698   2.348   7.990 -0.3939 -0.0435  0.1201
 6031SOL     OW29728   0.034   4.009   5.806  0.1504  0.1789  0.2540
 6031SOL    HW129729   0.118   4.054   5.802  0.2401 -0.0051  0.1392
 6031SOL    HW229730   0.023   3.949   5.733 -1.3127 -0.0360  0.6432
 6032SOL     OW29731   1.175   4.302   3.359  0.5858  0.4159 -0.2459
 6032SOL    HW129732   1.235   4.270   3.292  1.0051  1.2719 -0.2930
 6032SOL    HW229733   1.172   4.395   3.335 -0.9534  0.2508 -0.6979
 6033SOL     OW29734   1.100   4.512   6.759 -0.3701 -0.1922  0.8089
 6033SOL    HW129735   1.119   4.484   6.670 -1.0175  1.6164  0.0925
 6033SOL    HW229736   1.014   4.472   6.774 -0.1970 -1.3105 -1.2001
 6034SOL     OW29737   0.606   3.164  16.471 -0.0847  0.2946 -0.1177
 6034SOL    HW129738   0.624   3.110  16.394 -0.1345  0.8482 -0.5248
 6034SOL    HW229739   0.696   3.168  16.501 -0.1662 -0.7704  0.2476
 6035SOL     OW29740   0.540   2.605  14.554  0.0849 -0.6341  0.3835
 6035SOL    HW129741   0.561   2.665  14.625  2.2077  0.0747 -0.8248
 6035SOL    HW229742   0.554   2.519  14.593 -1.9096 -1.3454 -0.4515
 6036SOL     OW29743   1.362   4.106   1.523 -0.3074  0.4363  0.4327
 6036SOL    HW129744   1.415   4.026   1.520 -2.5925 -1.0026 -1.3504
 6036SOL    HW229745   1.286   4.094   1.580 -1.4784  2.0441 -0.8027
 6037SOL     OW29746   0.659   3.359   7.805 -0.2792  0.5005 -0.4286
 6037SOL    HW129747   0.714   3.421   7.756 -0.7998  2.8155  1.9755
 6037SOL    HW229748   0.650   3.400   7.890 -0.4112  2.5294 -1.4316
 6038SOL     OW29749   2.944   3.452  14.453 -0.3460 -0.1108  0.4204
 6038SOL    HW129750   2.945   3.386  14.384  0.2369  0.8015 -0.4446
 6038SOL    HW229751   2.852   3.447  14.480  0.6166 -0.7102  3.5980
 6039SOL     OW29752   0.846   3.539  13.085 -0.0986  0.4706  0.7422
 6039SOL    HW129753   0.809   3.624  13.063 -4.3151 -1.3882  0.6186
 6039SOL    HW229754   0.825   3.548  13.178 -1.4094  0.3661  0.4590
 6040SOL     OW29755   0.865   3.940   6.858  0.2775 -0.3337  0.2784
 6040SOL    HW129756   0.782   3.935   6.811  0.2554 -0.2143  0.3044
 6040SOL    HW229757   0.912   4.003   6.804  0.4145  0.9025  1.8198
 6041SOL     OW29758   0.822   1.261   5.408  0.3279 -0.4558 -0.0873
 6041SOL    HW129759   0.755   1.277   5.475  0.4065  0.0601 -0.1326
 6041SOL    HW229760   0.825   1.343   5.361  0.7365  0.3649  1.3686
 6042SOL     OW29761   2.587   3.250   1.681  0.4066 -0.3017  0.2627
 6042SOL    HW129762   2.546   3.163   1.678  0.8532 -0.4757 -1.1045
 6042SOL    HW229763   2.678   3.222   1.672  0.6756  0.5924  0.1707
 6043SOL     OW29764   3.555   0.267   3.258 -0.0505  0.5705  0.2219
 6043SOL    HW129765   3.563   0.314   3.341  1.5088 -0.3655  0.6180
 6043SOL    HW229766   3.465   0.292   3.238 -0.5619 -2.0843 -0.8305
 6044SOL     OW29767   4.183   4.689  10.262  0.2663 -0.2046 -0.2861
 6044SOL    HW129768   4.174   4.659  10.353  0.5264 -0.5781 -0.3847
 6044SOL    HW229769   4.178   0.047  10.273  0.8737 -0.2240  0.1904
 6045SOL     OW29770   2.616   0.327   8.650 -0.0487 -0.3798  0.4817
 6045SOL    HW129771   2.615   0.388   8.576  1.5910 -0.4676  0.3725
 6045SOL    HW229772   2.707   0.297   8.646  1.1212  3.2999 -1.0248
 6046SOL     OW29773   0.419   0.513  10.864  0.3272  0.2061  0.1348
 6046SOL    HW129774   0.364   0.570  10.919 -1.6072 -1.8322  0.3118
 6046SOL    HW229775   0.391   0.539  10.776 -1.2674 -1.4081  0.1578
 6047SOL     OW29776   3.943   0.696   1.846  0.2168  0.0716  0.4403
 6047SOL    HW129777   3.932   0.662   1.935  0.1117 -0.5601  0.1867
 6047SOL    HW229778   4.028   0.737   1.864 -1.5844  3.3460  1.4471
 6048SOL     OW29779   2.306   0.919   0.402  0.2132  0.2100  0.3822
 6048SOL    HW129780   2.268   1.007   0.407  2.1056  0.9373  1.6819
 6048SOL    HW229781   2.249   0.886   0.332 -0.8538 -0.1430  1.4232
 6049SOL     OW29782   3.091   0.246   3.798  0.0344 -0.2774 -0.3869
 6049SOL    HW129783   3.170   0.222   3.847  0.2420 -1.3901 -1.2522
 6049SOL    HW229784   3.072   0.167   3.746  1.0185 -0.0430 -1.1015
 6050SOL     OW29785   2.531   3.835   9.177  0.1614 -0.1941  0.8947
 6050SOL    HW129786   2.439   3.830   9.203 -0.8155  1.1299 -2.2716
 6050SOL    HW229787   2.551   3.918   9.221 -0.4033  0.9603 -1.0037
 6051SOL     OW29788   3.877   4.003   5.936 -0.0995 -0.0708 -0.6039
 6051SOL    HW129789   3.812   4.063   5.974  1.4513  0.2693  1.5584
 6051SOL    HW229790   3.873   3.930   5.997  3.1960  1.6982  1.7700
 6052SOL     OW29791   4.556   0.612   3.884  0.5317  0.2821 -0.0920
 6052SOL    HW129792   4.466   0.609   3.917  1.0163 -0.7417  1.1195
 6052SOL    HW229793   4.599   0.530   3.909  1.5285  0.6772 -0.5192
 6053SOL     OW29794   0.547   3.990   5.349 -0.4725  0.0270  0.1553
 6053SOL    HW129795   0.575   3.988   5.258 -1.2654  3.4784 -0.1760
 6053SOL    HW229796   0.566   3.901   5.380 -1.0346 -0.3238 -0.5238
 6054SOL     OW29797   2.686   0.035   9.908 -0.7180  0.2898 -1.0710
 6054SOL    HW129798   2.597   0.051   9.939 -0.9070  2.7481 -2.8330
 6054SOL    HW229799   2.672   0.009   9.817 -1.0228 -1.8525 -0.4125
 6055SOL     OW29800   3.907   0.674   8.536  0.0735 -0.1083 -0.1344
 6055SOL    HW129801   3.902   0.703   8.445  1.1854 -0.1806 -0.2146
 6055SOL    HW229802   3.964   0.597   8.536  4.0594  2.9108 -1.7656
 6056SOL     OW29803   3.974   1.494  11.921  0.5731 -0.5544 -0.0244
 6056SOL    HW129804   4.030   1.522  11.849 -0.2918  1.8889  0.2710
 6056SOL    HW229805   4.022   1.503  12.003 -1.1994  1.4899  0.7890
 6057SOL     OW29806   0.020   2.085   8.040  0.1568  0.6083 -0.5031
 6057SOL    HW129807   0.100   2.059   8.086  0.0653 -2.0927 -1.8350
 6057SOL    HW229808   4.684   2.088   8.102 -0.9567 -2.0841 -1.6787
 6058SOL     OW29809   4.094   2.811   2.596  0.3074  0.0744 -0.4459
 6058SOL    HW129810   4.142   2.868   2.656  1.4888 -2.7636  1.3457
 6058SOL    HW229811   4.118   2.726   2.633  1.6771  0.2337 -0.9668
 6059SOL     OW29812   1.753   2.374   6.524 -0.7166  0.0782 -0.3427
 6059SOL    HW129813   1.665   2.339   6.516  0.5720 -3.8106  2.0617
 6059SOL    HW229814   1.739   2.467   6.512  2.3834  0.5454 -0.4081
 6060SOL     OW29815   3.357   2.504  14.673  0.3036 -0.0254 -0.1083
 6060SOL    HW129816   3.299   2.574  14.703  2.0747  1.3367  0.1288
 6060SOL    HW229817   3.416   2.478  14.744  0.0774 -0.6154 -0.1374
 6061SOL     OW29818   4.546   4.153   5.879  0.1294  0.4698 -0.2597
 6061SOL    HW129819   4.523   4.148   5.972  1.4002 -0.8305 -0.0210
 6061SOL    HW229820   4.636   4.127   5.859 -0.2632 -0.8328 -0.3445
 6062SOL     OW29821   0.708   1.318   6.682  0.2794  0.2566 -0.0912
 6062SOL    HW129822   0.790   1.279   6.651  1.5051  2.2597  0.6412
 6062SOL    HW229823   0.684   1.248   6.743  1.1965 -0.4696 -0.5530
 6063SOL     OW29824   1.968   1.858   6.622 -0.7564 -0.1908  0.4414
 6063SOL    HW129825   1.941   1.950   6.622 -1.6866 -0.4561  2.9788
 6063SOL    HW229826   2.055   1.865   6.663 -0.6072  0.3548  0.0367
 6064SOL     OW29827   3.374   1.737  11.528 -0.3823 -0.3750 -0.0795
 6064SOL    HW129828   3.399   1.707  11.615 -0.1100 -0.1077 -0.0653
 6064SOL    HW229829   3.360   1.651  11.489 -0.4448 -0.5073  0.2337
 6065SOL     OW29830   1.297   3.299  12.512  0.3420  0.3016 -0.2496
 6065SOL    HW129831   1.205   3.324  12.523  0.0858  0.1644 -2.0053
 6065SOL    HW229832   1.294   3.242  12.436  1.9039 -0.7271  0.4673
 6066SOL     OW29833   1.889   3.185  16.161 -0.3283  0.3051 -0.1258
 6066SOL    HW129834   1.979   3.171  16.188  0.2364 -1.1593 -2.8134
 6066SOL    HW229835   1.870   3.273  16.193 -0.9923  0.5644 -1.2218
 6067SOL     OW29836   2.297   2.694   9.170 -0.4380  0.2218 -0.8593
 6067SOL    HW129837   2.348   2.765   9.209 -1.0597  0.7122 -0.9450
 6067SOL    HW229838   2.236   2.749   9.122  0.0802  0.1885 -1.5498
 6068SOL     OW29839   3.723   4.589   7.327 -0.3123  0.0685  0.4319
 6068SOL    HW129840   3.711   4.510   7.273 -2.3264  1.3492 -0.9936
 6068SOL    HW229841   3.658   4.650   7.291  0.2860  0.0147 -0.7570
 6069SOL     OW29842   4.135   1.329   6.660  0.1311 -0.3494 -0.2148
 6069SOL    HW129843   4.164   1.379   6.736 -1.5623  2.8673 -1.6663
 6069SOL    HW229844   4.218   1.292   6.630 -0.5213 -0.8318 -1.4368
 6070SOL     OW29845   4.318   3.549   8.542  0.2599 -0.2225  0.0374
 6070SOL    HW129846   4.388   3.511   8.594  0.0987  0.5314  0.8093
 6070SOL    HW229847   4.294   3.472   8.490 -2.0623  0.4043  0.1968
 6071SOL     OW29848   1.593   2.721   6.624  1.0560  0.1962  0.5661
 6071SOL    HW129849   1.643   2.690   6.548 -0.0386 -2.1984  0.8221
 6071SOL    HW229850   1.600   2.816   6.616  2.6723 -0.0496 -1.0096
 6072SOL     OW29851   3.879   3.799   2.913  0.1187  0.2039 -0.3701
 6072SOL    HW129852   3.812   3.767   2.852 -2.1962 -2.0603  3.3965
 6072SOL    HW229853   3.891   3.887   2.877 -2.1114  0.2203 -1.1009
 6073SOL     OW29854   0.545   0.060   6.611 -0.0793  0.0351  0.9015
 6073SOL    HW129855   0.475   0.024   6.667 -2.5814 -0.8553 -2.7864
 6073SOL    HW229856   0.510   0.148   6.601  3.4660  1.3527  0.5044
 6074SOL     OW29857   2.816   0.801   4.632 -0.1764  0.3506 -0.0812
 6074SOL    HW129858   2.817   0.897   4.625 -2.4697  0.2324 -1.9496
 6074SOL    HW229859   2.795   0.801   4.726 -0.4913  0.8519 -0.1488
 6075SOL     OW29860   0.919   3.326   2.821  0.6255 -0.0645  0.0724
 6075SOL    HW129861   0.906   3.417   2.849 -3.0688 -0.9596  1.3218
 6075SOL    HW229862   1.014   3.326   2.826  0.5901 -1.2694  0.6706
 6076SOL     OW29863   2.979   3.332   4.503  0.3045  0.0994  0.0861
 6076SOL    HW129864   2.900   3.386   4.511 -0.0295 -0.4035  0.1619
 6076SOL    HW229865   3.023   3.387   4.437 -0.6595  1.3174  0.4536
 6077SOL     OW29866   2.205   1.630   1.110  0.6450  0.2757 -0.7544
 6077SOL    HW129867   2.276   1.585   1.063  0.3147 -0.0726 -0.9234
 6077SOL    HW229868   2.247   1.716   1.115 -2.3842  1.7428 -0.5689
 6078SOL     OW29869   2.099   3.057  16.409 -0.1404  0.5036 -0.5093
 6078SOL    HW129870   2.194   3.058  16.425 -0.5005  1.8002  1.5779
 6078SOL    HW229871   2.089   3.144  16.448 -0.1404  0.1832  0.2036
 6079SOL     OW29872   3.065   1.344   1.125 -0.1529 -0.3025  0.0895
 6079SOL    HW129873   2.983   1.388   1.147 -0.8592 -1.5187 -0.0980
 6079SOL    HW229874   3.042   1.254   1.103 -1.1632  0.8714 -3.5898
 6080SOL     OW29875   3.711   2.206  16.159 -0.0378  0.1450  0.1177
 6080SOL    HW129876   3.743   2.176  16.073  2.3194 -1.8408  1.6931
 6080SOL    HW229877   3.767   2.156  16.219 -1.1041 -1.1015  0.0758
 6081SOL     OW29878   4.209   1.965  12.816  0.4690 -0.3640 -0.4501
 6081SOL    HW129879   4.168   1.884  12.785  0.1790 -0.2364 -0.3951
 6081SOL    HW229880   4.187   1.968  12.909 -2.2822  1.3115 -1.1564
 6082SOL     OW29881   2.180   3.010   6.991 -0.0217 -0.2237 -0.7579
 6082SOL    HW129882   2.138   3.096   6.985  1.1361  0.2847 -1.7324
 6082SOL    HW229883   2.221   3.014   7.078 -0.7294 -0.6898 -0.4089
 6083SOL     OW29884   2.421   3.257   5.076 -0.4590 -0.2011  0.4565
 6083SOL    HW129885   2.474   3.189   5.035 -1.3478  0.7321 -2.2061
 6083SOL    HW229886   2.336   3.252   5.034  0.9893 -0.2578 -2.4511
 6084SOL     OW29887   2.700   3.683   9.721 -0.0239 -0.0360 -0.4638
 6084SOL    HW129888   2.698   3.778   9.731  0.3581  0.0127 -0.8695
 6084SOL    HW229889   2.720   3.636   9.802  0.7770  1.9422  0.4644
 6085SOL     OW29890   4.448   0.591  11.342  0.5936 -0.3185  0.2714
 6085SOL    HW129891   4.501   0.670  11.329  1.5463 -1.2101 -1.3155
 6085SOL    HW229892   4.408   0.598  11.429  1.5824  1.6385  0.5797
 6086SOL     OW29893   2.532   4.419  14.944 -0.2278  0.1678  0.0166
 6086SOL    HW129894   2.627   4.435  14.945 -0.3402  0.6254  2.5363
 6086SOL    HW229895   2.534   4.324  14.949  1.0693  0.2664  1.5654
 6087SOL     OW29896   3.784   0.811   7.514 -0.2781 -0.2852 -0.2181
 6087SOL    HW129897   3.702   0.771   7.486 -0.4658 -0.4863  0.6134
 6087SOL    HW229898   3.834   0.731   7.530  0.9768  0.4665 -0.3974
 6088SOL     OW29899   2.701   3.631   3.628  0.6072  0.0759 -0.3532
 6088SOL    HW129900   2.777   3.592   3.670  0.5503  1.3011  0.8811
 6088SOL    HW229901   2.680   3.697   3.694 -3.3771 -0.7324 -0.7841
 6089SOL     OW29902   3.832   1.605  16.550 -0.1712 -0.2085 -0.2241
 6089SOL    HW129903   3.916   1.567  16.523 -1.0803 -1.4128 -1.3842
 6089SOL    HW229904   3.839   1.608  16.646  0.2047  1.3947 -0.3130
 6090SOL     OW29905   1.424   0.407   5.711  0.4480  0.1150 -0.2159
 6090SOL    HW129906   1.377   0.328   5.684 -0.7848  0.8261 -0.1621
 6090SOL    HW229907   1.502   0.368   5.751  0.9953  0.7463 -0.6708
 6091SOL     OW29908   4.524   2.387   7.871 -0.1425 -0.5132 -0.4107
 6091SOL    HW129909   4.525   2.458   7.936  2.9165 -0.8012 -0.1148
 6091SOL    HW229910   4.618   2.380   7.854 -0.1891  0.6679 -1.1117
 6092SOL     OW29911   3.761   0.591  13.077  0.3731 -0.7554 -0.0583
 6092SOL    HW129912   3.726   0.680  13.081 -0.4690 -1.1128  0.3949
 6092SOL    HW229913   3.691   0.528  13.091  0.0894 -0.2074  0.9996
 6093SOL     OW29914   2.265   0.862  12.640  0.6685  0.2119  0.5449
 6093SOL    HW129915   2.239   0.775  12.672  0.3873 -0.0537 -0.3978
 6093SOL    HW229916   2.339   0.833  12.588  0.4661 -0.9657  0.9013
 6094SOL     OW29917   4.415   3.739  12.614 -0.4783 -0.5507 -0.7018
 6094SOL    HW129918   4.432   3.646  12.625  0.2008 -0.4806 -1.1432
 6094SOL    HW229919   4.490   3.770  12.665  0.1961  0.1033 -2.0821
 6095SOL     OW29920   2.337   1.730   4.882  0.5848 -1.0322  0.0268
 6095SOL    HW129921   2.411   1.786   4.858  0.3023  0.0709  1.7040
 6095SOL    HW229922   2.338   1.720   4.977 -1.4398 -0.2477  0.1298
 6096SOL     OW29923   3.549   4.608  13.589 -0.1811  0.1870 -0.6891
 6096SOL    HW129924   3.471   4.622  13.642  2.4526  4.2490  2.0945
 6096SOL    HW229925   3.535   4.644  13.501  1.9897 -1.0826 -1.5581
 6097SOL     OW29926   3.365   0.911  12.089  0.2301  0.0210 -0.1687
 6097SOL    HW129927   3.369   0.993  12.041  1.4772  0.0780  0.0095
 6097SOL    HW229928   3.406   0.849  12.029 -1.2403 -0.1273 -1.0018
 6098SOL     OW29929   2.251   0.786   1.889 -0.0140 -0.1870  0.0472
 6098SOL    HW129930   2.261   0.857   1.953  3.3597  0.0916 -0.7576
 6098SOL    HW229931   2.253   0.831   1.805 -1.2328  2.2571  1.3301
 6099SOL     OW29932   1.464   3.940   8.987 -0.3877 -0.4617 -1.0135
 6099SOL    HW129933   1.516   3.924   9.066  0.7299  1.2436 -1.4225
 6099SOL    HW229934   1.533   3.970   8.928  2.1225 -0.6759  1.8253
 6100SOL     OW29935   4.388   1.714   9.029  0.0085  0.3605  0.0706
 6100SOL    HW129936   4.430   1.648   9.084 -0.4863  0.4151  0.5231
 6100SOL    HW229937   4.405   1.686   8.939  0.5902  0.7946  0.0425
 6101SOL     OW29938   4.192   3.001  12.376  0.4108  0.3163 -0.3806
 6101SOL    HW129939   4.165   2.974  12.463  0.3579 -0.9552 -0.7888
 6101SOL    HW229940   4.141   2.936  12.328  0.8621  1.3836 -2.3302
 6102SOL     OW29941   1.487   1.590  13.407 -0.2084 -0.0202  0.0591
 6102SOL    HW129942   1.572   1.570  13.447 -0.1202 -0.5334 -0.3847
 6102SOL    HW229943   1.482   1.513  13.350  1.2062 -0.2835  0.2937
 6103SOL     OW29944   3.074   0.814   6.303 -0.4524 -0.1767 -0.7982
 6103SOL    HW129945   3.057   0.829   6.210  0.5939 -0.0273 -0.9621
 6103SOL    HW229946   3.136   0.741   6.298  0.9336  0.9760 -0.6184
 6104SOL     OW29947   1.066   1.479   8.830  0.1777  0.1429 -0.0934
 6104SOL    HW129948   1.077   1.556   8.886 -0.0547 -1.5703  2.3000
 6104SOL    HW229949   1.032   1.419   8.897 -0.8172 -1.6022 -2.1629
 6105SOL     OW29950   0.770   2.028  13.973 -0.0558 -0.3474  0.1392
 6105SOL    HW129951   0.779   2.077  13.891 -0.5456  0.4291  0.5411
 6105SOL    HW229952   0.708   2.085  14.019 -0.5559 -0.1250 -0.8188
 6106SOL     OW29953   2.670   1.504   2.161 -0.2163  0.1572  0.6395
 6106SOL    HW129954   2.739   1.450   2.123  0.5967  1.4778  0.2200
 6106SOL    HW229955   2.686   1.500   2.255 -1.1326  0.1919  0.7898
 6107SOL     OW29956   1.367   1.868  14.315  0.2058 -0.2489  0.1330
 6107SOL    HW129957   1.440   1.837  14.369  1.5636 -2.3097 -2.9446
 6107SOL    HW229958   1.324   1.920  14.383 -0.9243 -0.1268 -0.6752
 6108SOL     OW29959   2.788   2.968   0.914 -0.0636 -0.1677 -0.6097
 6108SOL    HW129960   2.800   2.884   0.870  0.1605  0.5961 -2.0076
 6108SOL    HW229961   2.823   3.022   0.844 -0.7608 -0.4029 -1.1340
 6109SOL     OW29962   3.486   3.281   4.656 -0.0864 -0.3847 -0.0415
 6109SOL    HW129963   3.407   3.246   4.616 -0.5415  0.7728 -0.1753
 6109SOL    HW229964   3.521   3.332   4.583  1.3112 -1.9033 -0.4217
 6110SOL     OW29965   4.656   0.428  14.767  0.3639  0.1170  0.2153
 6110SOL    HW129966   4.580   0.471  14.807 -0.7986 -0.2207 -1.6190
 6110SOL    HW229967   4.724   0.481  14.809 -0.3391  1.1630  0.0293
 6111SOL     OW29968   0.534   3.956   5.032  0.1941 -0.0133  0.1224
 6111SOL    HW129969   0.463   3.908   5.076 -0.1721 -0.0360 -0.4934
 6111SOL    HW229970   0.536   3.919   4.944  1.5878  0.1825  0.0767
 6112SOL     OW29971   3.062   3.014  12.957  0.2540  0.2114  0.0482
 6112SOL    HW129972   3.028   3.060  13.033 -0.8425 -1.4688  0.5540
 6112SOL    HW229973   3.152   3.004  12.987 -0.0027 -0.2418  0.6474
 6113SOL     OW29974   3.014   4.693   5.235  0.5546 -0.2678  0.6947
 6113SOL    HW129975   3.014   4.602   5.265  0.0146 -0.3887  0.3205
 6113SOL    HW229976   3.051   4.689   5.147 -1.4890  0.2182 -0.1938
 6114SOL     OW29977   2.018   2.306   7.722 -0.7704 -0.6587 -0.6207
 6114SOL    HW129978   1.955   2.285   7.791  2.4531 -0.9474  2.1916
 6114SOL    HW229979   2.099   2.295   7.771 -0.9513  0.9565  0.0525
 6115SOL     OW29980   0.081   2.033   8.836 -0.2413  0.0738  0.1501
 6115SOL    HW129981   0.137   2.065   8.765 -1.0479 -1.4199 -1.1762
 6115SOL    HW229982   0.132   1.964   8.878 -1.8200 -1.6179 -0.6828
 6116SOL     OW29983   3.465   4.210   7.284  0.4064  0.0757 -0.7005
 6116SOL    HW129984   3.408   4.253   7.219  0.1190 -1.3088 -1.3679
 6116SOL    HW229985   3.433   4.259   7.359  1.2302  0.8758 -0.8706
 6117SOL     OW29986   1.169   3.079  11.505  0.4480  0.0010  0.2936
 6117SOL    HW129987   1.151   3.136  11.580 -0.1234  1.8238 -1.2100
 6117SOL    HW229988   1.082   3.064  11.467  0.0561  0.6688  0.9287
 6118SOL     OW29989   1.508   1.370   5.446 -0.0277  0.0292 -0.4876
 6118SOL    HW129990   1.543   1.401   5.530  1.3084  1.2526 -1.5063
 6118SOL    HW229991   1.587   1.333   5.408 -0.0366  0.1435 -0.6183
 6119SOL     OW29992   4.580   3.116   3.141 -0.0585  0.5523 -0.0543
 6119SOL    HW129993   4.515   3.049   3.161 -0.2935  0.0803 -2.3478
 6119SOL    HW229994   4.536   3.162   3.070  0.9139 -0.0885 -1.0687
 6120SOL     OW29995   0.612   0.310  11.378 -0.5128  0.0695  0.1484
 6120SOL    HW129996   0.621   0.262  11.460 -0.7510  0.0698  0.1750
 6120SOL    HW229997   0.675   0.262  11.325  1.3027  0.7706  1.6825
 6121SOL     OW29998   1.608   2.909  13.239  0.0284  0.0660 -0.6637
 6121SOL    HW129999   1.589   2.997  13.271  0.3114  0.4057 -1.4432
 6121SOL    HW230000   1.704   2.908  13.231  0.0836 -2.0598  0.3377
 6122SOL     OW30001   1.538   2.177  13.615  0.1758 -0.5074  0.7547
 6122SOL    HW130002   1.578   2.246  13.668 -2.0017  0.9718  0.5229
 6122SOL    HW230003   1.449   2.200  13.645  0.3175 -1.1095  1.6504
 6123SOL     OW30004   2.069   1.964   2.013  0.3950  0.3809  0.7110
 6123SOL    HW130005   2.038   1.962   1.922  2.5206  0.3000 -0.0271
 6123SOL    HW230006   2.071   1.870   2.029  0.4817 -0.0076 -1.5967
 6124SOL     OW30007   0.550   3.910  15.998 -0.2788  0.3762 -0.3204
 6124SOL    HW130008   0.594   3.826  16.015 -0.8979 -0.0280 -0.7278
 6124SOL    HW230009   0.492   3.915  16.075 -0.9333 -1.5616 -0.6808
 6125SOL     OW30010   3.008   0.356   1.039  0.4649  0.3700 -0.1772
 6125SOL    HW130011   2.996   0.264   1.013  0.7539  1.2634 -3.5043
 6125SOL    HW230012   2.962   0.391   0.963  2.0130  1.4567 -0.6100
 6126SOL     OW30013   2.655   1.777   1.475 -0.2848 -0.4556  0.1268
 6126SOL    HW130014   2.632   1.726   1.552 -1.8623 -0.2164 -0.1869
 6126SOL    HW230015   2.747   1.803   1.477 -0.6922  0.8766  1.2078
 6127SOL     OW30016   0.890   4.692  16.997 -0.5132 -0.5098 -0.2751
 6127SOL    HW130017   0.930   4.691  17.084  0.5934 -2.1260 -0.8075
 6127SOL    HW230018   0.946   0.017  16.949  0.0929 -2.4195 -1.9800
 6128SOL     OW30019   3.100   3.535  16.274  0.2489 -0.4068 -0.0182
 6128SOL    HW130020   3.097   3.606  16.210 -0.2329 -0.3380  0.0803
 6128SOL    HW230021   3.018   3.486  16.279 -0.9705  1.6979  0.5986
 6129SOL     OW30022   3.294   0.629   6.308 -0.8200 -0.4865 -0.2792
 6129SOL    HW130023   3.310   0.585   6.392  0.0909 -0.6492 -0.5351
 6129SOL    HW230024   3.383   0.633   6.273 -1.2477  0.5131 -1.2306
 6130SOL     OW30025   0.996   0.662   2.899  0.0965  0.0149  0.2741
 6130SOL    HW130026   0.995   0.672   2.804  1.6980 -3.2918 -0.0797
 6130SOL    HW230027   0.982   0.569   2.917  1.2677 -0.4512 -1.1948
 6131SOL     OW30028   4.050   1.957   8.362 -0.1205  0.6290 -0.1917
 6131SOL    HW130029   4.054   2.045   8.326 -0.6310 -0.4787 -2.9723
 6131SOL    HW230030   4.141   1.945   8.390 -0.5537 -1.7308  0.2596
 6132SOL     OW30031   2.246   0.539   3.837  0.1482  0.0026 -0.0627
 6132SOL    HW130032   2.238   0.497   3.923 -2.5870 -1.2159 -0.9315
 6132SOL    HW230033   2.154   0.561   3.823 -0.1076 -1.1567 -0.1714
 6133SOL     OW30034   3.909   3.535   7.318  0.0161  0.5027 -0.3012
 6133SOL    HW130035   3.887   3.597   7.389 -0.4240 -0.9772  0.8644
 6133SOL    HW230036   3.881   3.588   7.243  0.4668 -0.2700 -1.0099
 6134SOL     OW30037   4.119   0.676   4.746 -0.2211 -0.0590 -0.1805
 6134SOL    HW130038   4.155   0.730   4.817  2.1059 -0.5826 -0.9789
 6134SOL    HW230039   4.118   0.723   4.662  1.6239 -2.0277 -1.2841
 6135SOL     OW30040   2.229   2.445  17.056 -0.0407  0.0623  0.2418
 6135SOL    HW130041   2.228   2.349  17.062 -2.9251  0.0078 -1.1707
 6135SOL    HW230042   2.167   2.462  16.985 -1.4165 -0.4241  1.3400
 6136SOL     OW30043   1.680   0.231   1.749 -0.0487 -0.0759 -0.1761
 6136SOL    HW130044   1.721   0.153   1.712 -0.7379 -0.2920 -0.4776
 6136SOL    HW230045   1.751   0.285   1.783  0.8894 -2.6140  1.9533
 6137SOL     OW30046   1.647   1.151  16.878 -0.0890  0.2380 -0.0366
 6137SOL    HW130047   1.671   1.173  16.787 -0.6572 -2.4367 -0.8143
 6137SOL    HW230048   1.553   1.139  16.872  0.0699 -1.2903  0.6892
 6138SOL     OW30049   1.940   3.908   1.449  0.2116  0.1159 -0.1789
 6138SOL    HW130050   1.912   3.957   1.527  0.8454  1.1685 -0.6073
 6138SOL    HW230051   1.897   3.825   1.468 -0.1753  0.7183  1.6225
 6139SOL     OW30052   0.773   3.129   7.707  0.0584 -0.3181 -0.3349
 6139SOL    HW130053   0.728   3.202   7.749  0.4510 -0.0428 -0.3878
 6139SOL    HW230054   0.825   3.180   7.644  0.9544 -0.7235  0.0814
 6140SOL     OW30055   2.203   0.254   7.699  0.0414 -0.0609 -0.2273
 6140SOL    HW130056   2.114   0.281   7.676  0.8625  1.0460 -2.1166
 6140SOL    HW230057   2.216   0.290   7.786 -1.8651 -1.3040  0.5861
 6141SOL     OW30058   0.586   1.271   7.815 -0.0861  0.0355 -0.0364
 6141SOL    HW130059   0.507   1.299   7.769  0.3243  0.2950 -0.5772
 6141SOL    HW230060   0.556   1.185   7.844 -0.2819 -0.6764 -2.3814
 6142SOL     OW30061   1.179   0.472   5.909  0.1528 -0.5592  1.3061
 6142SOL    HW130062   1.265   0.474   5.952  0.7218 -0.8950  0.1816
 6142SOL    HW230063   1.204   0.522   5.832 -0.5581 -1.4167  0.5103
 6143SOL     OW30064   0.688   2.554   4.371 -0.0822 -0.9999 -0.4025
 6143SOL    HW130065   0.674   2.538   4.278  3.4602 -5.0309 -0.2180
 6143SOL    HW230066   0.780   2.545   4.394 -0.7155  1.0989  2.9940
 6144SOL     OW30067   2.227   3.500   1.773  0.0373 -0.2606 -1.1004
 6144SOL    HW130068   2.305   3.455   1.805 -2.7853 -3.2560  1.4997
 6144SOL    HW230069   2.217   3.457   1.688  2.0348 -0.7949 -1.0614
 6145SOL     OW30070   0.957   3.062  11.991 -0.3816 -0.3379 -0.9795
 6145SOL    HW130071   0.916   3.136  11.946 -0.6042  0.0596 -0.1234
 6145SOL    HW230072   1.034   3.048  11.937  1.1497 -0.7693  1.2892
 6146SOL     OW30073   3.508   3.940   5.370  0.4491 -0.1916  0.1162
 6146SOL    HW130074   3.443   4.001   5.406 -0.8485 -1.5919  0.1401
 6146SOL    HW230075   3.586   3.971   5.416  0.6860  0.2574 -0.5749
 6147SOL     OW30076   1.648   4.713  10.922  0.2034 -0.5184  0.5496
 6147SOL    HW130077   1.733   4.711  10.877 -0.2366 -0.0420 -0.3025
 6147SOL    HW230078   1.636   0.071  10.917  1.1003 -0.3947  0.8155
 6148SOL     OW30079   1.723   2.750   7.749  0.5119  0.4397 -0.1693
 6148SOL    HW130080   1.634   2.737   7.716  0.2427  1.1367  0.2818
 6148SOL    HW230081   1.733   2.684   7.818  1.1475  0.0510 -0.6414
 6149SOL     OW30082   1.452   0.946   2.874  0.3243 -0.2233 -0.2310
 6149SOL    HW130083   1.461   0.916   2.783  2.0471 -0.9559  0.1776
 6149SOL    HW230084   1.384   0.884   2.902 -1.3035  1.7367  0.1260
 6150SOL     OW30085   2.817   1.715   2.816 -0.2752 -0.3503 -0.1409
 6150SOL    HW130086   2.907   1.712   2.783  0.6139  1.5493  2.1324
 6150SOL    HW230087   2.792   1.803   2.786 -0.8358 -0.7854 -0.9634
 6151SOL     OW30088   4.086   2.971  12.615 -0.3985 -0.5830  0.1735
 6151SOL    HW130089   4.016   2.907  12.632 -0.5954 -0.9022 -1.8708
 6151SOL    HW230090   4.146   2.937  12.682 -1.6456 -2.3356  0.4277
 6152SOL     OW30091   3.499   1.641   0.272  0.3397  0.2537  0.0985
 6152SOL    HW130092   3.520   1.668   0.183  1.0126 -0.1990  0.1231
 6152SOL    HW230093   3.408   1.616   0.257  0.5729 -2.1375  2.5679
 6153SOL     OW30094   2.402   2.585  13.710  0.0106 -0.0696  0.8114
 6153SOL    HW130095   2.419   2.634  13.629 -1.9351 -1.6673 -0.5721
 6153SOL    HW230096   2.486   2.570  13.753  0.0428 -0.9233  0.4552
 6154SOL     OW30097   4.654   3.893  10.405  0.0046 -0.3943  0.1858
 6154SOL    HW130098   4.582   3.846  10.446  1.4001 -0.5744  2.4038
 6154SOL    HW230099   4.724   3.865  10.465  0.4482  0.7844  0.2058
 6155SOL     OW30100   1.817   1.138   6.586 -0.0384  0.8899  0.0493
 6155SOL    HW130101   1.856   1.050   6.590  1.0150  1.3815  0.6182
 6155SOL    HW230102   1.887   1.204   6.583 -0.3806  1.3328  1.8938
 6156SOL     OW30103   1.177   1.130   2.609 -0.0956 -0.4960  0.3626
 6156SOL    HW130104   1.270   1.147   2.623 -0.1126  0.4591 -0.6349
 6156SOL    HW230105   1.161   1.090   2.694 -0.3063 -0.5044  0.3192
 6157SOL     OW30106   2.892   1.303   3.231 -0.1663  0.0471  0.1806
 6157SOL    HW130107   2.830   1.284   3.160  1.8955 -2.9487 -0.8095
 6157SOL    HW230108   2.929   1.387   3.202 -1.8226  0.5369 -0.5353
 6158SOL     OW30109   3.034   2.260   7.510 -0.0359  0.2477 -0.4872
 6158SOL    HW130110   3.066   2.202   7.441  1.6002  1.4787 -0.7652
 6158SOL    HW230111   2.965   2.315   7.472 -1.3474 -0.1305  1.3759
 6159SOL     OW30112   0.892   1.137   4.570  0.6447 -0.1221 -0.2288
 6159SOL    HW130113   0.869   1.117   4.480  2.2235 -1.2455 -0.3748
 6159SOL    HW230114   0.817   1.105   4.620 -0.3801  2.4871 -0.0743
 6160SOL     OW30115   4.148   2.831   1.978 -0.2302  0.0565 -0.4961
 6160SOL    HW130116   4.166   2.752   2.029 -1.1812 -1.2835 -2.2440
 6160SOL    HW230117   4.144   2.898   2.046  2.7364 -1.4829  1.1963
 6161SOL     OW30118   4.225   1.299   7.785 -0.5337 -0.3183  0.2709
 6161SOL    HW130119   4.307   1.258   7.814 -1.1813 -1.6516  0.1884
 6161SOL    HW230120   4.165   1.232   7.819 -0.4833 -0.1692  0.6514
 6162SOL     OW30121   3.969   2.846   6.711 -0.1783  0.6429 -0.1976
 6162SOL    HW130122   3.921   2.925   6.736  1.0714  2.1656 -2.6239
 6162SOL    HW230123   3.902   2.794   6.666  0.1548 -0.6319  0.7812
 6163SOL     OW30124   3.332   3.848   5.642  0.2248 -0.0052  0.2513
 6163SOL    HW130125   3.410   3.793   5.650  1.0315  0.8998 -1.3931
 6163SOL    HW230126   3.297   3.830   5.729 -0.7238 -0.0064 -0.1344
 6164SOL     OW30127   1.270   2.440   2.259 -0.4812  0.9234  0.0291
 6164SOL    HW130128   1.325   2.367   2.286  0.1643  1.2837 -0.3311
 6164SOL    HW230129   1.187   2.398   2.236 -0.3950  0.5717  0.3644
 6165SOL     OW30130   4.547   4.672   7.084 -0.1914 -0.0082  0.0216
 6165SOL    HW130131   4.540   4.579   7.105 -0.7323 -0.1198 -0.6428
 6165SOL    HW230132   4.642   4.678   7.075 -0.3360  0.6735 -1.1822
 6166SOL     OW30133   2.557   3.669  12.835  0.0330 -0.3299 -0.9315
 6166SOL    HW130134   2.599   3.586  12.858 -0.1538  0.0743  0.8419
 6166SOL    HW230135   2.552   3.668  12.739  0.0546  0.7829 -0.9407
 6167SOL     OW30136   3.327   1.418   7.425  0.2742 -0.0480  0.6061
 6167SOL    HW130137   3.375   1.500   7.435 -1.5293  1.1521 -0.6095
 6167SOL    HW230138   3.351   1.384   7.339 -1.0917 -3.5085  1.5868
 6168SOL     OW30139   3.235   1.090  16.956 -0.7022 -0.2726  0.7440
 6168SOL    HW130140   3.172   1.036  17.004 -2.6394 -0.7737 -2.3650
 6168SOL    HW230141   3.216   1.176  16.992  1.2154  0.2293  0.5845
 6169SOL     OW30142   0.955   0.171   2.666 -0.1334  0.2334 -0.6381
 6169SOL    HW130143   0.895   0.098   2.684  0.9198 -0.1153  1.4522
 6169SOL    HW230144   0.992   0.185   2.753  0.7459  1.9048 -1.2779
 6170SOL     OW30145   4.023   0.768   5.365  0.6292  0.5051  0.1356
 6170SOL    HW130146   3.988   0.857   5.369  2.5728  1.4537 -3.8543
 6170SOL    HW230147   4.093   0.773   5.430 -0.2366  2.6486  0.8991
 6171SOL     OW30148   0.623   4.007   2.574 -0.3160 -0.2416 -0.2074
 6171SOL    HW130149   0.638   3.916   2.549  0.4016 -0.3110  0.4909
 6171SOL    HW230150   0.687   4.049   2.516  1.4736 -0.9186  1.3077
 6172SOL     OW30151   1.177   3.406   7.496 -0.0800  0.3280  0.4574
 6172SOL    HW130152   1.160   3.476   7.433  1.7447  1.2418  0.9620
 6172SOL    HW230153   1.273   3.405   7.485 -0.1215  1.3052 -0.0485
 6173SOL     OW30154   1.275   1.900   5.220  0.3337  0.0108 -0.0740
 6173SOL    HW130155   1.291   1.807   5.203  0.3526  0.1708 -0.9246
 6173SOL    HW230156   1.238   1.940   5.141  1.2446 -1.1473 -1.0779
 6174SOL     OW30157   1.553   1.871  17.185 -0.0048 -0.2860 -0.3442
 6174SOL    HW130158   1.562   1.802  17.251  0.2763 -0.4013 -0.5046
 6174SOL    HW230159   1.461   1.894  17.191  1.1107  3.9550  0.3141
 6175SOL     OW30160   0.190   3.355  12.978  0.2974  0.2824 -0.4635
 6175SOL    HW130161   0.172   3.341  13.070  0.2226  1.7364 -0.2526
 6175SOL    HW230162   0.181   3.266  12.945  2.0005 -0.1929  0.3571
 6176SOL     OW30163   3.129   3.335   2.231 -0.0691  0.4981 -0.4810
 6176SOL    HW130164   3.142   3.264   2.167  0.9083  0.3996 -0.1675
 6176SOL    HW230165   3.214   3.342   2.275 -0.6932  0.8042  0.6685
 6177SOL     OW30166   2.186   2.629   3.423 -0.1361  0.4348  0.3448
 6177SOL    HW130167   2.196   2.548   3.374  0.6419  0.0539  1.1357
 6177SOL    HW230168   2.176   2.688   3.348 -2.4929  1.6869  1.6193
 6178SOL     OW30169   4.657   3.685   1.897 -0.6408  0.1233 -0.0546
 6178SOL    HW130170   4.598   3.760   1.888 -2.1955 -0.8376  2.1220
 6178SOL    HW230171   4.619   3.661   1.982 -0.8848 -0.4450 -0.3230
 6179SOL     OW30172   1.418   1.854   3.878 -0.2259 -0.0541 -0.2160
 6179SOL    HW130173   1.455   1.922   3.821 -0.7122 -0.9455 -1.5874
 6179SOL    HW230174   1.410   1.776   3.823  0.3593  0.1914 -0.6528
 6180SOL     OW30175   2.971   0.973  17.093 -0.2879  0.1186 -0.2957
 6180SOL    HW130176   3.007   0.885  17.094  1.7318  0.9576  0.8479
 6180SOL    HW230177   2.973   0.995  17.186  1.8595 -0.5561 -0.1739
 6181SOL     OW30178   0.015   2.744   8.528  0.2014  0.3707  0.3229
 6181SOL    HW130179   0.007   2.833   8.494 -0.3877  0.4963  0.7804
 6181SOL    HW230180   0.093   2.750   8.583  0.5182 -3.0757  0.2548
 6182SOL     OW30181   2.082   1.934   4.396 -0.3161 -0.0655 -0.3311
 6182SOL    HW130182   2.166   1.942   4.440 -0.4634  0.5628 -0.1662
 6182SOL    HW230183   2.103   1.946   4.303 -2.7552  0.3518 -0.8428
 6183SOL     OW30184   4.260   3.058  14.802 -0.5336 -0.0424 -0.2715
 6183SOL    HW130185   4.325   3.106  14.751  0.1922 -0.9148 -0.1585
 6183SOL    HW230186   4.256   3.112  14.881  0.1159  1.1667 -1.0573
 6184SOL     OW30187   1.312   3.512   9.794  0.3980 -0.0472 -0.4462
 6184SOL    HW130188   1.226   3.495   9.832  0.3190 -1.0355 -1.0601
 6184SOL    HW230189   1.288   3.532   9.704 -1.1040  1.1561  0.2252
 6185SOL     OW30190   2.327   3.267   0.898  0.2944  0.0073 -0.2965
 6185SOL    HW130191   2.362   3.286   0.810 -3.1733 -0.1260 -1.6934
 6185SOL    HW230192   2.403   3.272   0.957  1.1752 -2.5866 -1.1915
 6186SOL     OW30193   4.269   4.501   8.891 -0.1242 -0.3403 -0.1922
 6186SOL    HW130194   4.225   4.417   8.874  0.5156 -0.6837 -0.1310
 6186SOL    HW230195   4.346   4.493   8.947  0.6045 -0.7625 -1.2730
 6187SOL     OW30196   1.654   3.206   2.553  0.4110 -0.1976 -0.0598
 6187SOL    HW130197   1.681   3.118   2.530 -0.2272 -0.4217  0.0568
 6187SOL    HW230198   1.644   3.262   2.476 -1.2998  1.3754  1.2951
 6188SOL     OW30199   2.321   2.367   4.950  0.4138  0.1188 -0.0155
 6188SOL    HW130200   2.273   2.446   4.926 -1.7967 -0.8436  1.2203
 6188SOL    HW230201   2.342   2.400   5.038 -0.4039  0.2135  0.1442
 6189SOL     OW30202   0.502   1.097   2.291 -0.1259 -0.2289 -0.0758
 6189SOL    HW130203   0.436   1.100   2.361  1.8270 -0.0556  1.7594
 6189SOL    HW230204   0.469   1.157   2.224  1.1748  2.3302  1.5848
 6190SOL     OW30205   0.548   2.791   7.090  0.2259  0.2071  0.2348
 6190SOL    HW130206   0.615   2.793   7.158  1.1840 -0.1330 -0.6824
 6190SOL    HW230207   0.509   2.706   7.108  0.4397  0.4872  1.9547
 6191SOL     OW30208   1.024   3.461   2.413  0.1871  0.6397  0.0652
 6191SOL    HW130209   1.013   3.369   2.389 -1.8808  1.0620 -0.6241
 6191SOL    HW230210   1.113   3.456   2.447  1.0146 -1.3258 -2.4520
 6192SOL     OW30211   2.654   4.217   4.850 -0.1196 -0.4889  0.2932
 6192SOL    HW130212   2.721   4.164   4.808 -0.5117  0.2211 -1.2274
 6192SOL    HW230213   2.699   4.297   4.877 -0.9653  0.1569 -0.1948
 6193SOL     OW30214   0.349   3.045   0.268 -0.2085 -0.3370  0.5819
 6193SOL    HW130215   0.344   2.971   0.207  1.3943  0.6169 -0.7399
 6193SOL    HW230216   0.297   3.003   0.336  0.1284  0.1656  1.1527
 6194SOL     OW30217   2.748   2.656  15.561  0.3603  1.0133 -0.7016
 6194SOL    HW130218   2.663   2.700  15.555  0.1375  0.8622  1.3469
 6194SOL    HW230219   2.732   2.563  15.580  1.3998  1.0251  0.2168
 6195SOL     OW30220   0.774   3.989  12.116  0.5878 -0.6547 -0.5143
 6195SOL    HW130221   0.739   4.011  12.030  1.8124  0.6031 -0.6853
 6195SOL    HW230222   0.851   3.936  12.091  0.8791 -0.1598 -0.6597
 6196SOL     OW30223   2.212   0.158  13.218  0.2411 -0.2685  0.1160
 6196SOL    HW130224   2.150   0.147  13.290  0.5567 -1.5442  0.1981
 6196SOL    HW230225   2.299   0.171  13.257 -0.5343  1.9786  1.0791
 6197SOL     OW30226   1.183   2.760   6.621 -0.1582  0.0617 -0.4234
 6197SOL    HW130227   1.102   2.738   6.668  1.0313  1.8965  2.4618
 6197SOL    HW230228   1.242   2.692   6.653 -1.7845  0.3302  3.1691
 6198SOL     OW30229   3.029   4.188   6.730  0.3152 -0.2110  0.0110
 6198SOL    HW130230   2.975   4.178   6.651  1.1653 -4.1824 -0.0933
 6198SOL    HW230231   2.967   4.159   6.796  0.7129  2.6341  1.6320
 6199SOL     OW30232   2.028   2.628   0.718  0.0565  0.0238  0.3688
 6199SOL    HW130233   2.078   2.692   0.668 -0.5314 -0.7024 -1.1293
 6199SOL    HW230234   2.024   2.677   0.800  0.2344 -1.6632  1.3824
 6200SOL     OW30235   3.192   2.118   2.500 -0.0595  0.0049  0.0082
 6200SOL    HW130236   3.280   2.089   2.476 -0.6208 -0.3234 -1.6548
 6200SOL    HW230237   3.134   2.047   2.471  1.0670 -1.1897  0.6746
 6201SOL     OW30238   1.930   2.895   7.691  0.4894 -0.4421  0.1310
 6201SOL    HW130239   1.866   2.956   7.653  0.5841  0.5651  1.6151
 6201SOL    HW230240   1.866   2.824   7.695 -0.4231  0.4185  0.9065
 6202SOL     OW30241   4.496   1.373   5.616 -0.5104 -0.4128  0.1378
 6202SOL    HW130242   4.453   1.301   5.571  1.6954 -1.8921  0.3988
 6202SOL    HW230243   4.583   1.339   5.638 -0.8518 -0.0716  2.0592
 6203SOL     OW30244   1.021   1.665   8.505 -0.0141  0.0854 -0.7000
 6203SOL    HW130245   0.969   1.617   8.569 -0.8653 -0.0931 -1.5272
 6203SOL    HW230246   1.100   1.683   8.556 -1.1419 -1.6895  1.7166
 6204SOL     OW30247   3.298   0.389   5.774 -0.3676 -0.2437  0.2026
 6204SOL    HW130248   3.233   0.430   5.832 -0.0459 -0.9619  1.0538
 6204SOL    HW230249   3.386   0.406   5.806 -0.6794  2.1647 -0.1959
 6205SOL     OW30250   4.145   1.396  13.719  0.6486  0.5815 -0.5406
 6205SOL    HW130251   4.079   1.445  13.670  1.0044  0.1469 -1.4525
 6205SOL    HW230252   4.226   1.410  13.670  1.0614 -0.9091 -0.2690
 6206SOL     OW30253   0.732   0.880  14.308  0.1422  0.1267 -0.0048
 6206SOL    HW130254   0.794   0.830  14.255  1.7939  1.1031  0.9980
 6206SOL    HW230255   0.773   0.891  14.394  1.7871  0.6558 -0.8624
 6207SOL     OW30256   0.028   3.921   6.890  0.0528 -0.6510  0.2355
 6207SOL    HW130257   0.111   3.886   6.921  0.6123  1.0625  0.6631
 6207SOL    HW230258   0.001   3.972   6.967 -0.5102 -1.2166  0.4173
 6208SOL     OW30259   0.461   1.123   4.369 -0.1004 -0.2812 -0.1780
 6208SOL    HW130260   0.375   1.082   4.378 -0.3582  0.7760  1.9733
 6208SOL    HW230261   0.523   1.066   4.415 -3.0139 -2.9118  0.5063
 6209SOL     OW30262   2.041   4.129  11.287 -0.3734 -0.7950 -0.2399
 6209SOL    HW130263   1.946   4.136  11.284 -0.3284 -0.5906 -1.2738
 6209SOL    HW230264   2.067   4.038  11.303 -0.8266 -1.6384 -4.1474
 6210SOL     OW30265   0.115   2.199  16.032  0.0012  0.4262 -0.3477
 6210SOL    HW130266   0.166   2.196  15.951  0.9189 -0.1684  0.2528
 6210SOL    HW230267   0.065   2.277  16.007 -2.2404 -1.4244 -1.5968
 6211SOL     OW30268   1.098   3.304   8.742  0.0626  0.3128  0.0313
 6211SOL    HW130269   1.011   3.341   8.727 -0.1083  0.4712  1.4398
 6211SOL    HW230270   1.146   3.369   8.792 -2.4092  1.9345  0.2957
 6212SOL     OW30271   0.441   2.913   8.415 -0.2137  0.1845 -0.4008
 6212SOL    HW130272   0.376   2.968   8.460 -0.9396 -0.8208 -0.2159
 6212SOL    HW230273   0.384   2.841   8.388  0.6846 -0.8580  0.5576
 6213SOL     OW30274   0.665   1.588   6.010 -0.1183 -0.2924  0.7007
 6213SOL    HW130275   0.579   1.553   6.032 -1.9137  2.1527 -2.5020
 6213SOL    HW230276   0.650   1.650   5.938 -1.5847 -1.3729  0.0885
 6214SOL     OW30277   1.503   0.849   4.749 -0.5012  0.4628  0.0379
 6214SOL    HW130278   1.476   0.925   4.697 -0.3013  2.2691  2.5547
 6214SOL    HW230279   1.420   0.803   4.750  0.0214 -0.4833 -0.4281
 6215SOL     OW30280   0.851   2.797   7.106 -0.2245 -0.4414 -0.4485
 6215SOL    HW130281   0.816   2.780   7.019 -3.9342 -1.5589  1.2527
 6215SOL    HW230282   0.805   2.874   7.139 -1.2494 -1.2919  0.0991
 6216SOL     OW30283   3.573   2.829   0.410  0.1394  0.1323  0.1438
 6216SOL    HW130284   3.663   2.820   0.378  0.3737  0.9947  0.5668
 6216SOL    HW230285   3.562   2.924   0.407 -1.5910 -0.0633  0.5791
 6217SOL     OW30286   0.654   2.372   9.198 -0.6505  0.0583  0.1863
 6217SOL    HW130287   0.641   2.467   9.204 -0.9388 -0.0384  1.0885
 6217SOL    HW230288   0.564   2.346   9.218 -0.3585 -1.9916 -1.2964
 6218SOL     OW30289   1.326   3.297   5.350 -0.3390 -0.2712  0.3734
 6218SOL    HW130290   1.296   3.207   5.359 -0.5284 -0.5031 -2.6484
 6218SOL    HW230291   1.316   3.294   5.255 -0.3309  1.5952  0.3145
 6219SOL     OW30292   1.381   0.789   9.272 -0.0549 -0.4127 -0.2422
 6219SOL    HW130293   1.293   0.759   9.294 -0.0460  0.3509  0.8165
 6219SOL    HW230294   1.391   0.761   9.181 -1.7039  0.8081 -0.8061
 6220SOL     OW30295   0.649   0.308   8.889  1.1940  0.7202 -0.0514
 6220SOL    HW130296   0.723   0.257   8.857  0.3943 -0.7797  0.5202
 6220SOL    HW230297   0.653   0.294   8.983 -1.6696 -0.9237 -0.1712
 6221SOL     OW30298   2.360   1.598   7.435  0.1334  0.2125  0.0284
 6221SOL    HW130299   2.395   1.512   7.461  0.5115  0.1080 -0.8305
 6221SOL    HW230300   2.287   1.598   7.497  1.3525 -0.9094  1.4827
 6222SOL     OW30301   4.472   4.346  15.594 -0.4138  0.0170 -0.6274
 6222SOL    HW130302   4.459   4.263  15.548 -1.3144 -0.3085  0.2080
 6222SOL    HW230303   4.398   4.396  15.561 -0.2369  0.0375 -0.9881
 6223SOL     OW30304   3.371   3.871  16.188 -0.2598 -0.0108 -0.0585
 6223SOL    HW130305   3.405   3.903  16.105 -0.9552  0.9696  0.0348
 6223SOL    HW230306   3.405   3.937  16.248 -0.6302  1.8647 -1.9134
 6224SOL     OW30307   3.338   1.329   7.143 -0.7645 -0.8523  0.4104
 6224SOL    HW130308   3.388   1.289   7.072  1.0487  1.1274  0.5707
 6224SOL    HW230309   3.280   1.260   7.175 -0.2349 -2.0211 -1.1701
 6225SOL     OW30310   4.573   3.232   0.276 -0.6945 -0.3651  0.6567
 6225SOL    HW130311   4.546   3.309   0.225 -1.3874 -1.1416 -0.1493
 6225SOL    HW230312   4.664   3.252   0.296 -0.8791 -0.7069  1.8507
 6226SOL     OW30313   4.148   2.886   8.766  0.2081 -0.2650  0.0225
 6226SOL    HW130314   4.242   2.868   8.756  0.1553  0.5276 -1.8998
 6226SOL    HW230315   4.123   2.800   8.731 -0.2361  0.0445 -0.4116
 6227SOL     OW30316   3.193   0.714  12.219  0.1052 -0.3063 -0.0870
 6227SOL    HW130317   3.189   0.629  12.175 -0.0417 -1.2461  1.7347
 6227SOL    HW230318   3.240   0.768  12.156  2.5100  1.1113  2.8881
 6228SOL     OW30319   1.077   1.086   3.070  0.6184 -0.2146 -0.7831
 6228SOL    HW130320   1.080   1.023   2.998 -2.2675 -1.0818 -0.1357
 6228SOL    HW230321   1.055   1.168   3.026 -0.6344 -0.0313  0.2165
 6229SOL     OW30322   2.130   2.795   9.828 -0.3791 -0.2456 -0.3946
 6229SOL    HW130323   2.117   2.883   9.862 -0.8348  0.1874 -1.6729
 6229SOL    HW230324   2.219   2.773   9.857 -0.3528  0.5320  0.1298
 6230SOL     OW30325   2.163   0.980   5.151 -0.1952 -0.0294  0.3348
 6230SOL    HW130326   2.117   0.934   5.221 -1.1279  0.6002  0.1402
 6230SOL    HW230327   2.248   1.006   5.185  0.1145 -0.6372  0.0352
 6231SOL     OW30328   4.147   0.593  15.877  0.6837  0.4634 -0.0619
 6231SOL    HW130329   4.098   0.511  15.886  0.5663  0.8007  2.4459
 6231SOL    HW230330   4.074   0.655  15.878  0.0550 -0.2805  3.7332
 6232SOL     OW30331   4.146   3.604   3.737 -0.4242  0.1042 -0.0188
 6232SOL    HW130332   4.067   3.550   3.736  0.8885 -1.7919 -1.6032
 6232SOL    HW230333   4.204   3.546   3.786 -1.0856 -0.6430 -0.1224
 6233SOL     OW30334   1.655   4.372  15.389  0.4262 -0.1737  0.1367
 6233SOL    HW130335   1.601   4.317  15.332  0.3553 -1.3623  1.3566
 6233SOL    HW230336   1.712   4.421  15.329  2.3968  0.1906  2.2984
 6234SOL     OW30337   1.082   3.006  14.550  0.0829  0.2804 -0.1224
 6234SOL    HW130338   1.021   2.969  14.485 -0.4598  1.5172 -0.3208
 6234SOL    HW230339   1.117   2.932  14.599 -0.2475  1.2422  1.5624
 6235SOL     OW30340   4.734   1.275   5.703  0.2106 -0.4212  0.3082
 6235SOL    HW130341   4.683   1.269   5.783 -0.5098 -1.3720 -0.2200
 6235SOL    HW230342   0.044   1.358   5.717 -0.0042 -0.5334  1.6029
 6236SOL     OW30343   4.663   0.200   7.276  0.0573 -0.4977  0.2115
 6236SOL    HW130344   4.587   0.204   7.334  0.2571  1.4037  0.3403
 6236SOL    HW230345   4.735   0.223   7.334 -1.2806  3.0680  0.4164
 6237SOL     OW30346   0.293   2.152   7.272  0.2358  0.2444  0.1749
 6237SOL    HW130347   0.292   2.069   7.320 -1.3510 -1.1198 -2.1896
 6237SOL    HW230348   0.212   2.191   7.306 -0.2275  0.4820 -1.2244
 6238SOL     OW30349   0.836   4.511  10.661 -0.3232  0.4080  0.5135
 6238SOL    HW130350   0.825   4.506  10.565 -1.1390  1.6725  0.5481
 6238SOL    HW230351   0.867   4.421  10.670  0.0551  0.6310  1.4127
 6239SOL     OW30352   3.725   1.716   4.221  0.1325  0.1817 -0.0448
 6239SOL    HW130353   3.780   1.691   4.296  0.0722 -2.6437 -0.9524
 6239SOL    HW230354   3.636   1.727   4.256 -0.7434 -1.6484 -1.6657
 6240SOL     OW30355   2.138   2.827   3.211 -0.1558 -0.1355  0.6064
 6240SOL    HW130356   2.163   2.823   3.118 -1.1726  0.5487  0.3105
 6240SOL    HW230357   2.145   2.921   3.226 -1.5772  0.1878 -0.7160
 6241SOL     OW30358   4.598   0.842   9.096 -0.0975 -0.1165  0.1047
 6241SOL    HW130359   4.538   0.878   9.031  0.1207  1.9826  1.0712
 6241SOL    HW230360   4.547   0.765   9.124  1.0227 -0.9472 -0.1500
 6242SOL     OW30361   3.493   3.043   6.010 -0.1260 -0.1041  0.3709
 6242SOL    HW130362   3.571   3.096   6.028  1.3221 -2.2839  0.4992
 6242SOL    HW230363   3.448   3.077   6.087 -0.2516 -0.6094  0.5189
 6243SOL     OW30364   0.193   2.129   4.467 -0.3727 -0.3382 -0.0817
 6243SOL    HW130365   0.125   2.120   4.400  3.0388 -2.3435 -3.3257
 6243SOL    HW230366   0.176   2.056   4.526 -1.0832  0.9609  1.3047
 6244SOL     OW30367   2.949   1.982   7.133  0.4942 -0.1415 -0.1849
 6244SOL    HW130368   2.910   2.060   7.096  0.8802 -0.1435 -0.5981
 6244SOL    HW230369   2.885   1.914   7.112 -1.1662  1.4233 -0.2249
 6245SOL     OW30370   0.475   0.462   2.577 -0.3598  0.0673  0.3619
 6245SOL    HW130371   0.440   0.385   2.531 -1.7737 -0.0751  1.6776
 6245SOL    HW230372   0.390   0.497   2.604 -1.2233 -1.3796 -0.4441
 6246SOL     OW30373   2.601   0.296   4.403 -0.1637 -0.0718 -0.0871
 6246SOL    HW130374   2.628   0.377   4.359 -0.5258  0.3165  0.4122
 6246SOL    HW230375   2.589   0.322   4.494 -1.8516 -0.8627 -0.0938
 6247SOL     OW30376   0.679   1.812   2.550 -0.3027 -1.1036 -0.8104
 6247SOL    HW130377   0.742   1.771   2.610 -1.6859  0.3178  1.6077
 6247SOL    HW230378   0.730   1.883   2.511  1.8168 -1.6583  0.9102
 6248SOL     OW30379   0.679   1.529  17.173  0.0584  0.1431  0.2801
 6248SOL    HW130380   0.591   1.502  17.148  1.1078 -2.6136 -0.3744
 6248SOL    HW230381   0.717   1.450  17.210 -2.1993 -0.0488  2.1807
 6249SOL     OW30382   4.504   4.325   2.279  0.0062 -0.7549 -0.3446
 6249SOL    HW130383   4.544   4.317   2.192 -1.4544 -0.8205 -1.0095
 6249SOL    HW230384   4.582   4.304   2.330  0.6474  1.1187 -0.5621
 6250SOL     OW30385   0.215   1.275   3.082 -0.3981 -0.2598  0.3005
 6250SOL    HW130386   0.120   1.262   3.087 -0.8013  3.1008  1.1934
 6250SOL    HW230387   0.235   1.185   3.054 -1.0132 -0.4001  0.2960
 6251SOL     OW30388   0.136   1.395   4.317 -0.3205  0.6502  0.3153
 6251SOL    HW130389   0.042   1.389   4.301 -0.4983  1.7227  0.9133
 6251SOL    HW230390   0.168   1.321   4.267 -1.0244  0.6365 -0.1203
 6252SOL     OW30391   1.767   3.952  12.306  0.8504  0.2976 -0.6069
 6252SOL    HW130392   1.738   3.869  12.268 -0.4255  0.8996 -0.9519
 6252SOL    HW230393   1.837   3.966  12.243  0.7220 -2.6910 -1.4334
 6253SOL     OW30394   3.573   2.627   2.993 -0.4448 -0.3445 -0.0962
 6253SOL    HW130395   3.621   2.555   3.035 -0.1375  0.6960  1.3318
 6253SOL    HW230396   3.543   2.582   2.914 -1.5849 -1.7746  1.1781
 6254SOL     OW30397   2.344   1.471   4.564  0.6035 -0.5924  0.0469
 6254SOL    HW130398   2.438   1.458   4.549  0.5519 -2.2526  1.1366
 6254SOL    HW230399   2.349   1.565   4.580  0.9337 -0.5341 -0.3970
 6255SOL     OW30400   2.227   2.624   1.048 -0.1104  0.5835 -0.1330
 6255SOL    HW130401   2.162   2.662   0.988 -0.1205  0.0486 -0.4644
 6255SOL    HW230402   2.309   2.641   1.001 -0.5007 -0.8918 -1.3412
 6256SOL     OW30403   1.655   4.632   6.638 -0.4465  0.1355 -0.5474
 6256SOL    HW130404   1.595   4.581   6.583 -2.0754  1.5773 -0.1047
 6256SOL    HW230405   1.587   4.677   6.688 -1.2592 -0.1281 -1.4094
 6257SOL     OW30406   2.144   2.945  12.142  0.1931  0.2648 -0.3035
 6257SOL    HW130407   2.212   2.949  12.210  0.2125  0.7043 -0.3460
 6257SOL    HW230408   2.067   2.958  12.198  0.1585  2.5248 -0.8460
 6258SOL     OW30409   0.117   3.750  15.301 -0.7094  0.4795  0.0150
 6258SOL    HW130410   0.170   3.792  15.369  0.5188  1.2968 -1.4432
 6258SOL    HW230411   0.061   3.823  15.275  0.1350  1.0232 -0.2582
 6259SOL     OW30412   2.916   1.280   5.996 -0.0914 -0.4009 -0.6782
 6259SOL    HW130413   2.923   1.273   5.901 -1.5674  0.1833 -0.8348
 6259SOL    HW230414   2.838   1.335   6.000  1.3197  1.5443  0.2095
 6260SOL     OW30415   0.747   4.465   5.153 -1.0262  0.6444  0.1215
 6260SOL    HW130416   0.824   4.520   5.165 -1.0059  0.8758 -1.1153
 6260SOL    HW230417   0.778   4.375   5.162  0.5228  1.3946  2.2013
 6261SOL     OW30418   4.518   1.765  11.652  0.2159  0.1239 -0.1268
 6261SOL    HW130419   4.578   1.732  11.720 -0.8837  0.8861  1.2209
 6261SOL    HW230420   4.435   1.756  11.700  0.7837 -0.9039  0.6894
 6262SOL     OW30421   4.486   0.500   2.366  0.0482 -0.4450  0.3492
 6262SOL    HW130422   4.412   0.497   2.427 -1.2827  0.0639 -1.2760
 6262SOL    HW230423   4.508   0.407   2.375 -2.2650 -1.0963 -0.7690
 6263SOL     OW30424   2.536   3.071   4.325 -0.3171 -0.4424 -0.0972
 6263SOL    HW130425   2.536   3.091   4.418 -0.3459  0.2951 -0.2535
 6263SOL    HW230426   2.601   3.136   4.297 -0.4327  0.4513  1.7178
 6264SOL     OW30427   2.665   2.594   0.082 -0.1447  0.2046 -0.1647
 6264SOL    HW130428   2.599   2.589   0.013  0.1572  1.4052 -0.5485
 6264SOL    HW230429   2.722   2.656   0.037  2.0897 -1.3251  0.5793
 6265SOL     OW30430   1.717   1.885   2.526 -0.0776  0.9155 -0.3195
 6265SOL    HW130431   1.665   1.906   2.604 -0.7462 -1.7146 -0.0613
 6265SOL    HW230432   1.753   1.805   2.564 -1.0365  0.7513  0.2561
 6266SOL     OW30433   3.883   0.367   4.401  0.0037  0.3839 -0.2374
 6266SOL    HW130434   3.828   0.295   4.434  2.1060 -1.6158 -1.0891
 6266SOL    HW230435   3.874   0.432   4.470  0.4989  1.0593 -0.8103
 6267SOL     OW30436   0.643   4.722   9.595  0.5746  0.1269 -0.6823
 6267SOL    HW130437   0.675   0.039   9.667  1.4808 -2.7470  1.0888
 6267SOL    HW230438   0.550   0.007   9.583  0.8870  1.9367  0.1359
 6268SOL     OW30439   1.078   2.320   7.562  0.0549  0.0959 -0.7443
 6268SOL    HW130440   0.984   2.336   7.560 -0.0943 -0.5324  0.8287
 6268SOL    HW230441   1.092   2.280   7.648  1.5884 -1.5067 -1.7349
 6269SOL     OW30442   3.716   2.908   3.560  0.9346 -0.0796  0.8185
 6269SOL    HW130443   3.768   2.927   3.483 -1.5624 -1.4897 -1.1992
 6269SOL    HW230444   3.786   2.869   3.613 -0.1741 -0.8602  1.7195
 6270SOL     OW30445   3.511   0.664   3.419  0.1139 -0.4686  0.0546
 6270SOL    HW130446   3.463   0.746   3.403  1.1339 -0.1415 -1.2989
 6270SOL    HW230447   3.470   0.624   3.342  2.8122  0.1025 -1.6692
 6271SOL     OW30448   3.438   4.446   7.136  0.2871  0.2520 -0.0674
 6271SOL    HW130449   3.430   4.523   7.193  3.0899 -0.9727  1.9964
 6271SOL    HW230450   3.346   4.440   7.111  0.9430 -1.5506 -1.9575
 6272SOL     OW30451   2.198   3.112  17.711  0.1756  0.4640  0.5023
 6272SOL    HW130452   2.158   3.028  17.732  0.0349  0.2177 -0.7393
 6272SOL    HW230453   2.180   3.108  17.617  0.9446  0.1349  0.3685
 6273SOL     OW30454   3.556   1.118   3.290 -0.2036  0.7849 -0.2610
 6273SOL    HW130455   3.477   1.163   3.258 -0.9106 -0.1367  0.1756
 6273SOL    HW230456   3.569   1.166   3.372 -1.6433  0.1321  0.3460
 6274SOL     OW30457   0.527   4.523   2.261  0.5026  0.2527 -0.2631
 6274SOL    HW130458   0.561   4.473   2.335  0.0398 -1.1858 -1.0285
 6274SOL    HW230459   0.432   4.533   2.273  0.3290  0.3291 -1.7510
 6275SOL     OW30460   1.941   2.403   2.308  0.1879 -0.3987  0.1965
 6275SOL    HW130461   2.029   2.367   2.317  1.1653  1.7449 -0.8903
 6275SOL    HW230462   1.907   2.332   2.254  0.6190 -0.2797 -0.2348
 6276SOL     OW30463   3.198   2.372  15.308 -0.4540 -0.2624  0.3064
 6276SOL    HW130464   3.237   2.415  15.232 -1.8619 -0.6100 -0.6053
 6276SOL    HW230465   3.268   2.312  15.334  0.8030 -0.2896 -3.1072
 6277SOL     OW30466   2.858   1.131  13.369 -0.2922 -0.1850  0.2954
 6277SOL    HW130467   2.809   1.186  13.308 -1.7841 -0.2949  1.3913
 6277SOL    HW230468   2.947   1.165  13.367 -0.0442 -0.7517  1.1943
 6278SOL     OW30469   3.832   2.923  11.110  0.3604 -0.0533  0.3041
 6278SOL    HW130470   3.795   2.839  11.082  0.1748  0.0690  0.1818
 6278SOL    HW230471   3.888   2.895  11.182 -1.5715  0.8793  2.1614
 6279SOL     OW30472   4.587   0.168   8.491  0.5209  0.0218 -0.5019
 6279SOL    HW130473   4.595   0.105   8.420 -0.7904  0.4215 -1.0155
 6279SOL    HW230474   4.619   0.242   8.439 -1.0148  1.9392  1.2771
 6280SOL     OW30475   0.507   0.909   4.537 -0.0150  0.5953  0.4761
 6280SOL    HW130476   0.430   0.912   4.480 -0.6727  0.8346  1.3831
 6280SOL    HW230477   0.492   0.825   4.582 -1.3518  0.5336 -0.0941
 6281SOL     OW30478   1.503   3.018   9.794  0.0576  0.1786  0.3498
 6281SOL    HW130479   1.583   3.037   9.843  2.5676 -2.2171 -2.8715
 6281SOL    HW230480   1.449   3.094   9.819 -1.5353 -1.0329  0.6058
 6282SOL     OW30481   2.242   4.411   5.803  0.6900 -0.0075  0.1978
 6282SOL    HW130482   2.229   4.393   5.709 -0.0345 -0.9171  0.4685
 6282SOL    HW230483   2.162   4.461   5.817  2.4579  2.9166 -0.1283
 6283SOL     OW30484   3.081   0.442   0.568 -0.2050 -0.4420 -0.0212
 6283SOL    HW130485   3.002   0.437   0.513  0.1697 -0.7840 -0.5192
 6283SOL    HW230486   3.145   0.386   0.524 -0.8998 -2.7815  1.9666
 6284SOL     OW30487   1.468   0.220   9.767  0.0524 -0.1580  0.3508
 6284SOL    HW130488   1.437   0.288   9.827 -0.3400  0.7001 -0.8291
 6284SOL    HW230489   1.432   0.258   9.687  0.4780 -0.0022  0.2332
 6285SOL     OW30490   3.653   2.189  11.324 -0.3403  0.0072  0.8032
 6285SOL    HW130491   3.557   2.191  11.333 -0.4868  0.9403 -0.9179
 6285SOL    HW230492   3.661   2.103  11.284  1.5658 -0.2466  1.7557
 6286SOL     OW30493   3.920   0.636   3.353  0.2707 -0.5827 -0.2500
 6286SOL    HW130494   3.894   0.621   3.444 -0.1614 -1.5026 -0.5272
 6286SOL    HW230495   3.874   0.565   3.308 -1.7938  0.1843  0.6334
 6287SOL     OW30496   1.766   4.520   4.772  0.4366 -0.6911  0.2820
 6287SOL    HW130497   1.838   4.550   4.828  1.7419 -2.8307 -0.2798
 6287SOL    HW230498   1.815   4.465   4.712 -1.4577 -0.0980 -1.8297
 6288SOL     OW30499   1.315   3.946   0.279  0.3013 -0.1824  0.7157
 6288SOL    HW130500   1.283   3.982   0.196  2.1710  2.5823  1.1615
 6288SOL    HW230501   1.238   3.970   0.330  0.6379  1.1384  0.6195
 6289SOL     OW30502   2.248   0.188   4.419  0.3884  0.7251 -0.0112
 6289SOL    HW130503   2.164   0.145   4.435  0.6191  0.9526  1.8582
 6289SOL    HW230504   2.248   0.247   4.495 -1.0295 -0.7368  1.1354
 6290SOL     OW30505   3.723   1.296  12.671 -0.0650  0.1379 -0.1416
 6290SOL    HW130506   3.766   1.210  12.676  1.1888  0.8683  1.6441
 6290SOL    HW230507   3.784   1.350  12.621 -0.8739  1.1703 -0.0058
 6291SOL     OW30508   0.538   0.873  10.662  0.1499  0.4097  0.2466
 6291SOL    HW130509   0.518   0.961  10.630  1.2017  0.6886  0.3811
 6291SOL    HW230510   0.492   0.883  10.745 -0.8574  1.6131 -0.4607
 6292SOL     OW30511   1.782   1.201   2.597  0.2382  0.0714 -0.4832
 6292SOL    HW130512   1.798   1.130   2.660  1.2476  0.4115 -0.3473
 6292SOL    HW230513   1.747   1.148   2.526 -1.5518  0.0531  0.4141
 6293SOL     OW30514   1.213   4.216   4.453 -0.2424  0.4018  0.2668
 6293SOL    HW130515   1.245   4.232   4.365 -0.7217  2.1451  0.4157
 6293SOL    HW230516   1.280   4.264   4.502 -1.0098  2.9603 -1.2038
 6294SOL     OW30517   3.802   4.634  12.387 -0.3454 -0.1473 -0.1879
 6294SOL    HW130518   3.774   4.706  12.443  0.7906 -0.9427  1.4087
 6294SOL    HW230519   3.798   4.675  12.301  0.6931  0.2586 -0.0457
 6295SOL     OW30520   0.096   1.196  10.357  0.5085 -0.4270  0.4046
 6295SOL    HW130521   0.090   1.280  10.402  0.1136  0.2464 -0.9136
 6295SOL    HW230522   0.106   1.131  10.427  0.1922 -0.9325 -0.0152
 6296SOL     OW30523   0.442   2.053   3.883  0.1511  0.0800 -0.3467
 6296SOL    HW130524   0.369   2.052   3.821  0.1351 -1.8569 -0.3224
 6296SOL    HW230525   0.390   2.044   3.963 -0.2347  0.3061 -0.5725
 6297SOL     OW30526   2.720   2.556   2.793  0.1345 -0.0625 -0.3722
 6297SOL    HW130527   2.625   2.553   2.777 -0.1552 -0.9438  1.4961
 6297SOL    HW230528   2.750   2.613   2.722 -0.2633 -0.1422 -0.6072
 6298SOL     OW30529   2.007   1.732  11.862 -1.1149  0.1383 -0.2794
 6298SOL    HW130530   2.022   1.825  11.877  0.6848 -0.3245  0.7770
 6298SOL    HW230531   2.094   1.697  11.842 -0.5677  1.2850  0.1126
 6299SOL     OW30532   3.707   2.746  14.675  0.5780  0.2527  0.0018
 6299SOL    HW130533   3.802   2.747  14.664  0.0158  0.3283 -4.7732
 6299SOL    HW230534   3.695   2.662  14.718 -0.7550  0.1676 -0.5341
 6300SOL     OW30535   0.017   1.190   8.363 -0.4104 -0.2523  0.1349
 6300SOL    HW130536   4.673   1.211   8.316 -0.9002  0.2239  1.1804
 6300SOL    HW230537   4.727   1.166   8.452  1.0140 -1.1397  0.3127
 6301SOL     OW30538   3.698   3.715   3.096 -1.0630 -0.5315  0.3861
 6301SOL    HW130539   3.631   3.782   3.087  0.8058  1.2876  0.0609
 6301SOL    HW230540   3.775   3.747   3.048 -0.7554 -1.5437  0.2024
 6302SOL     OW30541   1.148   3.453   8.250  0.9775  0.3757  0.5923
 6302SOL    HW130542   1.173   3.360   8.246  0.4118  0.2117  0.8092
 6302SOL    HW230543   1.120   3.476   8.162 -1.4344 -0.2780  1.2021
 6303SOL     OW30544   2.254   1.633  14.503  0.1266  0.1523  0.6006
 6303SOL    HW130545   2.163   1.658  14.486  0.4482  1.4346  0.7598
 6303SOL    HW230546   2.291   1.654  14.417 -4.5971  0.2727 -1.4350
 6304SOL     OW30547   2.887   2.347   4.063  0.4425 -0.3237 -0.0430
 6304SOL    HW130548   2.810   2.390   4.102  0.2949 -0.1698 -0.5051
 6304SOL    HW230549   2.891   2.264   4.112  0.5299  0.9017  2.0377
 6305SOL     OW30550   1.140   4.475   7.214 -0.3285 -0.7090  0.0962
 6305SOL    HW130551   1.216   4.423   7.186 -1.6271 -2.6254  0.1312
 6305SOL    HW230552   1.074   4.415   7.181 -0.5598  0.5454 -1.7876
 6306SOL     OW30553   1.271   2.633  15.770 -0.2474 -0.2759 -0.1588
 6306SOL    HW130554   1.345   2.678  15.728 -2.6942 -0.1851 -4.3664
 6306SOL    HW230555   1.282   2.545  15.734 -1.3655 -1.0860  1.4940
 6307SOL     OW30556   0.541   3.332   8.861 -0.0661  0.5846 -0.2534
 6307SOL    HW130557   0.496   3.370   8.785 -1.1959 -0.6269 -0.2010
 6307SOL    HW230558   0.555   3.246   8.822 -0.6688  0.0825  0.6232
 6308SOL     OW30559   2.831   3.081   6.408  0.5460  0.2264  0.7444
 6308SOL    HW130560   2.857   3.109   6.495  0.7163  2.9183 -0.1796
 6308SOL    HW230561   2.845   3.155   6.348 -1.8854  0.6408  0.6905
 6309SOL     OW30562   3.109   2.691   3.011  1.1811 -0.7898  0.2865
 6309SOL    HW130563   3.190   2.665   3.054  1.5635 -1.6243 -0.9321
 6309SOL    HW230564   3.137   2.683   2.920 -0.1887  0.9820 -0.3088
 6310SOL     OW30565   1.396   1.895   7.949  0.1768  0.0320  0.1677
 6310SOL    HW130566   1.344   1.930   8.021 -0.0647 -0.7347  0.3662
 6310SOL    HW230567   1.438   1.970   7.907  0.4556  1.1246  2.4018
 6311SOL     OW30568   4.067   3.155   2.926 -0.5998 -0.2397  0.0181
 6311SOL    HW130569   4.015   3.226   2.964  0.4512  0.8549 -0.5926
 6311SOL    HW230570   4.005   3.085   2.905 -0.4356 -0.5898  0.6849
 6312SOL     OW30571   3.497   2.431   6.706 -0.4284 -0.3520 -0.2963
 6312SOL    HW130572   3.519   2.520   6.678 -2.0625  0.2406  0.2742
 6312SOL    HW230573   3.441   2.453   6.781 -1.8977 -2.6628 -0.7149
 6313SOL     OW30574   2.462   0.916   2.274 -0.3068  0.2001 -0.0833
 6313SOL    HW130575   2.415   0.940   2.194 -0.4137  0.3352  0.0209
 6313SOL    HW230576   2.393   0.885   2.333 -0.9248  1.3264 -0.2168
 6314SOL     OW30577   4.276   2.492   3.426 -0.1972  0.0254 -0.6709
 6314SOL    HW130578   4.231   2.421   3.471 -0.4354  1.3033  1.1220
 6314SOL    HW230579   4.288   2.554   3.498 -3.0955 -1.8612  1.4130
 6315SOL     OW30580   0.036   3.292  14.004  0.7110 -0.0343 -0.0240
 6315SOL    HW130581   0.125   3.301  14.040  0.5774 -1.7362  0.7270
 6315SOL    HW230582   0.023   3.375  13.959  1.5558  0.5329  0.7615
 6316SOL     OW30583   2.752   2.691   2.581  0.5478  0.2694 -0.7614
 6316SOL    HW130584   2.731   2.779   2.614 -0.4340 -0.2593  0.0389
 6316SOL    HW230585   2.829   2.716   2.531  2.1467 -1.0321  1.0458
 6317SOL     OW30586   0.856   0.912   6.651  0.5850  0.2315 -0.3794
 6317SOL    HW130587   0.771   0.955   6.661  1.4698  1.7615  0.5315
 6317SOL    HW230588   0.888   0.921   6.741 -1.2112  1.9149  0.0873
 6318SOL     OW30589   1.803   0.083   9.447 -0.2305  0.1542  0.2434
 6318SOL    HW130590   1.709   0.094   9.428 -0.0511 -2.2053 -1.9813
 6318SOL    HW230591   1.799   0.104   9.540 -1.1244 -2.9792  0.9001
 6319SOL     OW30592   3.031   1.076  16.051  0.4927  1.0525  0.2810
 6319SOL    HW130593   2.949   1.056  16.096  1.8047 -0.3808  2.0441
 6319SOL    HW230594   3.040   1.006  15.987  2.1147 -0.3677  2.0697
 6320SOL     OW30595   3.478   1.057   0.523 -0.0758 -0.3804  0.0986
 6320SOL    HW130596   3.491   1.094   0.610  0.8716 -3.9897  1.4900
 6320SOL    HW230597   3.496   1.134   0.469  1.3668 -1.5956 -1.1618
 6321SOL     OW30598   3.497   3.319   6.402  0.5137  0.2994 -0.2654
 6321SOL    HW130599   3.560   3.389   6.384  1.6325 -0.7726 -0.4838
 6321SOL    HW230600   3.412   3.363   6.411  0.6438  0.3609  0.6746
 6322SOL     OW30601   3.600   1.437   4.844 -0.0831  0.4687 -0.2075
 6322SOL    HW130602   3.569   1.518   4.885  0.8523  0.5798  0.2776
 6322SOL    HW230603   3.527   1.390   4.884 -1.2343  2.1393 -0.3460
 6323SOL     OW30604   4.716   0.586   0.391  0.1086  0.0605 -0.3376
 6323SOL    HW130605   0.059   0.579   0.338 -0.2497 -0.4140 -0.8223
 6323SOL    HW230606   0.006   0.544   0.472  1.3527  0.7323 -0.3925
 6324SOL     OW30607   3.544   0.941   2.314 -0.2491 -0.3732  0.9164
 6324SOL    HW130608   3.624   0.953   2.366 -0.4022 -1.0436  1.3091
 6324SOL    HW230609   3.574   0.906   2.230  0.7754 -0.8688  1.4824
 6325SOL     OW30610   1.374   4.173   3.217 -0.0508  0.1480  0.3006
 6325SOL    HW130611   1.430   4.098   3.237  0.6729  0.4744 -0.4627
 6325SOL    HW230612   1.432   4.247   3.239 -0.1505  0.7295 -1.3352
 6326SOL     OW30613   4.670   0.020  13.379  0.6188  0.7136  0.7298
 6326SOL    HW130614   4.699   0.072  13.305  3.1829  0.4088  1.5298
 6326SOL    HW230615   0.016   4.736  13.422  0.4475 -0.7779  0.3530
 6327SOL     OW30616   1.268   0.766   2.942  0.5680  0.3272  0.0827
 6327SOL    HW130617   1.174   0.753   2.935  0.3485  2.7133 -1.5737
 6327SOL    HW230618   1.294   0.731   3.026 -1.1995 -1.9455 -0.3316
 6328SOL     OW30619   3.882   0.000   8.407  0.3417  0.2037 -0.1103
 6328SOL    HW130620   3.872   4.696   8.494  1.4452  2.4242  1.0647
 6328SOL    HW230621   3.965   4.702   8.374 -0.4000 -2.0503  0.4227
 6329SOL     OW30622   4.458   2.012  17.725 -0.0865 -0.4568 -0.1069
 6329SOL    HW130623   4.415   2.098  17.724  1.5847  0.3580 -1.3504
 6329SOL    HW230624   4.513   2.020   0.058  1.1137  1.0236 -1.1188
 6330SOL     OW30625   4.650   1.677   5.915 -0.4366 -0.1178 -0.4309
 6330SOL    HW130626   4.633   1.741   5.846 -0.3808  1.8093  1.3300
 6330SOL    HW230627   4.559   1.662   5.943 -0.1827 -1.0973 -0.1441
 6331SOL     OW30628   2.682   4.669   8.064 -0.0582 -0.5922 -0.7232
 6331SOL    HW130629   2.677   4.675   8.159  0.5487  1.0551 -0.7856
 6331SOL    HW230630   2.606   4.727   8.052 -0.7028 -1.3252 -0.2061
 6332SOL     OW30631   1.457   3.090   1.841 -0.3132 -0.1344 -0.1948
 6332SOL    HW130632   1.473   3.006   1.799  1.8969 -1.0353  2.4255
 6332SOL    HW230633   1.364   3.110   1.831 -0.5645 -0.5655  1.3149
 6333SOL     OW30634   2.386   3.490   4.061  0.2234 -0.0264 -0.0369
 6333SOL    HW130635   2.395   3.433   3.984 -0.8612 -0.2872  0.0218
 6333SOL    HW230636   2.357   3.576   4.031 -1.0514 -0.3442  0.2694
 6334SOL     OW30637   2.855   3.504  15.228 -0.0218  0.4156  0.5292
 6334SOL    HW130638   2.837   3.424  15.278 -0.3313  2.0413  3.0529
 6334SOL    HW230639   2.889   3.464  15.148  0.6559  0.7632  0.6370
 6335SOL     OW30640   4.408   3.725  16.371 -0.0639 -0.4245 -0.6910
 6335SOL    HW130641   4.410   3.665  16.446 -0.4754  1.7521  1.0680
 6335SOL    HW230642   4.471   3.676  16.319  1.9173  1.3507  0.0148
 6336SOL     OW30643   3.980   0.142   7.591  0.0996 -0.1363 -0.1876
 6336SOL    HW130644   4.013   0.211   7.534 -0.8261 -0.4263 -1.0809
 6336SOL    HW230645   4.007   0.176   7.676 -1.7340  0.0872  0.2950
 6337SOL     OW30646   1.897   0.678  14.519  0.4385  0.5420  0.1063
 6337SOL    HW130647   1.965   0.709  14.578  0.4478 -1.4573  1.1461
 6337SOL    HW230648   1.929   0.591  14.494  0.1487  0.4935 -0.0980
 6338SOL     OW30649   4.696   1.186   9.514 -0.3633  0.4119 -0.7429
 6338SOL    HW130650   4.622   1.178   9.575  2.1323 -0.2363  2.1744
 6338SOL    HW230651   4.698   1.105   9.464  1.5575  0.0989 -0.1411
 6339SOL     OW30652   2.894   1.852   3.813  0.0027 -0.7266  0.6950
 6339SOL    HW130653   2.904   1.916   3.884  0.0842  1.7603 -1.5468
 6339SOL    HW230654   2.838   1.908   3.759  0.1637 -0.0221  1.2557
 6340SOL     OW30655   0.572   4.540  13.124 -0.4605 -0.3072 -0.6683
 6340SOL    HW130656   0.529   4.522  13.040  0.5596 -0.1430 -1.2376
 6340SOL    HW230657   0.643   4.476  13.118 -0.0384 -0.0963  2.3626
 6341SOL     OW30658   4.032   1.570   4.926  0.2558  0.2166  0.4657
 6341SOL    HW130659   3.987   1.558   4.843  1.8543 -0.1669 -0.3482
 6341SOL    HW230660   4.121   1.579   4.890 -0.8545  1.2739 -1.9654
 6342SOL     OW30661   1.264   1.120   8.032  0.4213 -0.0204  0.5322
 6342SOL    HW130662   1.196   1.186   8.045  0.7778  0.3042  0.7594
 6342SOL    HW230663   1.211   1.050   7.994 -1.8180  1.2178  1.3541
 6343SOL     OW30664   1.114   4.179  10.912  0.2796 -0.2579 -0.3261
 6343SOL    HW130665   1.200   4.141  10.932 -0.1793 -1.2917 -0.3422
 6343SOL    HW230666   1.069   4.097  10.895  0.2215 -0.0299 -1.2940
 6344SOL     OW30667   3.469   2.900   0.155  0.6585  0.2793  0.5610
 6344SOL    HW130668   3.425   2.939   0.080 -0.9733  1.5437  2.1609
 6344SOL    HW230669   3.390   2.889   0.209  0.8929 -2.3475  0.3481
 6345SOL     OW30670   2.602   2.761   9.514  0.5077  0.0095 -0.9880
 6345SOL    HW130671   2.590   2.824   9.585  1.6854 -0.4956 -0.3338
 6345SOL    HW230672   2.593   2.677   9.560 -2.1592  0.9030  0.1373
 6346SOL     OW30673   1.503   2.016   0.574 -0.1446 -0.6728  0.5769
 6346SOL    HW130674   1.528   1.925   0.589 -1.8041 -0.8198  2.5373
 6346SOL    HW230675   1.474   2.065   0.651  3.1309  2.6617 -0.3079
 6347SOL     OW30676   4.154   3.624  12.082  0.4527 -0.2225 -0.6228
 6347SOL    HW130677   4.205   3.616  12.162 -0.9491 -1.1689  0.1782
 6347SOL    HW230678   4.147   3.535  12.049 -0.6597 -0.8336  1.2514
 6348SOL     OW30679   3.780   1.714   6.606  0.2908  0.6900 -0.5133
 6348SOL    HW130680   3.791   1.807   6.588  2.7054  0.8068  1.7116
 6348SOL    HW230681   3.803   1.684   6.518  0.1666  0.5601 -0.5018
 6349SOL     OW30682   0.516   1.064   8.468  0.3310  0.1118 -0.2737
 6349SOL    HW130683   0.543   0.986   8.419  2.3971  0.1421  0.8308
 6349SOL    HW230684   0.431   1.087   8.429 -1.4752 -3.2779  1.5886
 6350SOL     OW30685   0.016   0.749   6.087  0.2681 -0.0107 -0.2348
 6350SOL    HW130686   4.663   0.751   6.121  0.2570 -2.1881 -0.1026
 6350SOL    HW230687   0.015   0.664   6.043 -3.0580 -0.6402  1.0365
 6351SOL     OW30688   0.131   1.949   6.326  0.4941  0.4535  0.1303
 6351SOL    HW130689   0.143   1.860   6.359 -0.0048 -0.0136 -0.9653
 6351SOL    HW230690   0.103   1.999   6.403  0.4371  1.4179 -0.5166
 6352SOL     OW30691   4.392   3.285  10.915 -0.3064 -0.0290 -0.3603
 6352SOL    HW130692   4.330   3.301  10.844 -0.3332 -2.6894 -0.9324
 6352SOL    HW230693   4.388   3.366  10.966  1.2406 -0.5375  0.5546
 6353SOL     OW30694   1.785   2.625   2.433 -0.0379 -0.0493  0.4254
 6353SOL    HW130695   1.701   2.615   2.388 -0.6105  0.9874  1.2553
 6353SOL    HW230696   1.831   2.551   2.392  1.6974  1.4045 -0.2471
 6354SOL     OW30697   3.605   3.089   7.151  0.4186 -0.3156 -0.3987
 6354SOL    HW130698   3.661   3.019   7.183  1.9910  0.9669 -0.3500
 6354SOL    HW230699   3.663   3.160   7.125 -2.2088  2.1450  0.4913
 6355SOL     OW30700   0.101   2.700   3.890  0.3723  0.1147 -0.1520
 6355SOL    HW130701   0.187   2.657   3.888 -0.0746 -0.7827  0.0230
 6355SOL    HW230702   0.050   2.631   3.846  1.3837 -0.1999 -0.8361
 6356SOL     OW30703   2.474   2.579   9.668  0.2597 -0.2733 -0.2390
 6356SOL    HW130704   2.388   2.542   9.652  0.6792 -0.6416 -1.6193
 6356SOL    HW230705   2.490   2.527   9.748  3.6050  1.4702  0.2226
 6357SOL     OW30706   0.797   0.261   6.463  0.2871  0.3889 -0.5804
 6357SOL    HW130707   0.724   0.228   6.411  0.2168  1.2957 -1.0631
 6357SOL    HW230708   0.861   0.244   6.393  1.8855 -0.5469  1.1171
 6358SOL     OW30709   3.819   3.199   0.580  0.2528  0.1447 -0.2620
 6358SOL    HW130710   3.789   3.234   0.496 -3.7520  0.9584  1.5105
 6358SOL    HW230711   3.731   3.197   0.617  0.5987  1.5245  0.6483
 6359SOL     OW30712   3.709   0.451   6.127 -0.5026  0.1028  0.0987
 6359SOL    HW130713   3.758   0.477   6.049 -0.1286  0.9901  0.6316
 6359SOL    HW230714   3.670   0.368   6.099  0.3243 -1.5015  3.6343
 6360SOL     OW30715   0.515   1.199   7.519  0.3190 -0.0861  0.7540
 6360SOL    HW130716   0.426   1.173   7.541  0.0824 -1.0120 -1.2078
 6360SOL    HW230717   0.500   1.261   7.448  0.6462  0.0937  0.8455
 6361SOL     OW30718   0.911   2.982   2.219 -0.3341  0.0793  0.3288
 6361SOL    HW130719   0.930   2.903   2.269  4.7211  0.1567 -1.5488
 6361SOL    HW230720   0.829   2.952   2.180  1.4185 -1.9151 -1.7589
 6362SOL     OW30721   2.968   4.400   7.394 -0.2444 -0.2027  0.5526
 6362SOL    HW130722   3.052   4.421   7.354 -0.9067 -1.4978 -1.5406
 6362SOL    HW230723   2.994   4.309   7.405 -1.3385 -0.3659  1.7733
 6363SOL     OW30724   3.843   2.135   4.360 -0.2563 -0.2223 -0.1111
 6363SOL    HW130725   3.852   2.226   4.334  2.9468 -0.8512 -1.2522
 6363SOL    HW230726   3.800   2.114   4.277 -0.1179  0.3323 -0.3220
 6364SOL     OW30727   2.787   4.683  17.683 -0.0420 -0.3163  0.2814
 6364SOL    HW130728   2.858   0.001  17.719 -1.5935 -0.2538  3.2901
 6364SOL    HW230729   2.830   4.598  17.680  1.1256  0.3065 -0.6937
 6365SOL     OW30730   0.031   3.267   3.245 -0.4297 -0.7159  0.4116
 6365SOL    HW130731   4.695   3.211   3.216  0.3134 -2.0517  1.1211
 6365SOL    HW230732   0.104   3.208   3.227  0.6856  0.4826  1.0079
 6366SOL     OW30733   4.000   1.419   8.412 -0.3887 -0.3291 -0.3639
 6366SOL    HW130734   4.025   1.493   8.468  0.7066 -1.0221  0.0806
 6366SOL    HW230735   3.917   1.460   8.390  0.9273  3.1148  0.9216
 6367SOL     OW30736   4.528   3.502  12.094  0.1392  0.3174  0.3230
 6367SOL    HW130737   4.556   3.431  12.152 -1.0041  1.2838  2.0445
 6367SOL    HW230738   4.578   3.477  12.017  0.1379 -1.3103  0.8523
 6368SOL     OW30739   2.596   4.186  10.819  0.6555 -0.5273  0.4037
 6368SOL    HW130740   2.621   4.126  10.749 -0.6258  0.4454 -0.8747
 6368SOL    HW230741   2.568   4.118  10.880 -0.1802 -0.4662  0.0862
 6369SOL     OW30742   3.272   4.486   5.410 -0.1512  0.0151  0.2117
 6369SOL    HW130743   3.291   4.514   5.321 -1.2152  1.4806  0.4460
 6369SOL    HW230744   3.228   4.558   5.454 -1.3511 -1.0613  0.7750
 6370SOL     OW30745   4.269   3.479   9.432  0.6353  0.4301 -0.7635
 6370SOL    HW130746   4.206   3.418   9.468  0.8433  0.8988  0.3863
 6370SOL    HW230747   4.355   3.438   9.445  0.8295  1.1017  0.1116
 6371SOL     OW30748   0.680   0.301   1.499  0.1445 -0.2524  0.4890
 6371SOL    HW130749   0.622   0.267   1.568  0.0703 -1.8792 -0.3827
 6371SOL    HW230750   0.666   0.396   1.504 -0.5637 -0.2968 -0.5880
 6372SOL     OW30751   1.213   4.449   7.548 -0.9070  0.1953  0.0959
 6372SOL    HW130752   1.221   4.368   7.497 -0.1709  0.5369 -0.3186
 6372SOL    HW230753   1.120   4.437   7.570 -0.5571 -1.1132  0.8908
 6373SOL     OW30754   0.547   0.748   2.465 -0.0418  0.2350 -0.0417
 6373SOL    HW130755   0.515   0.662   2.492 -1.3293  2.0287  4.0927
 6373SOL    HW230756   0.499   0.801   2.528  0.6954  0.0610  0.6742
 6374SOL     OW30757   1.748   0.986   7.421  0.2622 -0.3615  0.1221
 6374SOL    HW130758   1.714   0.908   7.377 -0.4421  1.7239 -3.0296
 6374SOL    HW230759   1.811   1.013   7.355  0.5760  1.3270  1.1164
 6375SOL     OW30760   2.776   3.145   2.505 -0.4654  0.2696 -0.1869
 6375SOL    HW130761   2.847   3.131   2.442  0.2927 -1.0666  0.9470
 6375SOL    HW230762   2.832   3.182   2.574  3.3450  1.1820 -3.7827
 6376SOL     OW30763   3.481   1.658   3.831 -0.4962  0.3523 -0.4440
 6376SOL    HW130764   3.564   1.676   3.786  0.0535  0.3047  0.5630
 6376SOL    HW230765   3.512   1.641   3.920 -0.7471  1.9520 -0.0613
 6377SOL     OW30766   3.897   0.171   5.226 -0.3672 -0.3474 -0.7123
 6377SOL    HW130767   3.984   0.202   5.250 -0.7720  1.0341 -1.0291
 6377SOL    HW230768   3.887   0.089   5.273  0.0731 -0.8082 -1.4265
 6378SOL     OW30769   1.543   1.733   4.260  0.1164  0.3750 -0.0386
 6378SOL    HW130770   1.553   1.785   4.340  1.1252 -1.4354  0.9892
 6378SOL    HW230771   1.608   1.777   4.205 -0.3573  0.4931 -0.5095
 6379SOL     OW30772   2.969   1.881   5.267 -0.2642  0.4836  0.4384
 6379SOL    HW130773   2.979   1.956   5.326 -0.9443 -0.6406  1.9808
 6379SOL    HW230774   2.901   1.908   5.205 -1.3194  2.5013  2.4758
 6380SOL     OW30775   1.267   0.078   4.316  0.0688  0.4166  0.0387
 6380SOL    HW130776   1.362   0.081   4.317  0.0428  2.1807 -2.3533
 6380SOL    HW230777   1.253   0.089   4.410  0.9200 -0.5317  0.2783
 6381SOL     OW30778   3.861   0.879   2.174 -0.4675 -0.2119 -0.2520
 6381SOL    HW130779   3.780   0.831   2.163  0.0018 -1.2212  0.6789
 6381SOL    HW230780   3.933   0.822   2.202 -1.3641 -1.7718 -1.1250
 6382SOL     OW30781   0.759   3.743   6.011 -0.5334  0.5297 -0.0205
 6382SOL    HW130782   0.687   3.803   6.031 -0.2203  1.4916 -1.7902
 6382SOL    HW230783   0.730   3.672   6.068  0.4909  0.3370  0.2584
 6383SOL     OW30784   3.152   3.307   6.040 -0.2079 -0.7238 -0.3354
 6383SOL    HW130785   3.075   3.266   6.078 -1.0990  0.2051 -1.1051
 6383SOL    HW230786   3.146   3.267   5.953  1.8115  3.0308 -2.2339
 6384SOL     OW30787   2.822   0.182  10.780 -0.3262  0.1608  0.3854
 6384SOL    HW130788   2.833   0.277  10.784 -2.1813  0.5060 -3.1680
 6384SOL    HW230789   2.902   0.158  10.733  0.0698  1.6755  0.3164
 6385SOL     OW30790   1.972   1.262   7.035  0.2238 -0.0715 -0.8845
 6385SOL    HW130791   2.000   1.327   7.099 -0.8632 -0.4778 -0.0160
 6385SOL    HW230792   1.879   1.280   7.027 -0.1301 -1.3274  0.3654
 6386SOL     OW30793   2.721   4.732  10.945 -0.2671 -0.4733 -0.9463
 6386SOL    HW130794   2.786   4.661  10.940 -0.6781 -0.8319 -1.1616
 6386SOL    HW230795   2.760   0.059  10.884 -0.4801  0.9191  0.3683
 6387SOL     OW30796   1.612   2.834   4.856 -0.5053  0.4116  0.2116
 6387SOL    HW130797   1.584   2.853   4.766 -0.4183 -2.3457 -0.3957
 6387SOL    HW230798   1.542   2.858   4.917  0.0546  0.6924  0.7466
 6388SOL     OW30799   4.309   3.435   7.473  0.4403 -0.1681  0.9236
 6388SOL    HW130800   4.228   3.417   7.423  1.1476  2.1220 -1.0694
 6388SOL    HW230801   4.295   3.381   7.551 -0.5812 -1.5054 -0.1806
 6389SOL     OW30802   4.543   3.850  13.039  0.4839  0.1254  1.0973
 6389SOL    HW130803   4.599   3.925  13.056  1.5132 -0.6179  0.9543
 6389SOL    HW230804   4.459   3.896  13.050  1.0710  1.6852 -0.9717
 6390SOL     OW30805   1.216   2.803   4.806 -0.1385 -0.2679  0.8992
 6390SOL    HW130806   1.150   2.780   4.871 -0.7525 -2.2617 -0.4259
 6390SOL    HW230807   1.212   2.726   4.751  0.0240  0.1526  0.2983
 6391SOL     OW30808   3.145   0.901  14.364  0.1981 -0.0979  0.0058
 6391SOL    HW130809   3.050   0.906  14.350  0.1252 -0.1389  0.4904
 6391SOL    HW230810   3.150   0.933  14.454  0.7882  1.1931 -0.4817
 6392SOL     OW30811   2.098   3.490   3.145  0.3341 -0.5957 -0.4320
 6392SOL    HW130812   2.077   3.434   3.220  2.4598 -0.8232  0.0038
 6392SOL    HW230813   2.119   3.580   3.168 -0.1654  0.2682 -3.3175
 6393SOL     OW30814   0.276   0.186  10.519  0.5441 -0.4308 -0.1753
 6393SOL    HW130815   0.265   0.237  10.439 -2.2802  0.6949  0.9546
 6393SOL    HW230816   0.369   0.167  10.506  0.1893 -1.4127 -1.2748
 6394SOL     OW30817   0.268   1.041   2.985 -0.0732  0.0676  0.6869
 6394SOL    HW130818   0.194   0.987   3.012 -1.8285  2.2052  0.1480
 6394SOL    HW230819   0.338   0.982   3.014  0.0047  0.3801  1.1351
 6395SOL     OW30820   3.038   4.486   3.868  0.2799  0.7538 -0.0620
 6395SOL    HW130821   3.012   4.395   3.881  1.2405  1.0512  3.9490
 6395SOL    HW230822   3.087   4.487   3.786  0.3838 -0.8160 -0.0189
 6396SOL     OW30823   1.318   3.160  15.609 -0.6824 -0.1182  0.6521
 6396SOL    HW130824   1.321   3.189  15.700  1.7583  0.9422  0.2453
 6396SOL    HW230825   1.298   3.067  15.612 -1.5528  0.1051  1.6365
 6397SOL     OW30826   2.618   3.884   4.614 -0.6815  0.1002 -0.2576
 6397SOL    HW130827   2.619   3.902   4.708 -2.3008  0.7275 -0.3559
 6397SOL    HW230828   2.543   3.825   4.614 -1.6352  1.3055  1.7695
 6398SOL     OW30829   1.851   2.012   5.099  0.6855 -0.3268  0.0132
 6398SOL    HW130830   1.857   2.072   5.025 -0.8319  0.1339  0.2701
 6398SOL    HW230831   1.760   2.023   5.124  1.1888  0.0271  1.7144
 6399SOL     OW30832   0.114   4.039   8.087  0.2847  0.1050  0.4371
 6399SOL    HW130833   0.025   4.038   8.052 -0.4632 -1.0533  2.3653
 6399SOL    HW230834   0.093   4.009   8.176 -0.7048  1.5706  0.7056
 6400SOL     OW30835   1.249   2.900   3.242 -0.7800 -0.3094  0.2810
 6400SOL    HW130836   1.295   2.886   3.159  0.0614  0.3692  0.6366
 6400SOL    HW230837   1.287   2.986   3.257  1.2975 -1.0114 -0.9676
 6401SOL     OW30838   3.592   4.045  12.975 -0.5920 -0.3351 -0.1082
 6401SOL    HW130839   3.502   4.014  12.978 -0.0140 -1.7694  1.9095
 6401SOL    HW230840   3.577   4.124  13.027 -1.4554 -1.0495  0.7209
 6402SOL     OW30841   1.310   2.149  14.403  0.1263  0.3728 -0.3496
 6402SOL    HW130842   1.291   2.241  14.385 -0.7418 -0.2504 -2.6526
 6402SOL    HW230843   1.362   2.122  14.327 -2.4875  0.9233 -2.3257
 6403SOL     OW30844   2.978   0.641  12.370  0.6347  0.4828 -0.2643
 6403SOL    HW130845   3.003   0.625  12.461 -0.0405 -3.2085 -0.7337
 6403SOL    HW230846   3.053   0.692  12.341  1.3367  1.3258  3.0045
 6404SOL     OW30847   2.079   2.893   6.381  0.0128  1.1191  0.4430
 6404SOL    HW130848   2.041   2.975   6.350  0.9278  0.3437 -2.6337
 6404SOL    HW230849   2.162   2.924   6.416 -0.9211  1.4328  2.4047
 6405SOL     OW30850   3.361   0.142   4.533  0.3243  0.1403 -0.8383
 6405SOL    HW130851   3.352   0.095   4.616  2.3120  1.3031  0.0724
 6405SOL    HW230852   3.451   0.172   4.548 -0.3109  1.2340  0.7607
 6406SOL     OW30853   0.449   1.712   8.591  0.1970  0.1148  0.6754
 6406SOL    HW130854   0.416   1.679   8.507 -0.5829  1.3574  0.4912
 6406SOL    HW230855   0.481   1.626   8.619  1.2666 -0.1522 -1.2860
 6407SOL     OW30856   1.208   4.199  16.229  0.4361 -0.0971 -0.2990
 6407SOL    HW130857   1.217   4.273  16.289 -2.8222  0.9346 -1.1156
 6407SOL    HW230858   1.169   4.235  16.149 -2.6464  0.0334  1.2746
 6408SOL     OW30859   2.075   2.369   4.055 -0.3783  0.5056 -0.0180
 6408SOL    HW130860   2.097   2.417   3.975  0.2840  0.2148 -0.0053
 6408SOL    HW230861   2.020   2.305   4.009  2.1704 -0.4995 -1.6339
 6409SOL     OW30862   0.791   0.340  17.032  0.1112  0.0722  0.1534
 6409SOL    HW130863   0.762   0.415  17.085  0.5685  0.1371  0.3142
 6409SOL    HW230864   0.727   0.275  17.061  0.2023 -0.1416 -0.1303
 6410SOL     OW30865   2.330   4.724  15.517  0.1777 -0.9505 -0.0962
 6410SOL    HW130866   2.271   4.653  15.544 -0.7900  0.0710  0.5036
 6410SOL    HW230867   2.272   0.042  15.464  1.9664  1.1026  0.0643
 6411SOL     OW30868   1.255   0.425   3.915  0.2037 -0.3387  0.6271
 6411SOL    HW130869   1.266   0.484   3.990 -0.6399  0.1154  0.3919
 6411SOL    HW230870   1.348   0.410   3.900 -0.0625  0.0763 -1.4025
 6412SOL     OW30871   3.354   2.213  13.660  0.0397  0.4210  0.2948
 6412SOL    HW130872   3.301   2.202  13.581 -0.8092  0.6383  0.8236
 6412SOL    HW230873   3.411   2.138  13.646 -1.2469 -0.6259  0.6699
 6413SOL     OW30874   0.553   4.210   9.959 -0.3540 -0.6753 -0.2459
 6413SOL    HW130875   0.636   4.252   9.936 -0.5878  0.0762  0.2529
 6413SOL    HW230876   0.585   4.142  10.018  0.3820  1.1674  1.5030
 6414SOL     OW30877   0.508   3.804   5.788  0.4217  0.4015  0.1379
 6414SOL    HW130878   0.519   3.819   5.882 -1.0974  0.3036  0.3187
 6414SOL    HW230879   0.588   3.756   5.768  0.5466  0.1673  1.1990
 6415SOL     OW30880   3.938   3.450  11.881  0.4746 -0.2555  0.5432
 6415SOL    HW130881   3.889   3.416  11.805 -0.0983 -1.6862  1.5438
 6415SOL    HW230882   4.008   3.386  11.870  1.8638  1.4671 -0.5159
 6416SOL     OW30883   4.452   1.803   3.680 -0.0309  0.1449 -0.0544
 6416SOL    HW130884   4.407   1.799   3.764  1.9987 -0.8517  0.9760
 6416SOL    HW230885   4.398   1.749   3.622  1.2706 -0.0625 -1.0732
 6417SOL     OW30886   0.360   2.109   8.445  0.4792  0.2895 -0.5879
 6417SOL    HW130887   0.360   2.086   8.352  0.3291  1.9263 -0.9815
 6417SOL    HW230888   0.440   2.062   8.469  0.3075  0.9568  1.3362
 6418SOL     OW30889   1.510   3.482  17.077  0.4274  0.2162 -0.0084
 6418SOL    HW130890   1.572   3.516  17.141  0.3476  0.4434 -0.0508
 6418SOL    HW230891   1.459   3.560  17.057 -1.5981 -0.6190  1.8652
 6419SOL     OW30892   1.002   1.718   6.395  0.1156  0.2799  0.2552
 6419SOL    HW130893   0.971   1.637   6.436  1.1527  0.3219  1.1135
 6419SOL    HW230894   0.960   1.714   6.309  0.1913  0.0584  0.2280
 6420SOL     OW30895   1.538   4.736   6.042 -0.2553 -0.2510  0.6817
 6420SOL    HW130896   1.457   4.729   6.093  0.0336  1.0765  1.3229
 6420SOL    HW230897   1.503   0.042   5.964  1.4109  0.6893  0.4644
 6421SOL     OW30898   3.439   2.723   7.479 -0.2242 -0.8402  0.0016
 6421SOL    HW130899   3.408   2.639   7.515  1.3424 -1.9700 -1.2793
 6421SOL    HW230900   3.366   2.756   7.428  0.9398  2.0882  0.2331
 6422SOL     OW30901   4.617   1.005  11.317 -0.0977  0.3867 -0.1865
 6422SOL    HW130902   4.561   1.079  11.290  0.7490  1.1926  0.2735
 6422SOL    HW230903   4.697   1.053  11.341  1.2372 -2.5709  1.1728
 6423SOL     OW30904   1.482   2.404   2.609  0.0582  0.2210  0.3139
 6423SOL    HW130905   1.526   2.329   2.569  0.9715  0.6992  0.4222
 6423SOL    HW230906   1.389   2.381   2.605  0.1828 -0.3303  0.4982
 6424SOL     OW30907   2.704   3.651   4.791  0.3400  0.2840 -0.4380
 6424SOL    HW130908   2.615   3.678   4.768  0.3215  2.0271  1.6253
 6424SOL    HW230909   2.730   3.739   4.818 -1.3095  0.3371  1.0198
 6425SOL     OW30910   3.282   3.295  17.459 -0.5244  0.4670 -0.2443
 6425SOL    HW130911   3.234   3.253  17.530  0.9096  0.6449  0.8273
 6425SOL    HW230912   3.226   3.372  17.445 -0.9839  0.5576  2.0600
 6426SOL     OW30913   0.317   3.366   3.784  1.0413  0.6635 -0.2307
 6426SOL    HW130914   0.241   3.420   3.759  0.2035 -0.0722  0.7270
 6426SOL    HW230915   0.392   3.423   3.800  0.2949  1.0928  1.7608
 6427SOL     OW30916   0.522   3.879   7.673  0.0462  0.5316  0.3685
 6427SOL    HW130917   0.444   3.924   7.704  0.0259  0.1002  0.9432
 6427SOL    HW230918   0.539   3.924   7.590  2.0846 -1.3957 -0.2835
 6428SOL     OW30919   1.209   2.083   8.445 -0.3792  0.7308 -0.2507
 6428SOL    HW130920   1.124   2.117   8.473 -0.8671 -1.5151  1.0433
 6428SOL    HW230921   1.251   2.155   8.492 -1.2006  1.2350 -0.2872
 6429SOL     OW30922   3.778   0.208   8.108  0.3924 -0.0895 -0.0874
 6429SOL    HW130923   3.842   0.234   8.174 -0.1967  0.5534  0.2308
 6429SOL    HW230924   3.790   0.114   8.117  1.5582  0.1622  1.0604
 6430SOL     OW30925   3.522   1.941   8.634 -0.9065  0.1477  0.1679
 6430SOL    HW130926   3.556   2.013   8.580 -0.3527 -1.2172 -1.3122
 6430SOL    HW230927   3.465   1.893   8.574  0.6082  0.1515 -1.2835
 6431SOL     OW30928   2.453   3.399   0.450  0.3402  0.2164  0.6104
 6431SOL    HW130929   2.378   3.367   0.501 -0.6801  0.2309 -0.8739
 6431SOL    HW230930   2.486   3.314   0.420  0.4660  0.4053  0.2079
 6432SOL     OW30931   0.680   3.170  13.614 -0.0970  0.3420 -0.2404
 6432SOL    HW130932   0.771   3.142  13.626 -0.2603  0.0095  0.2053
 6432SOL    HW230933   0.643   3.085  13.635 -1.7606  1.2137  0.3303
 6433SOL     OW30934   3.220   2.229   8.339 -0.0324  0.4076 -0.0829
 6433SOL    HW130935   3.179   2.145   8.359  1.9317 -1.0057 -1.9982
 6433SOL    HW230936   3.172   2.288   8.397 -1.7562 -0.6342 -0.4435
 6434SOL     OW30937   0.209   3.927   1.367  0.6462 -0.0855  0.1661
 6434SOL    HW130938   0.305   3.931   1.360  0.5266  0.2213 -1.3201
 6434SOL    HW230939   0.176   3.953   1.280  0.3344 -2.2739 -0.3674
 6435SOL     OW30940   4.025   2.441   1.584 -0.3660 -0.4029 -0.0725
 6435SOL    HW130941   4.074   2.450   1.666 -1.2841 -3.4422  0.8136
 6435SOL    HW230942   3.952   2.385   1.611 -1.1385  1.2974  1.3812
 6436SOL     OW30943   1.637   1.716   3.459 -0.2129  0.4081  0.2294
 6436SOL    HW130944   1.710   1.701   3.399  0.4004  3.2482  0.2655
 6436SOL    HW230945   1.589   1.633   3.457 -0.2031  0.4011  0.3095
 6437SOL     OW30946   0.389   3.642   9.245  0.1095 -0.1331 -0.2214
 6437SOL    HW130947   0.414   3.728   9.211 -0.8567  0.0589 -0.4704
 6437SOL    HW230948   0.303   3.643   9.202 -0.3881  2.1659  0.8461
 6438SOL     OW30949   1.967   0.645   5.845 -0.2071 -0.2353 -0.5832
 6438SOL    HW130950   1.932   0.616   5.929  1.2168  0.6392  0.3094
 6438SOL    HW230951   1.888   0.639   5.792 -0.7263  2.0207 -0.0521
 6439SOL     OW30952   2.787   1.099   4.930 -0.3666  0.1467  0.3459
 6439SOL    HW130953   2.730   1.143   4.992 -2.6728  0.1681 -1.7979
 6439SOL    HW230954   2.869   1.129   4.970 -0.3875  0.6608 -0.0010
 6440SOL     OW30955   3.610   0.415   7.255 -0.7313  0.3625 -0.4229
 6440SOL    HW130956   3.679   0.452   7.201  0.2127 -0.2906  0.3448
 6440SOL    HW230957   3.655   0.336   7.285  0.2249  1.0497 -0.0728
 6441SOL     OW30958   2.665   1.310   2.415 -0.3661 -0.3460 -0.0754
 6441SOL    HW130959   2.582   1.318   2.461 -0.8136  0.3185 -0.9934
 6441SOL    HW230960   2.714   1.363   2.478 -3.1765  1.2144  0.7882
 6442SOL     OW30961   2.741   4.702  16.197 -0.2147 -0.0084 -1.1107
 6442SOL    HW130962   2.731   4.727  16.106 -0.7267 -0.7276 -1.2462
 6442SOL    HW230963   2.707   4.613  16.205  0.4207 -0.0056  2.0101
 6443SOL     OW30964   2.694   4.658   7.693 -0.5008  0.8324 -0.2340
 6443SOL    HW130965   2.696   0.014   7.716 -1.5388  0.9887 -0.7508
 6443SOL    HW230966   2.671   4.663   7.600  2.5261 -0.9519 -1.0627
 6444SOL     OW30967   4.295   0.436   3.570  0.3000  0.1311  0.0688
 6444SOL    HW130968   4.382   0.459   3.538  0.4360 -0.5505 -0.0393
 6444SOL    HW230969   4.253   0.443   3.484 -0.6467  0.4917  0.5525
 6445SOL     OW30970   3.682   1.489   5.984  0.0556  0.8658  0.3978
 6445SOL    HW130971   3.735   1.466   6.060  0.2378 -1.8390 -0.5577
 6445SOL    HW230972   3.616   1.421   5.998  0.5966  0.8058  2.6314
 6446SOL     OW30973   1.272   4.605  11.645 -0.0549 -0.4530 -0.5170
 6446SOL    HW130974   1.269   4.511  11.627  2.0086 -0.5539 -0.3413
 6446SOL    HW230975   1.191   4.628  11.691 -1.1163  0.0871 -2.6860
 6447SOL     OW30976   2.410   1.062   4.304 -0.6569  0.0373 -0.7596
 6447SOL    HW130977   2.322   1.101   4.303 -0.9535 -0.6186 -0.0558
 6447SOL    HW230978   2.419   1.010   4.224  2.9439 -0.1571 -0.1967
 6448SOL     OW30979   1.924   1.688   5.369  0.1506  0.0322  0.3363
 6448SOL    HW130980   1.837   1.694   5.329  1.2218 -2.4766 -2.3493
 6448SOL    HW230981   1.924   1.592   5.372  0.8381  0.0812  2.0889
 6449SOL     OW30982   4.683   4.391  10.262 -0.7578 -0.1881 -0.2318
 6449SOL    HW130983   0.032   4.403  10.223 -0.2064 -0.5978  0.8552
 6449SOL    HW230984   4.659   4.305  10.227 -1.6851  0.5773 -1.4421
 6450SOL     OW30985   0.409   2.623  15.539 -0.2395  0.2723  0.0188
 6450SOL    HW130986   0.388   2.709  15.502  1.5747  0.5842 -0.2588
 6450SOL    HW230987   0.445   2.662  15.619 -1.4301 -0.3723  0.8741
 6451SOL     OW30988   3.983   3.712   4.711  0.2090 -0.4248 -0.0899
 6451SOL    HW130989   3.957   3.745   4.798 -0.1452  0.9669 -0.7234
 6451SOL    HW230990   3.962   3.621   4.732  2.0137 -0.9548 -0.6170
 6452SOL     OW30991   3.935   1.442  11.656  0.2153 -0.0821  0.1729
 6452SOL    HW130992   3.908   1.429  11.747 -3.6516  0.7127 -0.8410
 6452SOL    HW230993   3.853   1.469  11.615  0.7126  1.0315 -0.0983
 6453SOL     OW30994   4.665   3.315  12.734  0.4726 -0.6421  0.3480
 6453SOL    HW130995   4.585   3.321  12.786  0.4238  1.3947  0.0496
 6453SOL    HW230996   4.731   3.275  12.790  2.2523  0.3390 -1.0370
 6454SOL     OW30997   2.532   1.917  14.388  0.5932  0.1230  0.1232
 6454SOL    HW130998   2.623   1.947  14.386  0.2193  1.2293 -0.4083
 6454SOL    HW230999   2.508   1.896  14.297 -2.2453 -2.4391  1.4734
 6455SOL     OW31000   4.678   1.700   8.427 -0.0755 -0.2311 -0.0358
 6455SOL    HW131001   4.641   1.785   8.449  2.0107 -0.1777  3.1934
 6455SOL    HW231002   4.679   1.708   8.331 -0.8469 -4.0987 -0.3768
 6456SOL     OW31003   0.479   2.598   1.788  0.1952 -0.2909  0.4631
 6456SOL    HW131004   0.461   2.542   1.864 -1.6448 -0.6066 -0.2060
 6456SOL    HW231005   0.552   2.655   1.810 -0.2717  0.4065  0.2135
 6457SOL     OW31006   1.830   4.397   3.737 -0.1977 -0.4377  0.8210
 6457SOL    HW131007   1.896   4.465   3.726 -1.5261  0.5707 -1.0020
 6457SOL    HW231008   1.845   4.379   3.829  1.4071  0.8211  0.8047
 6458SOL     OW31009   2.386   0.871  10.356  0.5189 -0.1395 -0.0961
 6458SOL    HW131010   2.370   0.917  10.273  1.2772  1.0712  0.4394
 6458SOL    HW231011   2.368   0.940  10.419  0.8530 -0.1109 -0.0340
 6459SOL     OW31012   4.034   3.698   3.171  0.6930  0.2638  0.0310
 6459SOL    HW131013   4.030   3.721   3.264 -1.0633 -0.8210  0.2244
 6459SOL    HW231014   4.052   3.604   3.179 -2.2562 -0.2037  1.3116
 6460SOL     OW31015   2.132   3.410   6.404 -0.3186 -0.7027  0.3459
 6460SOL    HW131016   2.086   3.353   6.466  1.5547 -2.9207 -0.3092
 6460SOL    HW231017   2.098   3.499   6.411 -1.2818 -0.8768 -2.4006
 6461SOL     OW31018   1.329   3.021   5.879 -0.3072  0.4886  0.3104
 6461SOL    HW131019   1.270   3.035   5.953 -1.8990 -0.3665 -0.7944
 6461SOL    HW231020   1.317   2.927   5.867  2.4366  0.1271  0.2865
 6462SOL     OW31021   0.038   3.961  11.839  0.1320 -0.0865  0.2127
 6462SOL    HW131022   4.697   3.917  11.804 -0.0377 -0.5371  1.1614
 6462SOL    HW231023   0.080   3.999  11.762  0.5374 -2.1848 -0.5980
 6463SOL     OW31024   3.550   2.567   3.286  0.0747  0.3208 -0.1961
 6463SOL    HW131025   3.544   2.504   3.358 -2.6905  0.5478 -0.2241
 6463SOL    HW231026   3.642   2.589   3.298  0.5293 -1.3594 -0.6206
 6464SOL     OW31027   3.722   1.174   3.039  0.4984  0.1680  0.0818
 6464SOL    HW131028   3.816   1.161   3.027  0.2036  0.7932 -2.8327
 6464SOL    HW231029   3.716   1.135   3.127 -2.0382  0.9953  0.2783
 6465SOL     OW31030   0.598   2.681   7.779 -0.4244 -0.6610 -0.2407
 6465SOL    HW131031   0.537   2.706   7.849  0.0959  0.0212 -0.0383
 6465SOL    HW231032   0.664   2.637   7.831  1.5724  0.0906 -2.1601
 6466SOL     OW31033   2.548   0.246   5.612  0.1465  0.3392 -0.7794
 6466SOL    HW131034   2.471   0.194   5.635  0.8698 -0.0375  0.7894
 6466SOL    HW231035   2.619   0.199   5.657 -0.7463 -0.6561 -0.4238
 6467SOL     OW31036   0.336   0.670  11.074  0.5817  0.2492  0.3796
 6467SOL    HW131037   0.414   0.619  11.097  0.8249  0.0275 -0.8896
 6467SOL    HW231038   0.320   0.734  11.143  1.4846  0.8818  0.0059
 6468SOL     OW31039   2.308   3.390   3.786 -0.4022  0.3892 -0.2515
 6468SOL    HW131040   2.231   3.340   3.812 -2.0589  3.0818  0.0272
 6468SOL    HW231041   2.353   3.320   3.738  1.5130  1.3101  0.1989
 6469SOL     OW31042   3.139   3.082   0.716 -0.1281 -0.3732  0.1142
 6469SOL    HW131043   3.224   3.047   0.744 -0.8696 -1.5547  0.8997
 6469SOL    HW231044   3.111   3.009   0.660  1.9498 -1.3859  0.3927
 6470SOL     OW31045   4.345   1.418   4.268  0.5607  0.0807  0.4644
 6470SOL    HW131046   4.321   1.329   4.241 -0.1101 -0.1072  1.6529
 6470SOL    HW231047   4.340   1.463   4.184  1.6485 -1.3294 -0.3587
 6471SOL     OW31048   0.363   1.656  10.261 -0.1816 -0.0036  0.1582
 6471SOL    HW131049   0.375   1.743  10.224  2.7404 -1.2299 -1.7377
 6471SOL    HW231050   0.295   1.622  10.202 -0.8052  2.3217 -0.4843
 6472SOL     OW31051   2.355   1.583   4.234  0.7275 -0.4803 -0.0542
 6472SOL    HW131052   2.264   1.576   4.264  0.0778 -0.5540 -2.0609
 6472SOL    HW231053   2.391   1.526   4.302 -0.3141 -0.3070  0.6531
 6473SOL     OW31054   2.143   3.598   2.618 -0.3532 -0.0498 -0.0245
 6473SOL    HW131055   2.137   3.689   2.589  2.1199 -0.4164 -1.7272
 6473SOL    HW231056   2.212   3.612   2.684 -0.2071 -0.2253 -0.1383
 6474SOL     OW31057   3.189   4.419   6.974  0.1141 -0.7011  0.8051
 6474SOL    HW131058   3.190   4.420   6.879 -0.9073  1.2910  0.8127
 6474SOL    HW231059   3.143   4.499   7.001  1.8514  0.4872  0.2800
 6475SOL     OW31060   1.127   1.929  17.437  0.0236  0.0588  0.2703
 6475SOL    HW131061   1.187   1.968  17.500  1.6303 -0.2037 -1.0817
 6475SOL    HW231062   1.175   1.930  17.354  1.4952  1.4235  1.1296
 6476SOL     OW31063   2.598   0.882   7.243 -0.6367 -0.4008 -0.2238
 6476SOL    HW131064   2.536   0.934   7.191 -1.6400  0.4532  1.7919
 6476SOL    HW231065   2.545   0.825   7.299 -0.1788  0.1629  0.7892
 6477SOL     OW31066   2.724   1.490   5.977 -0.5991  0.0032  0.3749
 6477SOL    HW131067   2.642   1.522   6.015 -0.0825  0.8457  0.7768
 6477SOL    HW231068   2.786   1.550   6.020  0.9087 -0.5109 -1.0809
 6478SOL     OW31069   3.916   1.464  16.801  0.0696  0.1579 -0.3861
 6478SOL    HW131070   3.891   1.552  16.829  2.8620  0.4710  1.1668
 6478SOL    HW231071   3.884   1.407  16.871  1.9584  1.9859  1.9892
 6479SOL     OW31072   3.175   2.710   6.544 -0.1966  0.2608 -0.2466
 6479SOL    HW131073   3.259   2.750   6.523  0.0733 -0.1891 -0.0340
 6479SOL    HW231074   3.160   2.746   6.631  0.1881 -1.9329  0.7298
 6480SOL     OW31075   0.460   4.036  14.393 -0.0644  0.3029 -0.4955
 6480SOL    HW131076   0.531   3.977  14.418  0.9918  2.8217  2.4738
 6480SOL    HW231077   0.499   4.083  14.319  0.8630  0.3922  0.0474
 6481SOL     OW31078   0.362   1.747   0.390  0.1347  0.3597  0.4979
 6481SOL    HW131079   0.281   1.721   0.345 -1.4184  1.7475  2.4776
 6481SOL    HW231080   0.416   1.670   0.372  0.7469  0.9609 -0.1890
 6482SOL     OW31081   0.946   0.961   7.660 -0.3755  0.4387  0.1395
 6482SOL    HW131082   0.872   0.998   7.611 -0.8085  1.6186  1.6719
 6482SOL    HW231083   1.010   1.030   7.645 -0.3398  0.0116 -1.5868
 6483SOL     OW31084   4.292   4.044  13.673 -0.2085  0.3511 -0.0835
 6483SOL    HW131085   4.303   4.059  13.579  0.4020  0.9445  0.0878
 6483SOL    HW231086   4.345   4.110  13.717 -1.6253  1.3616  0.1174
 6484SOL     OW31087   1.805   1.950   6.956 -0.0114 -0.0685  0.2236
 6484SOL    HW131088   1.759   1.970   7.038  1.0002 -0.6757  0.9469
 6484SOL    HW231089   1.732   1.927   6.899  1.2116  0.9805 -1.7519
 6485SOL     OW31090   0.560   2.862  17.643  0.0455  0.3276  0.2408
 6485SOL    HW131091   0.606   2.817  17.715 -0.2580  0.7099  0.6694
 6485SOL    HW231092   0.473   2.867  17.683  0.4901  1.1110  1.1296
 6486SOL     OW31093   2.087   0.290   7.203 -0.0577 -0.1378  0.2609
 6486SOL    HW131094   2.103   0.196   7.196 -2.6433 -0.3720 -2.1753
 6486SOL    HW231095   2.139   0.305   7.282 -0.7082  0.2460  0.6106
 6487SOL     OW31096   0.835   0.511   0.671 -0.1182  0.4084  0.1331
 6487SOL    HW131097   0.833   0.463   0.754 -0.7992  0.8250  0.3592
 6487SOL    HW231098   0.754   0.478   0.633 -0.6143  0.9743  0.6915
 6488SOL     OW31099   1.611   2.026  14.243  0.4864  0.2949 -0.1919
 6488SOL    HW131100   1.639   2.117  14.254  0.9016  0.2753 -1.0759
 6488SOL    HW231101   1.535   2.030  14.186  0.8391 -1.3139 -0.7837
 6489SOL     OW31102   3.692   2.591   6.167 -0.2508  0.3441 -0.3708
 6489SOL    HW131103   3.635   2.574   6.242  0.0030 -1.3239 -0.5356
 6489SOL    HW231104   3.629   2.631   6.108 -0.3541 -2.2614 -2.0418
 6490SOL     OW31105   3.274   0.416   1.462  0.6720 -0.5247 -0.8122
 6490SOL    HW131106   3.189   0.382   1.432 -0.3683  1.0363  0.3983
 6490SOL    HW231107   3.287   0.488   1.400 -1.3462 -1.4201 -2.2767
 6491SOL     OW31108   2.682   0.302   7.283 -0.6165 -0.1384 -0.1227
 6491SOL    HW131109   2.641   0.227   7.241 -1.8405  0.1723  0.5212
 6491SOL    HW231110   2.657   0.371   7.222  2.8449  0.3279 -0.9996
 6492SOL     OW31111   4.476   3.346   7.280 -0.9624  0.0675 -0.0120
 6492SOL    HW131112   4.423   3.378   7.353 -0.6030 -2.1066  1.1808
 6492SOL    HW231113   4.514   3.262   7.304  1.5803  1.7468  1.7650
 6493SOL     OW31114   4.166   0.230   3.356  0.5857  0.5218 -0.4032
 6493SOL    HW131115   4.087   0.178   3.343  0.2281  1.1831 -0.8411
 6493SOL    HW231116   4.130   0.311   3.391  1.1207  0.2940  0.6774
 6494SOL     OW31117   0.761   3.777  13.001 -0.5579 -0.0396 -0.0154
 6494SOL    HW131118   0.713   3.816  12.928 -0.3726  0.2251  0.0067
 6494SOL    HW231119   0.704   3.816  13.068  0.6157 -1.2389  1.6897
 6495SOL     OW31120   2.888   3.290  10.317 -0.3696 -0.6109  0.4074
 6495SOL    HW131121   2.901   3.201  10.349  2.1243  0.2848  1.8480
 6495SOL    HW231122   2.902   3.337  10.399 -2.0893 -0.6283  0.7297
 6496SOL     OW31123   2.471   4.321  10.387 -0.2636  0.0461 -0.3843
 6496SOL    HW131124   2.378   4.298  10.385 -0.6922  1.6777  0.5472
 6496SOL    HW231125   2.480   4.346  10.479 -0.2820 -0.9540 -0.1145
 6497SOL     OW31126   1.162   2.957   3.819 -0.0718 -0.3519  0.2758
 6497SOL    HW131127   1.166   3.051   3.801 -3.1755 -0.1007  1.0047
 6497SOL    HW231128   1.231   2.917   3.766  1.3204 -0.4523  2.1730
 6498SOL     OW31129   1.139   0.365  14.171 -0.1665  0.0537 -0.3371
 6498SOL    HW131130   1.177   0.290  14.126  0.3917 -0.1494  0.4643
 6498SOL    HW231131   1.054   0.371  14.127  0.3930 -0.5176 -1.4565
 6499SOL     OW31132   1.187   2.886   4.178 -0.2975 -0.3795 -0.0470
 6499SOL    HW131133   1.143   2.970   4.186 -1.7960 -1.2597  0.8894
 6499SOL    HW231134   1.133   2.848   4.109  1.8140  0.1411 -1.9882
 6500SOL     OW31135   1.530   2.561  14.074  0.3799  0.0888  0.6616
 6500SOL    HW131136   1.455   2.512  14.109  1.5544 -0.4662  2.4180
 6500SOL    HW231137   1.488   2.646  14.086  1.3989  0.8059 -0.8684
 6501SOL     OW31138   4.108   2.175   8.225  0.0478  0.4946 -0.4245
 6501SOL    HW131139   4.143   2.134   8.146 -1.7067 -1.3448 -0.2299
 6501SOL    HW231140   4.181   2.231   8.252 -0.1253  1.8383 -2.7344
 6502SOL     OW31141   1.656   1.833   5.508  0.0349  0.1115 -0.3030
 6502SOL    HW131142   1.575   1.797   5.544  1.0590 -1.5456  0.3089
 6502SOL    HW231143   1.651   1.794   5.421  2.0233 -0.3417 -0.2127
 6503SOL     OW31144   4.252   1.008   2.339 -0.9882 -0.7323  0.0268
 6503SOL    HW131145   4.208   1.007   2.254 -1.1285  1.4758  0.0729
 6503SOL    HW231146   4.220   1.089   2.378  2.5280  1.6377 -2.0128
 6504SOL     OW31147   4.274   4.183   3.354  0.4047  0.0660 -0.6062
 6504SOL    HW131148   4.182   4.200   3.372  0.0424 -1.7221 -0.7355
 6504SOL    HW231149   4.292   4.121   3.425  0.0440  1.2499  0.5219
 6505SOL     OW31150   3.090   0.924  12.742  0.0140 -0.5065 -0.0405
 6505SOL    HW131151   3.117   0.856  12.680  0.9833  1.1991 -1.4857
 6505SOL    HW231152   3.160   0.926  12.806  0.8470 -1.0727 -0.9322
 6506SOL     OW31153   0.657   2.800   0.604  0.0266 -0.3541 -0.1592
 6506SOL    HW131154   0.751   2.812   0.617  0.1241  2.2848 -3.3058
 6506SOL    HW231155   0.655   2.709   0.634 -0.3924 -0.4528 -0.4989
 6507SOL     OW31156   0.653   4.288   5.814  0.1659 -0.6841  0.1993
 6507SOL    HW131157   0.736   4.333   5.800 -0.3259  0.3273  0.6086
 6507SOL    HW231158   0.645   4.241   5.730 -0.5978  0.2670 -0.2536
 6508SOL     OW31159   1.413   2.865   3.010  0.2017 -0.7731  0.6638
 6508SOL    HW131160   1.498   2.855   2.969  0.6958  0.8832  1.2550
 6508SOL    HW231161   1.407   2.961   3.001  2.3059 -0.6985  0.2176
 6509SOL     OW31162   3.335   2.816   8.355  0.0526 -0.2316 -0.9878
 6509SOL    HW131163   3.388   2.873   8.411 -0.5327 -1.1521  0.5038
 6509SOL    HW231164   3.256   2.866   8.333  1.9894  2.2100 -2.3698
 6510SOL     OW31165   1.939   0.357   7.623 -0.0583 -0.6684 -0.4440
 6510SOL    HW131166   1.852   0.376   7.658  0.5305  3.3086 -1.1241
 6510SOL    HW231167   1.941   0.417   7.549 -0.8907  0.3781  0.3800
 6511SOL     OW31168   3.195   3.245   5.775 -0.1071  0.4797 -0.5087
 6511SOL    HW131169   3.121   3.217   5.721 -2.1556 -0.2361  2.6538
 6511SOL    HW231170   3.262   3.182   5.749  0.1191  0.4930  0.0422
 6512SOL     OW31171   1.444   2.450   5.898 -0.1449 -0.2026  0.2561
 6512SOL    HW131172   1.434   2.364   5.855 -3.5849  0.1792  0.3340
 6512SOL    HW231173   1.539   2.453   5.914 -0.0030 -1.3770 -0.3175
 6513SOL     OW31174   3.000   0.346   3.137 -0.0254  0.2652 -0.1885
 6513SOL    HW131175   3.002   0.441   3.139 -1.8255  0.3337 -2.5448
 6513SOL    HW231176   2.927   0.330   3.196 -0.9356 -0.1029 -1.4203
 6514SOL     OW31177   3.149   3.128   6.828 -0.1325  0.1501  0.6868
 6514SOL    HW131178   3.107   3.168   6.904 -0.9301  1.6839 -0.5878
 6514SOL    HW231179   3.204   3.201   6.800 -1.4604 -0.4382 -3.3794
 6515SOL     OW31180   1.760   2.318   5.578 -0.1990 -0.2249  0.2820
 6515SOL    HW131181   1.786   2.341   5.668  2.0944 -1.4210 -0.0607
 6515SOL    HW231182   1.685   2.259   5.586  0.2052 -0.8463 -0.4702
 6516SOL     OW31183   3.011   4.544   7.616 -0.5915  0.5478 -0.1420
 6516SOL    HW131184   2.929   4.588   7.637  0.4414  0.6825  3.7624
 6516SOL    HW231185   2.981   4.490   7.543 -0.5063 -0.4250  0.5358
 6517SOL     OW31186   3.518   3.487   0.314  0.2664  0.1134  0.2805
 6517SOL    HW131187   3.531   3.395   0.289  0.4817  0.5791 -1.2854
 6517SOL    HW231188   3.444   3.515   0.261  0.9246  2.5587  0.6541
 6518SOL     OW31189   4.722   1.387   7.423 -0.1957  0.1800  0.3042
 6518SOL    HW131190   4.652   1.336   7.463 -0.8121 -0.0081 -0.9886
 6518SOL    HW231191   4.734   1.351   7.335 -0.3088 -0.7088  0.6573
 6519SOL     OW31192   0.817   1.027   2.267  0.2189  0.8966  0.0354
 6519SOL    HW131193   0.768   1.052   2.346 -2.1774 -4.9290  0.3709
 6519SOL    HW231194   0.769   0.950   2.239  1.8125 -0.0447 -0.0911
 6520SOL     OW31195   0.521   3.151   5.929  0.0773 -0.1921  0.3503
 6520SOL    HW131196   0.436   3.155   5.884  0.0973 -1.5699  0.2021
 6520SOL    HW231197   0.504   3.084   5.995 -1.1587  0.5489  0.7960
 6521SOL     OW31198   4.677   1.327  11.804  0.5518 -0.1138 -0.0020
 6521SOL    HW131199   4.689   1.241  11.843 -0.8346 -0.7048 -0.8570
 6521SOL    HW231200   4.631   1.376  11.872 -0.2125  1.6805 -1.7932
 6522SOL     OW31201   3.024   4.036   5.961  0.2257  0.8012 -0.4487
 6522SOL    HW131202   3.005   4.128   5.943 -1.9002  0.1243 -1.5554
 6522SOL    HW231203   3.117   4.041   5.937  0.3263 -1.7914 -0.6135
 6523SOL     OW31204   3.432   0.934   4.728  0.2168  0.0131  0.0667
 6523SOL    HW131205   3.472   0.851   4.751  0.8535 -0.0646 -1.3022
 6523SOL    HW231206   3.355   0.922   4.784  0.6510 -0.9211  0.4533
 6524SOL     OW31207   1.322   4.553   4.543 -0.3865 -0.0527  0.0780
 6524SOL    HW131208   1.399   4.547   4.486  0.4599  1.3140  1.1067
 6524SOL    HW231209   1.372   4.593   4.614  1.1076 -0.3144 -0.8306
 6525SOL     OW31210   4.616   2.034   9.018 -0.1141 -0.3699 -0.6196
 6525SOL    HW131211   4.677   2.042   8.945  1.3044  2.1002  0.8159
 6525SOL    HW231212   4.677   1.999   9.083 -2.0536  0.1723  1.4848
 6526SOL     OW31213   0.596   3.202   3.065  0.3541 -0.2101 -0.4977
 6526SOL    HW131214   0.686   3.224   3.040  0.9894 -2.0018  0.2759
 6526SOL    HW231215   0.590   3.109   3.043 -0.1012 -0.0670 -0.9787
 6527SOL     OW31216   1.481   4.504   6.473 -0.0044 -0.0116 -0.0078
 6527SOL    HW131217   1.519   4.489   6.387 -0.8002  0.0633 -0.3729
 6527SOL    HW231218   1.445   4.419   6.499  0.1795  0.3933  1.5779
 6528SOL     OW31219   3.893   1.059   3.378 -0.0222 -0.3820 -0.3435
 6528SOL    HW131220   3.944   1.004   3.318  1.2460  0.3240  0.0977
 6528SOL    HW231221   3.813   1.007   3.380  0.1519 -0.6972 -1.1444
 6529SOL     OW31222   2.714   4.069  15.514  0.5909  0.2522 -0.7474
 6529SOL    HW131223   2.713   4.117  15.431 -1.4441 -1.3968 -1.6519
 6529SOL    HW231224   2.650   4.107  15.573  1.2957  0.0279  0.1696
 6530SOL     OW31225   2.865   4.064   8.975 -0.4009 -0.8927  0.0196
 6530SOL    HW131226   2.934   4.097   8.919  0.3927  0.4301  1.7835
 6530SOL    HW231227   2.896   4.093   9.061 -0.0578 -3.8561  0.8986
 6531SOL     OW31228   1.712   3.454  13.355 -0.5838  0.3002 -0.4358
 6531SOL    HW131229   1.722   3.373  13.305  0.5718  0.3183 -0.2316
 6531SOL    HW231230   1.752   3.415  13.433  0.2294 -0.3825 -1.2020
 6532SOL     OW31231   3.765   2.242   3.426  0.1918 -0.2786 -0.5275
 6532SOL    HW131232   3.852   2.205   3.408 -0.4911 -1.6808 -0.9188
 6532SOL    HW231233   3.708   2.169   3.404  1.4283 -1.0771 -1.0882
 6533SOL     OW31234   3.245   4.662   7.534 -0.7366 -0.0827 -0.5773
 6533SOL    HW131235   3.164   4.630   7.574 -0.8411  0.1444 -0.6085
 6533SOL    HW231236   3.229   0.018   7.553  1.2157 -0.0259  0.7469
 6534SOL     OW31237   3.462   4.276   9.301 -0.6358 -0.8267  0.2126
 6534SOL    HW131238   3.504   4.274   9.215 -1.6843 -2.2752 -0.2515
 6534SOL    HW231239   3.411   4.195   9.296 -0.1767 -1.1643  0.9824
 6535SOL     OW31240   4.173   1.795   6.663  0.1268 -0.2053 -0.3853
 6535SOL    HW131241   4.267   1.778   6.669 -0.4838 -2.7676  1.9533
 6535SOL    HW231242   4.168   1.888   6.683  2.1945  0.0128 -0.8944
 6536SOL     OW31243   0.735   1.722   1.837 -0.2918  0.3167 -0.1897
 6536SOL    HW131244   0.789   1.682   1.904  0.0367  2.0166  0.5724
 6536SOL    HW231245   0.750   1.816   1.848  2.3821  0.0086 -1.3345
 6537SOL     OW31246   1.700   1.452  13.529  0.1446  0.1604  0.3103
 6537SOL    HW131247   1.757   1.425  13.457 -0.9422  0.5947 -0.7087
 6537SOL    HW231248   1.756   1.492  13.596 -0.7127 -1.3512  1.9355
 6538SOL     OW31249   1.040   1.042   5.389  0.7557  0.3407  0.7021
 6538SOL    HW131250   1.089   1.073   5.313 -0.4402 -0.3436 -0.3548
 6538SOL    HW231251   0.966   1.102   5.395 -0.6241 -1.1974 -0.8509
 6539SOL     OW31252   3.185   1.000  14.627 -0.0722  0.1401 -0.0538
 6539SOL    HW131253   3.225   1.053  14.696 -0.4872 -0.1101  0.3846
 6539SOL    HW231254   3.253   0.933  14.627 -2.2241 -2.0316  0.4966
 6540SOL     OW31255   3.644   1.184   0.741 -0.5142 -0.2789  0.3958
 6540SOL    HW131256   3.697   1.164   0.818  0.7366 -0.8118 -0.5967
 6540SOL    HW231257   3.710   1.171   0.673 -0.8166  0.5985 -0.0589
 6541SOL     OW31258   2.093   4.436   6.478  1.0039  0.4826  0.2863
 6541SOL    HW131259   2.006   4.397   6.464  0.6278  0.6654  2.1363
 6541SOL    HW231260   2.148   4.371   6.520  0.8652 -1.0259 -1.8308
 6542SOL     OW31261   2.449   3.239   0.003  0.6643  0.2262 -0.4395
 6542SOL    HW131262   2.378   3.176  17.736  1.0375 -0.4543  0.9231
 6542SOL    HW231263   2.399   3.318   0.024  0.2733 -0.5715  1.6567
 6543SOL     OW31264   3.103   1.367  14.797  0.4071  0.1443  0.2549
 6543SOL    HW131265   3.193   1.399  14.799  0.3534  0.1699  2.4246
 6543SOL    HW231266   3.076   1.334  14.712  1.9887  1.2828 -0.7051
 6544SOL     OW31267   0.979   3.435   6.895 -0.5637  0.0829 -0.3005
 6544SOL    HW131268   0.979   3.530   6.904  2.2975  0.0955 -0.5112
 6544SOL    HW231269   1.034   3.410   6.969  1.7523 -1.2238 -2.4688
 6545SOL     OW31270   3.803   2.116  11.976 -0.0598 -0.0964  0.4293
 6545SOL    HW131271   3.872   2.054  11.957 -0.9310 -1.6254  2.3005
 6545SOL    HW231272   3.806   2.165  11.893 -0.7857 -2.0645 -0.7429
 6546SOL     OW31273   2.631   3.160   9.155 -0.2238 -0.3028  0.1086
 6546SOL    HW131274   2.660   3.248   9.130 -0.3160 -0.5806 -0.9688
 6546SOL    HW231275   2.629   3.166   9.250 -2.3332  1.2457 -0.0244
 6547SOL     OW31276   4.258   3.733   2.971  0.4878  0.5320  0.1565
 6547SOL    HW131277   4.171   3.726   3.011  0.7559 -1.3096  0.4382
 6547SOL    HW231278   4.311   3.716   3.048 -1.7062 -1.1907  1.2956
 6548SOL     OW31279   2.214   2.420   9.998  0.4017 -0.3525  0.4519
 6548SOL    HW131280   2.157   2.424   9.922 -0.0925  0.2130  0.8505
 6548SOL    HW231281   2.145   2.435  10.063  1.3550  1.0189  1.1424
 6549SOL     OW31282   3.578   0.222   6.867 -0.7582 -0.1621  0.8385
 6549SOL    HW131283   3.490   0.251   6.893 -2.1427 -2.6863 -1.1264
 6549SOL    HW231284   3.601   0.148   6.924 -1.9226  0.2495  1.8526
 6550SOL     OW31285   2.605   3.280   2.116  0.3532 -0.1447 -0.3060
 6550SOL    HW131286   2.590   3.198   2.163  2.8932  0.7186  1.9940
 6550SOL    HW231287   2.584   3.270   2.023 -0.9772 -1.4219  0.1268
 6551SOL     OW31288   0.447   1.582   0.927 -0.1802 -0.4538  0.4617
 6551SOL    HW131289   0.366   1.541   0.897  0.3222  0.6174 -2.3360
 6551SOL    HW231290   0.475   1.632   0.851 -1.3328 -0.3337  0.1231
 6552SOL     OW31291   0.473   3.005   4.430  0.6789  0.1118  0.0548
 6552SOL    HW131292   0.467   3.011   4.335 -1.3809  1.8833  0.3071
 6552SOL    HW231293   0.510   2.918   4.445  1.4218  0.4690  0.3151
 6553SOL     OW31294   3.815   2.063  15.916  0.0886  0.5874 -0.1293
 6553SOL    HW131295   3.772   1.978  15.917  0.4252  0.4099 -0.5937
 6553SOL    HW231296   3.892   2.040  15.863  1.6550  1.6606  1.6990
 6554SOL     OW31297   2.093   1.380   2.872 -0.9966  0.2090  0.9423
 6554SOL    HW131298   2.151   1.412   2.802  2.3356  0.9104  4.0397
 6554SOL    HW231299   2.122   1.289   2.876 -0.3248  0.3499 -0.5350
 6555SOL     OW31300   0.438   2.940  11.860 -0.3324 -0.1042 -0.2519
 6555SOL    HW131301   0.433   2.884  11.783  1.0302 -1.1193  0.4200
 6555SOL    HW231302   0.512   2.896  11.901 -0.6557 -0.1280  0.3113
 6556SOL     OW31303   2.863   1.796   8.313  0.0248 -0.1413 -0.3192
 6556SOL    HW131304   2.908   1.715   8.337  1.4329  1.0110  0.9173
 6556SOL    HW231305   2.826   1.773   8.228 -1.9261  1.2290  0.1614
 6557SOL     OW31306   0.830   0.528  14.693 -0.1725  0.4290 -0.7744
 6557SOL    HW131307   0.870   0.520  14.606  1.2841  3.2802 -0.3914
 6557SOL    HW231308   0.741   0.537  14.660 -0.3235 -0.0811 -0.5057
 6558SOL     OW31309   3.464   2.942   7.897 -0.1014 -0.0562 -0.0485
 6558SOL    HW131310   3.518   2.930   7.818 -1.8575 -0.8091 -1.1269
 6558SOL    HW231311   3.478   2.857   7.939  0.1503 -1.0130 -2.0419
 6559SOL     OW31312   3.060   4.522   8.570 -0.2658 -0.3827  0.0377
 6559SOL    HW131313   3.089   4.612   8.582  0.0433 -0.6888  1.6716
 6559SOL    HW231314   3.134   4.490   8.518  1.1612  1.3885  0.9777
 6560SOL     OW31315   3.868   4.169  13.142  0.5361 -0.8903 -0.0371
 6560SOL    HW131316   3.868   4.155  13.047 -1.2496 -0.4113 -0.1109
 6560SOL    HW231317   3.784   4.215  13.141  0.2178 -1.3976  2.0189
 6561SOL     OW31318   3.907   1.523  12.811 -0.3177 -0.2522  0.9210
 6561SOL    HW131319   3.843   1.592  12.794  0.4885  0.4587  0.7423
 6561SOL    HW231320   3.914   1.491  12.721  1.5741  1.2789  0.5103
 6562SOL     OW31321   1.132   2.226   7.810 -0.6875 -0.2414  0.2000
 6562SOL    HW131322   1.223   2.254   7.824 -0.3944 -0.0168 -2.1166
 6562SOL    HW231323   1.103   2.236   7.901 -0.5218  2.7916 -0.0701
 6563SOL     OW31324   0.255   3.386   4.281  0.0644 -0.6411  0.2426
 6563SOL    HW131325   0.202   3.418   4.354 -1.4527 -0.7081 -0.8502
 6563SOL    HW231326   0.210   3.304   4.261 -1.3039  0.0499  0.4804
 6564SOL     OW31327   0.288   2.123   5.067 -0.1886  0.6077 -0.1520
 6564SOL    HW131328   0.198   2.133   5.099  0.8619  0.4381  2.7944
 6564SOL    HW231329   0.272   2.062   4.995 -1.5815  0.6616  0.1115
 6565SOL     OW31330   0.837   4.269   2.018 -0.7694 -0.3771  0.8965
 6565SOL    HW131331   0.808   4.303   2.103  0.6708  2.0410  0.4477
 6565SOL    HW231332   0.792   4.330   1.959 -0.6306 -1.5426 -0.3970
 6566SOL     OW31333   3.544   0.053   5.461  0.1668  0.2899 -0.0506
 6566SOL    HW131334   3.499   0.077   5.381  0.3338  2.5874  0.5648
 6566SOL    HW231335   3.474   4.734   5.496 -0.8021  1.6469  0.1371
 6567SOL     OW31336   2.459   1.139   9.366  0.8448  0.2337  0.5463
 6567SOL    HW131337   2.544   1.115   9.404  0.5774  0.8429  1.5373
 6567SOL    HW231338   2.393   1.117   9.432 -0.9049  1.9246 -0.6499
 6568SOL     OW31339   1.166   0.676   7.699  0.3645  0.1847  0.6134
 6568SOL    HW131340   1.122   0.727   7.767 -2.8061 -3.0216  0.9553
 6568SOL    HW231341   1.183   0.593   7.745  2.6447 -0.0265 -0.6085
 6569SOL     OW31342   2.887   3.844   9.983 -0.2095 -0.0823 -1.3102
 6569SOL    HW131343   2.898   3.779  10.053  0.3344 -0.4966 -1.7827
 6569SOL    HW231344   2.867   3.926  10.029  1.2536 -0.6734  0.3968
 6570SOL     OW31345   2.446   0.413   5.931 -0.3562  0.0699  0.0311
 6570SOL    HW131346   2.371   0.353   5.931  0.6471 -1.1729 -1.6394
 6570SOL    HW231347   2.428   0.466   5.853 -0.7717  0.1986  0.2153
 6571SOL     OW31348   0.707   1.293   7.100  0.2820  0.7254 -0.2161
 6571SOL    HW131349   0.786   1.342   7.080 -0.0483  1.9564  1.4410
 6571SOL    HW231350   0.754   1.215   7.127 -0.4789  0.5750  0.6821
 6572SOL     OW31351   2.922   3.418   1.908 -0.8328  0.0610  0.7483
 6572SOL    HW131352   3.010   3.443   1.880 -0.8348  2.2819  2.7908
 6572SOL    HW231353   2.918   3.323   1.896 -1.0830 -0.0769  1.8873
 6573SOL     OW31354   2.251   1.654   6.039  0.1161 -0.1848  0.0321
 6573SOL    HW131355   2.238   1.680   5.948 -2.7490 -0.7123  0.3128
 6573SOL    HW231356   2.221   1.563   6.039  3.4552 -1.2974 -2.3070
 6574SOL     OW31357   4.611   1.329   4.368  0.2510 -0.7774  0.0048
 6574SOL    HW131358   4.562   1.321   4.450 -1.5942 -0.2968 -1.0559
 6574SOL    HW231359   4.536   1.361   4.319 -0.2992  0.3056  1.5663
 6575SOL     OW31360   0.268   0.959   1.832 -0.4981 -0.5884 -0.0577
 6575SOL    HW131361   0.234   1.029   1.888  2.1089  0.0353  0.7564
 6575SOL    HW231362   0.190   0.907   1.813 -0.7022 -0.6200  0.8815
 6576SOL     OW31363   4.063   0.850   1.015 -0.0873  0.4601  0.0741
 6576SOL    HW131364   4.093   0.766   1.049  0.7133  0.9148  0.4656
 6576SOL    HW231365   3.989   0.870   1.073  0.8853 -1.9935  2.1190
 6577SOL     OW31366   0.366   2.149   1.829 -0.5615 -0.0540 -0.0223
 6577SOL    HW131367   0.309   2.092   1.881 -0.8582  0.4719  0.2232
 6577SOL    HW231368   0.424   2.085   1.787 -0.8136 -0.4102  0.1684
 6578SOL     OW31369   1.919   1.162   6.271 -0.0497  0.3714  0.5500
 6578SOL    HW131370   1.881   1.248   6.289 -2.8383 -0.4775 -1.2507
 6578SOL    HW231371   1.854   1.108   6.316  1.0459  1.4440  3.3807
 6579SOL     OW31372   1.254   3.426   2.527 -0.4276 -0.7419  0.0258
 6579SOL    HW131373   1.332   3.451   2.577 -1.1772 -0.6579  1.1496
 6579SOL    HW231374   1.286   3.351   2.477 -1.4839 -0.8614 -0.4612
 6580SOL     OW31375   4.501   2.839   6.856  0.4933  0.5813  0.1164
 6580SOL    HW131376   4.512   2.915   6.914 -0.6248  0.2434  0.7851
 6580SOL    HW231377   4.547   2.870   6.778  1.4847  1.2020  0.9391
 6581SOL     OW31378   1.281   3.905   4.238  0.6594 -0.2718  0.3866
 6581SOL    HW131379   1.300   3.931   4.328  1.1408 -2.3013  0.8700
 6581SOL    HW231380   1.352   3.950   4.192 -1.3210  2.5353  0.1004
 6582SOL     OW31381   2.661   2.016   8.680 -0.7873  0.3318  0.6541
 6582SOL    HW131382   2.573   1.994   8.709 -1.7080  0.6751 -1.8681
 6582SOL    HW231383   2.669   2.093   8.736  1.3254  1.6788 -1.5030
 6583SOL     OW31384   0.855   2.020   0.387  0.2359  0.3247  0.2996
 6583SOL    HW131385   0.862   2.112   0.363  0.0905  0.5647  1.1826
 6583SOL    HW231386   0.936   2.007   0.435 -0.2594 -1.4525  0.6745
 6584SOL     OW31387   2.918   2.842  17.026 -0.2098  0.4104 -0.2873
 6584SOL    HW131388   2.945   2.896  16.951  1.8098 -0.6524 -0.3378
 6584SOL    HW231389   2.823   2.848  17.018 -0.2842 -1.7331 -0.9901
 6585SOL     OW31390   1.106   3.740   3.722  0.0573 -0.6536 -0.0764
 6585SOL    HW131391   1.101   3.768   3.630  1.2473  2.1657  0.7223
 6585SOL    HW231392   1.118   3.825   3.763 -0.9246 -0.5879  0.0681
 6586SOL     OW31393   2.253   1.106   7.731  0.0765 -0.3891  0.3473
 6586SOL    HW131394   2.205   1.034   7.690  0.1279 -0.4120  0.3284
 6586SOL    HW231395   2.180   1.168   7.740  0.9835  0.4416  2.0279
 6587SOL     OW31396   4.222   3.314   5.117 -0.2045 -0.0519  0.0464
 6587SOL    HW131397   4.254   3.326   5.207 -0.0292  1.7490 -0.2733
 6587SOL    HW231398   4.252   3.223   5.110  2.5903  0.7620  1.5176
 6588SOL     OW31399   3.377   4.704  12.854 -0.5766 -0.0139 -0.8048
 6588SOL    HW131400   3.337   0.054  12.863  0.3811  0.4694 -1.2102
 6588SOL    HW231401   3.405   4.715  12.763 -0.4274  2.2523 -0.4929
 6589SOL     OW31402   1.689   3.482  14.144  0.0412 -0.3608 -0.6702
 6589SOL    HW131403   1.693   3.406  14.086  2.2054 -0.4326 -0.4576
 6589SOL    HW231404   1.714   3.551  14.084  0.7226 -1.2622 -1.4261
 6590SOL     OW31405   3.773   4.568   7.591 -0.1270  0.7235 -0.0379
 6590SOL    HW131406   3.722   4.493   7.621  0.0972 -0.6934 -3.1332
 6590SOL    HW231407   3.751   4.570   7.498  0.3604  2.0120 -0.1280
 6591SOL     OW31408   2.333   1.049   8.565  0.0951  0.3560  0.2532
 6591SOL    HW131409   2.239   1.038   8.576  0.1720 -0.7144 -0.1946
 6591SOL    HW231410   2.353   1.143   8.571  0.9668  0.2654 -1.2033
 6592SOL     OW31411   1.748   0.518   0.158 -0.2978 -0.6231  0.5519
 6592SOL    HW131412   1.681   0.551   0.217  1.0000 -0.6972  2.0531
 6592SOL    HW231413   1.691   0.456   0.112 -3.6822  3.3686 -0.6944
 6593SOL     OW31414   3.557   3.918  14.185  0.1400 -0.3652 -0.2310
 6593SOL    HW131415   3.563   3.853  14.115 -2.0559 -1.7490  0.8830
 6593SOL    HW231416   3.642   3.904  14.228  1.2824  1.1669 -2.0160
 6594SOL     OW31417   4.577   2.723   1.787 -0.2146  0.3207 -0.1626
 6594SOL    HW131418   4.620   2.639   1.800 -1.9153 -0.8736 -2.0534
 6594SOL    HW231419   4.643   2.786   1.813 -0.3980  0.6728 -0.5390
 6595SOL     OW31420   2.876   2.566   5.961  0.0147 -0.3123 -0.4791
 6595SOL    HW131421   2.894   2.643   5.908 -2.3754  0.2988 -0.4191
 6595SOL    HW231422   2.781   2.574   5.970  0.2172  1.4983 -0.0108
 6596SOL     OW31423   2.419   0.419  13.670  0.0762  0.3989  0.2947
 6596SOL    HW131424   2.411   0.440  13.763 -0.6279  0.9546  0.1075
 6596SOL    HW231425   2.470   0.339  13.682 -1.0155 -0.3776 -0.2277
 6597SOL     OW31426   1.183   4.076   9.521 -0.0536  0.2550  0.2611
 6597SOL    HW131427   1.191   3.994   9.568 -0.1112  0.5352  0.7532
 6597SOL    HW231428   1.263   4.073   9.467  0.1774 -0.0139  0.6197
 6598SOL     OW31429   0.565   0.728  11.594  0.2530 -0.3359 -0.0313
 6598SOL    HW131430   0.542   0.639  11.567  0.7190  0.3847 -2.7588
 6598SOL    HW231431   0.527   0.722  11.682  1.0510  1.8985  0.4524
 6599SOL     OW31432   1.595   3.950   0.357 -0.1402  0.2506  0.3746
 6599SOL    HW131433   1.511   3.975   0.318 -0.5997 -1.3391  0.3673
 6599SOL    HW231434   1.577   3.911   0.442 -2.0569  1.5749  0.5579
 6600SOL     OW31435   1.785   1.836  16.233  0.4968  0.1972  0.2065
 6600SOL    HW131436   1.721   1.817  16.301  0.3509 -0.1335 -0.0216
 6600SOL    HW231437   1.822   1.920  16.261  2.1842 -0.9455  1.4206
 6601SOL     OW31438   2.543   2.619   2.370 -0.2982  0.2796  0.2423
 6601SOL    HW131439   2.557   2.653   2.281 -0.2534 -1.6479 -0.4854
 6601SOL    HW231440   2.633   2.607   2.400 -0.2011 -0.8382 -0.4960
 6602SOL     OW31441   2.216   0.030   7.330  0.0475  0.1655 -0.0748
 6602SOL    HW131442   2.164   0.033   7.410  1.7742  1.4111  0.9884
 6602SOL    HW231443   2.149   0.009   7.265 -0.5531 -0.3710  0.7177
 6603SOL     OW31444   4.532   0.048   6.211 -0.0694  0.0660 -0.0782
 6603SOL    HW131445   4.599   0.116   6.220  1.7565 -1.4995 -1.7844
 6603SOL    HW231446   4.531   0.010   6.299 -3.2506 -1.1022 -0.6066
 6604SOL     OW31447   3.346   4.070  13.748  0.5891  0.8928  0.1895
 6604SOL    HW131448   3.334   3.977  13.729  1.0366  1.2146 -1.7053
 6604SOL    HW231449   3.387   4.063  13.834 -2.2194  0.9024  1.5139
 6605SOL     OW31450   0.192   0.221   3.711 -1.0012  0.6417 -0.2709
 6605SOL    HW131451   0.185   0.129   3.686  1.3574  0.3324  0.1872
 6605SOL    HW231452   0.282   0.244   3.686 -0.9698  1.0917  0.2343
 6606SOL     OW31453   1.359   2.405   7.828 -0.1577  0.0989 -0.1990
 6606SOL    HW131454   1.355   2.474   7.894 -0.7351  0.4128 -0.5607
 6606SOL    HW231455   1.376   2.454   7.747  2.7865 -1.6366 -0.6373
 6607SOL     OW31456   3.061   0.646   2.641 -0.0076  0.5581  0.6062
 6607SOL    HW131457   3.009   0.568   2.660  0.8096 -0.2461 -0.4779
 6607SOL    HW231458   3.114   0.655   2.720 -0.4612 -1.6318  1.1710
 6608SOL     OW31459   4.089   0.843  12.042 -0.5320 -0.0215 -0.1203
 6608SOL    HW131460   4.073   0.911  11.977 -0.8212 -1.4685 -1.5980
 6608SOL    HW231461   4.086   0.762  11.989  0.1756 -0.5043  0.5803
 6609SOL     OW31462   4.233   1.374   1.695  0.0804  0.4198  0.2714
 6609SOL    HW131463   4.158   1.426   1.665  0.7206  1.1560 -0.0360
 6609SOL    HW231464   4.201   1.340   1.778 -1.1491  3.3450  0.9782
 6610SOL     OW31465   2.713   0.890  13.310 -0.1267 -0.4089  0.0955
 6610SOL    HW131466   2.741   0.976  13.341 -1.7760  0.2053 -0.1145
 6610SOL    HW231467   2.764   0.879  13.230  1.9045  0.5003  1.2509
 6611SOL     OW31468   0.920   4.111   8.808  0.7508  0.4773 -0.0795
 6611SOL    HW131469   0.977   4.095   8.733 -0.9666  3.0884 -1.9505
 6611SOL    HW231470   0.902   4.019   8.828  0.5762  0.3102 -0.9938
 6612SOL     OW31471   0.501   1.792   5.389  0.0810 -0.0507  0.5196
 6612SOL    HW131472   0.580   1.744   5.413 -0.5190 -1.9895 -1.2953
 6612SOL    HW231473   0.472   1.815   5.477 -0.5828 -1.8640  0.7751
 6613SOL     OW31474   3.110   4.175  13.814 -0.2491  0.1868 -0.6846
 6613SOL    HW131475   3.191   4.131  13.789 -0.8462 -1.9529  1.0411
 6613SOL    HW231476   3.067   4.181  13.729  2.5468  0.7954 -2.0303
 6614SOL     OW31477   0.097   1.493  10.516 -0.1291  0.3666 -0.4005
 6614SOL    HW131478   0.080   1.457  10.603  0.2195 -1.5930 -1.1377
 6614SOL    HW231479   0.191   1.508  10.522 -0.1297  1.2074 -2.3151
 6615SOL     OW31480   4.212   3.810   2.041 -0.0590  0.3803  0.3894
 6615SOL    HW131481   4.193   3.898   2.072 -1.9414 -0.3178  1.1887
 6615SOL    HW231482   4.143   3.805   1.975 -1.2252 -0.0594  1.6515
 6616SOL     OW31483   4.449   2.574   5.249  0.3634  0.1399  0.2344
 6616SOL    HW131484   4.475   2.484   5.231  2.4369  0.5582  1.1889
 6616SOL    HW231485   4.493   2.582   5.334  0.6249 -1.4304  0.2362
 6617SOL     OW31486   1.860   2.321   8.255 -0.4309 -0.1392 -0.1345
 6617SOL    HW131487   1.777   2.329   8.208  0.7530 -0.2841 -2.2531
 6617SOL    HW231488   1.871   2.227   8.265  0.4116 -0.2845 -2.4249
 6618SOL     OW31489   4.581   3.569   7.149 -0.2527 -0.0547  0.0218
 6618SOL    HW131490   4.637   3.588   7.224 -0.3692  1.5005 -0.3022
 6618SOL    HW231491   4.552   3.483   7.181  1.2937 -0.4562  0.3529
 6619SOL     OW31492   3.019   3.614   2.361  0.4756 -0.1224 -0.2284
 6619SOL    HW131493   2.987   3.550   2.297 -0.5024 -0.0716  0.2156
 6619SOL    HW231494   3.105   3.579   2.383  0.1480  0.5856  2.1034
 6620SOL     OW31495   4.006   2.045   6.460 -0.0378  0.4279 -0.4672
 6620SOL    HW131496   4.061   2.026   6.384  1.3329 -1.2697  0.9672
 6620SOL    HW231497   4.065   2.090   6.521  0.1472 -1.1756  0.5218
 6621SOL     OW31498   2.997   2.065   4.003 -0.1806  0.3633 -0.6397
 6621SOL    HW131499   3.035   2.102   4.082 -3.0429  0.1173  0.8434
 6621SOL    HW231500   2.917   2.038   4.049  1.4776 -2.2351  0.6461
 6622SOL     OW31501   2.631   3.483   3.422 -0.4026  0.0359 -0.0542
 6622SOL    HW131502   2.642   3.531   3.503 -0.2099  0.3024 -0.2406
 6622SOL    HW231503   2.710   3.431   3.407 -1.5329 -0.7674 -3.2681
 6623SOL     OW31504   0.232   0.497  16.338 -0.1139  0.0722 -0.4961
 6623SOL    HW131505   0.310   0.480  16.285 -0.4337  0.3308 -1.0489
 6623SOL    HW231506   0.178   0.424  16.308 -0.4627  0.8486 -1.7568
 6624SOL     OW31507   1.524   3.948   3.264 -0.3071 -0.3640  0.3205
 6624SOL    HW131508   1.563   3.936   3.177  0.9618 -0.2179  0.8783
 6624SOL    HW231509   1.545   3.867   3.310 -1.8648 -1.3751 -0.7272
 6625SOL     OW31510   1.136   0.169   8.326 -0.3371 -0.6010 -0.2033
 6625SOL    HW131511   1.128   0.086   8.372  1.1488  1.1245  3.1295
 6625SOL    HW231512   1.195   0.144   8.255 -0.4447  1.6320 -1.0865
 6626SOL     OW31513   0.922   1.055   6.864  0.4755  0.1953  0.2649
 6626SOL    HW131514   0.977   1.106   6.924  1.1974 -1.0020  0.6346
 6626SOL    HW231515   0.910   1.105   6.784  1.6205  2.0635  1.2585
 6627SOL     OW31516   3.202   3.221  11.288  0.7370 -0.2127 -0.0226
 6627SOL    HW131517   3.280   3.166  11.291 -0.0999 -1.5532 -3.6933
 6627SOL    HW231518   3.191   3.252  11.379 -0.0744  0.5457 -0.3720
 6628SOL     OW31519   2.616   2.361   9.481 -0.3580  0.0943 -0.2758
 6628SOL    HW131520   2.548   2.310   9.436 -0.5698  1.4741 -1.5217
 6628SOL    HW231521   2.698   2.324   9.449  0.3526  1.3867  0.0853
 6629SOL     OW31522   2.276   3.817   6.677  0.2723  0.1417 -0.4613
 6629SOL    HW131523   2.283   3.731   6.637 -2.4737 -0.2603 -0.0611
 6629SOL    HW231524   2.306   3.874   6.605  0.4761  1.0099  0.3034
 6630SOL     OW31525   1.331   1.962  12.554 -0.2184 -0.0807  0.4554
 6630SOL    HW131526   1.383   2.004  12.623  1.1723 -1.6987  0.3998
 6630SOL    HW231527   1.397   1.975  12.486 -2.3535  0.2629 -1.5475
 6631SOL     OW31528   4.413   3.553  17.573  0.8404  0.1448 -0.9776
 6631SOL    HW131529   4.460   3.636  17.562 -0.4363  0.7715 -1.6682
 6631SOL    HW231530   4.323   3.571  17.600  0.9848 -0.4712 -0.0906
 6632SOL     OW31531   1.130   1.670   1.756 -0.0281  0.2633 -1.0233
 6632SOL    HW131532   1.093   1.672   1.844 -0.0958  0.5889 -1.0592
 6632SOL    HW231533   1.182   1.750   1.752  2.2047 -1.0760  1.4735
 6633SOL     OW31534   2.269   4.363   6.215  0.1361 -0.0654 -0.0080
 6633SOL    HW131535   2.236   4.299   6.277  0.8667  0.4877  0.9433
 6633SOL    HW231536   2.230   4.446   6.245  1.2085  0.9148 -1.3155
 6634SOL     OW31537   4.700   0.338   3.013 -0.5945 -0.0972 -0.2907
 6634SOL    HW131538   4.695   0.345   3.108 -1.6374 -2.4172 -0.1742
 6634SOL    HW231539   4.607   0.344   2.989  0.2017  2.0163 -2.8506
 6635SOL     OW31540   1.181   0.224  16.500  0.5261  0.1008  0.3889
 6635SOL    HW131541   1.094   0.235  16.537  0.7953  2.7009  0.2404
 6635SOL    HW231542   1.162   0.227  16.406  0.1969 -1.0693  0.4131
 6636SOL     OW31543   2.062   4.155  13.019 -0.2022  0.9832  0.5151
 6636SOL    HW131544   2.125   4.088  12.992 -4.6226 -3.1384  0.2914
 6636SOL    HW231545   1.981   4.127  12.976  2.1671 -4.1981 -0.5947
 6637SOL     OW31546   2.016   4.730  12.026  0.3544  0.1515 -0.0024
 6637SOL    HW131547   2.070   4.667  11.978  1.4257  0.6808  0.5017
 6637SOL    HW231548   2.060   4.722  12.111 -0.5581 -0.5723  0.3991
 6638SOL     OW31549   1.736   2.118   1.717  0.9346  0.0440  0.6969
 6638SOL    HW131550   1.666   2.059   1.691  1.1409  0.4109 -0.6570
 6638SOL    HW231551   1.717   2.191   1.658  1.9409  1.1252  1.7044
 6639SOL     OW31552   4.121   0.841  10.022 -0.3004 -0.2153  0.0379
 6639SOL    HW131553   4.079   0.755  10.025  0.6817 -0.6652  0.7667
 6639SOL    HW231554   4.056   0.902  10.056 -0.3092 -0.6415  0.7744
 6640SOL     OW31555   3.092   3.124   4.330  0.3314 -0.4591 -0.3321
 6640SOL    HW131556   3.006   3.083   4.316  0.1683  0.4797 -2.1419
 6640SOL    HW231557   3.075   3.199   4.387 -0.5308 -1.8067  1.1934
 6641SOL     OW31558   2.581   2.390   1.693 -0.2652 -0.2554  0.3643
 6641SOL    HW131559   2.566   2.398   1.787  0.2290  0.4242  0.3859
 6641SOL    HW231560   2.647   2.321   1.694 -0.0858 -0.1113 -1.7663
 6642SOL     OW31561   1.778   2.977   5.470  0.1355 -0.1473 -0.3476
 6642SOL    HW131562   1.725   2.981   5.550 -0.4025  0.4754 -0.7290
 6642SOL    HW231563   1.735   3.043   5.415 -0.1162  2.0816  2.4998
 6643SOL     OW31564   4.091   2.463   5.368  0.1562 -0.7257  0.3146
 6643SOL    HW131565   4.060   2.546   5.330  0.9184 -1.4506 -1.8544
 6643SOL    HW231566   4.149   2.435   5.297 -2.0204  3.8530 -3.3408
 6644SOL     OW31567   4.385   4.362   4.640 -0.0871  0.1737  0.0308
 6644SOL    HW131568   4.475   4.358   4.671  0.0611 -2.0200 -0.7255
 6644SOL    HW231569   4.336   4.391   4.717 -1.6183  0.5480 -1.0697
 6645SOL     OW31570   2.640   3.896   4.879 -0.3017 -0.6310 -0.0971
 6645SOL    HW131571   2.602   3.829   4.936  0.0067 -0.5116  0.2518
 6645SOL    HW231572   2.657   3.967   4.941 -0.5671 -1.2504  0.6874
 6646SOL     OW31573   3.695   3.741  11.698 -0.6065  0.1536 -0.0914
 6646SOL    HW131574   3.650   3.657  11.701 -0.6102  0.1234 -0.8781
 6646SOL    HW231575   3.765   3.735  11.763 -0.5952  1.8722  0.0640
 6647SOL     OW31576   0.818   2.180   1.030 -0.0922 -0.0744  0.1388
 6647SOL    HW131577   0.848   2.136   0.951  0.5902  2.2057 -0.8643
 6647SOL    HW231578   0.748   2.123   1.063 -1.1660  1.3777  0.4278
 6648SOL     OW31579   4.214   3.118   6.177 -0.0966  0.5635 -0.1365
 6648SOL    HW131580   4.180   3.112   6.087 -0.2890 -0.6078  0.0137
 6648SOL    HW231581   4.287   3.055   6.180 -0.3072  0.2688 -1.1663
 6649SOL     OW31582   0.010   4.271   2.432  0.1304  0.6996  0.3745
 6649SOL    HW131583   0.015   4.350   2.486  1.1712  0.2515  0.9325
 6649SOL    HW231584   4.713   4.202   2.490 -0.6498 -0.1599 -1.0875
 6650SOL     OW31585   2.543   0.537   8.870 -0.0024 -0.5115  0.1528
 6650SOL    HW131586   2.563   0.527   8.777  1.1074 -1.0018  0.4491
 6650SOL    HW231587   2.576   0.625   8.891 -1.8704 -0.0953  1.3267
 6651SOL     OW31588   3.017   3.972   2.910 -0.3921  0.0396  0.4710
 6651SOL    HW131589   3.065   4.047   2.946  1.9814 -1.4870  0.4586
 6651SOL    HW231590   2.930   4.012   2.902 -0.2177  0.3579  0.1385
 6652SOL     OW31591   3.580   3.931  12.703  0.1430  0.5137  0.1015
 6652SOL    HW131592   3.582   3.836  12.709 -0.3046  0.4462 -0.7317
 6652SOL    HW231593   3.611   3.956  12.790 -0.2887  0.2859  0.3241
 6653SOL     OW31594   2.675   3.026   3.930  0.8991  0.2819 -0.0216
 6653SOL    HW131595   2.682   3.098   3.867  4.4612  1.6776  1.9570
 6653SOL    HW231596   2.612   2.962   3.899 -0.8553  2.0876 -0.2315
 6654SOL     OW31597   2.881   3.517   8.648  0.1299  0.0497 -0.2017
 6654SOL    HW131598   2.865   3.609   8.670  0.5175  0.2759 -0.8625
 6654SOL    HW231599   2.834   3.508   8.565 -1.4574  1.9174  0.5109
 6655SOL     OW31600   3.051   1.001   5.349 -0.0565 -0.6720 -0.0292
 6655SOL    HW131601   3.122   1.059   5.376 -2.0575  1.8175 -0.0970
 6655SOL    HW231602   3.100   0.921   5.333  0.6712 -0.1917 -0.2033
 6656SOL     OW31603   1.946   3.817   3.627  0.2293  0.2314 -0.5300
 6656SOL    HW131604   1.935   3.882   3.697  0.6918 -3.1331  2.7125
 6656SOL    HW231605   1.953   3.875   3.552  2.9746 -0.7883 -1.0797
 6657SOL     OW31606   0.912   2.583  14.705 -0.2094  0.2655 -0.4444
 6657SOL    HW131607   0.857   2.518  14.750 -0.9370  1.0865 -0.1504
 6657SOL    HW231608   0.852   2.658  14.696  0.1801  0.8418  1.9145
 6658SOL     OW31609   4.584   4.063  12.826  0.0628  0.1415 -0.0547
 6658SOL    HW131610   4.631   4.101  12.900  1.7651  0.0646 -1.1029
 6658SOL    HW231611   4.632   3.983  12.802 -0.5393 -0.3088  0.2209
 6659SOL     OW31612   3.724   3.188   5.671 -0.0543  0.1799  0.1741
 6659SOL    HW131613   3.738   3.100   5.706  0.3956  0.6651  1.2263
 6659SOL    HW231614   3.633   3.185   5.642  0.3168 -1.9249 -0.7514
 6660SOL     OW31615   3.177   2.907   7.795 -0.2147 -0.0112 -0.0507
 6660SOL    HW131616   3.200   2.974   7.731 -2.4073  1.9305  1.1901
 6660SOL    HW231617   3.263   2.884   7.830  0.0537  3.0796  1.3413
 6661SOL     OW31618   4.275   4.666   2.058 -0.1028 -0.4957 -0.5947
 6661SOL    HW131619   4.335   4.592   2.064  1.1331  0.3886 -2.5517
 6661SOL    HW231620   4.340   4.734   2.042  0.1763 -0.8389 -0.9049
 6662SOL     OW31621   3.611   1.618   2.830 -0.7449 -0.0786 -0.0134
 6662SOL    HW131622   3.584   1.527   2.817 -0.6073 -0.0893 -0.2354
 6662SOL    HW231623   3.655   1.624   2.915 -0.3779  0.3250 -0.2275
 6663SOL     OW31624   0.861   1.595   7.281  0.2204 -0.2584  0.5604
 6663SOL    HW131625   0.939   1.608   7.335 -0.3401  1.7181  0.9219
 6663SOL    HW231626   0.803   1.585   7.356 -0.4967  1.1509  0.1941
 6664SOL     OW31627   0.493   0.479   8.453 -0.2711 -0.9022  0.1981
 6664SOL    HW131628   0.411   0.461   8.499 -0.7675  0.8602 -0.0016
 6664SOL    HW231629   0.548   0.492   8.530 -0.1582  1.0795 -0.2166
 6665SOL     OW31630   0.097   0.472   2.058 -0.4128 -0.0160 -0.3031
 6665SOL    HW131631   0.016   0.501   2.014 -0.9855  0.0495  0.7944
 6665SOL    HW231632   0.160   0.490   1.988  0.0522 -0.1471  0.0830
 6666SOL     OW31633   2.815   3.840  15.065 -0.2082  0.5994  0.1459
 6666SOL    HW131634   2.759   3.865  14.992 -0.4543 -0.0778  0.0997
 6666SOL    HW231635   2.750   3.787  15.112  2.6885 -1.2788  1.9797
 6667SOL     OW31636   2.954   2.804   1.360  0.1035 -0.0273  0.1738
 6667SOL    HW131637   2.953   2.793   1.265 -0.7740 -0.0321  0.1842
 6667SOL    HW231638   2.862   2.812   1.385 -0.4008 -0.3226 -1.5933
 6668SOL     OW31639   3.129   4.046   8.230 -0.1375  0.0710 -0.6185
 6668SOL    HW131640   3.207   3.992   8.229 -0.4035 -0.3115 -0.8022
 6668SOL    HW231641   3.093   3.999   8.155 -1.2851  3.1112 -1.9789
 6669SOL     OW31642   2.491   3.702   7.870  0.3357 -0.8216 -0.7504
 6669SOL    HW131643   2.465   3.785   7.910  0.7821 -0.1298 -1.8948
 6669SOL    HW231644   2.461   3.637   7.933  0.4695 -1.8899 -1.7839
 6670SOL     OW31645   3.085   2.541  13.866 -0.3993 -0.6651  0.4912
 6670SOL    HW131646   3.007   2.527  13.920 -0.8223  0.8183  0.2509
 6670SOL    HW231647   3.062   2.620  13.817 -1.3072  0.1314  2.1895
 6671SOL     OW31648   2.367   1.119   2.546  0.1271 -0.5378  0.3937
 6671SOL    HW131649   2.435   1.052   2.532  0.1871 -0.4204  0.1307
 6671SOL    HW231650   2.281   1.083   2.529 -0.2037 -0.9489  2.8903
 6672SOL     OW31651   2.727   2.627   6.626  0.0302  0.2291  0.3513
 6672SOL    HW131652   2.643   2.673   6.632  1.2777  2.5453 -0.0646
 6672SOL    HW231653   2.739   2.634   6.531  1.4599 -1.6794  0.3784
 6673SOL     OW31654   2.667   2.873  16.894 -0.3790 -0.3816  0.3923
 6673SOL    HW131655   2.653   2.822  16.814 -1.7068 -0.4590  0.6737
 6673SOL    HW231656   2.641   2.961  16.866  2.0675  0.8654  2.0833
 6674SOL     OW31657   2.182   3.961   7.187 -0.6979 -0.2192 -0.4642
 6674SOL    HW131658   2.140   4.047   7.192 -0.6829 -0.3071  1.2561
 6674SOL    HW231659   2.117   3.909   7.235  0.2983 -2.3816 -1.4394
 6675SOL     OW31660   1.941   3.115   3.146 -0.1896 -0.3119 -0.8258
 6675SOL    HW131661   1.865   3.153   3.101  0.6316  0.5245 -1.4877
 6675SOL    HW231662   1.894   3.041   3.184  1.4491 -1.7116 -1.5545
 6676SOL     OW31663   0.852   0.526   3.322  0.1137  0.3775 -0.7885
 6676SOL    HW131664   0.785   0.474   3.367  1.7007 -0.8947  0.1030
 6676SOL    HW231665   0.924   0.467   3.343 -0.1353  0.4960  0.4241
 6677SOL     OW31666   2.949   0.942   7.045 -0.8513  0.3784  0.3974
 6677SOL    HW131667   2.885   0.977   6.984  1.0676  0.1577 -1.7593
 6677SOL    HW231668   3.014   1.012   7.037 -1.2570  0.7225  0.1200
 6678SOL     OW31669   4.590   4.590  17.029  0.2394 -0.6288  0.4046
 6678SOL    HW131670   4.585   4.511  16.977 -1.0957  0.7179 -1.5091
 6678SOL    HW231671   4.643   4.642  16.968 -0.6503 -0.2503 -0.0373
 6679SOL     OW31672   1.062   0.387   3.400 -0.0800  0.2139 -0.8181
 6679SOL    HW131673   1.115   0.432   3.466 -0.1671  0.2456 -0.7700
 6679SOL    HW231674   1.128   0.354   3.339  0.8812  0.4031  0.1080
 6680SOL     OW31675   0.809   2.722   4.690  0.2994  0.3570 -0.6542
 6680SOL    HW131676   0.900   2.693   4.699  0.2603  0.8036  1.1730
 6680SOL    HW231677   0.757   2.655   4.735 -0.0180  0.8019 -0.3552
 6681SOL     OW31678   3.182   4.339   3.234 -0.4751  0.3049  0.2444
 6681SOL    HW131679   3.274   4.362   3.229 -0.1049 -0.6821  2.3079
 6681SOL    HW231680   3.168   4.306   3.323  1.6036 -2.6221 -0.5135
 6682SOL     OW31681   1.281   1.645   4.371 -0.4706 -0.4045  0.3235
 6682SOL    HW131682   1.371   1.678   4.369  0.7063 -3.6177  0.2304
 6682SOL    HW231683   1.290   1.551   4.387  0.5095 -0.2176  0.8731
 6683SOL     OW31684   1.059   1.699   7.416 -0.3331  0.2122  0.2746
 6683SOL    HW131685   1.079   1.640   7.489 -0.9060 -1.2095 -0.7109
 6683SOL    HW231686   1.045   1.786   7.452 -0.9068  0.5864 -0.8469
 6684SOL     OW31687   3.429   1.297   6.292  0.0272  0.3538 -0.4920
 6684SOL    HW131688   3.385   1.379   6.312  0.7443  0.5896  0.1290
 6684SOL    HW231689   3.482   1.291   6.372 -1.0644  1.3811  0.2898
 6685SOL     OW31690   3.917   3.829   2.496  0.1074 -0.0959  0.0010
 6685SOL    HW131691   3.860   3.816   2.420 -0.3415 -0.3138  0.3771
 6685SOL    HW231692   4.002   3.817   2.453  0.9003 -0.7308  1.7592
 6686SOL     OW31693   4.405   4.732   5.542  0.2881 -0.0920  0.3862
 6686SOL    HW131694   4.388   4.640   5.560  0.0591 -0.1644 -0.2245
 6686SOL    HW231695   4.450   0.027   5.620  0.0077 -0.8872  0.8676
 6687SOL     OW31696   2.809   1.760   2.452  0.0869 -0.2587 -0.0438
 6687SOL    HW131697   2.767   1.845   2.443 -0.4312 -0.4906  0.1627
 6687SOL    HW231698   2.782   1.712   2.374 -0.1723 -0.5334  0.2153
 6688SOL     OW31699   2.301   0.491   5.041 -0.0022  0.0756 -0.5533
 6688SOL    HW131700   2.370   0.539   4.996 -0.9423  1.0481 -0.9608
 6688SOL    HW231701   2.242   0.564   5.058  0.0348  0.0025 -0.0974
 6689SOL     OW31702   1.981   3.678   4.907 -0.2197  0.2971  0.0662
 6689SOL    HW131703   1.917   3.613   4.879  1.7087 -1.9056  0.7526
 6689SOL    HW231704   2.001   3.723   4.825  0.1949  0.2966  0.1654
 6690SOL     OW31705   1.663   0.226   8.709  0.8499  0.3714 -0.2943
 6690SOL    HW131706   1.727   0.193   8.772 -0.6751 -0.1263  1.0155
 6690SOL    HW231707   1.715   0.298   8.674 -0.1332  1.8450  1.2559
 6691SOL     OW31708   2.015   3.396   5.652 -0.2482 -0.1080 -0.2704
 6691SOL    HW131709   1.986   3.463   5.713 -0.6921  0.2739 -0.9138
 6691SOL    HW231710   2.015   3.453   5.576  2.1858  1.7309  1.0814
 6692SOL     OW31711   1.120   1.024   1.220 -0.4547 -0.4009  0.5188
 6692SOL    HW131712   1.043   1.052   1.170  0.3656  2.1220  0.6584
 6692SOL    HW231713   1.083   0.987   1.300 -1.3913  2.0466  1.2374
 6693SOL     OW31714   1.973   2.871   2.344  0.7185  0.1797 -0.0049
 6693SOL    HW131715   1.967   2.966   2.357 -0.6686 -0.0447  1.0082
 6693SOL    HW231716   1.903   2.844   2.404  0.1007  0.3198 -0.6551
 6694SOL     OW31717   1.213   0.586   3.533 -0.0189 -0.4547  0.5622
 6694SOL    HW131718   1.201   0.668   3.484  1.0433  1.1612  2.9850
 6694SOL    HW231719   1.279   0.618   3.594 -1.4862  1.7531  1.0184
 6695SOL     OW31720   0.226   4.313   4.613 -0.3097 -0.1198 -0.1355
 6695SOL    HW131721   0.286   4.238   4.609 -2.5087 -2.0006  2.3403
 6695SOL    HW231722   0.150   4.288   4.561  0.1375 -2.7466  0.4836
 6696SOL     OW31723   3.516   1.627   5.475  0.0541 -0.3477  0.3010
 6696SOL    HW131724   3.442   1.686   5.489 -1.2979 -1.6658 -1.2031
 6696SOL    HW231725   3.557   1.625   5.561  0.4731  0.2426  0.1202
 6697SOL     OW31726   0.744   4.692  16.745  0.8583 -0.8092 -0.4722
 6697SOL    HW131727   0.706   0.043  16.755  0.1782 -1.0432 -0.9499
 6697SOL    HW231728   0.817   4.694  16.806 -0.0712 -0.0583  0.6235
 6698SOL     OW31729   2.494   3.202   2.908  0.5442 -0.4031 -0.0923
 6698SOL    HW131730   2.538   3.146   2.972  0.7479 -1.3085 -1.0155
 6698SOL    HW231731   2.432   3.251   2.962 -0.1746 -2.2193  0.7195
 6699SOL     OW31732   0.661   4.469   7.739 -0.1752 -0.6084  0.0800
 6699SOL    HW131733   0.587   4.483   7.799  0.8452 -1.1794  1.4741
 6699SOL    HW231734   0.701   4.555   7.741 -0.5391 -0.4293 -0.4144
 6700SOL     OW31735   3.259   1.145  11.932 -0.0587  0.2968  0.3307
 6700SOL    HW131736   3.215   1.202  11.869 -0.1395  1.0703  1.0795
 6700SOL    HW231737   3.189   1.104  11.983  0.0812 -0.1955  0.1168
 6701SOL     OW31738   1.941   2.932   0.530  0.0596 -0.5622  0.7027
 6701SOL    HW131739   1.870   2.964   0.475  0.9652 -0.7173 -0.5490
 6701SOL    HW231740   1.975   3.010   0.574 -0.6164 -0.3014  0.7603
 6702SOL     OW31741   2.541   3.361   4.772 -0.2901  0.1732  0.2529
 6702SOL    HW131742   2.499   3.447   4.762  0.4391  0.7754  2.3284
 6702SOL    HW231743   2.591   3.368   4.853  2.1686  0.1386 -1.2760
 6703SOL     OW31744   4.655   3.321   8.923 -0.5671 -0.5021  0.1463
 6703SOL    HW131745   4.641   3.255   8.991 -0.1021  0.4474  1.1585
 6703SOL    HW231746   0.003   3.351   8.955  0.6637 -0.6677 -3.0219
 6704SOL     OW31747   2.333   2.710   2.951 -0.2803  0.4160 -0.0552
 6704SOL    HW131748   2.261   2.647   2.958 -0.0282  0.2288  0.8334
 6704SOL    HW231749   2.279   2.788   2.940 -1.3957 -0.2564  0.5872
 6705SOL     OW31750   3.957   3.300  10.198  0.2863 -0.3290  0.1645
 6705SOL    HW131751   3.870   3.309  10.237  0.6143 -0.0090  0.8231
 6705SOL    HW231752   3.960   3.372  10.134 -0.9262 -0.1367  0.3198
 6706SOL     OW31753   0.553   4.650   4.543  0.2157 -0.1841  1.0181
 6706SOL    HW131754   0.527   4.560   4.521 -0.7815  0.1117  0.9952
 6706SOL    HW231755   0.619   4.674   4.478 -1.4267  0.2893 -0.4687
 6707SOL     OW31756   2.820   4.012   0.847  0.1047 -0.0945 -0.1776
 6707SOL    HW131757   2.809   3.969   0.931  1.5376  0.5011  0.3228
 6707SOL    HW231758   2.818   3.932   0.795  4.3770 -0.9354  0.9500
 6708SOL     OW31759   1.751   0.622   1.326  0.3106 -0.6237 -0.5016
 6708SOL    HW131760   1.791   0.575   1.252  1.9777  2.2290 -1.4203
 6708SOL    HW231761   1.674   0.662   1.285 -0.1007  0.2370  1.1263
 6709SOL     OW31762   2.197   1.056   1.793 -0.0561  0.5289  0.6197
 6709SOL    HW131763   2.125   1.070   1.732 -1.0102  0.3104  1.6949
 6709SOL    HW231764   2.247   1.133   1.768  1.2114 -0.8448 -1.1007
 6710SOL     OW31765   2.022   3.705   5.176 -0.0493 -0.2784 -0.3499
 6710SOL    HW131766   2.009   3.682   5.084  2.9225  1.0000 -1.1030
 6710SOL    HW231767   1.939   3.680   5.217 -0.5452 -1.0433 -1.8282
 6711SOL     OW31768   0.926   2.669  10.114  0.2943  0.1478  0.8480
 6711SOL    HW131769   0.920   2.590  10.059 -1.6006 -0.7467  2.3012
 6711SOL    HW231770   0.993   2.716  10.065  0.9861 -1.4988  0.2284
 6712SOL     OW31771   2.814   4.522  17.022 -0.0350 -0.6200  0.4002
 6712SOL    HW131772   2.879   4.477  17.075 -0.6997 -1.0614  0.8409
 6712SOL    HW231773   2.803   4.474  16.940  1.0654  2.8843 -1.7975
 6713SOL     OW31774   2.825   2.320   6.296  0.2479 -0.5721 -0.0855
 6713SOL    HW131775   2.852   2.238   6.253  1.6976 -0.4919  0.6694
 6713SOL    HW231776   2.866   2.383   6.236  0.7424 -0.7863  0.0265
 6714SOL     OW31777   3.407   1.307   4.970  0.7397 -0.2231 -0.7451
 6714SOL    HW131778   3.314   1.299   4.949  0.5422  0.9953 -0.3410
 6714SOL    HW231779   3.409   1.323   5.064  0.3184  0.1240 -0.7939
 6715SOL     OW31780   2.489   0.508   8.132  0.4391  0.6670  0.9297
 6715SOL    HW131781   2.543   0.494   8.054 -2.8917 -0.4937 -1.1812
 6715SOL    HW231782   2.426   0.567   8.090  1.8687  0.9873 -0.7728
 6716SOL     OW31783   4.328   1.839  15.953 -0.0282  0.4975  0.3532
 6716SOL    HW131784   4.346   1.774  16.021 -1.3098  0.7013  0.8882
 6716SOL    HW231785   4.395   1.907  15.960  1.5678 -0.8845 -1.7321
 6717SOL     OW31786   4.723   1.088  14.995  0.3926 -0.0215  0.0019
 6717SOL    HW131787   4.627   1.084  15.004  0.5321 -0.3017  1.3874
 6717SOL    HW231788   0.002   1.174  14.956  0.1491  0.5504  1.1621
 6718SOL     OW31789   0.085   2.847   2.287  0.9730  0.2770 -0.2789
 6718SOL    HW131790   0.057   2.921   2.233  1.2959  1.4081  1.1167
 6718SOL    HW231791   0.099   2.892   2.370 -0.2990 -2.8279  1.6396
 6719SOL     OW31792   2.998   1.935  13.113 -0.5385 -0.0247 -0.0188
 6719SOL    HW131793   2.973   1.988  13.037  1.8816  0.1487 -0.7189
 6719SOL    HW231794   2.931   1.970  13.172 -0.1660 -0.4013  0.6322
 6720SOL     OW31795   3.030   3.095   2.363 -0.4629 -0.0053 -0.2583
 6720SOL    HW131796   3.005   3.165   2.303  0.4963  2.0271  1.7307
 6720SOL    HW231797   3.092   3.129   2.428 -1.3906  1.7944 -0.3384
 6721SOL     OW31798   2.732   3.971   9.764  0.4670  0.4291  0.0405
 6721SOL    HW131799   2.789   3.941   9.835  0.6422  1.1507  0.1948
 6721SOL    HW231800   2.739   4.066   9.763  0.8808  0.4174  1.8957
 6722SOL     OW31801   0.568   3.893   4.765 -0.0638  0.3178 -0.2725
 6722SOL    HW131802   0.565   3.803   4.732  0.7222  0.2007 -0.0188
 6722SOL    HW231803   0.656   3.924   4.746 -0.9341  2.4405 -0.7868
 6723SOL     OW31804   3.557   4.100  14.879 -0.5660  0.1025  0.1970
 6723SOL    HW131805   3.523   4.189  14.884  3.0716  1.5258 -0.2118
 6723SOL    HW231806   3.507   4.062  14.808 -0.0168  1.7724 -1.0928
 6724SOL     OW31807   0.839   1.718   2.753 -0.1322 -0.4866  0.2155
 6724SOL    HW131808   0.932   1.741   2.745  0.2427 -1.6341  1.2264
 6724SOL    HW231809   0.828   1.623   2.765 -0.8503 -0.3191  0.9145
 6725SOL     OW31810   2.198   2.467  13.850 -0.2650  0.2576  0.8567
 6725SOL    HW131811   2.239   2.428  13.927 -0.6747 -1.0831  0.3979
 6725SOL    HW231812   2.278   2.489  13.802 -0.0513 -1.1974  0.5432
 6726SOL     OW31813   4.221   1.491   2.933 -0.3591 -0.0829 -0.6683
 6726SOL    HW131814   4.140   1.441   2.946  0.3032 -0.8164  0.5956
 6726SOL    HW231815   4.239   1.523   3.021 -1.2007 -2.9418  0.5401
 6727SOL     OW31816   0.890   1.265   3.961 -0.4094  0.4983 -0.1226
 6727SOL    HW131817   0.836   1.334   3.922 -2.0283 -1.1550 -0.8074
 6727SOL    HW231818   0.961   1.242   3.900  0.1295  1.2102  0.2388
 6728SOL     OW31819   1.063   2.701   7.929 -0.1361 -0.0413 -0.2796
 6728SOL    HW131820   1.008   2.733   8.001 -0.0519  2.5167 -1.3396
 6728SOL    HW231821   1.009   2.627   7.902  1.2145 -1.4082  0.7447
 6729SOL     OW31822   1.803   4.721  15.073 -0.1670  0.2639  0.0387
 6729SOL    HW131823   1.851   0.038  15.136  2.8559 -0.7756 -1.3909
 6729SOL    HW231824   1.877   4.672  15.037  0.7851  2.0085 -0.4072
 6730SOL     OW31825   0.748   1.182   6.346  0.0560  0.1187 -0.0598
 6730SOL    HW131826   0.813   1.121   6.379  2.2271  1.2075 -2.3206
 6730SOL    HW231827   0.795   1.216   6.269  2.4128 -1.8229  0.5312
 6731SOL     OW31828   1.067   3.470  11.969 -0.0932 -0.5863 -0.1459
 6731SOL    HW131829   1.095   3.396  11.914  1.3406 -1.7458  2.1546
 6731SOL    HW231830   0.973   3.482  11.956 -0.0004  0.7662  0.4613
 6732SOL     OW31831   3.375   1.094  13.292  0.4062  0.1622  0.0496
 6732SOL    HW131832   3.388   1.125  13.202  0.2740  1.3813  0.4569
 6732SOL    HW231833   3.401   1.004  13.273 -0.4390 -0.1001  0.1590
 6733SOL     OW31834   2.815   2.789   7.189  0.2598  0.4778 -0.4173
 6733SOL    HW131835   2.813   2.823   7.100 -0.6665  2.4892  0.3946
 6733SOL    HW231836   2.803   2.697   7.165 -1.7672  1.7431 -4.1875
 6734SOL     OW31837   0.628   1.776   7.256  0.2678 -0.0172 -0.1300
 6734SOL    HW131838   0.683   1.851   7.280  1.2845 -1.3272  1.6032
 6734SOL    HW231839   0.700   1.713   7.252  2.0881  2.1307 -2.0472
 6735SOL     OW31840   2.568   2.595  17.573  0.5490  0.4769  0.0230
 6735SOL    HW131841   2.607   2.636  17.496  1.1611 -0.3263 -0.0882
 6735SOL    HW231842   2.474   2.590  17.555  0.2992  1.7190  0.9508
 6736SOL     OW31843   0.789   4.403   6.688 -0.7050  0.2856 -0.1751
 6736SOL    HW131844   0.810   4.394   6.595  0.3864 -0.3190  0.1337
 6736SOL    HW231845   0.800   4.314   6.722 -2.2069  0.1211 -0.0838
 6737SOL     OW31846   4.330   4.093   2.337  0.2956  0.0914 -0.0454
 6737SOL    HW131847   4.393   4.022   2.345  0.5271  0.3881  0.7975
 6737SOL    HW231848   4.386   4.168   2.322  0.2179  0.3500  0.9256
 6738SOL     OW31849   3.664   0.597  13.497  0.2141 -0.0883 -0.9703
 6738SOL    HW131850   3.742   0.557  13.459  0.6137 -3.1172  3.0488
 6738SOL    HW231851   3.692   0.688  13.497 -0.7947  0.2337 -2.2538
 6739SOL     OW31852   2.888   2.229   8.139 -0.0972  0.2527 -0.1681
 6739SOL    HW131853   2.983   2.217   8.135  0.1075  1.7913 -0.0551
 6739SOL    HW231854   2.872   2.260   8.229 -1.2779  1.3502 -0.7582
 6740SOL     OW31855   4.177   0.740  14.515  0.9493  0.3552 -0.2784
 6740SOL    HW131856   4.137   0.699  14.438  1.0332  0.5139 -0.4063
 6740SOL    HW231857   4.199   0.660  14.563  1.7304  0.0280 -1.1867
 6741SOL     OW31858   4.253   3.289  15.626 -0.1457 -0.0816  0.2381
 6741SOL    HW131859   4.279   3.382  15.625  1.8647 -0.6205  2.4773
 6741SOL    HW231860   4.336   3.241  15.620  0.7938  1.3303  1.8667
 6742SOL     OW31861   4.346   4.494   1.060 -0.4403  0.3910 -0.4375
 6742SOL    HW131862   4.269   4.476   1.114 -0.1120 -0.9291 -0.4002
 6742SOL    HW231863   4.375   4.406   1.036 -1.2982 -0.4805  1.7044
 6743SOL     OW31864   3.103   1.074  12.135  0.3137 -0.5906  0.0767
 6743SOL    HW131865   3.129   0.994  12.180  1.5618 -0.2220 -0.0074
 6743SOL    HW231866   3.014   1.055  12.105  0.5279  0.4658 -1.2264
 6744SOL     OW31867   3.420   2.577   2.515  0.2676  0.4602 -0.5548
 6744SOL    HW131868   3.406   2.657   2.464  0.3970  0.0782 -1.1876
 6744SOL    HW231869   3.351   2.518   2.484  2.3668 -2.0551 -0.3654
 6745SOL     OW31870   2.845   2.563   1.537  0.3029 -0.3513 -0.3599
 6745SOL    HW131871   2.883   2.493   1.590 -1.8229 -0.6710  0.7370
 6745SOL    HW231872   2.834   2.520   1.452 -0.4661  0.2165 -0.5412
 6746SOL     OW31873   0.404   2.335   8.652  0.5635  0.0997 -0.6040
 6746SOL    HW131874   0.359   2.268   8.601  0.0332  0.1626 -0.2226
 6746SOL    HW231875   0.454   2.284   8.715  1.3323  0.4700 -0.9195
 6747SOL     OW31876   1.980   0.056   1.869  0.0147 -0.1020  0.5514
 6747SOL    HW131877   2.072   0.031   1.879  0.5832  1.5821 -0.4708
 6747SOL    HW231878   1.936   4.711   1.893  1.8446 -0.8858  1.2894
 6748SOL     OW31879   4.152   2.007  12.005  0.2015 -0.3908 -0.3447
 6748SOL    HW131880   4.199   1.962  12.075  1.0095  2.6695  1.0376
 6748SOL    HW231881   4.066   1.965  11.995 -0.4598  0.7968  0.4405
 6749SOL     OW31882   2.549   3.942   7.998  0.1942 -0.5137 -0.4701
 6749SOL    HW131883   2.562   4.020   7.943  1.0405  0.1523  0.6884
 6749SOL    HW231884   2.479   3.975   8.056 -0.0109 -2.5368  0.4058
 6750SOL     OW31885   4.579   0.989   4.014  0.7301  0.2956 -0.1433
 6750SOL    HW131886   4.638   1.061   3.989 -0.3591  0.9892 -0.6985
 6750SOL    HW231887   4.535   0.964   3.933  0.8438  2.4234 -0.8507
 6751SOL     OW31888   3.325   2.590   1.815 -0.4808  0.1454 -0.0206
 6751SOL    HW131889   3.344   2.531   1.742  0.5047 -0.3796  0.6709
 6751SOL    HW231890   3.353   2.543   1.893  0.2277  1.1155  0.3085
 6752SOL     OW31891   2.927   3.088   8.385  0.1297 -0.2643  0.1074
 6752SOL    HW131892   2.926   2.993   8.390  1.9574 -0.3758 -1.4163
 6752SOL    HW231893   2.840   3.112   8.415  1.3218  1.0429  2.5421
 6753SOL     OW31894   0.170   1.882   4.548  0.2061 -0.3382  0.2714
 6753SOL    HW131895   0.259   1.871   4.581 -0.4674 -1.7014  1.6178
 6753SOL    HW231896   0.151   1.792   4.523  0.5569  0.2874 -2.2858
 6754SOL     OW31897   1.387   0.973   6.564  0.0465  0.0145 -0.1721
 6754SOL    HW131898   1.409   0.880   6.563  0.4479  0.0864  2.1879
 6754SOL    HW231899   1.334   0.983   6.644  0.3854  1.0350 -0.0744
 6755SOL     OW31900   3.639   3.362   0.045 -0.0315 -0.9374  0.0592
 6755SOL    HW131901   3.545   3.365   0.031 -0.2642 -2.1245  1.3333
 6755SOL    HW231902   3.673   3.337  17.704 -0.9899 -0.0948 -0.5581
 6756SOL     OW31903   0.248   2.651   1.433  0.1501  0.4133  0.3439
 6756SOL    HW131904   0.194   2.661   1.511  0.6292  2.6687  0.3814
 6756SOL    HW231905   0.299   2.571   1.447 -0.5308 -0.1758 -0.5387
 6757SOL     OW31906   1.320   2.802   1.093  0.0837 -0.1557 -0.5933
 6757SOL    HW131907   1.239   2.795   1.144  2.4879 -0.9346  3.1366
 6757SOL    HW231908   1.365   2.855   1.160  0.3910 -0.5157 -0.5188
 6758SOL     OW31909   1.433   0.498   7.023  0.1132  0.2672 -0.1946
 6758SOL    HW131910   1.422   0.439   7.098 -1.0147  1.4036  0.5226
 6758SOL    HW231911   1.499   0.456   6.967  1.8140  2.2164  0.3482
 6759SOL     OW31912   3.212   1.310   6.047  0.7975  0.0095 -0.0372
 6759SOL    HW131913   3.172   1.387   6.089  1.3914  0.8591 -1.0162
 6759SOL    HW231914   3.132   1.282   6.002  1.1171  0.9168 -1.1795
 6760SOL     OW31915   2.105   1.348  12.572 -0.2524 -0.0133 -0.2044
 6760SOL    HW131916   2.188   1.311  12.543  0.3559  0.4742  0.9329
 6760SOL    HW231917   2.061   1.270  12.604  3.4440 -2.1854 -0.4821
 6761SOL     OW31918   4.508   4.559   9.301  1.0300 -0.1268 -0.2852
 6761SOL    HW131919   4.589   4.608   9.317  1.3128 -1.3544  2.1229
 6761SOL    HW231920   4.452   4.625   9.342  0.8458  0.1265 -0.9449
 6762SOL     OW31921   2.473   2.855   8.744  0.8811  0.0758 -0.1858
 6762SOL    HW131922   2.404   2.911   8.781  0.8555 -0.6271  0.8385
 6762SOL    HW231923   2.547   2.909   8.772 -0.2184 -0.5125  3.9425
 6763SOL     OW31924   4.336   0.571  13.541 -0.0520  0.2019  0.0161
 6763SOL    HW131925   4.259   0.628  13.545 -0.0041  0.1752  1.2244
 6763SOL    HW231926   4.330   0.524  13.624  3.1961 -0.5272 -0.1811
 6764SOL     OW31927   3.139   4.301  12.176 -0.0295 -0.0139  0.4643
 6764SOL    HW131928   3.206   4.236  12.153  1.3344  1.0450  1.4193
 6764SOL    HW231929   3.152   4.372  12.113 -3.5144  0.5895  0.4066
 6765SOL     OW31930   1.375   1.415   7.090 -0.5675  0.4476  0.1597
 6765SOL    HW131931   1.423   1.496   7.106  0.0371  0.2423 -0.6422
 6765SOL    HW231932   1.447   1.367   7.051 -2.8895 -0.6163 -2.7704
 6766SOL     OW31933   0.016   4.418  12.948 -0.2095  0.4054 -0.1322
 6766SOL    HW131934   0.032   4.415  12.854 -1.8110  0.0796 -0.3922
 6766SOL    HW231935   4.689   4.488  12.965  1.4946  1.4863  1.7807
 6767SOL     OW31936   0.886   1.956   2.032 -0.4430 -0.1092 -0.4016
 6767SOL    HW131937   0.921   1.871   2.061 -1.8113 -1.7642 -3.6041
 6767SOL    HW231938   0.796   1.940   2.060 -0.9441  1.5165 -1.1116
 6768SOL     OW31939   3.182   3.816  16.376 -0.5268 -0.8382 -0.2096
 6768SOL    HW131940   3.231   3.823  16.294  0.2702  2.9669  0.6443
 6768SOL    HW231941   3.246   3.829  16.446  1.0414 -0.3436 -1.7488
 6769SOL     OW31942   0.099   3.176   3.789  0.4541 -0.3493 -0.2384
 6769SOL    HW131943   0.106   3.080   3.784  0.8853 -0.2650 -1.1679
 6769SOL    HW231944   0.189   3.209   3.786  0.2852  0.3922  3.2237
 6770SOL     OW31945   0.741   3.453   8.983  0.2112 -0.1196  0.3546
 6770SOL    HW131946   0.811   3.445   8.918 -0.2603 -2.7312  0.1484
 6770SOL    HW231947   0.667   3.407   8.944  0.8211  1.1058 -2.2539
 6771SOL     OW31948   1.396   0.952   7.807 -0.0725 -0.1634  0.1510
 6771SOL    HW131949   1.402   1.042   7.841 -1.9028 -0.1843  0.5261
 6771SOL    HW231950   1.349   0.976   7.727 -1.1516 -1.4360  0.4036
 6772SOL     OW31951   4.437   2.018   4.258  0.2271 -0.0278  0.5947
 6772SOL    HW131952   4.347   2.011   4.290  0.8745 -0.2611  2.3790
 6772SOL    HW231953   4.435   2.039   4.164  1.2513 -1.6111  0.2204
 6773SOL     OW31954   2.778   3.409   6.975  0.2561 -0.0288  0.1104
 6773SOL    HW131955   2.687   3.423   6.950  0.3875  0.2942 -0.1929
 6773SOL    HW231956   2.825   3.482   6.936 -0.0683 -0.6948 -1.5314
 6774SOL     OW31957   2.685   3.733   7.300  0.4088 -0.0875 -0.1748
 6774SOL    HW131958   2.674   3.712   7.207 -2.6380  0.6320  0.0096
 6774SOL    HW231959   2.743   3.660   7.321  1.3047  0.0563 -2.1096
 6775SOL     OW31960   4.714   3.480   4.949  0.8866  0.5655 -0.4815
 6775SOL    HW131961   4.630   3.437   4.935  1.1238 -0.2093  0.4964
 6775SOL    HW231962   4.700   3.568   4.982 -2.0641  0.7453 -2.2710
 6776SOL     OW31963   3.051   0.643  12.611 -0.1184 -0.5063  0.0466
 6776SOL    HW131964   2.976   0.646  12.671 -0.9278  0.3822 -1.0133
 6776SOL    HW231965   3.110   0.643  12.687  2.6558 -0.7240 -2.1346
 6777SOL     OW31966   4.680   2.240   3.247  0.1428 -0.0632  0.0596
 6777SOL    HW131967   4.610   2.297   3.281  1.4476  1.5710  0.0331
 6777SOL    HW231968   0.028   2.272   3.278  0.1431  1.1459 -1.1982
 6778SOL     OW31969   4.539   0.891   8.725  0.1566 -0.3101 -0.0681
 6778SOL    HW131970   4.484   0.905   8.648  1.3238  1.2163 -0.6378
 6778SOL    HW231971   4.483   0.920   8.796  2.1327  1.0425  0.9477
 6779SOL     OW31972   2.797   2.304   5.032 -0.2433 -0.5417 -0.1445
 6779SOL    HW131973   2.740   2.355   5.089  0.2620  2.0685 -2.0233
 6779SOL    HW231974   2.743   2.301   4.953  2.2181 -1.4379 -1.7895
 6780SOL     OW31975   3.782   3.882   4.297  0.1902 -0.6568 -0.2901
 6780SOL    HW131976   3.849   3.827   4.337  2.7036  0.8420 -2.4291
 6780SOL    HW231977   3.780   3.943   4.371 -1.0605  0.0104 -0.8688
 6781SOL     OW31978   2.455   1.687   2.561  0.7437  0.3712  0.7498
 6781SOL    HW131979   2.465   1.776   2.594  1.1464  0.9143 -0.8669
 6781SOL    HW231980   2.456   1.711   2.468  2.1457  0.9058  0.9032
 6782SOL     OW31981   1.142   1.688   7.123  0.2582  0.1580  0.4150
 6782SOL    HW131982   1.164   1.675   7.215  0.6722  1.0109  0.4321
 6782SOL    HW231983   1.076   1.757   7.127  0.7402  0.7989 -2.4328
 6783SOL     OW31984   2.479   2.941   0.835 -0.2034 -0.3968  0.3629
 6783SOL    HW131985   2.425   3.017   0.814  2.5089  0.7668 -2.3362
 6783SOL    HW231986   2.565   2.981   0.848  0.4557 -0.9461 -2.4801
 6784SOL     OW31987   0.311   3.935   3.905  0.5074  0.2607 -0.0628
 6784SOL    HW131988   0.344   3.934   3.814  0.3224  2.4632 -0.1615
 6784SOL    HW231989   0.219   3.917   3.889  0.0854  2.1102  0.2336
 6785SOL     OW31990   0.890   1.595   7.830  0.3547  0.1313 -0.5418
 6785SOL    HW131991   0.919   1.639   7.910 -0.0574  1.5272 -1.1534
 6785SOL    HW231992   0.824   1.535   7.865  1.8747 -0.2371  1.7123
 6786SOL     OW31993   1.243   0.464   1.420 -0.0067 -0.4057 -0.0694
 6786SOL    HW131994   1.164   0.447   1.370 -1.0720 -3.4922  2.7029
 6786SOL    HW231995   1.214   0.535   1.477  0.9768  0.4187 -0.5933
 6787SOL     OW31996   1.796   1.999   3.847 -1.1397  0.6827 -0.1881
 6787SOL    HW131997   1.760   1.980   3.934 -0.0758 -1.3733 -0.2169
 6787SOL    HW231998   1.760   2.084   3.821  1.8235  2.3630  1.1663
 6788SOL     OW31999   0.739   2.574   3.607 -0.7089  0.6847 -0.0113
 6788SOL    HW132000   0.827   2.579   3.571 -0.3318  1.2764  0.9877
 6788SOL    HW232001   0.691   2.643   3.561  3.1125  1.4092 -2.8841
 6789SOL     OW32002   2.885   3.371   3.405 -0.2675 -0.1123 -0.3686
 6789SOL    HW132003   2.943   3.375   3.481 -0.1375 -0.1934 -0.4651
 6789SOL    HW232004   2.945   3.411   3.343  0.5476  0.5475  0.8466
 6790SOL     OW32005   1.416   1.258   2.574 -0.0093  0.0696 -0.1035
 6790SOL    HW132006   1.440   1.351   2.580 -2.2844  0.6501 -0.0325
 6790SOL    HW232007   1.411   1.238   2.481 -0.3003  2.3777 -0.5690
 6791SOL     OW32008   3.327   0.369  10.213 -0.3376  0.0078 -0.2896
 6791SOL    HW132009   3.343   0.457  10.247 -0.7522 -0.0207 -0.0262
 6791SOL    HW232010   3.232   0.360  10.223  0.1169 -1.3024  3.0167
 6792SOL     OW32011   2.019   3.399   4.254  0.3674  0.1091 -0.3058
 6792SOL    HW132012   2.044   3.453   4.179 -2.4565 -0.7102 -1.8230
 6792SOL    HW232013   2.042   3.315   4.215 -0.6626 -1.1318  1.7592
 6793SOL     OW32014   1.868   2.043   3.524  0.3241  0.0946 -0.3704
 6793SOL    HW132015   1.875   2.135   3.551 -0.8483  0.0665  0.0420
 6793SOL    HW232016   1.774   2.028   3.511 -0.0470  0.9260  1.3603
 6794SOL     OW32017   1.163   0.325   8.647  0.4947  0.3010  0.0776
 6794SOL    HW132018   1.095   0.368   8.595  0.6858  0.0202 -0.4048
 6794SOL    HW232019   1.244   0.346   8.601  1.0862 -1.7015  0.1997
 6795SOL     OW32020   3.893   4.182   4.981  0.6599 -0.1303  0.3100
 6795SOL    HW132021   3.856   4.094   4.995  0.0081 -0.0887 -1.1710
 6795SOL    HW232022   3.868   4.233   5.058  0.2380 -1.6725  1.2152
 6796SOL     OW32023   2.804   4.450   1.696  0.2114  0.3781  0.2058
 6796SOL    HW132024   2.710   4.436   1.710 -0.0883  2.9419  0.7587
 6796SOL    HW232025   2.813   4.431   1.603 -0.9704 -4.0201  0.9472
 6797SOL     OW32026   2.119   2.661   2.487  0.5837 -0.2704  0.8078
 6797SOL    HW132027   2.146   2.751   2.470  0.8880 -0.1416  2.0165
 6797SOL    HW232028   2.156   2.635   2.402  0.2002 -1.8150  1.1093
 6798SOL     OW32029   1.953   0.294   3.524 -0.0525 -0.4522 -0.0915
 6798SOL    HW132030   2.022   0.359   3.516  0.3223 -0.7673  0.5254
 6798SOL    HW232031   1.988   0.245   3.599 -1.9678 -0.4328  0.8074
 6799SOL     OW32032   0.809   0.813  14.794 -0.1832  0.1100 -0.6192
 6799SOL    HW132033   0.818   0.731  14.746  0.9910 -0.3133  0.3344
 6799SOL    HW232034   0.798   0.773  14.881 -1.2576 -0.9861 -1.2544
 6800SOL     OW32035   3.667   3.248  11.432  0.1429 -0.2946 -0.0303
 6800SOL    HW132036   3.634   3.249  11.343  0.3067 -3.1646 -0.0995
 6800SOL    HW232037   3.601   3.303  11.474 -0.1909  1.0022 -2.2580
 6801SOL     OW32038   1.996   2.320  13.799 -0.5577  0.3566 -0.1081
 6801SOL    HW132039   2.043   2.238  13.814  1.9980  2.1911  1.8357
 6801SOL    HW232040   2.069   2.380  13.785 -0.8634  0.3130 -1.8158
 6802SOL     OW32041   2.202   3.669   7.614  0.7509 -0.7356  0.5614
 6802SOL    HW132042   2.294   3.647   7.604  0.2609 -3.4612  1.8750
 6802SOL    HW232043   2.177   3.601   7.677 -0.6296  1.5736  2.4896
 6803SOL     OW32044   0.959   4.166   9.683  0.3595  0.4960  0.2832
 6803SOL    HW132045   1.023   4.215   9.736  1.8712 -0.5565 -0.5618
 6803SOL    HW232046   1.009   4.124   9.613  0.7395 -2.3802  2.2992
 6804SOL     OW32047   1.988   4.309   8.964  0.5261  0.4035 -0.2512
 6804SOL    HW132048   1.934   4.342   8.893  1.6439 -0.3327 -1.4451
 6804SOL    HW232049   2.041   4.237   8.929  1.2732  0.1794  1.3322
 6805SOL     OW32050   1.917   1.748  11.512  0.0270 -0.6419  0.1351
 6805SOL    HW132051   1.896   1.661  11.544 -1.7307 -0.1213  0.3921
 6805SOL    HW232052   1.838   1.772  11.463  0.5857  2.2519  0.6237
 6806SOL     OW32053   3.851   0.670   3.635  0.6259  0.2112 -0.1266
 6806SOL    HW132054   3.775   0.707   3.678  0.3511 -1.7179  1.0877
 6806SOL    HW232055   3.920   0.728   3.667 -0.9313  2.5257 -0.9884
 6807SOL     OW32056   1.486   2.296  10.751  0.5684  0.0954  0.5361
 6807SOL    HW132057   1.564   2.263  10.706  0.2200 -0.9531  0.7017
 6807SOL    HW232058   1.430   2.267  10.679 -0.9894  2.1605  0.9259
 6808SOL     OW32059   3.414   2.024  15.269  0.4016  0.4049  0.0327
 6808SOL    HW132060   3.374   2.064  15.192 -3.0786 -0.6652  1.2949
 6808SOL    HW232061   3.362   2.056  15.343 -1.0977 -2.7463  0.3676
 6809SOL     OW32062   1.012   2.280   8.072 -0.3730 -0.2585 -0.1859
 6809SOL    HW132063   0.945   2.226   8.115  0.6111 -0.3247  1.2317
 6809SOL    HW232064   1.013   2.357   8.128  0.8357  2.1479 -3.5278
 6810SOL     OW32065   2.223   4.257   6.605 -0.2452  0.1720  0.0885
 6810SOL    HW132066   2.143   4.204   6.611 -0.4632  0.1478 -2.9122
 6810SOL    HW232067   2.271   4.227   6.682 -1.3143 -0.5165  0.4899
 6811SOL     OW32068   3.658   2.347   6.453  0.0299  0.0262  0.1902
 6811SOL    HW132069   3.591   2.302   6.504  1.7067 -1.2035  1.3021
 6811SOL    HW232070   3.726   2.339   6.519 -0.3122 -0.5184  0.4723
 6812SOL     OW32071   2.889   2.844  15.691 -0.0697 -0.1434  0.2328
 6812SOL    HW132072   2.930   2.784  15.753  0.6897  0.6587  0.5133
 6812SOL    HW232073   2.846   2.784  15.631  1.1885  0.1368 -0.9557
 6813SOL     OW32074   3.279   1.404  15.167 -0.1402  0.7203  0.2482
 6813SOL    HW132075   3.237   1.489  15.178  0.6266  0.7121  3.3063
 6813SOL    HW232076   3.208   1.340  15.170  0.0901  0.3859 -1.4360
 6814SOL     OW32077   0.226   0.597   5.929  0.5266  0.5341 -0.8584
 6814SOL    HW132078   0.232   0.680   5.882  2.7337  0.2032 -1.1475
 6814SOL    HW232079   0.193   0.527   5.872  0.3632 -0.4866  0.4745
 6815SOL     OW32080   1.595   2.423  14.318 -0.2634  0.3462 -0.0858
 6815SOL    HW132081   1.662   2.460  14.260 -1.2160  1.5682 -0.4118
 6815SOL    HW232082   1.543   2.500  14.340  2.6276  3.0361 -2.5923
 6816SOL     OW32083   3.250   2.693  12.428 -0.0438 -0.5170 -0.3928
 6816SOL    HW132084   3.286   2.666  12.344 -0.5671  0.1020 -0.8123
 6816SOL    HW232085   3.191   2.766  12.409  0.0831 -0.1228  0.7308
 6817SOL     OW32086   3.466   4.229  13.532 -0.4800  0.3509  0.1461
 6817SOL    HW132087   3.531   4.182  13.481 -2.4323 -1.8614 -0.3426
 6817SOL    HW232088   3.454   4.160  13.598  2.9901 -0.7225 -0.3660
 6818SOL     OW32089   0.170   0.777  10.437  0.5842 -0.1230 -0.0147
 6818SOL    HW132090   0.264   0.781  10.418  0.7455 -0.8824  0.6041
 6818SOL    HW232091   0.166   0.847  10.502  0.7599  0.5388 -0.7189
 6819SOL     OW32092   0.862   0.444   0.195  1.2298  0.5224 -0.0837
 6819SOL    HW132093   0.878   0.526   0.242 -1.0712  1.3076 -0.6783
 6819SOL    HW232094   0.915   0.387   0.250  1.6588  3.0820  2.1630
 6820SOL     OW32095   2.513   2.769   1.053  0.0982 -0.1691 -0.2802
 6820SOL    HW132096   2.522   2.676   1.034  1.8035  0.1495 -1.0662
 6820SOL    HW232097   2.541   2.818   0.976 -1.1079 -0.7950 -1.1067
 6821SOL     OW32098   2.965   3.129   3.029 -0.5341  0.1575  0.1300
 6821SOL    HW132099   2.902   3.202   3.037 -2.6095 -1.4805 -1.3607
 6821SOL    HW232100   2.915   3.053   3.059  0.4957 -0.8800 -0.7923
 6822SOL     OW32101   0.222   1.873   7.330 -0.4235 -0.2919 -0.5292
 6822SOL    HW132102   0.190   1.783   7.338 -1.1235 -0.1799 -2.1717
 6822SOL    HW232103   0.136   1.915   7.334  0.3338  1.2883 -0.7119
 6823SOL     OW32104   2.565   1.305   1.164  0.2113 -0.3907 -0.1003
 6823SOL    HW132105   2.583   1.387   1.210 -2.9370  0.6181 -0.6527
 6823SOL    HW232106   2.606   1.240   1.221  0.4151 -0.4526 -0.3191
 6824SOL     OW32107   4.389   1.759   7.729 -0.4723 -0.3963  0.3632
 6824SOL    HW132108   4.341   1.839   7.706 -2.1669 -1.6463 -0.4716
 6824SOL    HW232109   4.399   1.779   7.822 -1.2937  0.0009  0.3657
 6825SOL     OW32110   4.342   3.156   5.872 -0.8453 -0.4561  0.0949
 6825SOL    HW132111   4.391   3.224   5.827 -1.5220 -1.3760 -2.0377
 6825SOL    HW232112   4.253   3.187   5.854  0.2289  1.6488 -1.6082
 6826SOL     OW32113   2.387   1.645  14.268  0.2957 -0.1043  0.0866
 6826SOL    HW132114   2.462   1.589  14.283  0.1865 -0.5529 -1.0255
 6826SOL    HW232115   2.429   1.718  14.221 -1.0501 -0.6132 -1.9467
 6827SOL     OW32116   2.621   2.813  14.229 -0.2954 -0.1189  0.7265
 6827SOL    HW132117   2.550   2.799  14.167  0.5585  1.3171 -0.5890
 6827SOL    HW232118   2.596   2.883  14.289  0.2526 -0.3433  1.2184
 6828SOL     OW32119   1.727   4.713   1.634  0.3066  0.1358  0.5452
 6828SOL    HW132120   1.681   4.661   1.700 -1.7787  0.5412 -0.5705
 6828SOL    HW232121   1.779   4.656   1.577 -0.4649  1.0240 -1.0520
 6829SOL     OW32122   0.176   4.401   9.138  0.2651  0.1021 -0.0009
 6829SOL    HW132123   0.242   4.333   9.125  0.1969  0.3291 -1.5284
 6829SOL    HW232124   0.133   4.377   9.221  1.3062  2.4220  1.2141
 6830SOL     OW32125   2.580   4.223  14.655 -0.2326 -0.2390 -0.5035
 6830SOL    HW132126   2.659   4.275  14.662 -0.0326 -0.7528  0.9847
 6830SOL    HW232127   2.596   4.187  14.568  0.6254 -0.0548 -0.4249
 6831SOL     OW32128   3.546   2.353   2.000 -0.2087  0.2793  0.3893
 6831SOL    HW132129   3.620   2.401   1.962  0.3647  0.0230  1.1805
 6831SOL    HW232130   3.533   2.288   1.931  0.2180  0.9377 -0.3114
 6832SOL     OW32131   3.701   4.051  13.378 -0.2154  0.0954  0.2046
 6832SOL    HW132132   3.766   4.057  13.447  0.4332 -0.2540 -0.3809
 6832SOL    HW232133   3.731   3.975  13.328  0.0747  1.4219 -1.5997
 6833SOL     OW32134   4.462   2.353  10.067  0.3237  0.0403  0.7713
 6833SOL    HW132135   4.483   2.264  10.092  0.0878 -0.4188 -0.6637
 6833SOL    HW232136   4.375   2.344  10.027 -0.2589  0.1634  2.0035
 6834SOL     OW32137   2.882   1.194   3.992 -0.1070 -0.1162  0.1252
 6834SOL    HW132138   2.938   1.257   4.039 -0.1600 -0.3406  0.4922
 6834SOL    HW232139   2.930   1.177   3.911  2.5961 -0.8456  1.8750
 6835SOL     OW32140   0.875   3.654   9.746  0.7223  0.2851  0.0229
 6835SOL    HW132141   0.910   3.656   9.657 -0.5154 -1.4340 -0.5173
 6835SOL    HW232142   0.786   3.680   9.726  0.4810 -1.8512 -1.7149
 6836SOL     OW32143   3.450   0.756   5.694  0.2861 -0.5037 -0.2849
 6836SOL    HW132144   3.481   0.839   5.659 -1.0806 -0.6927 -1.9806
 6836SOL    HW232145   3.364   0.792   5.713  1.7507  1.6397  2.2251
 6837SOL     OW32146   0.586   4.061   1.855  0.4816 -0.0933  0.9245
 6837SOL    HW132147   0.518   4.112   1.811 -0.2636 -1.2083  0.7788
 6837SOL    HW232148   0.543   4.029   1.934  0.7022  2.1495  1.9452
 6838SOL     OW32149   3.341   3.305   2.877 -0.5044  0.3161 -0.3505
 6838SOL    HW132150   3.328   3.359   2.799 -2.0715  2.4582  1.3982
 6838SOL    HW232151   3.402   3.365   2.919 -0.1867  0.8675 -1.5937
 6839SOL     OW32152   4.616   2.814   2.973  0.4728  0.6517  0.4205
 6839SOL    HW132153   4.540   2.769   2.936  0.8790 -1.8525  2.7069
 6839SOL    HW232154   4.640   2.756   3.045  1.4777  2.5133  1.5927
 6840SOL     OW32155   0.678   0.290   7.488  0.0938 -0.0190  0.3011
 6840SOL    HW132156   0.629   0.223   7.535  3.0862 -2.0547  0.5509
 6840SOL    HW232157   0.649   0.271   7.399  0.2918 -0.6528  0.3671
 6841SOL     OW32158   1.569   2.576   9.136 -0.2703 -0.0979  0.2170
 6841SOL    HW132159   1.511   2.501   9.127 -1.4906  0.9475 -0.6249
 6841SOL    HW232160   1.544   2.616   9.219  2.9855 -0.2815  1.2897
 6842SOL     OW32161   1.307   2.262   6.891 -0.1717  0.5316  1.0927
 6842SOL    HW132162   1.298   2.172   6.858  0.4976  0.6716  0.5232
 6842SOL    HW232163   1.248   2.254   6.966 -1.3278  1.7599  0.3066
 6843SOL     OW32164   2.877   1.088   8.976 -0.1739  0.1153  0.6436
 6843SOL    HW132165   2.963   1.057   8.947  0.3273  0.1231  2.0843
 6843SOL    HW232166   2.882   1.081   9.071 -0.4366 -0.8868  0.5763
 6844SOL     OW32167   0.056   3.075   5.019  0.2393 -0.7503  0.3187
 6844SOL    HW132168   0.023   3.128   5.092  0.8841 -0.2926  0.2747
 6844SOL    HW232169   0.107   3.135   4.966 -1.3659 -1.2376 -1.7719
 6845SOL     OW32170   4.198   2.727   4.639 -0.6548 -0.2025 -0.4070
 6845SOL    HW132171   4.172   2.806   4.592 -0.4223  0.6533  0.9150
 6845SOL    HW232172   4.289   2.747   4.659 -1.1691  1.1170  0.6082
 6846SOL     OW32173   4.729   0.563   8.652  0.0975  0.3238  0.6620
 6846SOL    HW132174   4.690   0.570   8.564  1.6660  4.9055  0.2981
 6846SOL    HW232175   4.671   0.510   8.706  0.7188 -1.5829 -0.5627
 6847SOL     OW32176   4.446   2.914   4.444  0.0863  0.2997 -0.0539
 6847SOL    HW132177   4.446   2.874   4.531 -0.9008  1.6265  0.5492
 6847SOL    HW232178   4.528   2.892   4.401  0.3624  0.9182  0.1632
 6848SOL     OW32179   0.166   3.744   2.017  0.4595 -0.1691  0.5091
 6848SOL    HW132180   0.241   3.732   1.959  0.8427  1.0140  0.7496
 6848SOL    HW232181   0.095   3.707   1.965  2.2839 -1.2813 -1.1877
 6849SOL     OW32182   2.665   3.754   6.263  0.2792 -0.1346  0.0708
 6849SOL    HW132183   2.687   3.842   6.293  1.1570  1.1017 -4.2435
 6849SOL    HW232184   2.634   3.778   6.176 -0.5930  2.3745  1.0586
 6850SOL     OW32185   2.131   3.177   0.298  0.5529 -0.0866 -0.2178
 6850SOL    HW132186   2.076   3.254   0.313  0.5752 -0.4657  1.7567
 6850SOL    HW232187   2.193   3.214   0.235  1.9093  0.2301  1.3008
 6851SOL     OW32188   1.797   2.004   6.179  0.1872  0.0579 -0.2557
 6851SOL    HW132189   1.864   2.060   6.218 -1.2278  0.3665  1.7550
 6851SOL    HW232190   1.844   1.923   6.163 -3.2071 -2.2034  1.0973
 6852SOL     OW32191   1.177   1.627   9.321 -0.0368  0.1121 -0.6306
 6852SOL    HW132192   1.245   1.677   9.366 -2.1318  3.8448 -1.6531
 6852SOL    HW232193   1.177   1.551   9.379 -1.2894  0.7022  0.1259
 6853SOL     OW32194   3.618   4.100   3.830 -0.5080 -0.0049 -0.5566
 6853SOL    HW132195   3.615   4.037   3.902 -0.6027 -2.1902 -2.4854
 6853SOL    HW232196   3.617   4.049   3.750  2.0231  1.6970 -1.6932
 6854SOL     OW32197   3.788   4.695   4.626 -0.3361 -0.3184  0.2905
 6854SOL    HW132198   3.763   4.660   4.711 -2.3371 -3.0627 -1.4372
 6854SOL    HW232199   3.826   4.616   4.589  2.5524  0.5920  1.3168
 6855SOL     OW32200   3.118   3.496  17.493 -0.3405  0.3378 -0.4907
 6855SOL    HW132201   3.057   3.521  17.424  0.3297 -2.7059 -2.1735
 6855SOL    HW232202   3.106   3.565  17.558  1.1416  1.1838 -1.1200
 6856SOL     OW32203   0.627   3.815   7.293  0.0597 -0.1647  0.3160
 6856SOL    HW132204   0.702   3.847   7.243  0.6676  0.2371  1.4667
 6856SOL    HW232205   0.615   3.897   7.343  1.8375  0.2424  0.0498
 6857SOL     OW32206   2.391   4.390  14.094 -1.0736  0.3403  0.6807
 6857SOL    HW132207   2.422   4.438  14.171  0.1228 -0.5853  0.7809
 6857SOL    HW232208   2.296   4.399  14.102 -1.1706 -1.4899  1.4095
 6858SOL     OW32209   1.113   4.283  15.996 -0.1306  0.5729 -0.3009
 6858SOL    HW132210   1.147   4.367  15.965  0.1877  0.9578  1.0804
 6858SOL    HW232211   1.019   4.289  15.981  0.1098  3.4482 -0.7205
 6859SOL     OW32212   2.331   1.415  10.770  0.1993  0.1083  0.0800
 6859SOL    HW132213   2.383   1.390  10.694  0.8691  1.1823  0.1851
 6859SOL    HW232214   2.286   1.333  10.790  2.7182 -2.0319 -2.9580
 6860SOL     OW32215   3.029   1.955  13.847 -0.2725  0.4736 -0.1568
 6860SOL    HW132216   3.103   1.957  13.907  0.4213  3.6826 -1.1119
 6860SOL    HW232217   3.015   2.049  13.838  3.7533  0.8419 -2.3682
 6861SOL     OW32218   0.286   3.126   8.846 -0.1680  0.1515  0.0990
 6861SOL    HW132219   0.301   3.179   8.768 -0.0012 -0.6754 -0.4343
 6861SOL    HW232220   0.262   3.185   8.917  1.7841  2.0735 -0.8364
 6862SOL     OW32221   3.845   1.538   4.730 -0.1145  0.2151  0.1528
 6862SOL    HW132222   3.784   1.557   4.801  0.5952 -0.7364  1.0198
 6862SOL    HW232223   3.819   1.448   4.708  0.4844  0.3370 -1.0533
 6863SOL     OW32224   0.649   0.622   7.160  0.2594 -0.0836 -0.3557
 6863SOL    HW132225   0.687   0.696   7.113 -0.2508 -0.8332 -1.9398
 6863SOL    HW232226   0.556   0.639   7.143  0.1461 -0.8766 -0.5405
 6864SOL     OW32227   1.353   1.250   2.306 -0.3428 -0.7001 -0.0054
 6864SOL    HW132228   1.327   1.342   2.310 -1.5039 -0.9429 -2.3568
 6864SOL    HW232229   1.400   1.245   2.222  2.0726  0.2120  1.2797
 6865SOL     OW32230   1.900   4.478   6.208 -0.1977 -0.3916  0.2322
 6865SOL    HW132231   1.927   4.546   6.147 -2.8598  0.1715 -0.3103
 6865SOL    HW232232   1.818   4.525   6.218 -0.5494 -0.8993 -0.2416
 6866SOL     OW32233   2.870   3.072   1.390 -0.0639 -0.2877 -0.0731
 6866SOL    HW132234   2.911   2.988   1.409 -2.4555 -1.1237  1.3950
 6866SOL    HW232235   2.832   3.062   1.302  0.6298  0.7146 -0.4857
 6867SOL     OW32236   4.528   0.963   4.914  0.1099  0.2088 -0.0282
 6867SOL    HW132237   4.573   1.039   4.876 -1.7540  1.0123 -0.6217
 6867SOL    HW232238   4.597   0.926   4.969 -0.3733  0.3015  0.6416
 6868SOL     OW32239   2.970   3.528  14.086  0.5347 -0.4000  0.2373
 6868SOL    HW132240   2.877   3.551  14.091  0.6696 -0.2878  2.3480
 6868SOL    HW232241   2.962   3.443  14.130 -0.3483  0.2856  1.3861
 6869SOL     OW32242   3.068   3.695  10.721  0.4927 -0.2509  0.0172
 6869SOL    HW132243   3.032   3.618  10.764 -1.1076 -0.3782 -1.5288
 6869SOL    HW232244   3.099   3.745  10.797  1.3675 -1.6813  0.6025
 6870SOL     OW32245   0.454   0.910  15.121  0.1626  0.6154  0.4046
 6870SOL    HW132246   0.382   0.974  15.120 -1.7674 -1.5368  0.5413
 6870SOL    HW232247   0.469   0.912  15.026 -0.0501  1.1755  0.3815
 6871SOL     OW32248   3.204   0.547  11.998  0.1713 -0.4505 -0.8136
 6871SOL    HW132249   3.210   0.601  11.919  1.0623  1.1204  0.3361
 6871SOL    HW232250   3.295   0.518  12.001  0.1613 -0.3635  0.3006
 6872SOL     OW32251   2.886   0.819   6.508 -0.1470 -0.8280 -0.8957
 6872SOL    HW132252   2.853   0.907   6.493  1.4860  0.0026  0.3770
 6872SOL    HW232253   2.969   0.823   6.461  0.9887  1.9068  1.3832
 6873SOL     OW32254   2.465   4.117   2.598  0.0711 -0.1740 -0.1628
 6873SOL    HW132255   2.424   4.046   2.550 -0.7470  1.0575 -1.2965
 6873SOL    HW232256   2.390   4.152   2.646  0.6384 -1.6109  1.7280
 6874SOL     OW32257   1.850   0.132   3.831  0.3705  0.5860  0.1157
 6874SOL    HW132258   1.885   0.116   3.919 -0.2015  0.4612  0.3233
 6874SOL    HW232259   1.822   0.223   3.845 -2.3855 -0.2710  0.2343
 6875SOL     OW32260   2.910   2.809  11.026  0.4722 -0.3062 -0.0180
 6875SOL    HW132261   2.973   2.880  11.013  0.4248 -0.1581  0.5882
 6875SOL    HW232262   2.936   2.741  10.963  0.4988 -0.9890  0.7208
 6876SOL     OW32263   2.921   2.742   5.739 -0.1547 -0.4415 -0.3303
 6876SOL    HW132264   2.875   2.737   5.655 -0.6199  1.4696 -0.1951
 6876SOL    HW232265   3.003   2.786   5.719 -0.1998  1.1117  2.7661
 6877SOL     OW32266   0.408   4.196   9.203  0.0161  0.1248  0.3443
 6877SOL    HW132267   0.469   4.223   9.271  0.5221 -3.2747  1.2476
 6877SOL    HW232268   0.461   4.183   9.124  0.3074  0.8040  0.4317
 6878SOL     OW32269   3.393   2.443   6.998  0.3463  0.4243  0.0530
 6878SOL    HW132270   3.444   2.393   7.062 -1.7452 -2.1265 -0.2831
 6878SOL    HW232271   3.344   2.493   7.063  1.2361  0.6773  0.5377
 6879SOL     OW32272   3.186   2.707   5.398  0.4841 -0.2248  0.1964
 6879SOL    HW132273   3.122   2.743   5.337 -1.9979 -0.7792  2.4870
 6879SOL    HW232274   3.267   2.735   5.356  1.2057  0.1388  1.8380
 6880SOL     OW32275   1.518   4.125   6.135  0.6981  0.3094  0.3223
 6880SOL    HW132276   1.536   4.041   6.092  0.7446  0.1761  0.6017
 6880SOL    HW232277   1.423   4.126   6.141  0.6210  0.3020 -0.9469
 6881SOL     OW32278   0.076   0.281   2.254 -0.2716  0.4614  0.3415
 6881SOL    HW132279   0.075   0.332   2.173 -0.2313 -1.3084 -0.7749
 6881SOL    HW232280   0.003   0.222   2.237 -0.4249  1.2664 -1.8378
 6882SOL     OW32281   0.540   4.553   0.706 -0.3116  0.0293  0.0081
 6882SOL    HW132282   0.587   4.631   0.736  0.0487 -1.2468  2.7284
 6882SOL    HW232283   0.524   4.567   0.613 -0.1875  1.9786  0.2861
 6883SOL     OW32284   0.641   0.308   9.183  0.4009 -0.1184  0.4725
 6883SOL    HW132285   0.718   0.256   9.161 -0.1488  0.5242 -3.1081
 6883SOL    HW232286   0.583   0.242   9.221  1.6678 -0.5726  1.6135
 6884SOL     OW32287   0.033   2.734   5.231  0.6311 -0.0532  0.0486
 6884SOL    HW132288   0.074   2.661   5.185  0.7750 -0.4459  0.8058
 6884SOL    HW232289   4.711   2.685   5.289 -2.3653  2.1034 -1.1332
 6885SOL     OW32290   2.198   1.966   6.195  0.0181 -0.0313  0.3946
 6885SOL    HW132291   2.172   1.891   6.141  0.2052 -0.9255  1.5388
 6885SOL    HW232292   2.270   2.006   6.147  0.4294 -0.4888  0.6266
 6886SOL     OW32293   2.611   3.217   4.554 -0.0673 -0.5073  0.1691
 6886SOL    HW132294   2.592   3.252   4.641  0.6158 -1.0181  0.5219
 6886SOL    HW232295   2.654   3.298   4.530  2.2521 -1.4941  1.0209
 6887SOL     OW32296   3.954   2.732   7.418 -0.0120 -0.3435  0.1054
 6887SOL    HW132297   4.001   2.665   7.368  1.5399  2.0519 -1.6227
 6887SOL    HW232298   3.885   2.676   7.456  1.1157  0.0822  2.7754
 6888SOL     OW32299   2.356   2.837   0.338 -0.0900  0.1284 -0.0339
 6888SOL    HW132300   2.307   2.830   0.256  2.4319  1.0648 -1.6205
 6888SOL    HW232301   2.421   2.768   0.334 -0.3877 -0.1680  0.2251
 6889SOL     OW32302   4.402   4.591   8.051  0.3557 -0.0056  0.2319
 6889SOL    HW132303   4.317   4.581   8.094 -0.1997 -2.0750 -1.3098
 6889SOL    HW232304   4.378   4.620   7.963  0.6966 -0.1876  0.0801
 6890SOL     OW32305   1.597   3.713   4.249  0.0371 -0.4809  0.2359
 6890SOL    HW132306   1.513   3.668   4.243 -0.8788  1.3012 -0.0731
 6890SOL    HW232307   1.659   3.651   4.210  0.5735 -0.5038  1.1077
 6891SOL     OW32308   0.101   1.923   9.158  0.7621 -0.2685  0.1840
 6891SOL    HW132309   0.112   1.837   9.117 -0.5511 -0.1531 -0.4316
 6891SOL    HW232310   0.099   1.907   9.253 -0.8160 -1.6465 -0.0886
 6892SOL     OW32311   0.195   2.860   6.099  0.1585  0.1582  0.5614
 6892SOL    HW132312   0.224   2.774   6.131 -0.6444 -0.0414  0.7649
 6892SOL    HW232313   0.176   2.838   6.008  1.4175 -3.6198  1.1837
 6893SOL     OW32314   2.965   2.042   0.062  1.0373 -0.7165 -0.1545
 6893SOL    HW132315   2.922   2.126   0.074  2.2467  0.1111 -1.6193
 6893SOL    HW232316   2.903   1.994   0.007 -0.4142 -2.3705  2.9133
 6894SOL     OW32317   2.151   2.985  14.971 -0.1650 -0.0641 -0.2726
 6894SOL    HW132318   2.244   2.997  14.955 -1.2509  4.7818 -2.8723
 6894SOL    HW232319   2.135   2.890  14.975  1.8217 -0.3761  0.0920
 6895SOL     OW32320   1.730   1.341   4.605  0.6040  0.1809  0.1454
 6895SOL    HW132321   1.710   1.264   4.659  0.8228 -1.0725 -1.5571
 6895SOL    HW232322   1.802   1.384   4.651  0.0409  1.4630 -0.1656
 6896SOL     OW32323   3.941   0.961   8.182  0.4238  0.0055 -0.6365
 6896SOL    HW132324   4.001   1.016   8.233  1.6895 -2.3278  0.4015
 6896SOL    HW232325   3.913   1.033   8.126 -0.0767  0.3052 -0.0049
 6897SOL     OW32326   1.999   4.125   1.250 -0.1675  0.1016 -0.4243
 6897SOL    HW132327   1.917   4.084   1.223 -1.3100  1.3381  1.1223
 6897SOL    HW232328   1.986   4.121   1.345  0.3768  1.0875 -0.3066
 6898SOL     OW32329   1.201   2.941   8.199  0.2621  0.2831  0.0107
 6898SOL    HW132330   1.244   3.017   8.239  2.5949 -0.4521 -1.1359
 6898SOL    HW232331   1.261   2.930   8.125 -0.2132 -2.0239 -0.0119
 6899SOL     OW32332   1.769   3.733   1.060  0.1181  0.4358  0.7571
 6899SOL    HW132333   1.798   3.821   1.080 -1.2882  0.9135  0.6996
 6899SOL    HW232334   1.697   3.738   0.998  1.7255 -0.2251 -1.1536
 6900SOL     OW32335   0.560   0.169   6.292 -0.4103  0.3545  0.4081
 6900SOL    HW132336   0.582   0.231   6.222 -0.5448  0.6731  0.6483
 6900SOL    HW232337   0.466   0.171   6.278 -0.4463  0.0981  0.6211
 6901SOL     OW32338   3.009   4.502   2.767  0.1062 -0.0060 -0.1607
 6901SOL    HW132339   2.938   4.485   2.828 -0.2302 -2.2367 -1.1810
 6901SOL    HW232340   3.021   4.421   2.718  0.7738  0.5516 -0.9285
 6902SOL     OW32341   1.409   2.241  11.571  0.1932 -0.2488  0.3116
 6902SOL    HW132342   1.398   2.299  11.646 -4.7025 -0.2410 -0.3967
 6902SOL    HW232343   1.433   2.296  11.497  1.1351 -1.4481 -0.2671
 6903SOL     OW32344   1.420   2.082  17.034  0.1394 -0.2702  0.0272
 6903SOL    HW132345   1.346   2.140  17.018  0.4066  0.8748  2.8310
 6903SOL    HW232346   1.461   2.109  17.117 -0.0418 -2.1754  0.7290
 6904SOL     OW32347   0.235   1.087   2.727 -0.0316 -0.2381 -0.2230
 6904SOL    HW132348   0.199   1.174   2.714  0.4492  0.1715  1.2688
 6904SOL    HW232349   0.255   1.103   2.819 -0.6658 -0.0864 -0.1181
 6905SOL     OW32350   1.551   4.560  10.196  0.1367  0.6144 -0.1347
 6905SOL    HW132351   1.606   4.576  10.273 -0.2822 -1.0169  0.5094
 6905SOL    HW232352   1.473   4.518  10.233  1.8481 -0.4584  2.2508
 6906SOL     OW32353   3.153   0.117   0.070 -0.2535  0.6042 -0.1865
 6906SOL    HW132354   3.239   0.141   0.038  1.1248 -1.7375  1.7677
 6906SOL    HW232355   3.147   0.026   0.041 -0.8283  0.8774 -0.9155
 6907SOL     OW32356   0.612   2.149   2.702 -0.1642 -0.2331 -0.8263
 6907SOL    HW132357   0.670   2.075   2.719 -1.0370 -0.8770 -0.6849
 6907SOL    HW232358   0.644   2.188   2.621  1.1552  0.7464  0.1534
 6908SOL     OW32359   2.852   1.730   7.021  0.8185  0.1239 -0.4693
 6908SOL    HW132360   2.853   1.746   6.927 -1.0490 -0.8531 -0.6535
 6908SOL    HW232361   2.764   1.763   7.039  2.1116  1.5609  3.3841
 6909SOL     OW32362   1.712   0.078  16.071  0.0266 -0.7768 -0.2134
 6909SOL    HW132363   1.744   0.048  16.156 -2.3623  1.6979  1.5617
 6909SOL    HW232364   1.768   0.032  16.009  1.4241  1.3114 -0.5120
 6910SOL     OW32365   1.389   1.311   5.832  0.3541  0.2212  0.2498
 6910SOL    HW132366   1.370   1.240   5.893 -0.8363  1.2555  1.0919
 6910SOL    HW232367   1.310   1.296   5.780  1.7309 -1.5774 -1.2913
 6911SOL     OW32368   2.403   0.479  12.343  0.0470  0.1711  0.3074
 6911SOL    HW132369   2.429   0.486  12.251  0.3147  0.0644  0.3769
 6911SOL    HW232370   2.476   0.448  12.396  0.8433 -0.1378 -0.9617
 6912SOL     OW32371   1.241   1.533  13.544 -0.8278  0.7934 -0.8280
 6912SOL    HW132372   1.327   1.555  13.507 -0.4828 -2.8506 -2.1939
 6912SOL    HW232373   1.222   1.596  13.613  1.3527 -0.8954  1.3573
 6913SOL     OW32374   2.317   4.022   5.650 -0.3859  0.0091 -0.6540
 6913SOL    HW132375   2.362   3.943   5.620 -0.4546  0.4116 -1.7998
 6913SOL    HW232376   2.225   4.007   5.630 -1.1971 -0.6660  3.5603
 6914SOL     OW32377   4.466   1.762   3.989 -0.2269 -0.1488  0.1866
 6914SOL    HW132378   4.433   1.848   4.016  0.6677  0.6266 -1.1420
 6914SOL    HW232379   4.555   1.770   4.023 -0.2189 -1.5911  0.5091
 6915SOL     OW32380   2.595   3.453   2.843 -0.1808 -0.0710  0.4471
 6915SOL    HW132381   2.600   3.417   2.755 -1.5487 -0.5054  0.5555
 6915SOL    HW232382   2.561   3.374   2.884  1.1304 -0.2854  1.1524
 6916SOL     OW32383   0.761   0.539  10.570 -0.1105  0.4595  0.2680
 6916SOL    HW132384   0.767   0.446  10.551 -2.1415  0.0078  1.7701
 6916SOL    HW232385   0.837   0.559  10.626  0.4831  0.4987 -0.5612
 6917SOL     OW32386   3.658   2.304   8.462  0.1907  0.2673 -0.0602
 6917SOL    HW132387   3.733   2.290   8.404 -0.3957  0.8757 -0.9658
 6917SOL    HW232388   3.616   2.219   8.445  2.8072 -1.2856  1.2752
 6918SOL     OW32389   3.610   1.826   1.463 -0.0374 -0.3712  0.2735
 6918SOL    HW132390   3.528   1.875   1.470 -0.9694 -1.8679  0.0571
 6918SOL    HW232391   3.595   1.774   1.542 -0.7420 -0.7338 -0.0982
 6919SOL     OW32392   1.124   3.098   9.672  0.2151  0.2816  0.1004
 6919SOL    HW132393   1.045   3.049   9.648 -0.7399  2.4560 -1.2932
 6919SOL    HW232394   1.123   3.103   9.767  1.0430 -0.0211  0.1217
 6920SOL     OW32395   4.259   1.699   2.753 -0.7450 -0.9061  0.5988
 6920SOL    HW132396   4.254   1.631   2.820  3.8829 -1.5754  0.2844
 6920SOL    HW232397   4.178   1.693   2.703  0.6332 -0.4911 -1.6578
 6921SOL     OW32398   2.545   0.082   9.079  0.3357  0.5534  0.3505
 6921SOL    HW132399   2.566   0.164   9.035 -1.3280  0.8694  0.1738
 6921SOL    HW232400   2.625   0.043   9.116  0.3526  0.4963  0.2547
 6922SOL     OW32401   2.899   1.059  15.184 -0.4573  0.2253 -0.1209
 6922SOL    HW132402   2.935   1.145  15.163  0.1576 -0.5236 -2.0329
 6922SOL    HW232403   2.829   1.053  15.119  0.2992  1.2564 -1.0364
 6923SOL     OW32404   0.083   0.891   3.144  0.3873 -0.0248 -0.1010
 6923SOL    HW132405   0.149   0.823   3.154  3.0400  2.4885 -0.6320
 6923SOL    HW232406   0.004   0.840   3.126 -1.1661  2.2593  0.1348
 6924SOL     OW32407   2.177   2.822  17.672  0.3229 -0.3532 -0.1533
 6924SOL    HW132408   2.266   2.844  17.703  0.1561  0.6035 -0.3457
 6924SOL    HW232409   2.132   2.838   0.010 -0.6033 -3.1889 -0.1275
 6925SOL     OW32410   2.600   1.125   7.552 -0.0683  0.0061  0.1731
 6925SOL    HW132411   2.644   1.067   7.490 -1.3727 -0.3592 -0.4197
 6925SOL    HW232412   2.568   1.061   7.616 -0.5941 -0.1279 -0.2222
 6926SOL     OW32413   4.467   3.534  15.401  0.0189  0.9704  0.3192
 6926SOL    HW132414   4.436   3.607  15.455 -0.4372 -1.1727  2.9531
 6926SOL    HW232415   4.561   3.546  15.395 -0.0851  0.8593 -1.5354
 6927SOL     OW32416   1.996   0.358  17.340 -0.0964 -0.3131 -0.4263
 6927SOL    HW132417   2.060   0.288  17.352 -0.7182 -0.3880  2.5219
 6927SOL    HW232418   2.039   0.391  17.261  1.9049  0.6602  1.0696
 6928SOL     OW32419   1.768   4.007   1.175  0.4169  0.0794 -1.0826
 6928SOL    HW132420   1.715   3.975   1.248 -0.1659 -0.0542 -1.5661
 6928SOL    HW232421   1.701   4.049   1.122 -0.8046 -2.2868 -1.4159
 6929SOL     OW32422   2.281   1.337   5.740  0.2284 -0.2825  0.0461
 6929SOL    HW132423   2.373   1.315   5.726  0.7082  1.9582 -0.4565
 6929SOL    HW232424   2.283   1.391   5.819 -0.1828 -0.5093  0.2123
 6930SOL     OW32425   3.653   0.105   2.123  0.2373  0.7952  0.2511
 6930SOL    HW132426   3.566   0.135   2.149 -0.3799  0.8355 -1.8650
 6930SOL    HW232427   3.691   0.144   2.202 -0.2217 -0.3485  1.0388
 6931SOL     OW32428   1.603   2.569   1.248  0.3613  0.0681 -0.6034
 6931SOL    HW132429   1.659   2.497   1.276  1.6714  0.8280 -1.2407
 6931SOL    HW232430   1.613   2.624   1.326  1.9372  0.0714 -0.8143
 6932SOL     OW32431   1.014   3.202  10.792 -0.4960  0.2136 -0.6624
 6932SOL    HW132432   1.054   3.118  10.771 -0.9920  0.1703 -1.4289
 6932SOL    HW232433   1.078   3.246  10.849 -0.8417  0.6827 -0.6364
 6933SOL     OW32434   2.768   1.563  12.777 -0.3979  0.1252 -0.4036
 6933SOL    HW132435   2.847   1.590  12.825 -1.3526 -0.9349  1.7477
 6933SOL    HW232436   2.705   1.561  12.849  0.0645 -3.8509 -0.0885
 6934SOL     OW32437   0.581   0.008   3.816  0.3874  0.1413  0.4269
 6934SOL    HW132438   0.519   0.003   3.744  0.9116  0.8805 -0.0762
 6934SOL    HW232439   0.528   4.707   3.886  0.6494 -0.0145  0.5436
 6935SOL     OW32440   0.635   1.048   5.987  0.1760 -0.3735 -0.8389
 6935SOL    HW132441   0.727   1.070   6.002 -0.5587  1.6790  0.6673
 6935SOL    HW232442   0.606   1.072   6.075  0.9622 -0.4922 -0.5527
 6936SOL     OW32443   3.783   0.184   3.843  0.6304 -0.1337  0.3081
 6936SOL    HW132444   3.827   0.269   3.853 -0.3071  0.8431 -3.6943
 6936SOL    HW232445   3.701   0.200   3.890  1.8095  1.3675  1.8439
 6937SOL     OW32446   2.174   0.792   6.570  0.0571 -0.2736 -0.4016
 6937SOL    HW132447   2.265   0.812   6.593 -0.0711 -1.0085  0.7899
 6937SOL    HW232448   2.118   0.864   6.598 -0.2451  0.4870 -2.9816
 6938SOL     OW32449   1.765   1.202   7.800 -0.0031  0.0042 -0.2769
 6938SOL    HW132450   1.702   1.222   7.731 -1.8047  1.0895  1.6784
 6938SOL    HW232451   1.707   1.198   7.876 -0.1533 -1.9705 -0.4822
 6939SOL     OW32452   1.480   4.469   1.603 -0.1224 -0.0846  0.1955
 6939SOL    HW132453   1.539   4.476   1.678 -1.3773  0.6019  1.1116
 6939SOL    HW232454   1.522   4.511   1.528  0.0704 -0.6720 -0.0220
 6940SOL     OW32455   2.820   0.686  11.921 -0.0384 -0.0487  1.0728
 6940SOL    HW132456   2.762   0.615  11.894  0.3583  0.7330 -1.8760
 6940SOL    HW232457   2.855   0.640  11.998  1.5057 -0.3967  0.1564
 6941SOL     OW32458   1.313   0.280   2.819 -0.3031  0.8276  0.0982
 6941SOL    HW132459   1.370   0.356   2.816  0.8323  0.0322  1.9882
 6941SOL    HW232460   1.248   0.315   2.757 -0.4577  0.5931  0.1297
 6942SOL     OW32461   2.562   2.552   0.880 -0.0670 -0.1579  0.3438
 6942SOL    HW132462   2.536   2.459   0.881  2.5103 -0.8968 -0.4551
 6942SOL    HW232463   2.495   2.601   0.834  1.3376 -0.9458 -2.5522
 6943SOL     OW32464   0.475   0.711  17.075  0.0884  0.4167  0.1946
 6943SOL    HW132465   0.496   0.794  17.033 -0.8568 -0.8332 -2.6972
 6943SOL    HW232466   0.379   0.712  17.071  0.0997 -0.6104 -0.4492
 6944SOL     OW32467   2.757   4.070   1.458  0.1940 -1.0036  0.0436
 6944SOL    HW132468   2.817   4.144   1.449 -0.5188 -0.2737  1.4849
 6944SOL    HW232469   2.678   4.118   1.481  1.2453  0.8817 -0.2595
 6945SOL     OW32470   3.908   2.613   0.279  0.4990  0.0903  0.8809
 6945SOL    HW132471   3.818   2.608   0.248  0.5057 -0.9853  1.0426
 6945SOL    HW232472   3.916   2.708   0.286  0.8327  0.1985 -0.7384
 6946SOL     OW32473   1.240   4.106  16.510 -0.0070 -0.1650 -0.1905
 6946SOL    HW132474   1.212   4.019  16.536  2.1768 -1.0896 -0.9291
 6946SOL    HW232475   1.175   4.138  16.447  1.6266 -1.2924 -2.4532
 6947SOL     OW32476   2.329   1.496   5.497 -0.1580 -0.0322 -0.0806
 6947SOL    HW132477   2.304   1.588   5.506  0.0516 -0.1796  1.9851
 6947SOL    HW232478   2.300   1.454   5.578 -0.6936  0.0634 -0.2235
 6948SOL     OW32479   1.223   0.959  17.397 -0.5622  0.6659  0.5152
 6948SOL    HW132480   1.234   0.963  17.492  2.9121  2.0637  0.0449
 6948SOL    HW232481   1.306   0.923  17.365 -1.0387 -0.3329  0.3882
 6949SOL     OW32482   1.094   3.063   7.781 -0.1195  0.1295 -0.6345
 6949SOL    HW132483   1.011   3.108   7.797  0.8431  0.6678  2.8037
 6949SOL    HW232484   1.105   3.065   7.686  0.1324  0.7774 -0.5947
 6950SOL     OW32485   3.757   3.839   1.973  0.4704 -0.1059 -0.3107
 6950SOL    HW132486   3.676   3.836   1.922 -0.0342 -0.3523  0.5126
 6950SOL    HW232487   3.773   3.745   1.966  1.1738  0.0673 -1.0620
 6951SOL     OW32488   2.942   3.144   3.939  0.2618 -0.7561  0.4334
 6951SOL    HW132489   2.879   3.072   3.937  0.9707 -1.3409 -0.3609
 6951SOL    HW232490   3.006   3.116   3.874  0.8196  0.9890  0.2202
 6952SOL     OW32491   1.972   1.740   9.169 -0.1260  0.1724 -0.0669
 6952SOL    HW132492   2.039   1.684   9.129  0.6367 -1.5799  3.6251
 6952SOL    HW232493   2.014   1.764   9.252  1.6782  0.5609 -1.0909
 6953SOL     OW32494   1.777   3.928   7.033 -0.7859 -0.1541 -0.5469
 6953SOL    HW132495   1.700   3.872   7.046  0.9506 -2.0677  1.5094
 6953SOL    HW232496   1.764   3.994   7.101 -1.1385  0.4786 -1.2230
 6954SOL     OW32497   4.144   0.239   2.012  0.2559  0.2297  0.1444
 6954SOL    HW132498   4.103   0.278   2.090 -0.2002 -1.8420  0.9431
 6954SOL    HW232499   4.062   0.218   1.968  0.6939  0.8488 -0.9456
 6955SOL     OW32500   4.664   2.795   6.267 -0.7973  0.7431 -0.2433
 6955SOL    HW132501   4.710   2.846   6.334 -0.9096  0.5147  0.0088
 6955SOL    HW232502   4.687   2.854   6.196 -0.5437  0.2073 -0.6109
 6956SOL     OW32503   1.905   3.740  15.151 -0.2063 -0.4239  0.4368
 6956SOL    HW132504   1.830   3.704  15.199 -0.4858 -0.1567  0.2026
 6956SOL    HW232505   1.963   3.668  15.127 -1.6557 -1.4103 -0.1330
 6957SOL     OW32506   3.099   2.670  17.500 -0.1581 -0.2128  0.0840
 6957SOL    HW132507   3.048   2.669  17.419  1.8008 -2.0332 -1.1248
 6957SOL    HW232508   3.167   2.735  17.479 -0.0577  0.0992  1.3593
 6958SOL     OW32509   0.207   1.733  12.048 -0.1677 -0.1327  0.4248
 6958SOL    HW132510   0.180   1.652  12.005 -0.0609  0.8897 -1.5531
 6958SOL    HW232511   0.213   1.687  12.132 -1.5812  0.9326  1.1019
 6959SOL     OW32512   0.620   2.390  11.961  0.8924 -0.0198  0.4650
 6959SOL    HW132513   0.598   2.483  11.968  2.6957  0.3981  0.7125
 6959SOL    HW232514   0.682   2.395  11.888  0.1288 -0.3238 -0.1909
 6960SOL     OW32515   3.721   0.376   5.243  0.4964 -0.0084  0.0703
 6960SOL    HW132516   3.802   0.422   5.267  0.3380  1.6924 -2.7370
 6960SOL    HW232517   3.755   0.286   5.250  0.0372 -0.0099  2.2480
 6961SOL     OW32518   1.546   0.102   4.309 -0.0047 -0.0336 -0.1449
 6961SOL    HW132519   1.579   0.192   4.317  1.7363 -0.7245  0.6650
 6961SOL    HW232520   1.620   0.040   4.304  0.2391  0.3259 -0.9297
 6962SOL     OW32521   4.341   1.495   5.786 -0.4834  0.0623 -0.5434
 6962SOL    HW132522   4.312   1.576   5.743 -1.2487  1.0361  1.8090
 6962SOL    HW232523   4.404   1.454   5.726 -1.2159  1.7074 -2.4429
 6963SOL     OW32524   0.268   0.427   6.797 -0.0197  0.3479  0.1936
 6963SOL    HW132525   0.283   0.508   6.749 -1.8537 -0.0676 -1.1089
 6963SOL    HW232526   0.353   0.417   6.839  1.1804 -1.0082 -2.5673
 6964SOL     OW32527   1.363   4.469   4.080 -0.0707  0.4537 -0.0187
 6964SOL    HW132528   1.334   4.439   3.994  0.2790 -1.2904  0.4653
 6964SOL    HW232529   1.382   4.389   4.130 -0.8890  2.1155  2.9150
 6965SOL     OW32530   0.250   4.195   5.878 -0.3498 -0.0413  0.2768
 6965SOL    HW132531   0.296   4.189   5.962 -1.7831 -2.2538  0.8954
 6965SOL    HW232532   0.317   4.171   5.814  0.3735  0.7085  0.7540
 6966SOL     OW32533   0.417   4.031   2.093  0.0982  0.0103  0.4659
 6966SOL    HW132534   0.436   4.062   2.182  0.1277  2.1818 -0.2859
 6966SOL    HW232535   0.328   4.058   2.071 -0.0634 -1.6859 -1.0097
 6967SOL     OW32536   3.088   0.497   7.101 -0.3098  0.1988  0.6528
 6967SOL    HW132537   3.152   0.551   7.148 -0.9719  0.0329  1.7466
 6967SOL    HW232538   3.071   0.556   7.028 -0.1698 -1.1003 -0.4117
 6968SOL     OW32539   0.982   1.338   8.620 -0.1447 -0.8471  0.0789
 6968SOL    HW132540   1.050   1.274   8.637  1.2170  1.1384  2.0629
 6968SOL    HW232541   0.989   1.389   8.701 -3.3108 -1.4174  0.7185
 6969SOL     OW32542   1.377   2.049   4.074  0.6396  0.0712  0.5822
 6969SOL    HW132543   1.389   1.980   4.009  0.4455  1.1062 -0.5685
 6969SOL    HW232544   1.373   2.011   4.162 -0.8471  1.7536  1.2364
 6970SOL     OW32545   3.386   2.280   4.374  0.2229  0.0269 -0.1065
 6970SOL    HW132546   3.451   2.210   4.384  0.0686  0.1323  1.5817
 6970SOL    HW232547   3.441   2.357   4.385  1.0458 -0.4897 -0.5908
 6971SOL     OW32548   3.303   2.535   4.794 -0.0907  0.1959  0.5798
 6971SOL    HW132549   3.313   2.458   4.850  0.1096  1.2790  2.0262
 6971SOL    HW232550   3.294   2.601   4.863 -1.8079  0.9173 -0.3327
 6972SOL     OW32551   1.644   0.781  14.000 -0.3378 -0.2280 -0.1390
 6972SOL    HW132552   1.724   0.808  13.955 -1.0837  3.3198  0.6492
 6972SOL    HW232553   1.575   0.775  13.933 -0.4403 -3.6780  0.3112
 6973SOL     OW32554   4.189   2.229   3.520 -0.5095  0.1653  0.2486
 6973SOL    HW132555   4.253   2.166   3.487 -2.5467 -0.6431 -2.1015
 6973SOL    HW232556   4.171   2.196   3.608 -2.5897 -1.1981 -0.6937
 6974SOL     OW32557   0.376   1.737  11.291  0.0145  0.5456  0.3080
 6974SOL    HW132558   0.435   1.810  11.307  0.4770  0.2653 -0.0916
 6974SOL    HW232559   0.324   1.731  11.371  2.1364 -1.7631  1.5282
 6975SOL     OW32560   1.153   1.218  12.542 -0.3423 -0.1846  0.3705
 6975SOL    HW132561   1.106   1.136  12.524 -1.3985  0.6086 -0.4889
 6975SOL    HW232562   1.205   1.205  12.463 -0.2576 -0.8545  0.5308
 6976SOL     OW32563   1.338   3.506  17.705  0.0081  0.3142 -0.1255
 6976SOL    HW132564   1.378   3.427  17.741 -1.1630 -0.1013  0.2706
 6976SOL    HW232565   1.326   3.550   0.045 -0.5250 -1.0588  0.5030
 6977SOL     OW32566   4.385   2.298   3.812 -0.8551  0.3799  0.0879
 6977SOL    HW132567   4.443   2.373   3.804 -1.7908  0.9442 -1.3362
 6977SOL    HW232568   4.305   2.349   3.805 -1.1016  0.0327  0.3402
 6978SOL     OW32569   0.023   0.943  13.585  0.2187 -0.2853 -0.0627
 6978SOL    HW132570   0.101   0.902  13.622 -0.7322 -2.3876 -0.3930
 6978SOL    HW232571   0.031   1.028  13.628  2.9184  1.1997 -3.4431
 6979SOL     OW32572   1.630   0.933   2.182 -0.3423 -0.0680 -0.1981
 6979SOL    HW132573   1.693   0.924   2.111  0.8268  0.8582  0.7393
 6979SOL    HW232574   1.555   0.897   2.135 -0.4258 -0.2235  0.0554
 6980SOL     OW32575   3.089   0.414   4.202 -0.0925 -0.3197 -0.2369
 6980SOL    HW132576   3.112   0.445   4.114 -0.6332 -0.7896 -0.5428
 6980SOL    HW232577   3.157   0.347   4.212 -0.0792 -0.1317  0.8541
 6981SOL     OW32578   2.099   1.414   1.600  0.1199 -0.2607  0.1478
 6981SOL    HW132579   2.132   1.468   1.528 -2.6030  0.8866 -0.2324
 6981SOL    HW232580   2.080   1.477   1.670  0.0247 -1.6970  1.4099
 6982SOL     OW32581   1.545   0.279   0.204  0.4984 -0.2189  0.0231
 6982SOL    HW132582   1.464   0.240   0.236 -0.3685  3.3555  2.1840
 6982SOL    HW232583   1.516   0.312   0.119 -0.7920 -3.1954 -0.6666
 6983SOL     OW32584   0.869   2.097   5.416  0.1997  1.3557 -0.6241
 6983SOL    HW132585   0.949   2.127   5.373  1.9649  2.4123  3.4053
 6983SOL    HW232586   0.897   2.011   5.447 -1.1339  1.0663 -0.2292
 6984SOL     OW32587   0.771   1.342   5.017 -0.2282 -0.3567 -0.0195
 6984SOL    HW132588   0.772   1.372   5.108 -1.4022 -1.4559  0.3518
 6984SOL    HW232589   0.685   1.364   4.982  0.3066  1.3239 -0.2842
 6985SOL     OW32590   1.109   3.458  15.396 -0.0262  0.4512 -0.1918
 6985SOL    HW132591   1.184   3.400  15.397 -0.4063 -0.1128 -3.1003
 6985SOL    HW232592   1.129   3.510  15.318  1.2261 -0.6680 -0.6175
 6986SOL     OW32593   2.918   4.503   6.756  0.1455 -0.0259 -0.6818
 6986SOL    HW132594   2.874   4.433   6.708  1.6992 -1.4289 -0.0557
 6986SOL    HW232595   2.950   4.556   6.683 -2.3800  2.2424 -0.1762
 6987SOL     OW32596   1.730   0.702   9.437  0.2244 -0.3825  0.1269
 6987SOL    HW132597   1.679   0.743   9.507  0.1675  1.2418 -0.8651
 6987SOL    HW232598   1.804   0.668   9.489  1.4287  0.5083 -0.9920
 6988SOL     OW32599   0.045   3.765   5.646 -0.4039  0.4299 -0.4386
 6988SOL    HW132600   0.134   3.748   5.677 -1.3104  0.6700  2.3119
 6988SOL    HW232601   4.731   3.708   5.704 -1.9346  1.4499 -0.7907
 6989SOL     OW32602   2.057   3.164   4.161 -0.2982  0.3161 -0.5157
 6989SOL    HW132603   2.080   3.184   4.070  1.0302  0.6310 -0.1089
 6989SOL    HW232604   2.133   3.119   4.197 -0.6410  0.9565  1.0376
 6990SOL     OW32605   2.089   3.667   1.933 -0.5988  0.2584  0.1557
 6990SOL    HW132606   2.008   3.689   1.887 -0.0748  1.6658 -0.1119
 6990SOL    HW232607   2.130   3.593   1.889  0.2161  0.0224  1.2922
 6991SOL     OW32608   2.476   2.212   1.333  0.4763  0.9300 -0.6317
 6991SOL    HW132609   2.467   2.296   1.379 -2.1121  0.1155  0.3534
 6991SOL    HW232610   2.406   2.166   1.379  1.5471 -0.6719 -0.5960
 6992SOL     OW32611   3.811   2.643   2.663  0.0182 -0.2942 -0.3643
 6992SOL    HW132612   3.881   2.700   2.633 -0.4089  0.8078  0.7002
 6992SOL    HW232613   3.747   2.704   2.699  2.4416  2.0035  0.0412
 6993SOL     OW32614   1.113   0.183   3.175  0.3775 -0.3476 -0.5695
 6993SOL    HW132615   1.154   0.148   3.254 -1.4866 -0.3344  0.4157
 6993SOL    HW232616   1.194   0.208   3.131  0.6639 -1.6982 -0.8001
 6994SOL     OW32617   1.589   3.697   4.533 -0.4409  0.0197  0.1257
 6994SOL    HW132618   1.542   3.706   4.450 -0.3038  1.7826  0.2431
 6994SOL    HW232619   1.529   3.650   4.590 -0.0818 -1.2101 -0.5059
 6995SOL     OW32620   3.921   4.097   9.867 -0.3034  0.0239 -0.1673
 6995SOL    HW132621   3.911   4.167   9.932  0.9420 -0.6830  0.7935
 6995SOL    HW232622   3.990   4.136   9.814 -1.1696 -1.2656 -2.2387
 6996SOL     OW32623   2.707   0.419  11.848 -0.2948  0.3692 -0.0149
 6996SOL    HW132624   2.675   0.342  11.801  0.9711  0.6445 -1.3138
 6996SOL    HW232625   2.793   0.416  11.806 -0.0357 -1.1051  0.6285
 6997SOL     OW32626   4.204   2.213   4.574  0.5937  0.0831 -0.2424
 6997SOL    HW132627   4.201   2.281   4.507  0.3030  0.2972 -0.0130
 6997SOL    HW232628   4.111   2.204   4.594  0.6042 -0.0813 -0.2684
 6998SOL     OW32629   3.915   1.953   2.656  0.2832  0.0406  0.1358
 6998SOL    HW132630   3.870   1.910   2.729  0.7671 -2.3104 -0.9177
 6998SOL    HW232631   3.966   1.875   2.631  2.5769  1.9144 -1.0553
 6999SOL     OW32632   1.512   2.415   4.443  0.0395  0.1946  0.9757
 6999SOL    HW132633   1.441   2.450   4.388  0.8156 -0.0654 -0.1976
 6999SOL    HW232634   1.588   2.430   4.387  1.0481  0.9047  2.5730
 7000SOL     OW32635   3.666   1.876  16.342  0.3186  0.0358  0.3674
 7000SOL    HW132636   3.720   1.852  16.267 -3.9126  0.4510 -2.8270
 7000SOL    HW232637   3.594   1.917  16.295 -0.0352 -1.1515 -0.1225
 7001SOL     OW32638   1.639   1.520   9.935  0.0803  0.2226  0.3318
 7001SOL    HW132639   1.728   1.537   9.907 -0.3978 -0.1348 -1.3980
 7001SOL    HW232640   1.661   1.491  10.024 -0.9886 -0.5394  0.3589
 7002SOL     OW32641   1.514   0.189  15.947 -0.9003 -0.4822 -0.5338
 7002SOL    HW132642   1.591   0.176  16.002 -0.6861  0.2355 -0.6589
 7002SOL    HW232643   1.545   0.149  15.866  2.6289 -0.5754  0.8238
 7003SOL     OW32644   1.548   3.082   0.026  0.3594  0.7201  0.2106
 7003SOL    HW132645   1.610   3.009   0.034  0.5318  0.9217  0.7156
 7003SOL    HW232646   1.493   3.051  17.699  2.1775  1.0649 -1.3299
 7004SOL     OW32647   2.385   3.450   5.522  0.5654  0.0723 -0.4080
 7004SOL    HW132648   2.446   3.400   5.576 -0.9695  0.0735  1.3202
 7004SOL    HW232649   2.324   3.473   5.593  1.2128 -0.3155  0.2719
 7005SOL     OW32650   0.214   1.348  14.172 -0.1999  0.1612  0.6436
 7005SOL    HW132651   0.126   1.324  14.202 -0.5578  1.9419  1.0195
 7005SOL    HW232652   0.277   1.321  14.239  1.3864  2.1989 -0.0228
 7006SOL     OW32653   2.046   2.221   5.205 -0.1449  0.4114 -0.7339
 7006SOL    HW132654   1.982   2.278   5.248  0.6417 -0.5404  1.7269
 7006SOL    HW232655   2.014   2.134   5.230 -1.1421  0.4751 -1.7689
 7007SOL     OW32656   0.678   4.172   5.552 -0.2130 -0.3833  0.3131
 7007SOL    HW132657   0.647   4.129   5.472  0.1324 -3.6003  1.9018
 7007SOL    HW232658   0.676   4.263   5.522 -1.6110 -0.7843 -0.8487
 7008SOL     OW32659   3.001   1.602   3.471  0.8845  0.4633 -0.5172
 7008SOL    HW132660   2.979   1.674   3.413 -2.4579  1.0794  1.5162
 7008SOL    HW232661   3.076   1.560   3.428  0.7630  0.5143 -0.7767
 7009SOL     OW32662   3.825   3.843   2.246  0.4000 -0.0980  0.5958
 7009SOL    HW132663   3.741   3.882   2.270  1.0055  0.6578  1.4613
 7009SOL    HW232664   3.819   3.847   2.150  4.4912 -0.0226  0.3485
 7010SOL     OW32665   0.690   1.103   0.241  0.6713 -0.3259  0.2328
 7010SOL    HW132666   0.626   1.107   0.170  1.2059  1.4898 -0.1284
 7010SOL    HW232667   0.659   1.032   0.297 -4.8462  1.8340 -0.0383
 7011SOL     OW32668   3.508   0.881   3.146 -0.1452 -0.3879  0.1605
 7011SOL    HW132669   3.547   0.949   3.201 -1.2233 -0.7440  1.3532
 7011SOL    HW232670   3.434   0.856   3.202  0.3517  0.9198  1.3961
 7012SOL     OW32671   2.664   4.329   7.538 -1.1429  0.0845 -0.1235
 7012SOL    HW132672   2.588   4.286   7.498  0.4785 -1.3824 -1.6292
 7012SOL    HW232673   2.616   4.396   7.586 -0.8010  0.4403 -0.2830
 7013SOL     OW32674   1.847   4.460   6.688  0.2883  0.0527  0.3826
 7013SOL    HW132675   1.769   4.513   6.672 -0.6330 -1.6480 -0.6186
 7013SOL    HW232676   1.861   4.426   6.600 -0.4189 -0.3455  0.4324
 7014SOL     OW32677   3.961   1.250   6.124  0.1905  0.6303 -0.1757
 7014SOL    HW132678   3.977   1.313   6.194  0.0022  0.0223  0.4087
 7014SOL    HW232679   3.991   1.300   6.048 -0.9377 -0.8021 -1.5827
 7015SOL     OW32680   2.304   1.928   7.152  0.1224 -0.4529 -0.0559
 7015SOL    HW132681   2.242   1.927   7.225 -1.0146  2.1465 -1.0036
 7015SOL    HW232682   2.284   2.014   7.117  1.9064 -0.5277 -1.2496
 7016SOL     OW32683   4.442   0.166   5.784  0.3957  0.7354 -0.2862
 7016SOL    HW132684   4.371   0.134   5.839  0.3226 -0.2486 -0.9453
 7016SOL    HW232685   4.407   0.241   5.735  0.5563  2.3882  2.1444
 7017SOL     OW32686   2.913   0.993   9.227  0.3743 -0.0653  0.7494
 7017SOL    HW132687   2.937   0.906   9.260 -0.3820 -0.5637 -0.0047
 7017SOL    HW232688   2.861   1.028   9.299 -0.7228  0.6896 -0.4060
 7018SOL     OW32689   2.822   4.144   2.994  0.0284  0.0621  0.8027
 7018SOL    HW132690   2.736   4.149   3.037  0.4019 -1.8273  1.7429
 7018SOL    HW232691   2.801   4.219   2.938  3.5036  0.2007 -0.3029
 7019SOL     OW32692   0.464   3.100  10.456 -0.1642 -0.4887 -0.2557
 7019SOL    HW132693   0.384   3.068  10.413  0.2102 -0.0016 -1.3159
 7019SOL    HW232694   0.513   3.122  10.377  2.0054 -0.5672  1.0787
 7020SOL     OW32695   4.688   3.173  15.777  0.4152  0.0168 -0.3616
 7020SOL    HW132696   4.621   3.184  15.709  0.3408  1.2846 -0.0938
 7020SOL    HW232697   0.007   3.247  15.753 -0.0494  1.4065  2.8456
 7021SOL     OW32698   1.564   1.537   8.855  0.3239 -0.2051 -0.1506
 7021SOL    HW132699   1.485   1.591   8.861  0.0808 -0.4925 -0.9326
 7021SOL    HW232700   1.609   1.565   8.936 -0.6974 -0.3307  0.4562
 7022SOL     OW32701   2.414   4.086  13.538 -0.5072 -0.2823 -0.1507
 7022SOL    HW132702   2.355   4.156  13.564  0.7602  0.0316  1.9293
 7022SOL    HW232703   2.384   4.074  13.448  1.5611  0.3904 -0.9405
 7023SOL     OW32704   4.461   0.398   4.235  0.0098 -0.0100 -0.0246
 7023SOL    HW132705   4.538   0.392   4.178 -1.9371  2.9858 -3.0052
 7023SOL    HW232706   4.400   0.450   4.182 -0.5845 -1.8527 -1.1382
 7024SOL     OW32707   1.947   4.010  12.114  0.5880 -0.7824  0.0263
 7024SOL    HW132708   2.016   4.076  12.116  0.2270 -0.4263  0.5983
 7024SOL    HW232709   1.937   3.985  12.022  2.6959  0.0180 -0.4230
 7025SOL     OW32710   1.668   0.012  10.400 -0.1588  0.0578 -0.2925
 7025SOL    HW132711   1.652   0.089  10.456 -0.2062 -0.0912 -0.1028
 7025SOL    HW232712   1.727   0.041  10.330  2.0859 -0.8185  1.2273
 7026SOL     OW32713   3.593   3.307   2.594  0.2099 -1.3838  0.4955
 7026SOL    HW132714   3.666   3.356   2.632 -1.8685  1.4935  0.7306
 7026SOL    HW232715   3.518   3.364   2.610  1.3080  0.7275 -1.7519
 7027SOL     OW32716   2.223   3.614   4.534 -0.1565  0.0026 -0.3551
 7027SOL    HW132717   2.230   3.670   4.457 -2.2904  1.7227  0.6855
 7027SOL    HW232718   2.257   3.531   4.502 -1.1040  0.0890 -1.6029
 7028SOL     OW32719   4.680   0.878   2.098 -0.2333 -0.4494 -0.3014
 7028SOL    HW132720   4.636   0.794   2.108  1.1635 -1.2526 -0.8806
 7028SOL    HW232721   4.631   0.931   2.161 -0.2015 -0.3566 -0.3552
 7029SOL     OW32722   1.122   3.609   7.335 -0.1928  0.0330  0.1679
 7029SOL    HW132723   1.169   3.657   7.267  1.7844  0.7814  2.0891
 7029SOL    HW232724   1.037   3.591   7.295 -0.5989 -0.1407  1.1017
 7030SOL     OW32725   3.339   2.401  17.233  0.2560  0.2495  0.6831
 7030SOL    HW132726   3.289   2.460  17.177 -0.3225  0.1792  1.1221
 7030SOL    HW232727   3.366   2.466  17.299  0.0367  1.1167 -0.0849
 7031SOL     OW32728   0.324   2.628   6.033 -0.8006  0.1985 -0.3145
 7031SOL    HW132729   0.269   2.615   5.956  1.5419 -2.4112 -1.5848
 7031SOL    HW232730   0.308   2.547   6.082 -1.0353  0.5942  0.2506
 7032SOL     OW32731   4.024   4.496  10.645 -0.3993  0.0477 -0.0400
 7032SOL    HW132732   4.071   4.488  10.728 -2.7555 -1.5957  1.1328
 7032SOL    HW232733   3.934   4.472  10.663 -1.4000  1.0749 -3.6139
 7033SOL     OW32734   0.492   3.319  15.659  0.7178 -0.1424  0.2502
 7033SOL    HW132735   0.512   3.333  15.752  2.0595 -0.9403  0.0881
 7033SOL    HW232736   0.560   3.383  15.640  1.0943 -0.6079  0.0205
 7034SOL     OW32737   2.785   0.922   0.353  0.3162 -0.0133  0.0308
 7034SOL    HW132738   2.839   0.977   0.297  0.2246  0.0026 -0.0419
 7034SOL    HW232739   2.775   0.972   0.434  2.0939  0.4189 -0.0097
 7035SOL     OW32740   1.340   3.707  16.994  0.1089 -0.1345  0.0870
 7035SOL    HW132741   1.379   3.792  16.972  0.0750 -0.3714 -0.8815
 7035SOL    HW232742   1.245   3.716  17.000 -0.0390 -0.5886 -1.4848
 7036SOL     OW32743   1.650   3.265   2.282  0.1414 -0.4544 -0.0538
 7036SOL    HW132744   1.637   3.353   2.245 -0.7848 -0.9556 -0.9115
 7036SOL    HW232745   1.574   3.217   2.249  0.4951  0.6801 -2.5070
 7037SOL     OW32746   2.277   0.338   7.443 -0.1513 -0.4620 -0.5588
 7037SOL    HW132747   2.367   0.370   7.454 -1.0492  1.8292  0.2546
 7037SOL    HW232748   2.247   0.312   7.530  0.0586 -0.5279 -0.5061
 7038SOL     OW32749   2.628   4.657   4.569  0.1907  0.0463  0.2201
 7038SOL    HW132750   2.668   4.699   4.493  0.9673 -1.9177 -0.4734
 7038SOL    HW232751   2.650   4.716   4.641  0.0955  1.9810 -1.3293
 7039SOL     OW32752   2.146   4.220  12.182 -0.6521  0.1580  0.2630
 7039SOL    HW132753   2.235   4.236  12.214 -0.1708  1.3794 -1.6895
 7039SOL    HW232754   2.098   4.282  12.237 -0.2085  2.0227 -1.4685
 7040SOL     OW32755   0.875   2.095   8.256  0.2956 -0.0493 -0.3090
 7040SOL    HW132756   0.922   2.153   8.316  0.4230 -0.6725  0.1888
 7040SOL    HW232757   0.861   2.018   8.310  1.0030  0.7374  0.9728
 7041SOL     OW32758   0.495   2.589   7.520 -0.0275  0.2896 -0.2170
 7041SOL    HW132759   0.546   2.607   7.598  1.6901 -0.4680 -1.1611
 7041SOL    HW232760   0.504   2.677   7.484 -0.5418  0.4906  0.1368
 7042SOL     OW32761   0.228   0.669  11.969  0.5324 -0.1669  0.1699
 7042SOL    HW132762   0.193   0.681  12.057  0.3847  0.3829  0.0363
 7042SOL    HW232763   0.251   0.576  11.962 -0.1617 -0.4317  1.4323
 7043SOL     OW32764   0.984   2.408   6.807 -0.5605  0.0205 -0.0229
 7043SOL    HW132765   0.928   2.359   6.747 -0.7740 -1.9742  1.7993
 7043SOL    HW232766   1.066   2.412   6.758 -0.5531 -2.5429 -0.1845
 7044SOL     OW32767   2.486   2.346  11.529 -0.2512 -0.6669  0.0830
 7044SOL    HW132768   2.405   2.390  11.554  1.1136  1.8167  0.1202
 7044SOL    HW232769   2.469   2.309  11.442  0.0348 -4.2202  1.5207
 7045SOL     OW32770   3.634   4.005   7.220  0.0218  0.1282 -0.1097
 7045SOL    HW132771   3.575   4.008   7.145 -0.5202 -0.0832  0.3043
 7045SOL    HW232772   3.581   4.066   7.271  0.7223  0.5963  0.0618
 7046SOL     OW32773   4.690   2.029  10.487  0.1151  0.3419  1.2190
 7046SOL    HW132774   4.663   2.021  10.578 -1.3356 -0.9850  0.6678
 7046SOL    HW232775   0.044   1.999  10.493  0.2531  0.7949  1.4124
 7047SOL     OW32776   1.883   0.972  14.329 -0.5518 -0.2172 -0.2352
 7047SOL    HW132777   1.896   0.896  14.386 -1.5624  0.2659  0.6545
 7047SOL    HW232778   1.851   1.028  14.400  0.1701  3.2710 -2.6823
 7048SOL     OW32779   2.950   4.240   2.588  0.6496 -0.0839 -0.3742
 7048SOL    HW132780   3.038   4.202   2.588  0.5497 -0.3158 -0.1805
 7048SOL    HW232781   2.893   4.164   2.604 -2.3112  2.0084 -0.9204
 7049SOL     OW32782   4.351   3.900   3.479 -0.0368  0.3493 -0.4187
 7049SOL    HW132783   4.316   3.898   3.568  0.7524 -1.2853 -0.1438
 7049SOL    HW232784   4.441   3.876   3.500  0.5463  2.6141 -0.3323
 7050SOL     OW32785   0.018   4.078  14.101 -0.0844  0.3937  0.2232
 7050SOL    HW132786   4.719   4.048  14.185 -1.0122  1.8780  0.3472
 7050SOL    HW232787   0.095   4.021  14.105 -1.1750 -1.0681  0.7419
 7051SOL     OW32788   4.314   2.680   0.376 -0.2761  0.1380  0.4927
 7051SOL    HW132789   4.358   2.702   0.458  1.8492  0.7431 -0.7876
 7051SOL    HW232790   4.247   2.748   0.387 -0.3876  0.5282 -2.4427
 7052SOL     OW32791   4.079   2.670   4.125 -0.3328  0.3204  0.2844
 7052SOL    HW132792   4.167   2.636   4.107 -0.0668 -0.3128  2.6843
 7052SOL    HW232793   4.077   2.658   4.220 -0.1798  0.0112  0.2479
 7053SOL     OW32794   3.339   0.836   7.472  0.1287 -0.5961  0.3343
 7053SOL    HW132795   3.354   0.811   7.564 -1.0454  0.5115  0.8294
 7053SOL    HW232796   3.347   0.931   7.483 -1.1687 -0.5916  1.2420
 7054SOL     OW32797   0.617   4.022   7.928  0.2138  0.0100 -0.5608
 7054SOL    HW132798   0.675   4.053   7.860 -0.9210  1.3892 -0.9024
 7054SOL    HW232799   0.586   3.937   7.897  2.6600 -0.7527 -0.8465
 7055SOL     OW32800   4.319   3.530   7.992 -0.3177 -0.2640 -0.2340
 7055SOL    HW132801   4.408   3.534   7.956 -0.2052 -1.8534 -0.1350
 7055SOL    HW232802   4.267   3.507   7.915  0.0432  0.1507 -0.6031
 7056SOL     OW32803   0.330   2.212  14.560 -0.1553  0.5446  0.4348
 7056SOL    HW132804   0.363   2.162  14.635  2.0204  1.4853  0.1184
 7056SOL    HW232805   0.396   2.175  14.502  0.5276 -0.2945  1.7512
 7057SOL     OW32806   1.443   1.008  16.729  0.2446  0.4295 -0.4045
 7057SOL    HW132807   1.451   0.921  16.767 -0.3446  0.0653 -1.1156
 7057SOL    HW232808   1.384   1.045  16.794  0.5790 -0.2101  0.2533
 7058SOL     OW32809   3.203   3.605   5.198  0.1712 -0.4207 -0.0158
 7058SOL    HW132810   3.172   3.516   5.214 -0.4094  0.0940  1.7176
 7058SOL    HW232811   3.192   3.641   5.286 -0.0857  2.0220 -1.0305
 7059SOL     OW32812   1.639   0.384   6.878  0.0720  0.0773  0.0854
 7059SOL    HW132813   1.725   0.426   6.872 -1.1270  1.9932 -3.6160
 7059SOL    HW232814   1.656   0.296   6.844 -1.0908 -0.6533  1.4264
 7060SOL     OW32815   4.541   4.389   0.713 -0.4883 -0.6183  0.1782
 7060SOL    HW132816   4.536   4.338   0.793 -2.4248 -0.2993  0.2687
 7060SOL    HW232817   4.621   4.361   0.668  1.5167 -0.3527  3.5731
 7061SOL     OW32818   1.480   0.044   6.777 -0.1899 -0.0099  0.3590
 7061SOL    HW132819   1.419   0.117   6.779  0.6725  0.7063  0.4730
 7061SOL    HW232820   1.422   4.729   6.833 -0.1189 -0.9202 -0.4018
 7062SOL     OW32821   1.272   0.520  12.996 -0.4143  0.0774  0.3544
 7062SOL    HW132822   1.351   0.468  13.008 -0.0327  0.0196 -2.2572
 7062SOL    HW232823   1.205   0.454  13.015 -1.1342  1.2271  1.8279
 7063SOL     OW32824   4.294   2.030   6.749 -0.0522 -0.0929  0.1720
 7063SOL    HW132825   4.357   2.087   6.792  1.5919  0.6359 -3.1820
 7063SOL    HW232826   4.349   1.956   6.721 -0.6692 -0.3949 -0.2572
 7064SOL     OW32827   4.500   1.061  12.969 -0.6890  0.0879 -0.4544
 7064SOL    HW132828   4.573   1.036  12.912  0.6580  1.6351  0.6122
 7064SOL    HW232829   4.511   0.996  13.039  3.8470 -0.4522 -1.6589
 7065SOL     OW32830   3.291   1.424   2.966  0.0627 -0.2134  0.1033
 7065SOL    HW132831   3.315   1.491   2.903  0.9114  0.3229  1.0013
 7065SOL    HW232832   3.196   1.425   2.954  0.1575 -2.5472 -0.9338
 7066SOL     OW32833   0.355   4.469   6.386 -0.1092 -0.1100  0.0400
 7066SOL    HW132834   0.282   4.506   6.435  1.5643  1.2619  1.4507
 7066SOL    HW232835   0.414   4.541   6.367  2.7410 -1.8188  2.4903
 7067SOL     OW32836   4.691   3.703   8.352  0.4919  0.3175  0.5050
 7067SOL    HW132837   4.613   3.756   8.339 -0.3998 -1.6232 -2.0151
 7067SOL    HW232838   4.708   3.653   8.272 -1.0104 -1.4638  1.3131
 7068SOL     OW32839   1.495   0.656   5.415 -0.1248 -0.0254 -0.0655
 7068SOL    HW132840   1.473   0.671   5.507 -0.1031  2.7125 -0.5057
 7068SOL    HW232841   1.453   0.571   5.400 -1.4970  0.3916  1.3610
 7069SOL     OW32842   0.691   3.614   9.204  0.1937  0.6366  0.2153
 7069SOL    HW132843   0.712   3.540   9.147  0.4362  2.7132 -2.3890
 7069SOL    HW232844   0.601   3.584   9.218  0.6244 -0.8931 -0.3460
 7070SOL     OW32845   4.714   4.474   3.786 -0.0952 -0.1003  0.2719
 7070SOL    HW132846   0.060   4.495   3.830  0.2609 -2.4590  0.7268
 7070SOL    HW232847   4.730   4.380   3.778 -2.6521 -0.5973  1.2619
 7071SOL     OW32848   2.581   0.522   7.155  0.1468 -0.3685  0.0279
 7071SOL    HW132849   2.640   0.588   7.190 -0.5715  1.0118 -1.3628
 7071SOL    HW232850   2.530   0.563   7.085  1.5534  1.3668  0.0281
 7072SOL     OW32851   4.201   1.867   4.763 -0.1834 -0.1316  0.1213
 7072SOL    HW132852   4.135   1.883   4.695 -0.3817  1.8477  0.8009
 7072SOL    HW232853   4.181   1.787   4.812  0.7746  0.4185  1.3995
 7073SOL     OW32854   0.431   4.098   4.114 -0.2877 -0.2650 -0.1329
 7073SOL    HW132855   0.500   4.160   4.091  0.0320 -0.9420 -1.0305
 7073SOL    HW232856   0.418   4.057   4.029  0.6134 -0.6456 -0.0882
 7074SOL     OW32857   0.385   4.467   9.965 -0.1938  0.0015 -0.2678
 7074SOL    HW132858   0.417   4.380   9.989 -0.5402  0.0291  0.3000
 7074SOL    HW232859   0.464   4.515   9.990  0.3953 -0.8833 -0.4062
 7075SOL     OW32860   2.234   4.261   7.798  0.6953  0.7212  0.3330
 7075SOL    HW132861   2.294   4.200   7.841 -1.5858 -0.1092  2.3419
 7075SOL    HW232862   2.289   4.339   7.799  1.0253  0.4787  1.5889
 7076SOL     OW32863   0.244   0.035   2.259  0.2800 -0.1076 -0.6716
 7076SOL    HW132864   0.224   0.129   2.257  0.6044 -0.0095  0.6294
 7076SOL    HW232865   0.270   0.036   2.351 -2.4920 -3.1284  0.1304
 7077SOL     OW32866   4.224   4.510   3.302  0.0001 -0.4375  0.1127
 7077SOL    HW132867   4.287   4.463   3.248 -1.0570  0.8359 -2.2298
 7077SOL    HW232868   4.281   4.529   3.376  1.3597 -2.6249 -0.3959
 7078SOL     OW32869   4.722   3.566  12.955  0.0086  0.0785 -0.1393
 7078SOL    HW132870   0.061   3.510  12.968  1.0106  1.1081 -1.6280
 7078SOL    HW232871   4.676   3.560  13.039  1.4069  1.7404  0.7518
 7079SOL     OW32872   1.340   2.156   3.081 -0.1996  0.6621  0.4218
 7079SOL    HW132873   1.362   2.113   3.163 -2.0317 -2.0295 -0.5153
 7079SOL    HW232874   1.254   2.191   3.105 -1.7575 -0.7735 -3.1173
 7080SOL     OW32875   4.091   1.620   6.478 -0.3056  0.0354 -0.0607
 7080SOL    HW132876   4.145   1.648   6.404 -0.4995 -2.4097 -1.1290
 7080SOL    HW232877   4.105   1.686   6.546  2.1007 -0.2871 -0.2438
 7081SOL     OW32878   4.142   4.531   8.160  0.1300  0.0029  0.2137
 7081SOL    HW132879   4.122   4.496   8.073 -1.8416  0.3409  0.5161
 7081SOL    HW232880   4.127   4.456   8.218 -1.1526  1.3881  1.7140
 7082SOL     OW32881   4.442   4.590   5.272 -0.0279  0.0757 -0.0717
 7082SOL    HW132882   4.437   4.497   5.295 -1.8186 -0.0788 -1.0855
 7082SOL    HW232883   4.402   4.635   5.346 -1.7667 -0.5883 -0.5955
 7083SOL     OW32884   2.796   0.008   9.147  0.3923  0.7490 -0.2246
 7083SOL    HW132885   2.873   4.716   9.196 -0.6514 -0.3913  0.7422
 7083SOL    HW232886   2.791   4.678   9.078  0.1549 -0.1519  0.6717
 7084SOL     OW32887   2.831   1.913  11.259  0.1801  0.2014  0.2830
 7084SOL    HW132888   2.834   2.009  11.264 -1.0342  0.2216  0.4471
 7084SOL    HW232889   2.803   1.900  11.168  0.7109  1.5926 -0.0873
 7085SOL     OW32890   3.730   1.113   6.151  0.1871  0.0425  0.2546
 7085SOL    HW132891   3.683   1.195   6.170  0.5565  0.2327  0.3487
 7085SOL    HW232892   3.816   1.147   6.127  0.5683 -0.1437  1.3325
 7086SOL     OW32893   1.965   1.531   5.030 -0.5730  0.3754 -0.2124
 7086SOL    HW132894   1.930   1.620   5.026  2.3708  1.5921  0.8137
 7086SOL    HW232895   2.054   1.540   4.994 -0.1637  0.1236  0.7517
 7087SOL     OW32896   2.496   2.321   3.978  0.1880 -1.0874 -0.6245
 7087SOL    HW132897   2.532   2.384   3.915 -0.1624  0.0292  0.2941
 7087SOL    HW232898   2.560   2.328   4.049 -1.7877 -0.8076  1.1226
 7088SOL     OW32899   0.929   4.675   5.195 -0.1797  0.0911  0.4266
 7088SOL    HW132900   0.868   0.002   5.157 -0.0866  0.8072  1.4580
 7088SOL    HW232901   1.000   4.677   5.132  0.0086 -0.5875  0.6182
 7089SOL     OW32902   1.533   2.685  14.387  0.6581  0.1408  0.1118
 7089SOL    HW132903   1.579   2.766  14.367 -0.3162  0.2662 -1.5476
 7089SOL    HW232904   1.458   2.715  14.440  0.0212  1.0789 -1.3329
 7090SOL     OW32905   4.623   0.715   3.623  0.1190 -0.1526  0.5349
 7090SOL    HW132906   4.571   0.644   3.586  0.0537 -0.3120  0.9308
 7090SOL    HW232907   4.604   0.707   3.717 -0.9981  1.9465  0.5064
 7091SOL     OW32908   3.634   3.921  13.793  0.3515  0.7898 -0.5218
 7091SOL    HW132909   3.610   3.963  13.876 -0.4725  0.2123 -0.4672
 7091SOL    HW232910   3.721   3.960  13.785  1.9564 -2.0787  2.9428
 7092SOL     OW32911   3.560   1.633  16.470  0.5335  0.1626 -0.0297
 7092SOL    HW132912   3.543   1.725  16.449  0.0483  0.1484  0.3086
 7092SOL    HW232913   3.650   1.635  16.503  1.2226 -0.5181 -1.8963
 7093SOL     OW32914   2.541   1.824   3.713 -0.1719  0.1479 -0.2641
 7093SOL    HW132915   2.553   1.824   3.808 -1.0311 -0.7998 -0.1439
 7093SOL    HW232916   2.586   1.905   3.689 -0.4221  0.1516 -0.7288
 7094SOL     OW32917   3.828   0.384  16.993  0.2136 -0.0050  0.0108
 7094SOL    HW132918   3.853   0.434  16.915  2.6490 -2.4974 -0.8250
 7094SOL    HW232919   3.857   0.297  16.963  2.5425  1.1504 -1.1375
 7095SOL     OW32920   2.615   3.965   6.946 -0.6944  0.5020  0.1135
 7095SOL    HW132921   2.588   4.056   6.932 -2.0443 -0.0049 -0.6247
 7095SOL    HW232922   2.569   3.930   7.023 -0.1960 -0.3399  0.0235
 7096SOL     OW32923   1.901   2.665   5.585 -0.3449  0.0952 -0.7039
 7096SOL    HW132924   1.810   2.693   5.574 -1.4390 -3.1258  0.1916
 7096SOL    HW232925   1.936   2.728   5.521  0.9018  2.0880  1.9698
 7097SOL     OW32926   2.912   1.401  16.158 -0.3256 -0.5088  0.1752
 7097SOL    HW132927   2.862   1.321  16.141 -0.6190 -0.1408 -0.6946
 7097SOL    HW232928   2.975   1.388  16.087  1.2884 -0.1839  1.5428
 7098SOL     OW32929   1.573   3.381  12.416 -0.0991 -0.4920  0.3484
 7098SOL    HW132930   1.658   3.363  12.457  0.4007 -0.5126 -0.7127
 7098SOL    HW232931   1.522   3.393  12.497  0.4393 -0.6829  0.7186
 7099SOL     OW32932   0.369   4.119   9.792  0.1717  0.5662 -0.3925
 7099SOL    HW132933   0.290   4.119   9.846 -0.0273  0.9770 -0.6846
 7099SOL    HW232934   0.434   4.154   9.854  1.5094 -1.4024 -0.6991
 7100SOL     OW32935   1.199   0.422   4.561  0.0870  0.1223 -0.3355
 7100SOL    HW132936   1.125   0.435   4.620  1.2207  0.5282  0.9958
 7100SOL    HW232937   1.221   0.335   4.594 -0.0464  0.7058  1.2802
 7101SOL     OW32938   4.128   0.810   3.282  0.1571 -0.1217  0.2892
 7101SOL    HW132939   4.058   0.764   3.330  0.1225 -3.3393 -2.8542
 7101SOL    HW232940   4.209   0.763   3.300  0.0872 -0.2529  0.2633
 7102SOL     OW32941   1.357   0.063  11.464  0.5300 -0.0006 -0.8168
 7102SOL    HW132942   1.328   4.727  11.520 -0.1920  1.2848  0.4750
 7102SOL    HW232943   1.449   0.046  11.484  0.0088  0.0930  1.7120
 7103SOL     OW32944   2.788   1.040   6.438 -0.2372 -0.6857  0.1475
 7103SOL    HW132945   2.839   1.067   6.362 -0.4856 -1.8937 -0.4477
 7103SOL    HW232946   2.715   1.008   6.386  1.7689 -1.3009 -2.2621
 7104SOL     OW32947   3.564   3.962   3.614 -1.0023 -0.0129 -0.2293
 7104SOL    HW132948   3.549   3.871   3.586  1.3223 -0.4514 -0.0919
 7104SOL    HW232949   3.528   4.004   3.536 -0.7027 -1.3028 -1.0614
 7105SOL     OW32950   4.101   2.570   6.147 -0.0150 -0.5673 -0.2832
 7105SOL    HW132951   4.089   2.495   6.205  3.2865 -0.0810  1.0706
 7105SOL    HW232952   4.103   2.529   6.061 -1.5773  1.5546 -1.3290
 7106SOL     OW32953   3.738   0.699   3.125  0.1748  0.0665  0.0384
 7106SOL    HW132954   3.785   0.741   3.197 -0.4286  0.4757  0.1891
 7106SOL    HW232955   3.672   0.768   3.118 -0.9819 -0.9720  0.6798
 7107SOL     OW32956   0.728   0.747   0.628  0.0326  0.4499 -0.4475
 7107SOL    HW132957   0.635   0.725   0.632  0.8909 -2.9000  1.6050
 7107SOL    HW232958   0.762   0.667   0.669 -1.7518 -0.2200 -0.2936
 7108SOL     OW32959   2.816   0.280  16.341  0.1262 -0.2731 -0.4843
 7108SOL    HW132960   2.854   0.296  16.254  0.0619  2.4535  0.0029
 7108SOL    HW232961   2.821   0.368  16.377  1.9641  0.4035 -2.3600
 7109SOL     OW32962   2.452   3.038  14.273 -0.5546 -0.0018  0.1359
 7109SOL    HW132963   2.447   3.065  14.181  1.2876  1.8649  0.5841
 7109SOL    HW232964   2.357   3.033  14.286 -0.4187 -1.9770  0.2458
 7110SOL     OW32965   2.337   4.161   5.330  0.7239 -0.1346  0.0056
 7110SOL    HW132966   2.246   4.182   5.348  1.3643  1.0033  1.8774
 7110SOL    HW232967   2.337   4.184   5.237 -1.3664  1.0134  0.2932
 7111SOL     OW32968   1.432   3.306   0.119 -0.5071 -0.0828  0.2608
 7111SOL    HW132969   1.350   3.272   0.156 -1.9981  2.8355 -0.3074
 7111SOL    HW232970   1.475   3.225   0.094 -0.5833  0.1237 -0.5548
 7112SOL     OW32971   3.806   1.880   6.967 -0.0391 -0.0354 -0.0978
 7112SOL    HW132972   3.716   1.851   6.978 -1.1359  2.7751 -1.8737
 7112SOL    HW232973   3.843   1.805   6.920 -1.9512 -0.5988 -0.6836
 7113SOL     OW32974   3.104   1.072  11.661 -0.0390 -0.2647 -0.2338
 7113SOL    HW132975   3.110   0.999  11.722 -0.5014  0.3076  0.5021
 7113SOL    HW232976   3.032   1.040  11.606  0.5377 -1.0282 -0.5352
 7114SOL     OW32977   4.094   3.728   7.174  0.5555  0.4584  0.1753
 7114SOL    HW132978   4.008   3.757   7.206  0.5771  1.2270 -0.4575
 7114SOL    HW232979   4.137   3.708   7.257 -1.2074 -0.0328  0.9730
 7115SOL     OW32980   1.695   4.511   7.957  0.1559 -0.4288  0.1349
 7115SOL    HW132981   1.755   4.493   8.029 -0.4066  1.2493  1.0306
 7115SOL    HW232982   1.744   4.501   7.876 -0.5692  0.0660 -0.3640
 7116SOL     OW32983   1.846   3.085   1.389  0.4470 -0.1605 -0.2642
 7116SOL    HW132984   1.926   3.131   1.416 -0.1448  0.7529 -0.0554
 7116SOL    HW232985   1.855   3.103   1.296  0.9975  0.5586 -0.0714
 7117SOL     OW32986   3.926   0.088   3.321 -0.1442  0.3060 -1.2078
 7117SOL    HW132987   3.955   0.034   3.247  0.1223 -1.9470  0.5551
 7117SOL    HW232988   3.864   0.023   3.355  1.3306 -1.1209 -1.2254
 7118SOL     OW32989   2.644   3.288   3.734  0.0718 -0.6911 -0.2679
 7118SOL    HW132990   2.581   3.360   3.733 -1.1311 -1.7510 -0.8671
 7118SOL    HW232991   2.634   3.252   3.646  1.7482 -1.7246 -0.0513
 7119SOL     OW32992   3.305   2.146  15.487  0.4301 -0.0715 -0.1392
 7119SOL    HW132993   3.377   2.130  15.548  1.0722  1.6524 -0.4567
 7119SOL    HW232994   3.230   2.104  15.529  0.2283  2.2133  1.7908
 7120SOL     OW32995   3.145   1.184  17.388 -0.0692  0.1099 -0.2674
 7120SOL    HW132996   3.142   1.089  17.373  1.6587 -0.5216  3.3029
 7120SOL    HW232997   3.078   1.215  17.327  1.0067  0.4801 -1.2831
 7121SOL     OW32998   2.639   1.209   1.900 -0.0392 -0.1076  0.2862
 7121SOL    HW132999   2.716   1.214   1.842  2.3124  0.7730  3.4418
 7121SOL    HW233000   2.577   1.279   1.880 -0.8302 -0.5800  1.1205
 7122SOL     OW33001   3.710   2.494  12.883 -0.1099  0.2101 -0.2687
 7122SOL    HW133002   3.687   2.465  12.795  0.6815  0.9562 -0.7269
 7122SOL    HW233003   3.644   2.562  12.887 -2.6400 -2.2399 -0.1608
 7123SOL     OW33004   0.940   0.489  17.400  0.1384 -0.1724  0.0302
 7123SOL    HW133005   1.001   0.498  17.474  0.1763 -1.1287  0.1171
 7123SOL    HW233006   0.952   0.575  17.360 -1.6559 -1.0031 -2.2711
 7124SOL     OW33007   2.236   1.232   3.117 -0.2188 -0.3581  0.4375
 7124SOL    HW133008   2.313   1.210   3.064 -0.3370  3.2770 -1.2334
 7124SOL    HW233009   2.268   1.318   3.146  0.8771 -0.9951  1.1220
 7125SOL     OW33010   1.940   3.905  12.538  0.1565 -0.0911 -0.2495
 7125SOL    HW133011   1.896   3.901  12.623  0.0964 -1.0087 -0.3279
 7125SOL    HW233012   1.877   3.946  12.478  0.4760  1.9837  0.8326
 7126SOL     OW33013   3.116   2.634   8.412 -0.3761  0.0125 -0.0986
 7126SOL    HW133014   3.135   2.561   8.470 -0.7893 -0.2374 -0.2810
 7126SOL    HW233015   3.203   2.674   8.404 -1.0206  1.0686 -1.8463
 7127SOL     OW33016   2.880   2.478   1.286 -0.0758 -0.0464 -0.0435
 7127SOL    HW133017   2.975   2.483   1.279 -0.0371 -1.0829 -0.3000
 7127SOL    HW233018   2.854   2.513   1.201 -0.0906  0.9139  0.3495
 7128SOL     OW33019   4.035   2.904   2.217 -0.2231  0.3630  0.8595
 7128SOL    HW133020   4.092   2.936   2.287  0.7935  0.4502  0.0036
 7128SOL    HW233021   4.026   2.818   2.256  2.1044 -0.2078  0.1248
 7129SOL     OW33022   3.042   1.864  17.006  0.2523 -0.7077  0.0744
 7129SOL    HW133023   3.018   1.945  17.052  3.2367  0.3905 -0.3161
 7129SOL    HW233024   2.984   1.866  16.930  0.1632  1.3181  0.1925
 7130SOL     OW33025   0.531   2.888   6.830 -0.1949  0.2750 -0.0493
 7130SOL    HW133026   0.625   2.905   6.822  0.2712 -2.8345 -1.3838
 7130SOL    HW233027   0.525   2.855   6.919 -2.3632  4.0436  1.1782
 7131SOL     OW33028   1.783   4.288  15.641  0.2665 -0.5299  0.0025
 7131SOL    HW133029   1.714   4.319  15.699  0.8933 -1.1042  1.0421
 7131SOL    HW233030   1.737   4.283  15.557  0.0688 -1.1530  0.1504
 7132SOL     OW33031   1.291   1.145  14.116 -0.3571 -0.3972  0.1593
 7132SOL    HW133032   1.304   1.198  14.037 -3.0572  0.7954  0.4934
 7132SOL    HW233033   1.208   1.100  14.100 -0.3494  0.1482 -1.4585
 7133SOL     OW33034   0.983   0.750  14.053 -0.7333  0.4070 -0.6689
 7133SOL    HW133035   1.075   0.742  14.079 -0.6505  0.8482 -0.8192
 7133SOL    HW233036   0.973   0.842  14.026  1.3630  0.5056 -1.1393
 7134SOL     OW33037   2.902   4.169   7.096  0.4223  0.1618  0.1237
 7134SOL    HW133038   2.882   4.220   7.017  0.5692 -0.1312 -0.1027
 7134SOL    HW233039   2.853   4.217   7.163 -0.0902  0.6125 -0.5762
 7135SOL     OW33040   4.703   4.438   6.279  0.1866 -0.1135  0.1748
 7135SOL    HW133041   0.004   4.390   6.205  2.0723  0.4677  0.7557
 7135SOL    HW233042   4.615   4.460   6.249  1.5564  3.5513 -1.1499
 7136SOL     OW33043   0.935   1.052  12.824  0.4702 -0.2459 -0.1405
 7136SOL    HW133044   0.977   0.994  12.761 -1.3898  0.0596 -1.6663
 7136SOL    HW233045   0.955   1.015  12.910  1.3862  1.0210  0.1915
 7137SOL     OW33046   0.190   4.399  10.154  0.1356 -0.9761 -0.2145
 7137SOL    HW133047   0.263   4.404  10.216 -0.6781  0.6188  0.6194
 7137SOL    HW233048   0.230   4.438  10.076  3.7313  0.5978  2.4064
 7138SOL     OW33049   0.821   3.587   0.960 -0.1095 -0.3496 -0.3496
 7138SOL    HW133050   0.747   3.600   1.020  1.0986 -0.2202  1.1198
 7138SOL    HW233051   0.841   3.495   0.973  1.2951 -0.1772 -1.3508
 7139SOL     OW33052   0.642   3.294   6.416 -0.0682  0.2429 -0.1826
 7139SOL    HW133053   0.706   3.264   6.352 -2.1537  0.6360 -2.4899
 7139SOL    HW233054   0.608   3.210   6.447  1.6224 -1.8923 -4.1340
 7140SOL     OW33055   1.597   0.437   4.936 -0.1368  0.5117 -0.5197
 7140SOL    HW133056   1.588   0.383   5.015 -1.6878  2.8624  0.8785
 7140SOL    HW233057   1.562   0.521   4.963 -0.3532 -0.1946  1.3432
 7141SOL     OW33058   3.496   2.863   3.409 -0.5609  0.6441 -0.0251
 7141SOL    HW133059   3.532   2.825   3.329 -1.5355  0.0109 -0.1639
 7141SOL    HW233060   3.578   2.874   3.456  0.3437 -0.8705 -1.2458
 7142SOL     OW33061   1.040   4.153  12.003 -0.4396 -0.3878 -0.0442
 7142SOL    HW133062   1.084   4.147  11.918  0.7441  1.2974  0.4618
 7142SOL    HW233063   1.045   4.059  12.024 -1.5456 -0.2621  0.7729
 7143SOL     OW33064   1.621   2.883   5.685 -0.2478 -0.3772 -0.2511
 7143SOL    HW133065   1.599   2.813   5.746 -0.2787  0.1971  0.3945
 7143SOL    HW233066   1.647   2.955   5.742  0.5730 -1.7324  1.0709
 7144SOL     OW33067   0.261   3.518   4.039 -0.8901 -0.2126  0.0396
 7144SOL    HW133068   0.350   3.538   4.010 -0.3591 -3.8749 -0.8582
 7144SOL    HW233069   0.283   3.485   4.126 -0.1695 -1.4302 -0.6052
 7145SOL     OW33070   0.441   1.218   3.394  0.1262 -0.2188  0.0306
 7145SOL    HW133071   0.355   1.213   3.436 -0.6972  1.2063 -1.4829
 7145SOL    HW233072   0.436   1.123   3.384 -1.2960  0.0847 -2.1177
 7146SOL     OW33073   2.174   1.172   4.297 -0.1045 -0.3995 -0.3281
 7146SOL    HW133074   2.157   1.239   4.363  0.7215  0.6761 -1.2173
 7146SOL    HW233075   2.198   1.220   4.217  0.7407 -0.0859  0.1231
 7147SOL     OW33076   4.149   3.990   4.541  0.0992  0.4024  0.2398
 7147SOL    HW133077   4.082   3.943   4.491  1.7890 -1.6957 -0.0418
 7147SOL    HW233078   4.112   3.985   4.629 -0.4097 -1.5324 -0.0670
 7148SOL     OW33079   3.792   1.693  12.398 -0.2905 -0.3796  0.0922
 7148SOL    HW133080   3.799   1.689  12.494  0.5118  0.3377  0.0669
 7148SOL    HW233081   3.860   1.756  12.372 -1.1302  1.3853  2.1424
 7149SOL     OW33082   1.642   2.471   5.344  0.4308 -0.4545  0.5525
 7149SOL    HW133083   1.633   2.442   5.435  2.2105  0.4908  1.0360
 7149SOL    HW233084   1.602   2.556   5.365  0.3702 -0.2541 -0.3831
 7150SOL     OW33085   0.338   2.212  17.227  0.2885 -0.4990  0.1512
 7150SOL    HW133086   0.393   2.195  17.304  0.0706 -2.7513 -0.1955
 7150SOL    HW233087   0.354   2.138  17.170  2.1815 -0.6547  0.8992
 7151SOL     OW33088   4.304   3.551  17.252  0.6322 -0.4243  0.5649
 7151SOL    HW133089   4.367   3.623  17.258 -0.2359  0.4500 -0.8543
 7151SOL    HW233090   4.341   3.480  17.304  1.6678  1.2323  2.1015
 7152SOL     OW33091   3.887   3.821   6.134 -0.0692  0.0446  0.0732
 7152SOL    HW133092   3.958   3.777   6.090 -0.4386 -1.0656  0.5901
 7152SOL    HW233093   3.891   3.764   6.211  0.1652 -1.6216 -1.2014
 7153SOL     OW33094   2.524   1.226   4.646 -0.0151 -0.0626  0.2845
 7153SOL    HW133095   2.467   1.265   4.579 -0.6321  1.2528  1.5740
 7153SOL    HW233096   2.528   1.302   4.705  1.9084 -1.2462  1.6887
 7154SOL     OW33097   1.894   0.828   1.471  0.2587 -0.4200  0.3627
 7154SOL    HW133098   1.834   0.780   1.413 -1.0536  0.3387  1.0788
 7154SOL    HW233099   1.850   0.822   1.556 -0.7108 -3.6843 -0.3674
 7155SOL     OW33100   0.844   0.687   5.589 -0.2339  0.0323  0.3216
 7155SOL    HW133101   0.907   0.627   5.628 -0.2304 -1.1539 -1.4938
 7155SOL    HW233102   0.901   0.744   5.536  0.9450 -0.0619  1.4809
 7156SOL     OW33103   3.427   2.702  15.298  0.0252 -0.4835  0.5896
 7156SOL    HW133104   3.422   2.656  15.382  1.3042 -1.5589  0.0806
 7156SOL    HW233105   3.392   2.790  15.314 -0.9624 -0.6661 -0.5807
 7157SOL     OW33106   3.967   2.794   1.794  0.5941 -0.0857  0.3515
 7157SOL    HW133107   3.943   2.882   1.823 -1.0966  0.5101 -2.8118
 7157SOL    HW233108   4.030   2.770   1.861  1.7793 -2.6198 -1.6386
 7158SOL     OW33109   2.206   4.286   1.180 -0.1459 -0.2195  0.4207
 7158SOL    HW133110   2.235   4.257   1.093 -1.3128 -1.8133  0.5819
 7158SOL    HW233111   2.148   4.212   1.196 -0.4769  0.3458  1.8573
 7159SOL     OW33112   1.139   4.358   1.323 -0.1926  0.0817 -0.0332
 7159SOL    HW133113   1.178   4.401   1.400  2.4404  1.6652 -2.2506
 7159SOL    HW233114   1.044   4.364   1.333 -0.1382  1.3415 -0.2796
 7160SOL     OW33115   2.191   1.959   3.696 -0.4314 -0.7761  0.1388
 7160SOL    HW133116   2.152   1.872   3.693 -0.3010 -0.7986 -1.0090
 7160SOL    HW233117   2.281   1.927   3.705 -0.2355  0.0349  1.0220
 7161SOL     OW33118   4.127   2.644   6.422  0.7041  0.0469 -0.0318
 7161SOL    HW133119   4.126   2.628   6.328 -2.3530 -1.3080  0.2304
 7161SOL    HW233120   4.096   2.735   6.430 -0.0063 -0.2338  0.3559
 7162SOL     OW33121   1.007   2.730   6.278 -0.3405  0.4297 -0.2221
 7162SOL    HW133122   1.047   2.662   6.333  0.1171  0.0441 -1.0332
 7162SOL    HW233123   1.007   2.675   6.200  0.9903  0.6360 -0.3774
 7163SOL     OW33124   2.652   2.746   4.970 -0.2987  0.0352 -0.8253
 7163SOL    HW133125   2.715   2.816   4.954  0.3887 -0.0964  1.3779
 7163SOL    HW233126   2.674   2.705   4.887  2.6842  2.3095 -1.1345
 7164SOL     OW33127   0.989   1.936   7.964  0.0949 -0.2331  0.4421
 7164SOL    HW133128   0.964   1.855   8.009 -1.0993  0.1950  0.5601
 7164SOL    HW233129   0.915   1.975   7.918  0.2163  0.3199  0.7210
 7165SOL     OW33130   0.659   0.769   0.102 -0.2907  0.2125  0.2288
 7165SOL    HW133131   0.745   0.810   0.110  0.1547 -0.4439 -1.1542
 7165SOL    HW233132   0.604   0.821   0.160  0.0865  0.4452  0.3801
 7166SOL     OW33133   0.326   2.078  14.852 -0.2714 -0.0550 -0.4885
 7166SOL    HW133134   0.414   2.114  14.852  0.3365 -1.5337 -1.1913
 7166SOL    HW233135   0.287   2.153  14.897 -0.9653  0.6757 -2.2920
 7167SOL     OW33136   0.604   3.060   4.707 -0.6870 -0.3573 -0.3086
 7167SOL    HW133137   0.603   3.139   4.760  0.1104  0.1210 -0.9961
 7167SOL    HW233138   0.548   3.079   4.631  0.8939 -0.4662 -1.5136
 7168SOL     OW33139   3.559   3.714   5.692  0.1921 -0.2537  0.6837
 7168SOL    HW133140   3.639   3.766   5.699 -0.4213  1.1683 -2.8732
 7168SOL    HW233141   3.588   3.642   5.748 -0.8109 -3.8009 -3.3205
 7169SOL     OW33142   4.275   3.706   4.684 -0.0427 -0.2067 -0.5543
 7169SOL    HW133143   4.251   3.613   4.678 -1.9823  0.3494 -1.6435
 7169SOL    HW233144   4.190   3.749   4.677 -0.1584 -0.5513 -1.2938
 7170SOL     OW33145   0.656   3.843   9.360 -0.2501 -0.3171 -0.1399
 7170SOL    HW133146   0.684   3.772   9.302 -0.6701  0.3808 -1.1987
 7170SOL    HW233147   0.576   3.871   9.315 -0.7337 -0.2351  0.7822
 7171SOL     OW33148   4.283   3.764  13.292  0.0636 -0.7488 -0.1317
 7171SOL    HW133149   4.287   3.837  13.230  1.3336 -0.4215  0.3171
 7171SOL    HW233150   4.218   3.707  13.253 -0.0365 -1.1051  0.5594
 7172SOL     OW33151   0.400   1.510   2.283  0.3239  0.4642  0.4499
 7172SOL    HW133152   0.486   1.533   2.317  0.8625 -0.9274  0.0413
 7172SOL    HW233153   0.377   1.598   2.253  1.8562  1.1107  1.1638
 7173SOL     OW33154   3.401   2.811   6.420  0.0216 -0.5939  0.2206
 7173SOL    HW133155   3.424   2.887   6.366  2.3629  0.3833  2.5830
 7173SOL    HW233156   3.422   2.735   6.367 -1.8247  1.1832 -3.0191
 7174SOL     OW33157   1.520   2.380   3.322  0.3083  0.3868 -0.7719
 7174SOL    HW133158   1.521   2.400   3.229  2.7947 -0.3362 -0.9124
 7174SOL    HW233159   1.553   2.461   3.361 -0.6088 -0.7543  2.3694
 7175SOL     OW33160   2.443   1.653   3.524 -0.1694 -0.0983  0.2382
 7175SOL    HW133161   2.491   1.684   3.601  1.3703 -0.3207 -0.6301
 7175SOL    HW233162   2.354   1.647   3.559  0.2351 -2.0019  0.9255
 7176SOL     OW33163   0.665   2.542  16.717 -0.0335  0.2251  0.0372
 7176SOL    HW133164   0.728   2.575  16.653 -0.1783  0.0731 -0.1850
 7176SOL    HW233165   0.584   2.521  16.671 -0.8289  0.3007  1.4093
 7177SOL     OW33166   2.938   0.429   6.684  0.1810  0.4382  0.0854
 7177SOL    HW133167   2.987   0.489   6.740 -0.8663 -0.5799  2.0736
 7177SOL    HW233168   2.933   0.355   6.744 -0.5499 -0.1220 -0.6631
 7178SOL     OW33169   2.860   4.255  14.516 -0.1599 -0.3102  0.3741
 7178SOL    HW133170   2.940   4.265  14.567 -1.5417 -1.9625  2.8624
 7178SOL    HW233171   2.877   4.186  14.451  1.1615 -0.2216  0.6224
 7179SOL     OW33172   1.779   1.483   6.631  0.1603 -0.4064 -0.2688
 7179SOL    HW133173   1.742   1.488   6.720 -0.6318 -0.6831 -0.5797
 7179SOL    HW233174   1.748   1.563   6.589 -1.8480 -0.5223  1.0081
 7180SOL     OW33175   2.592   1.429   2.835 -0.6866 -0.2052 -0.8535
 7180SOL    HW133176   2.612   1.499   2.896 -1.9705 -1.8602  1.4725
 7180SOL    HW233177   2.626   1.464   2.753  0.6037  1.8545  0.6022
 7181SOL     OW33178   0.369   3.942   9.601  0.5096 -0.1821 -0.0273
 7181SOL    HW133179   0.357   4.000   9.526  1.1795 -0.7582 -0.5740
 7181SOL    HW233180   0.387   3.992   9.680  0.8652  1.1530 -0.9621
 7182SOL     OW33181   3.162   0.579   4.917 -0.5700  0.5827 -0.5956
 7182SOL    HW133182   3.071   0.552   4.931 -0.3018 -0.2337 -0.3951
 7182SOL    HW233183   3.193   0.537   4.837  0.3030 -1.9033  1.0170
 7183SOL     OW33184   3.955   1.092   6.953 -0.0294 -0.0645  0.0755
 7183SOL    HW133185   3.877   1.094   7.008  0.9078  0.3842  1.3826
 7183SOL    HW233186   3.932   1.133   6.870 -0.3281  0.1406  0.2590
 7184SOL     OW33187   2.309   0.708  13.888  0.5054 -0.3805  0.1372
 7184SOL    HW133188   2.252   0.631  13.902  0.6485 -0.6492 -0.7688
 7184SOL    HW233189   2.244   0.776  13.871  1.7489  0.6163 -0.5897
 7185SOL     OW33190   1.579   4.679   0.653  0.4584 -0.2866  0.2075
 7185SOL    HW133191   1.654   4.725   0.689 -0.6350  0.3620  1.6578
 7185SOL    HW233192   1.582   4.707   0.561  0.2435 -0.3749  0.1713
 7186SOL     OW33193   0.365   3.998  10.968 -0.4055  0.0734  0.4494
 7186SOL    HW133194   0.327   4.038  11.047  0.3067  0.8721  0.3920
 7186SOL    HW233195   0.380   4.081  10.921  0.1297 -1.5561 -2.2287
 7187SOL     OW33196   0.048   3.483   6.591 -0.9787  0.0255 -0.2631
 7187SOL    HW133197   0.007   3.554   6.541 -0.0586  0.0626 -0.9693
 7187SOL    HW233198   0.051   3.527   6.677 -0.6227  0.3281 -0.4259
 7188SOL     OW33199   2.816   0.271   4.132  0.8541  0.3584 -0.0950
 7188SOL    HW133200   2.771   0.336   4.186 -0.3356 -1.5106  1.1518
 7188SOL    HW233201   2.905   0.297   4.155  1.2203 -0.9322 -0.0489
 7189SOL     OW33202   4.236   1.463   6.883 -0.2820  0.6398 -0.4025
 7189SOL    HW133203   4.224   1.505   6.968 -0.1498  2.0920 -1.1021
 7189SOL    HW233204   4.260   1.378   6.921 -1.1914  0.7416  0.4254
 7190SOL     OW33205   2.654   3.664   8.360 -0.4781 -0.7300 -0.1970
 7190SOL    HW133206   2.723   3.700   8.304 -2.4781  0.7018 -1.7324
 7190SOL    HW233207   2.665   3.711   8.442  0.1034 -0.7759 -0.2425
 7191SOL     OW33208   1.474   0.253  12.915  0.2938  0.2609 -0.0462
 7191SOL    HW133209   1.431   0.172  12.886 -2.1935  0.5555  2.7718
 7191SOL    HW233210   1.502   0.227  13.002 -0.8170  1.2418  0.6086
 7192SOL     OW33211   0.274   3.901  14.166  0.1589 -0.4929 -0.6367
 7192SOL    HW133212   0.326   3.944  14.235 -0.1048  0.0378 -0.7690
 7192SOL    HW233213   0.314   3.817  14.146  0.2951 -0.3198 -1.0965
 7193SOL     OW33214   4.038   4.261   5.922  0.1699  0.1406  0.7692
 7193SOL    HW133215   3.986   4.302   5.992  0.1673 -1.1125  1.4967
 7193SOL    HW233216   3.985   4.183   5.909  0.6757 -0.7339  3.9365
 7194SOL     OW33217   3.528   4.210  15.150  0.1778 -0.3844  0.3940
 7194SOL    HW133218   3.547   4.131  15.202 -1.7518 -1.7219 -0.9090
 7194SOL    HW233219   3.444   4.178  15.117  0.5997  0.6199 -1.6827
 7195SOL     OW33220   2.386   1.819  14.893  0.2663  0.0855  0.1476
 7195SOL    HW133221   2.447   1.811  14.966  1.2956 -0.9592 -0.8101
 7195SOL    HW233222   2.420   1.879  14.826  0.9190 -0.1507  0.2714
 7196SOL     OW33223   1.742   2.052  13.485  0.0145 -0.0958  0.1641
 7196SOL    HW133224   1.671   2.103  13.526  0.2716 -0.8878  1.5654
 7196SOL    HW233225   1.707   1.965  13.505 -1.3322  0.0485 -1.5520
 7197SOL     OW33226   4.622   4.285   4.769 -0.2462  0.0581  0.0934
 7197SOL    HW133227   4.649   4.194   4.784 -1.2792 -0.3741 -0.6859
 7197SOL    HW233228   4.703   4.324   4.735  1.3034 -1.4534  2.0107
 7198SOL     OW33229   4.222   2.588   2.096  0.4503 -0.1196 -0.1911
 7198SOL    HW133230   4.310   2.552   2.084  0.0902 -1.2633  0.6400
 7198SOL    HW233231   4.162   2.514   2.100  0.8849 -0.4816 -0.4422
 7199SOL     OW33232   4.053   0.022   0.966  0.1329  0.3909 -0.5728
 7199SOL    HW133233   3.992   4.686   0.957 -0.1804  0.7808 -1.5350
 7199SOL    HW233234   4.018   0.064   1.044 -1.4453 -1.0549 -0.5175
 7200SOL     OW33235   3.058   1.870   2.510  0.2558 -0.2186  0.1236
 7200SOL    HW133236   2.982   1.812   2.510  1.2965 -1.5749  0.1947
 7200SOL    HW233237   3.106   1.857   2.429  0.9099 -0.6163  0.5699
 7201SOL     OW33238   0.239   0.885   4.409  0.2119  0.1674 -0.1068
 7201SOL    HW133239   0.181   0.831   4.463  1.5203 -0.3686  0.7529
 7201SOL    HW233240   0.247   0.828   4.331  0.6831  0.5650 -0.3481
 7202SOL     OW33241   2.611   0.847   3.258 -0.5578 -0.7445  0.6818
 7202SOL    HW133242   2.649   0.918   3.206 -0.6229 -0.5779  0.8613
 7202SOL    HW233243   2.579   0.888   3.339 -1.1151 -0.0493  0.1184
 7203SOL     OW33244   0.588   3.550   4.752 -0.4285 -0.2086 -0.3932
 7203SOL    HW133245   0.527   3.561   4.825 -0.2441  2.2377 -0.5944
 7203SOL    HW233246   0.643   3.485   4.796 -0.1971 -0.2920 -0.8100
 7204SOL     OW33247   0.084   0.980   5.951 -0.5571 -0.6977  0.3552
 7204SOL    HW133248   0.084   0.935   5.866 -1.5980 -1.2613  0.6531
 7204SOL    HW233249   0.105   0.905   6.006 -0.6555 -0.5582  0.5807
 7205SOL     OW33250   1.962   0.772   2.238  0.2618 -0.2687 -0.2527
 7205SOL    HW133251   1.987   0.863   2.221  1.4084 -0.6118 -0.3753
 7205SOL    HW233252   1.975   0.780   2.333  2.7987  1.4043 -0.7342
 7206SOL     OW33253   3.360   2.464   3.796  0.1193 -0.5621  0.2565
 7206SOL    HW133254   3.338   2.376   3.765 -1.2149 -1.0130  2.5090
 7206SOL    HW233255   3.270   2.488   3.815 -0.1418 -0.8962 -0.5682
 7207SOL     OW33256   2.881   1.706   6.084 -0.4021  0.0127 -0.2201
 7207SOL    HW133257   2.936   1.770   6.039 -1.3819 -0.3968 -2.0107
 7207SOL    HW233258   2.869   1.750   6.168 -0.9193 -0.6834  0.0698
 7208SOL     OW33259   1.311   3.606   4.479  0.2143  0.1337  0.6783
 7208SOL    HW133260   1.232   3.561   4.511 -0.4226  0.1956 -0.7884
 7208SOL    HW233261   1.283   3.696   4.496 -0.7482 -0.1821  0.7576
 7209SOL     OW33262   2.358   2.709   0.755  0.4881 -0.4976 -0.0003
 7209SOL    HW133263   2.394   2.784   0.801 -0.9885 -0.0619  0.4352
 7209SOL    HW233264   2.300   2.752   0.693  0.3643  0.3069  0.6695
 7210SOL     OW33265   2.865   2.651   9.871  0.3005  0.2576  0.6851
 7210SOL    HW133266   2.846   2.562   9.841  2.9269 -0.3117  0.6439
 7210SOL    HW233267   2.918   2.668   9.793  0.4415  0.2252  0.7741
 7211SOL     OW33268   2.428   1.373   0.256 -0.1313 -0.1600 -0.7396
 7211SOL    HW133269   2.510   1.327   0.274  0.3991  0.5128 -1.4408
 7211SOL    HW233270   2.446   1.422   0.176 -3.9824  1.1216 -0.7804
 7212SOL     OW33271   2.092   3.857   5.629 -0.2556  0.2745  0.1314
 7212SOL    HW133272   2.109   3.763   5.633 -0.9318  0.1125 -0.6755
 7212SOL    HW233273   2.052   3.855   5.716 -1.4335  0.9596 -0.3840
 7213SOL     OW33274   3.026   4.139  17.024  0.2826 -0.0960  0.2447
 7213SOL    HW133275   2.935   4.119  17.000  0.0600  0.2367  0.8137
 7213SOL    HW233276   3.068   4.135  16.938  0.0047 -0.1433  0.1084
 7214SOL     OW33277   3.760   1.951  11.243  0.4189  0.1794  0.3994
 7214SOL    HW133278   3.819   1.976  11.171  1.4408  0.4123  1.3129
 7214SOL    HW233279   3.804   1.869  11.266 -1.5519 -0.9514  0.1047
 7215SOL     OW33280   1.572   3.275  10.470  1.0559  0.7335  0.1752
 7215SOL    HW133281   1.633   3.225  10.524  1.2173  1.5936  0.8051
 7215SOL    HW233282   1.605   3.365  10.475 -0.6505  1.3692  0.1053
 7216SOL     OW33283   1.069   0.444   9.223  0.6973 -0.1641  0.2949
 7216SOL    HW133284   1.031   0.360   9.195  2.4297 -0.7760 -0.2295
 7216SOL    HW233285   1.038   0.496   9.149  1.8635  0.5902  0.3405
 7217SOL     OW33286   1.833   3.382  12.494  0.2613  0.0321  0.0769
 7217SOL    HW133287   1.918   3.339  12.487  0.7500  1.4587 -2.7153
 7217SOL    HW233288   1.865   3.472  12.499  2.5517 -0.6923 -1.7582
 7218SOL     OW33289   2.837   0.150  13.779  0.0098  0.1126 -0.2718
 7218SOL    HW133290   2.824   0.243  13.797  1.0299  0.1954  0.0362
 7218SOL    HW233291   2.783   0.106  13.844  0.5477  1.1811  0.8993
 7219SOL     OW33292   1.307   1.732   3.159 -0.6542 -0.0596  0.3054
 7219SOL    HW133293   1.296   1.790   3.234 -0.4544 -2.1474  1.9656
 7219SOL    HW233294   1.253   1.657   3.184 -1.5527  0.6054  0.3596
 7220SOL     OW33295   0.572   3.385  15.939  0.2713 -0.0354  0.4535
 7220SOL    HW133296   0.561   3.292  15.956  0.0908 -0.5557 -2.6120
 7220SOL    HW233297   0.536   3.429  16.016 -0.1879 -0.3243  0.4035
 7221SOL     OW33298   1.105   1.070  14.627 -0.2470 -0.2128  0.4386
 7221SOL    HW133299   1.135   1.123  14.701  2.9060 -0.3355 -0.7593
 7221SOL    HW233300   1.184   1.018  14.614  0.2207  1.4252 -3.1322
 7222SOL     OW33301   2.086   1.918   9.744  0.0329 -0.4626  0.5775
 7222SOL    HW133302   2.049   1.838   9.783 -0.6559 -0.9326 -1.0168
 7222SOL    HW233303   2.110   1.963   9.825  1.7507 -1.6558  0.7189
 7223SOL     OW33304   0.515   2.416   6.982  0.0821  0.6451 -0.6833
 7223SOL    HW133305   0.602   2.451   6.962  1.6504 -1.7166  2.0710
 7223SOL    HW233306   0.513   2.439   7.075  2.1508  1.2790 -0.7900
 7224SOL     OW33307   3.376   1.313   5.257 -0.0741 -0.1920  0.3346
 7224SOL    HW133308   3.382   1.218   5.251  0.2626  0.1031 -4.0289
 7224SOL    HW233309   3.350   1.314   5.349 -3.5456 -1.3937 -0.6440
 7225SOL     OW33310   1.859   3.659   8.692 -0.1690 -0.2275 -0.2708
 7225SOL    HW133311   1.771   3.673   8.724  0.4812  2.4706  0.3202
 7225SOL    HW233312   1.849   3.712   8.612  1.0321  1.1017  0.4496
 7226SOL     OW33313   1.756   3.093   8.847  0.0789 -0.7976  0.5267
 7226SOL    HW133314   1.674   3.061   8.883 -1.1166 -0.2751 -1.7398
 7226SOL    HW233315   1.753   3.186   8.871  1.3139 -0.5945 -0.0517
 7227SOL     OW33316   2.623   1.489  13.938  0.0749 -0.4275 -0.1742
 7227SOL    HW133317   2.539   1.526  13.910  0.2822  0.5274  0.4508
 7227SOL    HW233318   2.670   1.549  13.880  1.0325 -1.6576 -0.6644
 7228SOL     OW33319   0.536   0.572   6.296 -0.6762  0.2958 -0.7502
 7228SOL    HW133320   0.447   0.548   6.270 -1.1062 -0.0552  1.0368
 7228SOL    HW233321   0.521   0.577   6.390  0.8922 -0.7308 -0.4463
 7229SOL     OW33322   2.146   4.228  13.423 -0.2927  0.2743 -0.2578
 7229SOL    HW133323   2.077   4.289  13.398  0.6664  0.9329 -1.2916
 7229SOL    HW233324   2.096   4.152  13.454  1.4173 -0.7711 -0.0517
 7230SOL     OW33325   0.019   0.040   2.715  0.0013 -0.0112  0.1744
 7230SOL    HW133326   4.675   0.080   2.747 -0.0864 -1.5323  1.7895
 7230SOL    HW233327   0.074   0.088   2.777  2.0872 -0.8265 -1.0543
 7231SOL     OW33328   2.637   0.125   3.728 -0.5519  0.2593  0.3506
 7231SOL    HW133329   2.590   0.074   3.662 -1.5623 -1.0306  2.0706
 7231SOL    HW233330   2.717   0.134   3.677 -0.5132  1.0144  0.5473
 7232SOL     OW33331   0.385   0.007   3.337  0.2617 -0.0254  0.0670
 7232SOL    HW133332   0.344   0.087   3.305  0.1816  1.3638  3.7034
 7232SOL    HW233333   0.378   0.018   3.432  2.4860 -0.4453  0.2619
 7233SOL     OW33334   3.303   0.213   4.851  0.4280 -0.4347  0.1236
 7233SOL    HW133335   3.368   0.177   4.912 -1.2995 -3.1205  0.3981
 7233SOL    HW233336   3.272   0.137   4.802  0.1066 -1.5924  2.0914
 7234SOL     OW33337   2.963   3.517   4.739  0.3760  0.4580  0.3353
 7234SOL    HW133338   2.889   3.576   4.727 -0.7090 -0.6528  1.5221
 7234SOL    HW233339   3.037   3.574   4.759  0.2595  1.3420 -1.7945
 7235SOL     OW33340   2.961   4.459  17.643  0.2277  0.0349 -0.3310
 7235SOL    HW133341   2.964   4.415  17.558  1.0914  1.2166 -0.8996
 7235SOL    HW233342   2.891   4.407  17.683 -1.4396  1.3328 -1.5423
 7236SOL     OW33343   3.569   0.651   7.392 -0.0049 -0.2654 -0.3780
 7236SOL    HW133344   3.594   0.561   7.369 -2.9621 -1.1882 -0.0033
 7236SOL    HW233345   3.476   0.631   7.402 -0.2574  0.4032 -1.3657
 7237SOL     OW33346   2.244   0.033   3.692 -0.0938 -0.6557 -0.4336
 7237SOL    HW133347   2.312   0.017   3.626  2.7997  1.5337  2.0311
 7237SOL    HW233348   2.258   0.124   3.719  0.2611 -1.2102  1.2659
 7238SOL     OW33349   1.737   1.123   9.332 -0.5919  0.2588 -0.6400
 7238SOL    HW133350   1.657   1.079   9.304 -0.8518 -0.0424  0.5879
 7238SOL    HW233351   1.695   1.209   9.333 -2.1592 -0.5189 -0.2621
 7239SOL     OW33352   3.777   0.654   1.385  0.0779 -0.0096  0.3928
 7239SOL    HW133353   3.847   0.624   1.442  1.0376 -1.4477 -1.5375
 7239SOL    HW233354   3.695   0.641   1.433 -0.9858 -3.4678 -2.3712
 7240SOL     OW33355   2.685   2.841  13.099 -0.4129  0.0083 -0.2590
 7240SOL    HW133356   2.709   2.823  13.190 -0.2510  2.7984  0.2379
 7240SOL    HW233357   2.626   2.766  13.097 -0.8566  0.2888  2.1524
 7241SOL     OW33358   0.465   3.060  15.550 -0.1150 -0.2062  0.2538
 7241SOL    HW133359   0.466   3.150  15.583  0.0757 -0.0712 -0.1299
 7241SOL    HW233360   0.541   3.017  15.590  0.4501  0.0365 -0.5707
 7242SOL     OW33361   3.912   1.140   3.741 -0.2948  0.0556 -0.3284
 7242SOL    HW133362   3.952   1.060   3.707 -1.3598 -0.7603  0.3039
 7242SOL    HW233363   3.993   1.187   3.758 -0.2381 -0.1127 -0.1289
 7243SOL     OW33364   4.187   2.485  11.556  0.1451  0.1493 -0.3921
 7243SOL    HW133365   4.277   2.508  11.580 -0.4628 -1.2366  3.2724
 7243SOL    HW233366   4.183   2.516  11.465  0.3558 -1.8319 -1.0657
 7244SOL     OW33367   4.278   4.609  15.861 -0.4327 -0.3671  0.3645
 7244SOL    HW133368   4.374   4.614  15.864 -0.3439 -0.8270 -1.7548
 7244SOL    HW233369   4.257   4.663  15.785 -1.0074 -0.9753  0.0908
 7245SOL     OW33370   2.324   3.241   2.664 -0.6565  0.3871  0.1976
 7245SOL    HW133371   2.361   3.192   2.739 -0.4943  1.1673  0.6255
 7245SOL    HW233372   2.385   3.315   2.663 -0.6035  0.3648  1.6092
 7246SOL     OW33373   3.254   1.492   8.319  0.0123 -0.0855 -0.6276
 7246SOL    HW133374   3.312   1.546   8.266  1.5826 -2.2217 -1.0808
 7246SOL    HW233375   3.168   1.530   8.299  0.3429 -0.1355 -2.0841
 7247SOL     OW33376   3.832   0.892  15.623  0.6489  0.3586  0.0385
 7247SOL    HW133377   3.789   0.976  15.614  4.7415  2.6506  1.5705
 7247SOL    HW233378   3.882   0.893  15.541 -1.8162  0.3712 -1.4397
 7248SOL     OW33379   2.026   3.660   6.459 -0.8005 -1.0337  0.3138
 7248SOL    HW133380   2.034   3.745   6.417  1.0856 -0.6087  1.5375
 7248SOL    HW233381   1.931   3.644   6.459 -0.7218 -1.5433  1.0643
 7249SOL     OW33382   4.581   4.194   7.495  0.1216  0.4719 -0.3335
 7249SOL    HW133383   4.667   4.217   7.530 -0.7165 -0.2143  2.2329
 7249SOL    HW233384   4.545   4.275   7.458  0.8654 -0.3737 -2.8593
 7250SOL     OW33385   1.819   2.887   6.755  0.0109 -0.5836  0.0432
 7250SOL    HW133386   1.872   2.846   6.686  1.3209 -0.3800  0.9210
 7250SOL    HW233387   1.748   2.823   6.757 -2.4664  2.1456 -0.4018
 7251SOL     OW33388   3.960   4.223   7.690  0.1691  0.2498  0.7527
 7251SOL    HW133389   4.009   4.291   7.644  3.0407 -0.4433  2.8276
 7251SOL    HW233390   4.022   4.210   7.761  1.0763 -3.1639 -0.7175
 7252SOL     OW33391   3.593   2.836   7.681 -0.4342 -0.7095 -0.5848
 7252SOL    HW133392   3.544   2.802   7.606 -0.8132 -2.2072  0.3477
 7252SOL    HW233393   3.661   2.770   7.676 -1.3876 -1.8537  1.5520
 7253SOL     OW33394   0.248   1.423   0.850  0.1850  0.5210 -0.1790
 7253SOL    HW133395   0.244   1.414   0.755 -2.8218 -1.1887  0.0826
 7253SOL    HW233396   0.171   1.373   0.878  1.6235 -0.9676  1.0952
 7254SOL     OW33397   2.092   3.777  14.039 -0.1630  0.2355 -0.0475
 7254SOL    HW133398   2.102   3.772  14.134  2.8033 -0.2972 -0.3725
 7254SOL    HW233399   2.156   3.843  14.011  1.3479 -0.8253  0.8504
 7255SOL     OW33400   2.898   0.096   4.995 -0.1255 -0.1084 -0.1321
 7255SOL    HW133401   2.815   0.081   5.040 -0.4774  0.3576 -0.6216
 7255SOL    HW233402   2.862   0.128   4.912  1.6878  0.4259 -0.7107
 7256SOL     OW33403   1.898   0.570   7.448  0.3024 -0.3517  0.5660
 7256SOL    HW133404   1.813   0.527   7.443 -0.0151  0.0115  2.9351
 7256SOL    HW233405   1.900   0.625   7.369 -1.4314  1.6820  1.9320
 7257SOL     OW33406   2.192   4.542   5.241  0.6910  0.4255  0.2580
 7257SOL    HW133407   2.216   4.586   5.160  0.8568 -0.4156 -0.1471
 7257SOL    HW233408   2.120   4.588   5.284 -1.0215 -0.3912 -1.7599
 7258SOL     OW33409   2.250   3.742   3.191  0.7081 -0.2535 -0.0580
 7258SOL    HW133410   2.331   3.693   3.200  1.8639  1.4507 -1.2113
 7258SOL    HW233411   2.209   3.723   3.275  0.7840  0.2305  0.0865
 7259SOL     OW33412   1.965   0.295  16.824 -0.2868  0.4931 -0.1839
 7259SOL    HW133413   1.986   0.388  16.829 -0.8965  0.5690  1.1107
 7259SOL    HW233414   2.055   0.264  16.811 -0.4743  0.1886 -0.7619
 7260SOL     OW33415   0.792   3.535   7.654  0.0234 -0.0504 -0.4718
 7260SOL    HW133416   0.725   3.548   7.586 -0.8507 -1.6089  0.0840
 7260SOL    HW233417   0.807   3.622   7.691 -0.6526  0.2300 -0.8490
 7261SOL     OW33418   2.553   0.407  12.065 -0.2632  0.4377 -0.7010
 7261SOL    HW133419   2.628   0.419  12.007 -0.0478  2.0875 -0.0765
 7261SOL    HW233420   2.562   0.314  12.084  1.0408  1.2940  2.8759
 7262SOL     OW33421   2.100   3.671  17.377  0.3319 -0.2035 -0.0178
 7262SOL    HW133422   2.143   3.743  17.424 -0.1893 -0.2997  0.5980
 7262SOL    HW233423   2.022   3.722  17.356  1.0404  0.6726 -0.5827
 7263SOL     OW33424   2.469   3.455   7.100  0.1570  0.1953  0.4229
 7263SOL    HW133425   2.377   3.443   7.076 -0.2234  1.4857  1.2208
 7263SOL    HW233426   2.462   3.460   7.196  3.7441 -1.9089  0.7762
 7264SOL     OW33427   2.113   3.998  14.759 -0.1604 -0.4077  0.2493
 7264SOL    HW133428   2.051   3.940  14.802 -0.3726 -0.1451  0.2962
 7264SOL    HW233429   2.055   4.057  14.710  4.7499  1.8977 -2.7720
 7265SOL     OW33430   4.072   2.661   8.634 -0.0273 -0.5886  0.2762
 7265SOL    HW133431   4.076   2.565   8.638 -2.4153 -0.6781  0.4788
 7265SOL    HW233432   4.029   2.671   8.549 -1.6887 -0.5782  1.1084
 7266SOL     OW33433   0.997   4.364   4.804  0.2286 -0.2027  0.0731
 7266SOL    HW133434   1.079   4.411   4.794 -0.3842  0.8951  0.1658
 7266SOL    HW233435   0.992   4.324   4.717 -0.1369 -0.1514  0.0672
 7267SOL     OW33436   1.632   3.887   5.986  0.0573 -0.1981  0.5039
 7267SOL    HW133437   1.572   3.851   5.920  1.5728 -2.4549  0.3615
 7267SOL    HW233438   1.712   3.907   5.937 -0.8954 -0.0061 -0.9863
 7268SOL     OW33439   0.261   0.475   8.629 -0.3720 -0.3928  0.1759
 7268SOL    HW133440   0.173   0.502   8.655 -0.3964  0.6063 -0.9113
 7268SOL    HW233441   0.294   0.422   8.701  1.3677 -1.8351 -1.7070
 7269SOL     OW33442   1.670   0.193   7.167  0.1306  1.2689 -0.5162
 7269SOL    HW133443   1.728   0.269   7.172  2.2733 -0.5600  2.3238
 7269SOL    HW233444   1.675   0.164   7.076 -0.2373  0.0773 -0.1525
 7270SOL     OW33445   0.042   1.367  10.132 -0.2342  0.5094  0.4739
 7270SOL    HW133446   0.053   1.306  10.204 -2.7556  1.5166  1.7230
 7270SOL    HW233447   4.692   1.338  10.102  0.0244 -0.8629  1.0846
 7271SOL     OW33448   0.532   0.566   8.207 -0.1420 -0.9552  0.3527
 7271SOL    HW133449   0.495   0.535   8.289 -0.9455 -2.4755 -0.5710
 7271SOL    HW233450   0.549   0.483   8.162 -0.6540 -1.6136  1.3819
 7272SOL     OW33451   4.725   4.423   2.071 -0.4728 -0.2041  0.0984
 7272SOL    HW133452   0.049   4.497   2.076 -0.0837 -0.4689 -0.6957
 7272SOL    HW233453   0.048   4.355   2.038  0.2216  1.1592 -1.4404
 7273SOL     OW33454   2.061   3.781   4.659 -0.5552  0.2954  0.3701
 7273SOL    HW133455   2.110   3.720   4.603 -0.6818 -0.4670  1.0959
 7273SOL    HW233456   2.129   3.846   4.672  0.2969 -0.4009 -0.5832
 7274SOL     OW33457   2.362   3.267  14.821 -0.7435 -0.1045 -0.5989
 7274SOL    HW133458   2.400   3.180  14.834 -2.6490 -0.4916  2.4162
 7274SOL    HW233459   2.287   3.259  14.761  1.1308 -0.4442 -2.8851
 7275SOL     OW33460   3.733   3.045  16.472  0.5853  0.0136  0.1184
 7275SOL    HW133461   3.792   3.038  16.547  0.3346 -1.6904  0.1628
 7275SOL    HW233462   3.658   3.097  16.501 -0.8071 -0.3445 -2.8258
 7276SOL     OW33463   1.988   3.624  12.587  0.1368 -0.5049  0.4522
 7276SOL    HW133464   1.924   3.685  12.552  2.1475  0.8866 -0.7923
 7276SOL    HW233465   1.982   3.646  12.681 -1.0765  0.1547  0.2195
 7277SOL     OW33466   2.796   0.282  14.513  1.0582 -0.3325 -0.1995
 7277SOL    HW133467   2.799   0.235  14.430 -0.9978  1.2353 -1.1564
 7277SOL    HW233468   2.802   0.222  14.587 -1.1393  0.8010  0.9060
 7278SOL     OW33469   3.680   2.262   9.416  0.1013  1.0803 -0.1814
 7278SOL    HW133470   3.681   2.313   9.335 -0.5624 -0.0946 -0.9415
 7278SOL    HW233471   3.766   2.222   9.425  0.3400  1.8047  0.7261
 7279SOL     OW33472   0.394   2.437   3.719 -0.0190 -0.2796 -0.7870
 7279SOL    HW133473   0.475   2.406   3.759 -0.7465 -1.6594 -0.3806
 7279SOL    HW233474   0.373   2.493   3.793  2.4485 -1.0611  0.4998
 7280SOL     OW33475   3.133   0.066   8.537  0.2907 -0.4544  0.3362
 7280SOL    HW133476   3.217   0.112   8.534 -1.1034  2.1455  1.0252
 7280SOL    HW233477   3.083   0.101   8.463  1.9306  1.6547  0.2109
 7281SOL     OW33478   0.896   3.531  10.113  0.1663  0.3823 -0.1259
 7281SOL    HW133479   0.878   3.549  10.205  2.6317  1.2885  0.1796
 7281SOL    HW233480   0.805   3.525  10.083  0.6092  0.9650 -1.5722
 7282SOL     OW33481   3.880   0.791   7.101  0.3822  0.2887 -0.0822
 7282SOL    HW133482   3.897   0.871   7.050 -2.9138  1.9864  1.4616
 7282SOL    HW233483   3.798   0.813   7.145 -0.7821 -1.7860 -1.2668
 7283SOL     OW33484   1.801   3.508   2.460  0.0556 -0.0357 -0.7662
 7283SOL    HW133485   1.789   3.453   2.383  1.6938  1.0483 -1.8091
 7283SOL    HW233486   1.831   3.446   2.527 -1.6662  0.9595  0.9382
 7284SOL     OW33487   0.517   3.301   4.578 -0.4343 -0.6379 -0.2337
 7284SOL    HW133488   0.529   3.345   4.494 -4.6683  0.5381 -0.2302
 7284SOL    HW233489   0.514   3.368   4.647 -2.0854  1.9411 -2.7980
 7285SOL     OW33490   1.762   4.027  14.662 -0.3002 -0.3999 -0.0285
 7285SOL    HW133491   1.794   3.937  14.658  0.6705 -0.0382 -0.1995
 7285SOL    HW233492   1.843   4.074  14.645 -1.1416  0.7936 -0.7595
 7286SOL     OW33493   2.786   1.999   2.816 -0.8835  0.1847 -0.4116
 7286SOL    HW133494   2.870   2.046   2.812  0.4766 -2.2632 -0.6038
 7286SOL    HW233495   2.760   2.049   2.893  0.2469 -0.0408  0.1137
 7287SOL     OW33496   2.131   2.650   5.238  0.1071 -0.6217  0.7079
 7287SOL    HW133497   2.049   2.640   5.190 -0.0758 -2.0165  1.3011
 7287SOL    HW233498   2.141   2.745   5.244 -2.8788 -0.1281 -2.3931
 7288SOL     OW33499   3.766   2.230   6.200  0.1271  0.4182 -0.2182
 7288SOL    HW133500   3.695   2.255   6.140 -0.4245  1.6525  0.9502
 7288SOL    HW233501   3.752   2.278   6.281  0.3774 -0.2840  0.2310
 7289SOL     OW33502   4.531   4.049   4.365  0.7884 -0.0782  0.1852
 7289SOL    HW133503   4.551   4.002   4.447  0.7310 -1.6189 -0.6835
 7289SOL    HW233504   4.607   4.107   4.357  0.3200  0.4986 -0.0298
 7290SOL     OW33505   1.266   4.425   3.823 -0.0866 -0.3587  0.2731
 7290SOL    HW133506   1.224   4.509   3.807  2.5677  0.9997  0.4165
 7290SOL    HW233507   1.246   4.375   3.744  0.0358 -0.0754  0.0610
 7291SOL     OW33508   1.033   0.483   5.655 -0.2266  0.0312 -0.2465
 7291SOL    HW133509   0.958   0.481   5.715 -0.8943  0.5564 -1.0578
 7291SOL    HW233510   1.073   0.403   5.689 -0.1966  0.4820  0.7893
 7292SOL     OW33511   3.672   1.507   2.511  0.2451  0.3187  1.2092
 7292SOL    HW133512   3.740   1.468   2.456  2.2474  4.9325  0.4225
 7292SOL    HW233513   3.600   1.457   2.474 -0.1124  1.3210  0.5451
 7293SOL     OW33514   4.732   1.271  12.738  0.2546 -0.2412  0.0122
 7293SOL    HW133515   0.076   1.301  12.780 -0.4357  0.5154  0.7756
 7293SOL    HW233516   0.010   1.177  12.750 -2.2711 -0.4470  1.3412
 7294SOL     OW33517   3.835   2.901   0.357  0.6032  0.4806 -0.5389
 7294SOL    HW133518   3.887   2.948   0.422  1.8642 -0.8048 -0.6320
 7294SOL    HW233519   3.833   2.947   0.273 -0.7414  2.1826  0.4198
 7295SOL     OW33520   0.275   1.247   4.104  0.0663 -0.1010 -0.1800
 7295SOL    HW133521   0.266   1.152   4.101 -1.9518  0.1025 -0.4189
 7295SOL    HW233522   0.371   1.248   4.105  0.0149  1.2570  2.1925
 7296SOL     OW33523   4.131   0.827   0.004 -0.1693  0.1613 -0.0424
 7296SOL    HW133524   4.155   0.735   0.012  0.1974  0.2567 -0.0731
 7296SOL    HW233525   4.212   0.875   0.016 -0.8754  1.3027  0.1324
 7297SOL     OW33526   2.934   2.444  11.242  0.2333  0.2257  0.2322
 7297SOL    HW133527   2.881   2.397  11.306 -0.0813 -0.2325 -0.3685
 7297SOL    HW233528   2.869   2.500  11.198  0.7318 -0.0327 -0.8324
 7298SOL     OW33529   3.487   1.965  10.380 -0.6762  0.0122  0.1551
 7298SOL    HW133530   3.514   1.990  10.468  1.7149  2.0995 -1.1549
 7298SOL    HW233531   3.567   1.920  10.355 -0.9735 -0.5278  0.1876
 7299SOL     OW33532   1.024   0.743   2.661 -0.4743 -0.2857  0.1360
 7299SOL    HW133533   1.113   0.734   2.626 -1.6350 -1.1201 -2.6221
 7299SOL    HW233534   0.970   0.735   2.582  0.1878  0.5757 -0.4041
 7300SOL     OW33535   1.238   4.609   1.158  0.1984 -0.1579  1.5455
 7300SOL    HW133536   1.308   4.566   1.110 -0.0003 -0.6641  1.7049
 7300SOL    HW233537   1.261   4.584   1.247 -2.5947 -0.8699  2.0803
 7301SOL     OW33538   1.206   4.324   8.781 -0.1976 -0.2312 -0.0006
 7301SOL    HW133539   1.259   4.360   8.710 -0.8455  2.3480  0.8498
 7301SOL    HW233540   1.237   4.233   8.777  1.0457  0.1093  2.0784
 7302SOL     OW33541   0.078   1.858   2.638 -0.5085 -0.0070  0.3231
 7302SOL    HW133542   0.028   1.882   2.716 -2.2956  2.8802 -1.7281
 7302SOL    HW233543   0.050   1.770   2.612 -1.8706  0.6718 -0.4914
 7303SOL     OW33544   0.208   2.429   2.461  0.0681 -0.0071 -0.0192
 7303SOL    HW133545   0.153   2.504   2.442  0.5399  0.5585  0.8518
 7303SOL    HW233546   0.208   2.409   2.555 -1.3779 -1.9596 -0.4235
 7304SOL     OW33547   2.430   0.175  15.224 -0.0384  0.6268 -0.1930
 7304SOL    HW133548   2.345   0.216  15.209 -0.0502  1.3283  1.7177
 7304SOL    HW233549   2.486   0.250  15.202  1.3434 -0.3943 -0.1840
 7305SOL     OW33550   1.109   2.718   4.388  0.0371  0.5799  0.2718
 7305SOL    HW133551   1.074   2.636   4.354  0.4924  1.4862 -2.4017
 7305SOL    HW233552   1.151   2.759   4.313  2.6054  0.2889  1.5414
 7306SOL     OW33553   2.597   4.031   2.026 -0.2493  0.3981  0.1369
 7306SOL    HW133554   2.615   3.985   1.944  0.4283  0.6821  0.1239
 7306SOL    HW233555   2.511   4.070   2.008  0.6671  1.8067 -1.2051
 7307SOL     OW33556   4.196   2.729   9.315  0.7496  0.1811  0.1531
 7307SOL    HW133557   4.249   2.665   9.362 -0.1523 -0.2477  0.5800
 7307SOL    HW233558   4.167   2.674   9.242  1.5850  0.1259 -0.1436
 7308SOL     OW33559   0.063   0.815   8.768  0.5366 -0.4828  0.5008
 7308SOL    HW133560   0.045   0.731   8.727 -1.3548 -0.2680  0.9021
 7308SOL    HW233561   4.711   0.845   8.749  0.5014 -0.9876 -0.1321
 7309SOL     OW33562   0.392   4.673   3.644 -0.6068  0.0886 -0.4258
 7309SOL    HW133563   0.300   4.679   3.671 -0.5348 -0.4048 -0.0933
 7309SOL    HW233564   0.415   4.581   3.639 -0.4833  0.0621  0.7394
 7310SOL     OW33565   2.073   3.330  12.983 -0.1036  0.2604  0.2314
 7310SOL    HW133566   2.074   3.291  13.070 -0.3871 -1.7030 -0.6526
 7310SOL    HW233567   1.983   3.361  12.972 -0.6549 -1.1378  0.8786
 7311SOL     OW33568   1.061   2.811  13.437  0.2835 -0.1517 -0.7183
 7311SOL    HW133569   1.138   2.755  13.436  0.1235 -0.3632 -1.0569
 7311SOL    HW233570   1.099   2.899  13.430  1.1608 -0.5124 -0.3769
 7312SOL     OW33571   2.195   0.138  15.713  0.1920  0.2102 -0.7526
 7312SOL    HW133572   2.181   0.055  15.758  1.7135 -0.5762 -1.7308
 7312SOL    HW233573   2.257   0.103  15.650  1.3376 -0.1944  0.5979
 7313SOL     OW33574   0.982   3.346  15.622  0.0910 -0.0470  0.5988
 7313SOL    HW133575   0.952   3.273  15.568  2.7342 -0.1940 -0.6270
 7313SOL    HW233576   1.019   3.399  15.551  0.7850 -1.4763 -0.0966
 7314SOL     OW33577   3.929   4.337   2.558  0.0950  0.0060 -0.4917
 7314SOL    HW133578   4.004   4.278   2.553  1.2183  1.6492 -3.0347
 7314SOL    HW233579   3.956   4.415   2.605  0.1058 -0.9696  1.1192
 7315SOL     OW33580   2.472   1.612   8.663 -0.6140 -0.0561 -0.3844
 7315SOL    HW133581   2.417   1.658   8.599 -2.5749  2.4221  3.0250
 7315SOL    HW233582   2.450   1.654   8.747  2.8300  1.6398 -0.3410
 7316SOL     OW33583   1.029   0.175   5.614  0.1647 -0.0865  0.3595
 7316SOL    HW133584   1.042   0.093   5.567  0.5618 -0.0097  0.3319
 7316SOL    HW233585   0.972   0.230   5.560  0.6097  1.3509  1.3374
 7317SOL     OW33586   3.359   0.617   8.434 -0.2196  0.1445 -0.8965
 7317SOL    HW133587   3.425   0.659   8.378  2.5985 -0.2625  2.1075
 7317SOL    HW233588   3.380   0.647   8.523 -1.2087  0.3993 -0.7479
 7318SOL     OW33589   1.812   2.203  11.585 -0.1956  0.0119  0.6202
 7318SOL    HW133590   1.815   2.298  11.574  1.3487  0.0102  0.9653
 7318SOL    HW233591   1.812   2.220  11.679 -0.3247  3.1527  0.0245
 7319SOL     OW33592   0.072   3.299  16.015 -0.3083 -0.3099 -0.0708
 7319SOL    HW133593   0.015   3.238  15.968 -1.7709 -0.7177  2.2044
 7319SOL    HW233594   0.135   3.326  15.949  1.0761 -2.9150  0.1971
 7320SOL     OW33595   3.807   2.055   4.985 -0.4259  0.2949 -0.1292
 7320SOL    HW133596   3.799   2.147   4.958  0.6453 -0.1328 -1.9663
 7320SOL    HW233597   3.867   2.073   5.057  0.8126  0.4403 -1.1979
 7321SOL     OW33598   3.516   3.017  12.559  0.6201 -0.3205  0.3021
 7321SOL    HW133599   3.609   3.038  12.566  0.7559 -1.8975  2.9859
 7321SOL    HW233600   3.487   3.070  12.485  0.6584  0.2811  0.7263
 7322SOL     OW33601   3.731   1.329  11.933 -0.6343 -0.0088 -0.4881
 7322SOL    HW133602   3.791   1.256  11.942 -0.0666  0.6830  1.3971
 7322SOL    HW233603   3.790   1.403  11.948  0.1302 -0.6911 -0.1771
 7323SOL     OW33604   4.562   3.605   5.490 -0.5326  0.4663  0.2021
 7323SOL    HW133605   4.630   3.596   5.423 -0.7537 -4.1128  0.6080
 7323SOL    HW233606   4.613   3.620   5.570  0.8050 -2.0026 -0.1976
 7324SOL     OW33607   0.939   1.654   2.021  0.3277  0.0956  0.0721
 7324SOL    HW133608   0.979   1.568   2.011  0.3386  0.1894 -0.6441
 7324SOL    HW233609   0.919   1.657   2.115  0.6052  1.4719  0.0774
 7325SOL     OW33610   2.896   3.974   6.554  0.1534 -0.4746 -0.4665
 7325SOL    HW133611   2.849   3.907   6.504 -0.0776 -0.4625 -0.2661
 7325SOL    HW233612   2.867   4.056   6.515 -1.3889  0.1416  1.9583
 7326SOL     OW33613   0.326   2.712   9.094  0.6422  0.0298 -0.1290
 7326SOL    HW133614   0.327   2.656   9.017  0.8424  1.5044 -1.1960
 7326SOL    HW233615   0.332   2.796   9.050  0.8421 -0.7565 -1.6039
 7327SOL     OW33616   2.027   4.364   2.817  0.3833 -0.0343 -0.2196
 7327SOL    HW133617   2.060   4.419   2.888 -1.8867  1.9646 -0.7284
 7327SOL    HW233618   1.954   4.417   2.787 -0.6633 -0.7344  1.0775
 7328SOL     OW33619   2.841   0.496   5.733  0.3874  0.0478  0.6750
 7328SOL    HW133620   2.884   0.574   5.700 -1.1020  0.7437  0.3762
 7328SOL    HW233621   2.786   0.538   5.799  0.4103 -0.9626  1.3442
 7329SOL     OW33622   1.759   3.289   0.341 -0.4028  0.1913 -0.1950
 7329SOL    HW133623   1.820   3.328   0.279 -0.8857  1.5324  0.1790
 7329SOL    HW233624   1.691   3.356   0.346  0.6331  1.2905 -0.8583
 7330SOL     OW33625   4.223   1.311   8.494 -0.3224  0.4896  0.2493
 7330SOL    HW133626   4.143   1.357   8.468  0.0913  0.4882 -1.0278
 7330SOL    HW233627   4.205   1.307   8.588 -2.4161  0.7474 -0.1388
 7331SOL     OW33628   1.488   3.277   6.949 -0.4444 -0.1208  0.0667
 7331SOL    HW133629   1.502   3.183   6.936 -3.5042 -0.7956  1.7512
 7331SOL    HW233630   1.578   3.304   6.930 -0.1127 -2.1242 -1.1708
 7332SOL     OW33631   0.669   4.587   5.996 -0.2311 -0.5147  0.3648
 7332SOL    HW133632   0.756   4.596   6.036 -0.9182 -0.7618  1.9285
 7332SOL    HW233633   0.685   4.622   5.908  2.1769 -0.8543  0.6454
 7333SOL     OW33634   2.671   2.955   9.975  0.0561 -0.0703 -0.2316
 7333SOL    HW133635   2.648   2.962  10.067 -0.2943  0.5002 -0.3643
 7333SOL    HW233636   2.755   3.001   9.973  0.0903 -0.2140 -1.8733
 7334SOL     OW33637   2.861   2.428   7.388  0.2269  0.1144  0.3593
 7334SOL    HW133638   2.778   2.384   7.407  1.0115 -0.9894  1.1790
 7334SOL    HW233639   2.869   2.414   7.294 -1.5221 -0.9960  0.3665
 7335SOL     OW33640   0.572   1.783   5.819  0.0361 -0.1730 -0.2853
 7335SOL    HW133641   0.564   1.854   5.883 -0.8467  0.5809 -1.2485
 7335SOL    HW233642   0.642   1.811   5.760 -1.0489  0.3123 -1.3409
 7336SOL     OW33643   0.494   2.806  10.296 -0.3721 -0.6799  0.0247
 7336SOL    HW133644   0.583   2.776  10.313 -0.0587  0.4720  0.4598
 7336SOL    HW233645   0.458   2.718  10.291  2.4563 -1.9130  1.1220
 7337SOL     OW33646   4.425   0.814   6.267 -0.1060  0.7465  0.0820
 7337SOL    HW133647   4.472   0.893   6.239  0.7499 -0.4420 -1.8076
 7337SOL    HW233648   4.338   0.828   6.230 -1.0985 -0.0150  2.1183
 7338SOL     OW33649   0.966   2.012   6.392  0.8597 -0.2263  0.2219
 7338SOL    HW133650   0.978   1.918   6.407  3.0143  0.0865  0.6106
 7338SOL    HW233651   1.040   2.059   6.430  0.3207 -0.0718  1.0753
 7339SOL     OW33652   4.590   2.566   4.505  0.1752 -0.5115  0.5158
 7339SOL    HW133653   4.620   2.475   4.499  0.1260 -0.5919  1.5039
 7339SOL    HW233654   4.672   2.614   4.516 -0.6962  1.3201 -1.0415
 7340SOL     OW33655   4.660   4.520   2.709  0.1352 -0.1492 -0.3907
 7340SOL    HW133656   4.685   4.495   2.798 -1.3006  0.8308  0.2972
 7340SOL    HW233657   4.706   4.604   2.707 -0.8623  0.4312  1.1289
 7341SOL     OW33658   2.948   2.898   7.900  0.5049 -0.5268  0.2121
 7341SOL    HW133659   2.889   2.879   7.827 -0.4486  1.6990  0.3874
 7341SOL    HW233660   3.029   2.893   7.849  0.4224 -0.0889  0.0333
 7342SOL     OW33661   0.509   4.621   5.237 -0.3354  0.2961 -0.1826
 7342SOL    HW133662   0.416   4.643   5.231  0.0299  1.9716  0.1054
 7342SOL    HW233663   0.530   4.601   5.146  0.7819 -3.0574  0.8030
 7343SOL     OW33664   3.350   1.552   1.921 -0.1200 -0.3058  0.1680
 7343SOL    HW133665   3.378   1.633   1.964  1.4268 -0.5518 -0.3614
 7343SOL    HW233666   3.432   1.521   1.884  0.3671  2.0153 -0.6614
 7344SOL     OW33667   3.949   0.581   1.579 -0.5664  0.3297 -0.3297
 7344SOL    HW133668   3.910   0.631   1.651  1.1428  1.4315 -0.1846
 7344SOL    HW233669   3.971   0.504   1.632 -1.2236  0.9261  0.8114
 7345SOL     OW33670   4.428   2.698   5.986 -0.1988 -0.1989 -0.2378
 7345SOL    HW133671   4.431   2.792   6.001 -0.7129 -0.0064 -1.3587
 7345SOL    HW233672   4.512   2.673   6.024  0.4436  2.3095 -0.0228
 7346SOL     OW33673   3.940   3.185   5.091 -0.2665  0.3455 -1.0733
 7346SOL    HW133674   4.015   3.179   5.032  0.0351 -1.9905 -0.4365
 7346SOL    HW233675   3.978   3.256   5.141  0.0031  1.4704 -2.8903
 7347SOL     OW33676   4.001   2.670   5.203  0.5216 -0.3184 -0.1911
 7347SOL    HW133677   4.086   2.710   5.183  0.9693  0.5116  3.3302
 7347SOL    HW233678   3.962   2.677   5.116  0.8113 -0.2502 -0.3150
 7348SOL     OW33679   1.624   1.377   3.833 -0.3424  0.5289  0.0455
 7348SOL    HW133680   1.620   1.422   3.748  0.5757  0.7647  0.1283
 7348SOL    HW233681   1.694   1.315   3.812  0.3249  0.6726  1.8808
 7349SOL     OW33682   4.013   1.547   3.663 -0.5208 -0.3832  0.2313
 7349SOL    HW133683   4.044   1.457   3.659  1.2264  0.2445 -0.3278
 7349SOL    HW233684   4.093   1.583   3.702 -0.0313 -0.2861 -0.8650
 7350SOL     OW33685   0.399   0.249   4.004 -0.6258  0.5086 -0.0604
 7350SOL    HW133686   0.409   0.332   4.050 -0.1424  0.6121 -0.3507
 7350SOL    HW233687   0.386   0.272   3.911  0.4052 -1.0373 -0.5841
 7351SOL     OW33688   4.010   2.352   4.892 -0.2555 -0.1350  0.0003
 7351SOL    HW133689   3.918   2.327   4.890 -0.0594 -0.8182 -0.5408
 7351SOL    HW233690   4.053   2.269   4.869 -1.2002 -0.8539  0.7778
 7352SOL     OW33691   3.737   1.051  10.401  0.4744  0.1536 -0.1006
 7352SOL    HW133692   3.702   1.138  10.379 -0.7327  0.1164  1.6281
 7352SOL    HW233693   3.738   1.010  10.315 -1.6893 -0.7655  0.3232
 7353SOL     OW33694   4.284   0.450  15.169 -0.1971  0.2093  0.0482
 7353SOL    HW133695   4.267   0.404  15.251 -0.0986  0.3113  0.1241
 7353SOL    HW233696   4.365   0.498  15.184  0.4212 -0.5488 -0.8344
 7354SOL     OW33697   1.497   3.417   6.565 -0.5578  0.5750 -0.3333
 7354SOL    HW133698   1.405   3.435   6.584 -0.4579  1.7981 -1.0150
 7354SOL    HW233699   1.491   3.383   6.475 -0.9953  3.1974 -1.2755
 7355SOL     OW33700   1.049   4.081   2.091 -0.3386  0.0541 -0.6403
 7355SOL    HW133701   1.007   4.000   2.063 -0.1949  0.2382 -1.4017
 7355SOL    HW233702   0.979   4.146   2.078  0.1985  0.9288  0.9257
 7356SOL     OW33703   1.038   3.440  16.209 -0.5262 -0.4854  0.2299
 7356SOL    HW133704   1.010   3.388  16.284 -0.1114 -1.7384 -0.4744
 7356SOL    HW233705   0.965   3.416  16.151 -1.3527 -1.6137  1.7120
 7357SOL     OW33706   2.967   3.353  14.955 -0.4787  0.1895 -0.4792
 7357SOL    HW133707   2.967   3.286  14.886  1.1377 -0.7175  0.4136
 7357SOL    HW233708   2.926   3.426  14.908  0.6105 -0.4852 -2.4794
 7358SOL     OW33709   0.553   1.332   4.204 -0.4481 -0.0451  0.2604
 7358SOL    HW133710   0.525   1.263   4.264 -0.6287 -0.0181  0.2069
 7358SOL    HW233711   0.624   1.370   4.255  1.0574 -1.7897 -0.4930
 7359SOL     OW33712   0.011   4.417  15.566  0.1217  0.0202  0.1450
 7359SOL    HW133713   0.037   4.405  15.658  2.1020 -2.9006 -0.8126
 7359SOL    HW233714   4.656   4.392  15.580  0.5174 -0.0851  2.6394
 7360SOL     OW33715   1.894   3.577  13.957  0.7704  0.1913  0.0729
 7360SOL    HW133716   1.844   3.643  13.909  1.4377  0.5738 -0.0867
 7360SOL    HW233717   1.970   3.631  13.979  1.4285 -0.9711  0.6585
 7361SOL     OW33718   0.272   4.568   2.938 -0.2924  0.3104  0.6534
 7361SOL    HW133719   0.276   4.655   2.979 -0.5607 -0.6042  2.5847
 7361SOL    HW233720   0.265   4.515   3.017 -1.7207  0.3291  0.5545
 7362SOL     OW33721   3.889   3.253  12.795 -0.2966 -0.6514 -0.0854
 7362SOL    HW133722   3.864   3.308  12.720 -0.2680  1.7797  1.6822
 7362SOL    HW233723   3.836   3.177  12.772 -3.8079  1.9248 -0.4798
 7363SOL     OW33724   1.387   0.576   1.662  0.0002  0.4747  0.3153
 7363SOL    HW133725   1.295   0.598   1.649 -0.4561 -1.1329  0.8797
 7363SOL    HW233726   1.405   0.601   1.753 -1.3347 -2.3476  1.3505
 7364SOL     OW33727   1.540   2.543   2.282  1.4467 -0.0994  0.3464
 7364SOL    HW133728   1.445   2.535   2.284  1.3975  0.7855  1.6765
 7364SOL    HW233729   1.566   2.450   2.285  1.8687  0.0083 -0.0550
 7365SOL     OW33730   3.263   0.397  17.188  0.3449 -0.1747  0.0910
 7365SOL    HW133731   3.210   0.318  17.176  1.9292 -1.5185  1.9515
 7365SOL    HW233732   3.268   0.425  17.097  1.4431 -0.7101 -0.0132
 7366SOL     OW33733   1.248   4.041   2.274 -0.0053 -0.0599 -0.0265
 7366SOL    HW133734   1.328   4.019   2.228 -1.3420 -1.7503 -1.5406
 7366SOL    HW233735   1.182   4.052   2.206  1.0071 -1.5201 -1.2449
 7367SOL     OW33736   3.530   1.700  11.850 -0.2023 -0.1890  0.4851
 7367SOL    HW133737   3.606   1.711  11.794  1.2119  0.0568  2.4496
 7367SOL    HW233738   3.520   1.784  11.896 -0.8253 -0.7117  1.3053
 7368SOL     OW33739   0.546   3.154  14.915 -0.1265 -0.2577 -0.3470
 7368SOL    HW133740   0.603   3.113  14.851  1.0106 -1.9574  1.7384
 7368SOL    HW233741   0.603   3.216  14.961 -1.1723 -0.1628  0.8327
 7369SOL     OW33742   1.848   0.105   0.535  0.4834 -0.0181 -0.1618
 7369SOL    HW133743   1.846   0.161   0.457  0.2112 -0.4027 -0.4324
 7369SOL    HW233744   1.880   0.025   0.492 -2.0708 -0.9806 -0.2568
 7370SOL     OW33745   1.069   2.718  15.436  0.1682  0.4833 -0.0944
 7370SOL    HW133746   1.100   2.675  15.356 -0.8856  1.7436 -1.1734
 7370SOL    HW233747   1.061   2.636  15.486  0.8532  1.4222  1.5462
 7371SOL     OW33748   2.717   1.473   6.689  0.1259 -0.4467  0.2173
 7371SOL    HW133749   2.741   1.546   6.745 -2.0010  1.0534 -0.8201
 7371SOL    HW233750   2.790   1.449   6.632 -1.9382  2.5882 -3.7267
 7372SOL     OW33751   2.086   1.276   2.161  0.4598  0.2845  0.2310
 7372SOL    HW133752   2.103   1.359   2.206  1.7087 -0.0096  0.2991
 7372SOL    HW233753   2.029   1.312   2.093 -1.6831 -3.9589 -0.1662
 7373SOL     OW33754   4.121   1.759   8.128  0.3232 -0.0003  0.3660
 7373SOL    HW133755   4.064   1.807   8.187 -0.5784 -0.4638 -0.1407
 7373SOL    HW233756   4.174   1.826   8.084 -0.7603  0.1423 -0.7133
 7374SOL     OW33757   2.688   1.030   8.779  0.1149  0.4218  0.1015
 7374SOL    HW133758   2.656   1.111   8.739  1.3616  0.2171 -1.3110
 7374SOL    HW233759   2.764   1.063   8.829  2.6840 -1.6434 -2.4475
 7375SOL     OW33760   4.390   1.012   1.959 -0.4827  0.5670 -0.6362
 7375SOL    HW133761   4.467   1.002   2.015 -1.2527  1.7281  0.6207
 7375SOL    HW233762   4.416   0.986   1.870  1.4864  0.7421 -0.1263
 7376SOL     OW33763   4.682   2.861   8.204  0.5093 -0.1648 -0.1292
 7376SOL    HW133764   4.713   2.912   8.280 -0.8191 -0.8998  0.9007
 7376SOL    HW233765   4.726   2.920   8.144  3.1466 -1.4268  0.5815
 7377SOL     OW33766   1.081   4.044   0.422  0.3311 -0.1695  0.1479
 7377SOL    HW133767   0.989   4.020   0.432  0.4442 -0.4418  0.5126
 7377SOL    HW233768   1.095   4.089   0.506 -3.1379 -2.2510  1.8350
 7378SOL     OW33769   0.167   0.704   7.417 -0.1811  0.0460  0.2170
 7378SOL    HW133770   0.118   0.657   7.485  1.2189 -1.8282 -0.0530
 7378SOL    HW233771   0.148   0.660   7.334  0.3209  0.2655 -0.0154
 7379SOL     OW33772   4.509   2.048  16.012 -0.4478 -0.9884 -0.2880
 7379SOL    HW133773   4.499   2.058  16.107  0.8573 -1.6848 -0.0757
 7379SOL    HW233774   4.562   2.126  15.995 -0.9951 -0.5114  0.2386
 7380SOL     OW33775   4.177   0.339   2.725 -0.8456 -0.2806  0.2115
 7380SOL    HW133776   4.085   0.357   2.741 -1.1286 -2.0212  0.5462
 7380SOL    HW233777   4.183   0.244   2.718 -0.7781 -0.2673  0.0826
 7381SOL     OW33778   4.517   4.055  13.928 -0.4045  0.1409 -0.2733
 7381SOL    HW133779   4.520   4.147  13.902  0.9135  0.3652  0.6580
 7381SOL    HW233780   4.591   4.054  13.989  1.1705 -0.1822 -2.2028
 7382SOL     OW33781   0.958   1.252   6.665 -0.1119  0.1802  0.6087
 7382SOL    HW133782   0.998   1.325   6.712 -0.6173 -1.0218  2.8947
 7382SOL    HW233783   1.018   1.243   6.591  0.2348 -1.7369  1.1316
 7383SOL     OW33784   4.553   4.571   6.015  0.4947  0.1144 -0.6689
 7383SOL    HW133785   4.509   4.636   6.071 -0.5575 -2.3089  1.3329
 7383SOL    HW233786   4.644   4.600   6.016  0.3429  0.5565  0.2167
 7384SOL     OW33787   4.346   0.828   7.749 -0.8738 -0.5468  0.1715
 7384SOL    HW133788   4.416   0.851   7.810 -0.7200 -0.0358 -0.2051
 7384SOL    HW233789   4.381   0.841   7.661  0.5409 -2.3360  0.4821
 7385SOL     OW33790   0.015   4.511   2.985  0.5671 -0.4733 -0.0409
 7385SOL    HW133791   0.096   4.471   2.952  0.3382 -0.0504 -1.1339
 7385SOL    HW233792   0.047   4.591   3.025  0.5781 -1.2029  1.4180
 7386SOL     OW33793   3.166   1.094   4.127 -0.3172 -0.0547  0.5166
 7386SOL    HW133794   3.122   1.173   4.160  0.8455  0.5594  0.6071
 7386SOL    HW233795   3.109   1.079   4.052 -0.7636 -0.7908  1.0103
 7387SOL     OW33796   1.104   2.712   0.870 -0.8396  0.1537  0.2521
 7387SOL    HW133797   1.106   2.639   0.932  0.5893 -0.0547 -0.0264
 7387SOL    HW233798   1.131   2.668   0.789 -0.1969  0.2161  0.4332
 7388SOL     OW33799   2.648   3.429   5.383  0.2412  0.2785  0.4887
 7388SOL    HW133800   2.553   3.442   5.374  0.3625 -0.1578 -1.4401
 7388SOL    HW233801   2.647   3.357   5.319  2.9087  1.7272 -1.1898
 7389SOL     OW33802   2.437   1.274  11.507  0.3896  0.6962  0.4090
 7389SOL    HW133803   2.382   1.230  11.572  2.9312 -2.5851  0.3140
 7389SOL    HW233804   2.488   1.203  11.471 -1.5936 -1.1223  1.1912
 7390SOL     OW33805   2.004   1.572   3.844  0.3578  0.5237  0.0463
 7390SOL    HW133806   1.958   1.513   3.904 -1.3810  0.1820 -1.5858
 7390SOL    HW233807   1.930   1.606   3.794 -0.2011 -1.9944 -0.8832
 7391SOL     OW33808   4.629   3.255   8.371 -0.3378 -0.3012 -0.4379
 7391SOL    HW133809   4.560   3.221   8.429 -0.5176 -3.3239 -2.3974
 7391SOL    HW233810   4.579   3.309   8.310  0.8333 -0.5429 -1.6160
 7392SOL     OW33811   2.852   1.421   8.796 -0.0994  0.0993  0.4966
 7392SOL    HW133812   2.784   1.367   8.756  1.9595 -0.4587 -2.2487
 7392SOL    HW233813   2.822   1.420   8.887 -1.6722 -1.8110 -0.0391
 7393SOL     OW33814   1.384   2.164   8.214 -0.1354  0.4840  0.0684
 7393SOL    HW133815   1.370   2.246   8.261  1.3790  1.2861 -0.8734
 7393SOL    HW233816   1.300   2.120   8.223  1.4386 -2.8817 -1.4815
 7394SOL     OW33817   3.836   1.881  16.539  0.3875  0.6179 -0.0264
 7394SOL    HW133818   3.844   1.785  16.537  0.4816  0.6736 -1.9625
 7394SOL    HW233819   3.767   1.891  16.473  1.0017  1.7174 -0.4882
 7395SOL     OW33820   2.751   4.300   3.923  0.0404 -0.2939 -0.2888
 7395SOL    HW133821   2.796   4.315   3.839  0.5607 -0.0918  0.0238
 7395SOL    HW233822   2.796   4.355   3.987 -1.0975  2.0600 -1.5260
 7396SOL     OW33823   3.239   0.032   0.697 -0.1403 -0.0367  0.5103
 7396SOL    HW133824   3.324   0.072   0.717 -0.0189  0.8538 -1.7120
 7396SOL    HW233825   3.216   4.735   0.783  0.9715  1.3245  1.3301
 7397SOL     OW33826   1.673   3.780  12.726 -0.0874 -0.0013  0.6821
 7397SOL    HW133827   1.655   3.737  12.643  1.1713 -1.6935  1.2947
 7397SOL    HW233828   1.595   3.836  12.731  0.0315  0.1484  0.9018
 7398SOL     OW33829   2.963   2.820  10.065 -0.2538 -0.3693 -0.3722
 7398SOL    HW133830   2.932   2.756  10.000  0.2468 -2.3179  1.3278
 7398SOL    HW233831   2.971   2.895  10.007 -2.4014 -0.2730 -0.5361
 7399SOL     OW33832   0.664   3.710   2.700  0.3702 -0.7080 -0.1642
 7399SOL    HW133833   0.581   3.731   2.657  2.0445  2.7676 -1.6846
 7399SOL    HW233834   0.706   3.663   2.628 -0.3795  0.1184 -1.1395
 7400SOL     OW33835   3.334   2.616   3.139  0.2511 -0.6031  0.1462
 7400SOL    HW133836   3.386   2.594   3.216  2.5051  2.1842 -0.5995
 7400SOL    HW233837   3.401   2.605   3.072  0.8665 -1.3996  0.8947
 7401SOL     OW33838   4.561   0.808   4.231  0.2769 -0.4111  0.4637
 7401SOL    HW133839   4.570   0.841   4.142  1.8101  0.1927  0.8488
 7401SOL    HW233840   4.609   0.882   4.270  1.2845 -0.9492  0.2422
 7402SOL     OW33841   2.975   0.696   5.570 -0.0433 -0.1288  0.3389
 7402SOL    HW133842   2.907   0.718   5.508  0.9225 -3.6966 -1.9792
 7402SOL    HW233843   3.016   0.622   5.526  2.4752  1.4965 -0.0572
 7403SOL     OW33844   1.781   2.912   3.915  0.0762  0.1102  0.1700
 7403SOL    HW133845   1.823   2.968   3.850 -0.9345  0.1653 -0.4520
 7403SOL    HW233846   1.758   2.973   3.985 -0.5181  1.0946 -0.8894
 7404SOL     OW33847   0.149   0.309   5.997  0.0574  0.3411  0.2086
 7404SOL    HW133848   0.183   0.240   5.940 -1.5920  0.6905 -1.1803
 7404SOL    HW233849   0.068   0.341   5.956  0.2412  1.0277  0.3808
 7405SOL     OW33850   0.497   3.413   9.659  0.1030  0.1552 -0.3917
 7405SOL    HW133851   0.408   3.379   9.675 -0.5980  2.5458  0.7996
 7405SOL    HW233852   0.472   3.498   9.624 -0.4485  0.7073  1.3167
 7406SOL     OW33853   4.524   1.426   1.859 -0.2975  0.0695  0.1934
 7406SOL    HW133854   4.460   1.470   1.916 -0.7643  1.3394 -1.3255
 7406SOL    HW233855   4.584   1.395   1.927 -2.2528 -0.0130  1.9135
 7407SOL     OW33856   4.014   2.416   7.951 -0.4799  0.1527 -0.8425
 7407SOL    HW133857   3.948   2.393   8.015 -0.1841  1.7835  0.0502
 7407SOL    HW233858   4.095   2.370   7.976 -1.1986 -0.3476  0.5363
 7408SOL     OW33859   4.043   3.254   8.114 -0.1089  0.2141  0.0593
 7408SOL    HW133860   3.980   3.198   8.069 -0.2125  0.9300 -0.6835
 7408SOL    HW233861   4.038   3.208   8.198  1.3800 -0.4904 -0.2450
 7409SOL     OW33862   0.889   0.528  11.121 -0.1753 -0.0248 -0.3389
 7409SOL    HW133863   0.946   0.457  11.151 -3.7621 -1.7575  2.3795
 7409SOL    HW233864   0.810   0.479  11.096  1.8041 -2.7621 -1.2617
 7410SOL     OW33865   1.527   1.011   0.773 -0.1537  0.2028  0.1577
 7410SOL    HW133866   1.498   1.064   0.699  1.0289 -0.9847 -1.1637
 7410SOL    HW233867   1.464   0.939   0.773  1.7095 -1.4560  0.3964
 7411SOL     OW33868   2.352   4.499   9.606  0.6534  0.5697  0.1593
 7411SOL    HW133869   2.443   4.469   9.607  0.3217 -0.4858 -0.5113
 7411SOL    HW233870   2.352   4.581   9.557 -0.2033 -0.8049 -2.2063
 7412SOL     OW33871   2.460   1.426   9.476 -0.0294  0.4456  0.1781
 7412SOL    HW133872   2.474   1.454   9.566 -1.8036 -1.8181  1.1442
 7412SOL    HW233873   2.459   1.330   9.476 -1.5599  0.4610 -0.8053
 7413SOL     OW33874   1.377   4.387  11.952  0.0217 -0.0672 -0.2586
 7413SOL    HW133875   1.410   4.301  11.977 -0.3972 -0.0086  0.5011
 7413SOL    HW233876   1.286   4.374  11.927 -0.0903 -0.5312  0.3765
 7414SOL     OW33877   4.067   3.603   5.738  0.5679  0.2197  0.8303
 7414SOL    HW133878   3.977   3.571   5.743  0.9957 -1.3563 -2.0228
 7414SOL    HW233879   4.082   3.652   5.819  1.2396  1.0487  0.2091
 7415SOL     OW33880   4.069   4.146   5.267 -0.2003 -0.4852  0.1379
 7415SOL    HW133881   4.082   4.056   5.236 -0.4805 -0.8274  1.0220
 7415SOL    HW233882   4.129   4.191   5.207  1.7976 -1.0112  1.7499
 7416SOL     OW33883   1.742   2.065   2.818  0.1230  0.4110  0.0141
 7416SOL    HW133884   1.649   2.064   2.837  0.6069  0.4991  2.4014
 7416SOL    HW233885   1.758   2.156   2.793  2.5957  0.1491  0.6440
 7417SOL     OW33886   4.111   1.616  13.229 -0.5321  0.7191  0.1151
 7417SOL    HW133887   4.129   1.618  13.135  0.7404 -2.7757  0.2686
 7417SOL    HW233888   4.148   1.700  13.256 -0.3587  1.5777 -2.7846
 7418SOL     OW33889   1.701   2.426  13.392  0.2337 -0.3018 -0.0400
 7418SOL    HW133890   1.669   2.506  13.350 -0.1730 -1.1922 -1.4199
 7418SOL    HW233891   1.630   2.363  13.383 -0.4067  0.5289 -0.8085
 7419SOL     OW33892   0.569   1.736   4.679  0.0000  0.3221 -0.1716
 7419SOL    HW133893   0.635   1.668   4.675 -0.6761 -0.3230 -0.2800
 7419SOL    HW233894   0.601   1.794   4.749 -1.1021  0.0087  0.6059
 7420SOL     OW33895   2.661   1.076   2.793 -0.0377 -0.1224  0.2605
 7420SOL    HW133896   2.626   1.029   2.718  0.0620  0.3795 -0.0939
 7420SOL    HW233897   2.756   1.084   2.781 -0.4222  1.2152 -1.7273
 7421SOL     OW33898   3.247   4.098   7.571  0.1033  0.6052  0.1371
 7421SOL    HW133899   3.200   4.031   7.620  1.3680  0.3966  1.0374
 7421SOL    HW233900   3.257   4.160   7.643 -2.0838  0.9275  0.1876
 7422SOL     OW33901   4.246   1.245   3.405  0.3351  0.5079 -0.0392
 7422SOL    HW133902   4.201   1.299   3.341  2.2504 -0.5903 -2.2918
 7422SOL    HW233903   4.331   1.282   3.382 -0.7598  3.6712  1.0122
 7423SOL     OW33904   4.147   0.702   4.143 -0.4477 -0.0959  0.5085
 7423SOL    HW133905   4.055   0.726   4.149 -0.2017  1.1364 -0.5890
 7423SOL    HW233906   4.135   0.610   4.168  0.0814 -0.8277 -1.8965
 7424SOL     OW33907   2.040   1.731   4.088 -0.7124 -0.0452  0.2835
 7424SOL    HW133908   2.025   1.662   4.153  0.4570 -1.4993 -0.9882
 7424SOL    HW233909   2.074   1.682   4.014 -1.3175  1.5980 -1.0776
 7425SOL     OW33910   1.818   3.608   7.523  0.0630  0.1773 -0.0701
 7425SOL    HW133911   1.779   3.534   7.570 -0.0165 -0.3815 -1.0100
 7425SOL    HW233912   1.863   3.642   7.600 -1.4426  1.0396  0.4268
 7426SOL     OW33913   0.876   1.183  12.525  0.0946 -0.3359  0.3287
 7426SOL    HW133914   0.948   1.227  12.570 -0.5952 -0.4964  1.6041
 7426SOL    HW233915   0.863   1.249  12.457  1.4897  0.2696  0.6411
 7427SOL     OW33916   0.877   0.930   0.498  0.0566  0.0582 -0.4010
 7427SOL    HW133917   0.812   0.866   0.528  0.6128 -0.8148 -1.0328
 7427SOL    HW233918   0.821   1.007   0.503 -1.7406 -1.0566 -3.0990
 7428SOL     OW33919   1.843   3.058   3.671 -0.1346  0.0594  0.1500
 7428SOL    HW133920   1.836   3.153   3.684 -4.1167 -0.2543  0.2929
 7428SOL    HW233921   1.760   3.037   3.627  0.6967 -0.6990 -1.0499
 7429SOL     OW33922   4.443   2.812   1.995  0.2200 -0.2604  0.7394
 7429SOL    HW133923   4.476   2.751   1.929  3.3045  0.3141  1.7519
 7429SOL    HW233924   4.349   2.815   1.979  0.4138 -0.3904 -0.4040
 7430SOL     OW33925   4.432   0.693   5.518  0.6232 -0.1673  0.5225
 7430SOL    HW133926   4.456   0.758   5.452  0.3737  0.9136  1.5057
 7430SOL    HW233927   4.405   0.618   5.464  0.4603 -0.2973  0.7851
 7431SOL     OW33928   0.307   4.567  12.664  0.1902  0.1347 -0.1307
 7431SOL    HW133929   0.332   4.494  12.606  0.2661  1.8739 -2.2732
 7431SOL    HW233930   0.212   4.560  12.651  0.4020 -0.4796 -1.4058
 7432SOL     OW33931   1.980   2.278   7.029 -0.4296 -0.1725 -0.1042
 7432SOL    HW133932   2.021   2.297   6.945  0.5340  2.0533  0.8623
 7432SOL    HW233933   2.022   2.347   7.081  0.1362  0.3539 -1.2520
 7433SOL     OW33934   2.604   0.169   7.715 -0.4388 -0.1554  0.7747
 7433SOL    HW133935   2.539   0.099   7.704  2.0969 -2.6565  1.5624
 7433SOL    HW233936   2.569   0.221   7.643  2.4652 -1.8792 -1.9299
 7434SOL     OW33937   1.157   3.212  12.856 -0.5329 -0.9856  0.1329
 7434SOL    HW133938   1.090   3.244  12.915  0.9713  0.2621  1.1350
 7434SOL    HW233939   1.241   3.237  12.894 -0.0089 -0.5811 -1.2721
 7435SOL     OW33940   1.985   2.091   4.686  0.3002 -0.1932  0.0706
 7435SOL    HW133941   1.985   1.996   4.681 -2.9837 -0.2197  0.5963
 7435SOL    HW233942   2.019   2.109   4.773 -1.7104 -4.7799  1.7920
 7436SOL     OW33943   1.330   3.518   6.104  0.7216  0.3244  0.2031
 7436SOL    HW133944   1.391   3.511   6.031 -0.0130  0.5684 -0.4374
 7436SOL    HW233945   1.326   3.612   6.123 -2.3181  0.0628  0.8738
 7437SOL     OW33946   1.976   0.296   1.756  0.2543  0.7702  0.0397
 7437SOL    HW133947   1.969   0.214   1.805 -2.3897  1.7438  1.3032
 7437SOL    HW233948   2.016   0.352   1.824 -0.4461  0.5734  0.6139
 7438SOL     OW33949   0.678   3.942  15.098  0.5242 -0.3673 -0.5353
 7438SOL    HW133950   0.597   3.959  15.146  1.9823  2.3058  0.9936
 7438SOL    HW233951   0.674   4.008  15.030 -0.3289 -0.7041 -0.8142
 7439SOL     OW33952   3.261   0.813  12.474 -0.0171  0.4612  0.4917
 7439SOL    HW133953   3.260   0.774  12.386 -0.9412 -1.8798  1.5423
 7439SOL    HW233954   3.203   0.886  12.453  0.9298  0.6869 -1.3787
 7440SOL     OW33955   2.755   1.917  17.696  0.2961 -0.6081 -0.2442
 7440SOL    HW133956   2.714   1.844  17.743  1.4849 -1.3225 -0.3215
 7440SOL    HW233957   2.682   1.940  17.639 -1.0813  0.5035  1.9807
 7441SOL     OW33958   4.645   1.582   7.942  0.1409  0.2360 -0.0597
 7441SOL    HW133959   4.551   1.595   7.926  0.0194 -0.0329  0.4453
 7441SOL    HW233960   4.663   1.507   7.885 -1.0497 -0.0192 -0.1030
 7442SOL     OW33961   4.620   3.671  12.371  0.3477  0.2280 -0.4291
 7442SOL    HW133962   4.640   3.628  12.454 -1.9698 -1.8731 -0.9593
 7442SOL    HW233963   4.524   3.675  12.377  0.4896  1.8602  1.0294
 7443SOL     OW33964   1.768   0.021   8.177  0.2560 -0.4159 -0.2303
 7443SOL    HW133965   1.741   4.695   8.244 -1.1958  0.1473 -0.2953
 7443SOL    HW233966   1.839   0.060   8.228 -0.8363  0.6846  0.4610
 7444SOL     OW33967   2.781   0.346   4.980 -0.1934  0.4569 -0.0326
 7444SOL    HW133968   2.690   0.318   4.993  0.0370 -0.2239  0.1053
 7444SOL    HW233969   2.795   0.341   4.885  0.7486  1.0967  0.0716
 7445SOL     OW33970   3.359   3.908  16.563  0.0538 -0.0651 -0.9905
 7445SOL    HW133971   3.361   4.003  16.578  2.5073 -0.0886 -1.1030
 7445SOL    HW233972   3.317   3.864  16.636  2.9071 -1.8933 -0.4420
 7446SOL     OW33973   4.349   2.811   5.417 -0.0653  0.2438 -0.0555
 7446SOL    HW133974   4.301   2.772   5.491 -1.4542  0.8916 -0.6135
 7446SOL    HW233975   4.285   2.798   5.347 -0.2895  3.7211 -0.4615
 7447SOL     OW33976   2.778   4.257  17.734  0.4939 -0.3733 -0.1751
 7447SOL    HW133977   2.733   4.206  17.668  0.6604 -0.6380 -0.0870
 7447SOL    HW233978   2.712   4.243   0.057  0.3861  2.1838  0.2639
 7448SOL     OW33979   2.868   3.189   0.348 -0.1177  0.0080  0.5625
 7448SOL    HW133980   2.827   3.176   0.262  0.4594 -0.6289  0.3777
 7448SOL    HW233981   2.956   3.208   0.317 -0.2825 -0.7995 -0.4116
 7449SOL     OW33982   1.419   0.091   3.800  0.2603  0.2213  0.2008
 7449SOL    HW133983   1.483   0.076   3.869  0.5406  0.0276 -0.0976
 7449SOL    HW233984   1.348   0.127   3.852  0.3545  1.5125 -0.5756
 7450SOL     OW33985   1.487   0.990   5.109 -0.1804 -0.0593 -0.6775
 7450SOL    HW133986   1.430   0.956   5.178  0.5319 -0.7339 -0.4219
 7450SOL    HW233987   1.434   1.032   5.041  0.0248  0.1639 -0.6966
 7451SOL     OW33988   3.857   1.271  10.079 -0.0864 -0.0277 -0.6865
 7451SOL    HW133989   3.777   1.311  10.045  0.4703  1.5110 -0.1824
 7451SOL    HW233990   3.855   1.316  10.163  0.1332  1.7981 -1.6558
 7452SOL     OW33991   3.795   3.840   5.728  0.0079 -0.9199  0.8316
 7452SOL    HW133992   3.836   3.855   5.643 -0.5337  0.5061  0.8209
 7452SOL    HW233993   3.810   3.925   5.769  0.7428 -1.1384  1.0127
 7453SOL     OW33994   0.801   0.710   4.359  0.2652  0.0310 -0.0648
 7453SOL    HW133995   0.722   0.658   4.376 -0.1644  0.4110 -0.9014
 7453SOL    HW233996   0.834   0.710   4.449  0.9889 -1.7593 -0.3173
 7454SOL     OW33997   2.177   3.314   2.022  0.1240 -0.1655  0.0003
 7454SOL    HW133998   2.169   3.324   2.116  3.1452 -0.9571  0.3609
 7454SOL    HW233999   2.252   3.371   2.004 -0.4635 -0.6223 -4.0821
 7455SOL     OW34000   2.436   0.737  17.358  0.3538  0.1229 -0.0735
 7455SOL    HW134001   2.494   0.812  17.371  2.6351 -2.0280  2.2240
 7455SOL    HW234002   2.387   0.727  17.440  0.8479 -2.4903 -0.0856
 7456SOL     OW34003   4.271   0.193   6.207  0.1549 -0.7662  0.4288
 7456SOL    HW134004   4.314   0.274   6.233  0.1122 -0.4536 -0.4735
 7456SOL    HW234005   4.340   0.127   6.216  1.7014  0.7407 -0.4922
 7457SOL     OW34006   1.435   4.239   1.294 -0.0249 -0.0845  0.5944
 7457SOL    HW134007   1.487   4.315   1.322  0.8495  0.5640 -2.7971
 7457SOL    HW234008   1.403   4.209   1.379 -0.3305 -0.6790  0.2631
 7458SOL     OW34009   0.575   0.113  11.990  0.2106 -0.1450  0.1073
 7458SOL    HW134010   0.538   0.171  12.056  0.7632  1.8264 -1.3472
 7458SOL    HW234011   0.618   0.039  12.034  1.8981 -0.0539 -1.4027
 7459SOL     OW34012   2.367   2.355   2.921 -0.3832  0.1442  0.2648
 7459SOL    HW134013   2.425   2.389   2.989  0.4482 -1.4506  0.3501
 7459SOL    HW234014   2.286   2.393   2.954 -1.2062 -0.2052 -1.3625
 7460SOL     OW34015   3.017   1.776   4.303 -0.0448 -0.2831 -0.7142
 7460SOL    HW134016   2.994   1.868   4.317  1.2426 -0.1836  0.6679
 7460SOL    HW234017   2.933   1.734   4.323  0.0882  0.1216  0.6878
 7461SOL     OW34018   2.816   2.374   3.019 -0.3274 -0.2643 -0.6777
 7461SOL    HW134019   2.787   2.443   2.958 -0.8546  1.9647  2.0703
 7461SOL    HW234020   2.856   2.422   3.091  2.4987 -1.5416 -1.4266
 7462SOL     OW34021   1.531   1.952   6.213  0.1566  0.8520 -0.3401
 7462SOL    HW134022   1.524   1.878   6.274 -1.2203 -0.0921 -1.6579
 7462SOL    HW234023   1.624   1.975   6.209  0.4813  0.1287  2.6380
 7463SOL     OW34024   0.749   1.348   0.392 -0.2209 -0.4401  0.1052
 7463SOL    HW134025   0.720   1.268   0.348  1.2036 -1.1647  0.4750
 7463SOL    HW234026   0.704   1.417   0.343 -0.8795 -0.8597  0.1167
 7464SOL     OW34027   0.326   1.341  15.221 -0.2314  0.5019 -0.4599
 7464SOL    HW134028   0.288   1.265  15.177 -1.3384 -0.5588  2.3091
 7464SOL    HW234029   0.342   1.292  15.302 -0.8014  1.0726 -0.0012
 7465SOL     OW34030   2.372   4.405   9.235  0.4077  0.4891  0.1286
 7465SOL    HW134031   2.303   4.439   9.292 -0.9854 -0.6009 -0.9143
 7465SOL    HW234032   2.320   4.429   9.158  0.6958  2.8474  0.6641
 7466SOL     OW34033   4.713   3.141   4.507 -0.0268  0.0524  0.6612
 7466SOL    HW134034   4.698   3.049   4.485  1.1103 -0.6654  2.8662
 7466SOL    HW234035   0.069   3.146   4.530  0.7389  0.7628 -2.6264
 7467SOL     OW34036   4.438   0.887   5.332 -0.4471 -0.3759 -0.3234
 7467SOL    HW134037   4.421   0.806   5.284 -1.3174  0.4215 -1.3541
 7467SOL    HW234038   4.373   0.936   5.283 -0.6120 -0.1513  0.1152
 7468SOL     OW34039   1.059   3.008  16.145 -0.4344  0.0377  0.4884
 7468SOL    HW134040   1.005   3.076  16.186  1.1216  1.3162  0.4494
 7468SOL    HW234041   1.074   2.951  16.221  1.4152  0.0477  0.1352
 7469SOL     OW34042   1.040   0.344  16.952 -0.1943  0.4811 -0.5593
 7469SOL    HW134043   1.062   0.265  16.902  0.3093 -0.1311  0.6198
 7469SOL    HW234044   0.949   0.326  16.977  0.0652  0.8736  0.6557
 7470SOL     OW34045   3.969   3.502   8.075 -0.3105 -0.1486 -0.1817
 7470SOL    HW134046   4.030   3.428   8.085 -0.5277 -0.1293  1.2596
 7470SOL    HW234047   3.906   3.482   8.144  1.9466  0.4922  2.0703
 7471SOL     OW34048   4.482   3.609   6.904  0.1333 -0.0137 -0.0390
 7471SOL    HW134049   4.513   3.590   6.993  3.5236 -1.9307 -1.6286
 7471SOL    HW234050   4.391   3.633   6.920 -0.1012 -0.6410 -0.4423
 7472SOL     OW34051   3.306   3.114   8.028 -0.6311 -0.0969  0.2906
 7472SOL    HW134052   3.289   3.179   7.960 -1.4160 -0.3830  0.2094
 7472SOL    HW234053   3.357   3.048   7.980 -0.2549  0.3080  0.1436
 7473SOL     OW34054   0.793   2.954   4.529 -0.6195  0.7590 -0.4329
 7473SOL    HW134055   0.828   2.884   4.586 -1.1025 -0.6880 -1.9071
 7473SOL    HW234056   0.725   2.986   4.589 -0.8899  0.6158 -0.6657
 7474SOL     OW34057   1.733   3.426   8.007  0.2464  0.2727  0.5206
 7474SOL    HW134058   1.719   3.509   8.053  0.3085 -0.7453  2.3340
 7474SOL    HW234059   1.813   3.387   8.041  0.3271  0.6964  0.8163
 7475SOL     OW34060   1.548   2.720  14.760  0.2923  0.5024 -0.4703
 7475SOL    HW134061   1.588   2.633  14.753  0.4465  0.3660  1.9791
 7475SOL    HW234062   1.579   2.745  14.847  0.6374 -0.3210 -0.3515
 7476SOL     OW34063   4.177   4.153   3.648 -0.2687 -0.1497 -0.0663
 7476SOL    HW134064   4.100   4.097   3.637 -1.1816  1.2987 -1.0560
 7476SOL    HW234065   4.155   4.201   3.728  0.5504  0.7394 -0.3699
 7477SOL     OW34066   3.944   2.817   7.819 -0.3122  0.2963  0.0933
 7477SOL    HW134067   4.026   2.779   7.788 -0.6459 -1.3529  1.2712
 7477SOL    HW234068   3.905   2.733   7.840 -2.1558  0.7613 -1.5099
 7478SOL     OW34069   0.722   2.457  14.817 -0.2976  0.1420  0.0281
 7478SOL    HW134070   0.739   2.471  14.910  2.7787 -4.8655  0.2343
 7478SOL    HW234071   0.628   2.443  14.828 -0.5366  0.1167 -2.1569
 7479SOL     OW34072   1.319   3.485   3.259 -1.0484  0.3083  0.2216
 7479SOL    HW134073   1.248   3.513   3.318 -1.7686 -0.1557 -0.4193
 7479SOL    HW234074   1.285   3.480   3.170  1.2338  2.6983 -0.7715
 7480SOL     OW34075   0.746   3.158   8.708 -0.1077  0.1640  0.2070
 7480SOL    HW134076   0.792   3.089   8.756  1.3294 -0.1233 -1.5964
 7480SOL    HW234077   0.759   3.131   8.617 -0.9515  1.4701 -0.2938
 7481SOL     OW34078   0.423   2.985   2.283 -0.1259 -0.2365 -0.5719
 7481SOL    HW134079   0.363   2.936   2.227 -0.7054 -0.4987  0.2604
 7481SOL    HW234080   0.399   3.069   2.245 -2.1932  0.4141  2.1210
 7482SOL     OW34081   0.758   3.637   1.874  0.2879 -0.2488  0.5248
 7482SOL    HW134082   0.792   3.566   1.819  2.0371  0.8459  0.2017
 7482SOL    HW234083   0.696   3.585   1.925  2.5705 -3.3170  0.1354
 7483SOL     OW34084   2.557   1.881   3.355  0.6549  0.2129  0.3475
 7483SOL    HW134085   2.626   1.840   3.303  0.5636 -0.4939  0.7826
 7483SOL    HW234086   2.503   1.810   3.390  0.9238 -0.7555 -1.2036
 7484SOL     OW34087   4.538   0.220  13.520 -0.7110 -0.4468 -0.3031
 7484SOL    HW134088   4.568   0.146  13.467 -0.7076 -0.9586  0.4033
 7484SOL    HW234089   4.445   0.220  13.497 -0.5007 -1.3911 -1.1549
 7485SOL     OW34090   4.418   3.062  17.280 -0.2432  0.0756 -0.3647
 7485SOL    HW134091   4.411   3.108  17.364 -1.3467 -1.1248  0.2073
 7485SOL    HW234092   4.413   3.140  17.224  1.3721  0.0962 -0.4812
 7486SOL     OW34093   1.988   4.461  13.345 -0.3112  0.0746 -0.0942
 7486SOL    HW134094   2.068   4.498  13.308  0.1069 -1.4928 -0.7759
 7486SOL    HW234095   1.985   4.518  13.421  2.8036  0.0377  0.0571
 7487SOL     OW34096   2.205   4.390   2.269  0.0314  0.5692  0.7445
 7487SOL    HW134097   2.148   4.344   2.208 -0.1018  1.5658  0.1174
 7487SOL    HW234098   2.141   4.408   2.338 -1.3913 -0.6883 -0.2522
 7488SOL     OW34099   3.328   4.392   7.473  0.0730  0.0843 -0.3460
 7488SOL    HW134100   3.267   4.352   7.534 -0.8494 -0.6707 -1.7628
 7488SOL    HW234101   3.336   4.481   7.507 -2.4397 -0.8696  2.7928
 7489SOL     OW34102   0.521   3.625  15.748  0.2551  0.4800 -0.2148
 7489SOL    HW134103   0.593   3.586  15.699  0.0515 -1.1473  0.7990
 7489SOL    HW234104   0.558   3.597  15.831  0.9781 -0.4089 -0.8333
 7490SOL     OW34105   0.720   3.317   5.672 -0.3481 -0.4059 -0.1800
 7490SOL    HW134106   0.802   3.354   5.641  1.3642 -2.2614  2.0481
 7490SOL    HW234107   0.738   3.306   5.765 -1.4214  1.9800  0.2958
 7491SOL     OW34108   3.458   3.281   5.684  0.2386  0.5059  0.2475
 7491SOL    HW134109   3.502   3.326   5.756 -0.0089 -0.3749  0.9524
 7491SOL    HW234110   3.395   3.347   5.656  0.2912  0.7973  0.8230
 7492SOL     OW34111   0.188   0.661   7.884 -0.4121 -0.3205 -0.3955
 7492SOL    HW134112   0.225   0.697   7.803  0.8842  1.0455  0.8052
 7492SOL    HW234113   0.125   0.598   7.847 -0.0806  0.0253 -1.5570
 7493SOL     OW34114   4.242   3.285   6.717 -0.4599 -0.0291 -0.5069
 7493SOL    HW134115   4.151   3.266   6.741 -0.4298  0.6490  0.1468
 7493SOL    HW234116   4.292   3.243   6.787 -0.3958  0.5286 -0.2243
 7494SOL     OW34117   4.175   2.434   7.542  0.5777  0.8493 -0.1266
 7494SOL    HW134118   4.141   2.346   7.559 -0.5211  1.1991 -0.5410
 7494SOL    HW234119   4.266   2.432   7.573  0.3207  0.9827  0.6314
 7495SOL     OW34120   1.016   0.777   6.863 -0.1267 -0.4778  0.0579
 7495SOL    HW134121   1.039   0.697   6.910 -1.5883 -1.3760 -0.7399
 7495SOL    HW234122   1.096   0.825   6.884  0.4424 -0.7328 -1.5836
 7496SOL     OW34123   2.657   3.880   7.627  0.5074 -0.1597  0.4150
 7496SOL    HW134124   2.650   3.905   7.535  0.1384 -1.2166  0.1537
 7496SOL    HW234125   2.734   3.823   7.626 -0.9041 -2.0447 -1.3644
 7497SOL     OW34126   2.007   3.114   5.908 -0.9206 -0.1029  0.2754
 7497SOL    HW134127   2.064   3.080   5.838  0.0427 -1.3479  1.6667
 7497SOL    HW234128   2.069   3.122   5.980 -0.8268  0.9454  0.0788
 7498SOL     OW34129   0.609   0.910   3.971  0.1542 -0.0327 -0.4438
 7498SOL    HW134130   0.693   0.901   4.015 -0.5698 -0.1376  0.8927
 7498SOL    HW234131   0.635   0.994   3.931 -0.3355  0.2999 -0.0602
 7499SOL     OW34132   3.461   1.775   4.725 -0.0272  0.2281 -0.1720
 7499SOL    HW134133   3.371   1.742   4.731  0.5279 -0.7626  2.9651
 7499SOL    HW234134   3.480   1.811   4.812 -1.5303  1.7110 -0.4534
 7500SOL     OW34135   0.974   3.899   9.162  0.3213 -0.0333  0.2946
 7500SOL    HW134136   0.930   3.853   9.090 -0.7969  0.4181  0.6825
 7500SOL    HW234137   0.904   3.904   9.227  1.9164  1.6625  1.8693
 7501SOL     OW34138   0.020   3.887  13.730 -0.4102  0.1897  0.7429
 7501SOL    HW134139   4.671   3.845  13.742  0.2287 -1.1528  0.5591
 7501SOL    HW234140   0.053   3.866  13.817  1.0432  0.4362  0.2487
 7502SOL     OW34141   1.766   3.475   4.504 -0.1111  0.6080  0.1695
 7502SOL    HW134142   1.714   3.415   4.451  1.7588 -0.2472 -0.7230
 7502SOL    HW234143   1.703   3.547   4.507 -1.0139 -0.0898 -2.4540
 7503SOL     OW34144   4.390   3.488   2.695 -0.0861 -0.0854 -0.2765
 7503SOL    HW134145   4.304   3.531   2.693 -0.7453 -1.2723  1.8201
 7503SOL    HW234146   4.375   3.402   2.656  0.6936 -0.9693  1.3782
 7504SOL     OW34147   2.234   4.663   0.843 -0.0323  0.0990  0.6256
 7504SOL    HW134148   2.205   4.674   0.934  0.7462  0.3668  0.8469
 7504SOL    HW234149   2.289   4.585   0.848  1.4326  0.9653 -1.7570
 7505SOL     OW34150   2.837   4.347   5.555  0.7966  0.5407 -0.0978
 7505SOL    HW134151   2.746   4.372   5.566  1.0476  0.6143  1.8726
 7505SOL    HW234152   2.829   4.252   5.553  0.3628  0.5057  2.9356
 7506SOL     OW34153   2.136   1.892  14.959 -0.0956  0.7146 -0.2647
 7506SOL    HW134154   2.124   1.837  15.037  1.7488  0.0884 -0.4352
 7506SOL    HW234155   2.217   1.858  14.922  0.5088  0.0644  1.6677
 7507SOL     OW34156   4.191   2.533   5.885  0.6439 -0.4472  0.2549
 7507SOL    HW134157   4.266   2.591   5.875  0.3477  0.1374  1.4636
 7507SOL    HW234158   4.195   2.495   5.797 -0.8936  3.9213 -1.6727
 7508SOL     OW34159   3.512   1.763   4.421  0.0796 -0.0285  0.0465
 7508SOL    HW134160   3.526   1.745   4.514  0.5055 -0.4393 -0.1010
 7508SOL    HW234161   3.434   1.711   4.404 -0.1495 -0.4003  2.1481
 7509SOL     OW34162   3.165   0.808   4.627  0.2390  0.0646  0.2801
 7509SOL    HW134163   3.199   0.722   4.648  1.7785  0.4314 -0.6649
 7509SOL    HW234164   3.147   0.849   4.711 -0.2933 -1.1432  0.7447
 7510SOL     OW34165   1.045   1.468   6.778 -0.3592 -0.1848  0.4759
 7510SOL    HW134166   0.977   1.531   6.754  0.4133  0.7293  0.6991
 7510SOL    HW234167   1.028   1.470   6.873  1.1614 -0.7586  0.7637
 7511SOL     OW34168   4.149   4.463  13.372  0.4579 -0.2947  0.6613
 7511SOL    HW134169   4.112   4.378  13.395  2.3437 -1.7561 -1.7647
 7511SOL    HW234170   4.101   4.506  13.443  0.3177  0.7587 -0.0669
 7512SOL     OW34171   0.463   3.733   3.153 -0.7378 -0.5747 -0.2246
 7512SOL    HW134172   0.428   3.652   3.114  0.2171 -0.0888 -2.1014
 7512SOL    HW234173   0.502   3.761   3.070 -2.2280  0.6099 -0.5404
 7513SOL     OW34174   2.333   2.818   5.890 -0.2369 -0.2747 -0.8147
 7513SOL    HW134175   2.257   2.806   5.947  0.6528  1.8119  0.8116
 7513SOL    HW234176   2.325   2.752   5.821  0.2963 -1.6739  0.4623
 7514SOL     OW34177   4.680   0.710  10.982 -0.7075  0.1461  0.1242
 7514SOL    HW134178   4.596   0.723  10.938 -0.0240  0.3355 -1.1232
 7514SOL    HW234179   4.693   0.617  10.963  2.2109  0.5063  0.2707
 7515SOL     OW34180   3.267   1.978   8.916  0.2954  0.2178  0.5838
 7515SOL    HW134181   3.248   2.006   8.827 -0.5546  0.1330  0.7344
 7515SOL    HW234182   3.299   2.062   8.948 -0.0201  0.1985  0.9474
 7516SOL     OW34183   0.661   3.066   9.923  0.0851  0.4153 -0.4119
 7516SOL    HW134184   0.679   3.158   9.901 -0.9550  0.6162 -0.4541
 7516SOL    HW234185   0.729   3.027   9.868  1.0884  3.1876 -1.1533
 7517SOL     OW34186   1.278   2.396   6.675 -0.1392  0.1425  1.1877
 7517SOL    HW134187   1.271   2.347   6.757 -0.2473 -2.2152 -0.2062
 7517SOL    HW234188   1.321   2.478   6.700  1.5508 -1.0218  2.1702
 7518SOL     OW34189   2.015   0.266   6.202 -0.7812  0.0933 -0.6845
 7518SOL    HW134190   2.054   0.180   6.183  0.7975  0.6912 -0.1405
 7518SOL    HW234191   2.059   0.294   6.282 -0.7788 -5.1948  1.1621
 7519SOL     OW34192   1.829   4.665   3.109 -0.2529  0.2898 -0.3757
 7519SOL    HW134193   1.754   4.671   3.050  0.2332  1.9448 -0.8329
 7519SOL    HW234194   1.803   0.005   3.161  0.4823 -1.5999  2.7772
 7520SOL     OW34195   3.688   3.927   8.105  0.8186  0.1976  0.0599
 7520SOL    HW134196   3.636   3.861   8.060  0.3265 -0.0931  1.0528
 7520SOL    HW234197   3.685   3.885   8.191 -1.0861  1.1011  0.4601
 7521SOL     OW34198   1.283   0.199   1.586  0.2459  0.5622 -0.0014
 7521SOL    HW134199   1.248   0.286   1.569 -4.4453 -1.3788 -0.0224
 7521SOL    HW234200   1.335   0.215   1.665  0.9460  1.1270 -0.5802
 7522SOL     OW34201   1.281   3.872   4.535 -0.7262  0.1751 -0.3467
 7522SOL    HW134202   1.318   3.933   4.598 -1.4686  1.4958 -1.1822
 7522SOL    HW234203   1.187   3.882   4.546 -0.5278  0.6195  0.9214
 7523SOL     OW34204   1.284   4.394   2.556 -0.0956 -0.3814 -0.8756
 7523SOL    HW134205   1.273   4.456   2.483  1.0891  0.5904 -0.2217
 7523SOL    HW234206   1.206   4.415   2.608 -0.8726 -2.6870 -1.1019
 7524SOL     OW34207   3.355   2.225   8.996  0.2070  0.0898 -0.4800
 7524SOL    HW134208   3.277   2.222   9.051 -0.7981  2.1681 -1.7948
 7524SOL    HW234209   3.366   2.316   8.968  1.9759  0.3615  1.1293
 7525SOL     OW34210   3.341   2.227   3.690  0.2427 -0.2977 -0.3940
 7525SOL    HW134211   3.435   2.209   3.684 -0.5962 -4.6156 -0.4464
 7525SOL    HW234212   3.317   2.177   3.768  0.4101 -0.9793 -0.7870
 7526SOL     OW34213   2.929   2.148  11.137 -0.0289 -0.3797  0.4827
 7526SOL    HW134214   2.970   2.092  11.202 -0.5896 -0.6405  0.6135
 7526SOL    HW234215   2.954   2.235  11.168  1.5822 -0.5423 -0.3481
 7527SOL     OW34216   1.100   2.311   3.505  0.5313  0.3716 -0.0766
 7527SOL    HW134217   1.080   2.235   3.450 -0.3627  1.2084 -0.9089
 7527SOL    HW234218   1.191   2.286   3.519 -0.3640 -2.1333  1.2798
 7528SOL     OW34219   3.911   2.730   0.858  0.2997  0.2406 -0.1166
 7528SOL    HW134220   3.997   2.692   0.840 -1.0212 -2.3906 -0.8652
 7528SOL    HW234221   3.923   2.813   0.812  1.2057  0.0361 -0.2636
 7529SOL     OW34222   2.369   4.380   0.038  0.3471  0.3502 -0.0073
 7529SOL    HW134223   2.380   4.344   0.126  0.3507 -0.5514 -0.3821
 7529SOL    HW234224   2.447   4.436   0.028 -1.4142  2.6965 -0.5795
 7530SOL     OW34225   2.629   3.374  14.878 -0.0043  0.4663  0.0769
 7530SOL    HW134226   2.653   3.464  14.857  0.1921  1.0603  2.9582
 7530SOL    HW234227   2.541   3.375  14.842 -0.1966  0.0607  0.5407
 7531SOL     OW34228   1.369   1.477  14.448 -0.1588  0.5244 -0.9415
 7531SOL    HW134229   1.404   1.563  14.425 -0.5942  0.9159 -0.1390
 7531SOL    HW234230   1.429   1.461  14.520 -0.2806 -0.8222 -1.1359
 7532SOL     OW34231   0.541   2.778   2.691 -0.4615  0.0762  0.6670
 7532SOL    HW134232   0.614   2.741   2.641 -1.1793  0.4784 -0.6682
 7532SOL    HW234233   0.571   2.868   2.707  0.7432 -0.0144 -1.0491
 7533SOL     OW34234   4.275   0.489   6.476 -0.1710 -0.6486 -0.0228
 7533SOL    HW134235   4.201   0.430   6.487 -1.5701  0.9700 -0.7518
 7533SOL    HW234236   4.313   0.486   6.564 -0.6084 -0.4252  0.1715
 7534SOL     OW34237   3.260   3.252  12.593  0.2660 -0.5438  0.2103
 7534SOL    HW134238   3.271   3.165  12.631  3.2396  0.4436  1.6072
 7534SOL    HW234239   3.166   3.250  12.574  0.7563 -2.0077 -2.0482
 7535SOL     OW34240   3.563   2.706   4.255 -0.1351  0.6640  0.5800
 7535SOL    HW134241   3.503   2.675   4.187 -2.5365  1.3177  2.4231
 7535SOL    HW234242   3.535   2.798   4.256  1.3434  1.1683 -1.5175
 7536SOL     OW34243   1.589   2.920   4.577 -0.1986  0.0739  0.2564
 7536SOL    HW134244   1.511   2.907   4.523  0.2702  0.6058 -0.5282
 7536SOL    HW234245   1.651   2.951   4.512  0.1853  0.1786  0.6700
 7537SOL     OW34246   4.607   1.389   8.214 -0.6909 -0.0230 -0.2741
 7537SOL    HW134247   4.563   1.423   8.135 -0.8142  1.9040  0.6110
 7537SOL    HW234248   4.697   1.404   8.187 -0.4555 -0.2223  0.4096
 7538SOL     OW34249   3.817   0.422   5.871  0.4991 -0.4169  0.1929
 7538SOL    HW134250   3.807   0.327   5.867 -2.1203 -0.0317 -2.5064
 7538SOL    HW234251   3.820   0.449   5.779 -1.3069  0.4116  0.3658
 7539SOL     OW34252   3.992   3.302   5.343  0.0334  0.1309  0.0401
 7539SOL    HW134253   3.965   3.346   5.424 -1.3329  0.4763 -0.6021
 7539SOL    HW234254   3.999   3.210   5.369  0.0350  0.1804  0.2143
 7540SOL     OW34255   1.775   2.463   4.344  0.1616  0.2863  0.3268
 7540SOL    HW134256   1.867   2.478   4.324 -0.2395  0.9479 -1.0101
 7540SOL    HW234257   1.795   2.405   4.417  2.7747 -0.9811 -1.4257
 7541SOL     OW34258   3.304   2.403   7.326  0.2601  0.0870 -0.2405
 7541SOL    HW134259   3.379   2.372   7.377 -0.3240  0.2589  0.7323
 7541SOL    HW234260   3.251   2.326   7.349 -0.0602  1.0631  2.2842
 7542SOL     OW34261   1.894   2.792  12.002  0.0907 -0.0312 -0.0267
 7542SOL    HW134262   1.864   2.760  11.917  0.7650 -2.7512  0.7361
 7542SOL    HW234263   1.934   2.875  11.976  0.2951  0.4214  1.7148
 7543SOL     OW34264   3.936   0.078   5.675 -0.3577  0.1042  0.1485
 7543SOL    HW134265   3.969   0.131   5.748  0.5717 -0.7488  0.3388
 7543SOL    HW234266   3.843   0.097   5.683 -0.2383  0.3280  1.0380
 7544SOL     OW34267   4.118   0.725  15.107  0.0028  0.0358  0.1798
 7544SOL    HW134268   4.095   0.682  15.190 -0.5242 -2.9097 -1.5170
 7544SOL    HW234269   4.041   0.779  15.089  0.9526  0.6770 -1.8658
 7545SOL     OW34270   3.630   3.698   4.681  0.3337 -0.4788 -0.3439
 7545SOL    HW134271   3.660   3.609   4.659  0.2457 -0.7965  0.7849
 7545SOL    HW234272   3.599   3.735   4.599 -0.3081  1.0018  0.5667
 7546SOL     OW34273   4.386   3.541  11.023 -0.5027 -0.0980  0.2254
 7546SOL    HW134274   4.399   3.577  10.936 -1.4298 -0.6128 -0.1343
 7546SOL    HW234275   4.432   3.604  11.078 -1.0212 -0.0642  0.6233
 7547SOL     OW34276   1.295   0.506   8.149  0.2010  0.2073  0.2893
 7547SOL    HW134277   1.247   0.481   8.228  0.6506  1.4328  0.9628
 7547SOL    HW234278   1.221   0.536   8.096 -0.5220  2.6436  2.6671
 7548SOL     OW34279   3.155   0.772   3.589 -0.0666 -0.2295 -0.2114
 7548SOL    HW134280   3.108   0.853   3.608 -0.1806 -0.5993  1.0737
 7548SOL    HW234281   3.083   0.710   3.598 -0.2651 -0.0373 -0.4681
 7549SOL     OW34282   2.588   0.998   5.314  0.0318 -0.4675  0.1274
 7549SOL    HW134283   2.593   0.936   5.242  1.8181 -0.6055  0.3600
 7549SOL    HW234284   2.577   0.941   5.390  0.7701 -1.2423 -0.3496
 7550SOL     OW34285   2.337   1.991   2.345  0.4959 -0.6182 -0.4471
 7550SOL    HW134286   2.416   2.043   2.361 -0.1815  0.3896 -0.3737
 7550SOL    HW234287   2.341   1.961   2.255 -2.0410 -0.6069 -0.5653
 7551SOL     OW34288   4.436   4.539  12.593 -0.2159  0.0940  0.3630
 7551SOL    HW134289   4.481   4.501  12.668 -2.2113  0.4317  1.7324
 7551SOL    HW234290   4.385   4.462  12.568  1.4860 -0.7837 -0.4223
 7552SOL     OW34291   0.300   4.259   8.077 -0.0033 -0.3840 -0.3090
 7552SOL    HW134292   0.244   4.183   8.059  0.2953 -0.2865 -1.6713
 7552SOL    HW234293   0.388   4.247   8.041 -0.5980 -2.3536 -1.1286
 7553SOL     OW34294   0.673   0.421   2.773 -0.2032  0.0071 -0.2595
 7553SOL    HW134295   0.627   0.447   2.693  1.6430 -1.4145 -1.7643
 7553SOL    HW234296   0.666   0.326   2.762 -3.5168  0.2778 -0.6772
 7554SOL     OW34297   2.955   2.139   6.135  0.2195 -0.0260  0.1715
 7554SOL    HW134298   2.958   2.043   6.133 -0.4668  0.0317 -3.2637
 7554SOL    HW234299   3.002   2.168   6.057  2.3278 -1.0154  1.0663
 7555SOL     OW34300   0.046   0.781   1.858  0.2896  0.2487  0.1214
 7555SOL    HW134301   4.715   0.716   1.836  1.1904 -0.7682  0.3218
 7555SOL    HW234302   0.016   0.798   1.948  0.2843 -1.8865  0.5257
 7556SOL     OW34303   4.610   4.643   5.729 -0.2771  0.0101 -0.0957
 7556SOL    HW134304   4.570   4.592   5.800 -0.3925 -2.0023 -1.5903
 7556SOL    HW234305   4.700   4.611   5.735  0.7997  2.7981 -1.8584
 7557SOL     OW34306   3.570   2.275  15.105  0.0075  0.7845  0.0564
 7557SOL    HW134307   3.607   2.192  15.137  1.1533  1.7397  1.1779
 7557SOL    HW234308   3.546   2.318  15.187  1.7700 -0.7905  1.4056
 7558SOL     OW34309   4.430   2.844   8.725  0.2782  0.5486 -0.3710
 7558SOL    HW134310   4.416   2.785   8.651 -1.8635  2.2732 -1.3634
 7558SOL    HW234311   4.510   2.815   8.768  0.1231 -1.4186 -1.4118
 7559SOL     OW34312   0.707   0.958  11.604  0.1926 -0.1142 -0.7846
 7559SOL    HW134313   0.628   1.012  11.606  0.8593  0.8714 -0.8698
 7559SOL    HW234314   0.683   0.870  11.632 -0.3761  0.7156  1.3281
 7560SOL     OW34315   3.129   2.820  13.999 -0.0388  0.2033  0.2081
 7560SOL    HW134316   3.215   2.836  13.961 -0.4554 -1.6526 -1.5483
 7560SOL    HW234317   3.138   2.748  14.062  0.0833 -0.5479 -0.6635
 7561SOL     OW34318   2.853   0.546  12.154  0.1302  0.1741  0.4380
 7561SOL    HW134319   2.851   0.461  12.197 -0.0559 -0.4851 -0.8671
 7561SOL    HW234320   2.925   0.588  12.202 -1.0294  1.4100  1.0767
 7562SOL     OW34321   1.580   0.942   5.745  0.0866 -0.7687 -0.2819
 7562SOL    HW134322   1.523   0.959   5.670  0.6517  1.3567 -0.2391
 7562SOL    HW234323   1.654   0.992   5.711 -0.0583 -0.8129 -0.6692
 7563SOL     OW34324   4.536   0.251   4.877  0.8479 -0.4314 -0.0451
 7563SOL    HW134325   4.587   0.301   4.941 -0.4048  1.5828 -0.6150
 7563SOL    HW234326   4.576   0.273   4.792  1.6884 -0.0889  0.4402
 7564SOL     OW34327   2.991   0.461   4.588  0.0844 -0.1801  0.3830
 7564SOL    HW134328   2.936   0.533   4.559  1.4617 -0.0661 -1.9524
 7564SOL    HW234329   3.078   0.466   4.550 -0.2331  1.3027 -0.1275
 7565SOL     OW34330   3.102   2.624  16.839 -0.4524  0.4675 -0.0640
 7565SOL    HW134331   3.049   2.700  16.812  0.7165  1.1142 -0.5184
 7565SOL    HW234332   3.083   2.562  16.769 -0.2734  0.0118  0.2886
 7566SOL     OW34333   1.726   3.597   6.010  0.2140  0.2529  0.6468
 7566SOL    HW134334   1.650   3.553   5.971  0.3829  0.2007  0.3783
 7566SOL    HW234335   1.706   3.690   6.002  2.0314  0.5134 -0.7845
 7567SOL     OW34336   3.126   4.003  14.073 -0.1690  0.5821 -0.4175
 7567SOL    HW134337   3.155   3.933  14.014  2.9208  2.5323 -1.2175
 7567SOL    HW234338   3.033   3.981  14.074  0.0908 -0.5583 -1.7040
 7568SOL     OW34339   0.063   3.588   8.653 -0.2857  0.2181 -0.1291
 7568SOL    HW134340   4.731   3.635   8.605  1.6523  1.4929 -1.6244
 7568SOL    HW234341   0.139   3.610   8.600  1.4355 -0.7224  1.9139
 7569SOL     OW34342   3.060   1.300   7.381  0.2510 -0.1975 -0.6393
 7569SOL    HW134343   3.144   1.347   7.384 -1.2917  2.5316  0.6640
 7569SOL    HW234344   3.081   1.211   7.410 -0.9675 -0.5089 -0.7160
 7570SOL     OW34345   0.281   1.852  15.345  0.3267  0.4854 -0.4032
 7570SOL    HW134346   0.254   1.778  15.292  1.5809 -0.4964  0.3107
 7570SOL    HW234347   0.362   1.879  15.301  0.5120  1.1604  0.3300
 7571SOL     OW34348   1.471   1.431   7.545  0.0371  0.0736  0.2914
 7571SOL    HW134349   1.383   1.414   7.509  0.6088  0.4858 -1.2969
 7571SOL    HW234350   1.489   1.341   7.573 -3.0892 -1.6524 -3.1387
 7572SOL     OW34351   3.913   2.106   8.693 -0.7660 -0.0283  0.2800
 7572SOL    HW134352   3.871   2.190   8.674  0.8895  0.7951  0.2752
 7572SOL    HW234353   3.953   2.083   8.609  0.1007 -2.2261  1.2813
 7573SOL     OW34354   1.438   2.982  11.507  0.1448  0.1841 -0.0302
 7573SOL    HW134355   1.435   2.887  11.491 -2.8372  0.8917 -3.4911
 7573SOL    HW234356   1.346   3.005  11.497  0.7372  1.8444 -1.5296
 7574SOL     OW34357   2.842   3.937   2.103  0.0064  0.0384 -0.0053
 7574SOL    HW134358   2.785   3.984   2.042  2.8313  2.3223 -0.8726
 7574SOL    HW234359   2.785   3.869   2.139 -1.4001  1.4203  0.3905
 7575SOL     OW34360   1.292   0.657   3.230 -0.1574  0.0770 -0.8277
 7575SOL    HW134361   1.309   0.565   3.246  0.1255  0.4850  1.1977
 7575SOL    HW234362   1.198   0.672   3.236 -0.4164 -1.0900 -2.0390
 7576SOL     OW34363   3.083   2.402   2.893 -0.1906 -0.7936  0.0138
 7576SOL    HW134364   3.149   2.396   2.962 -2.2417  2.7106  2.2863
 7576SOL    HW234365   3.011   2.433   2.948  0.3288 -1.8937  1.3388
 7577SOL     OW34366   4.259   0.112   1.371 -0.3988 -0.4014  0.1184
 7577SOL    HW134367   4.209   0.102   1.290 -0.8964 -0.1775  0.3967
 7577SOL    HW234368   4.184   0.098   1.429  0.3245 -0.7010  0.9803
 7578SOL     OW34369   2.740   3.788   9.003  0.2369  0.1963 -0.2038
 7578SOL    HW134370   2.778   3.874   8.984  1.3175 -0.1660  0.3346
 7578SOL    HW234371   2.698   3.812   9.086  1.9438 -0.0466  0.7360
 7579SOL     OW34372   1.506   1.170  14.339  0.2104  0.2901  0.5567
 7579SOL    HW134373   1.597   1.199  14.342  0.1719  0.4395  0.2951
 7579SOL    HW234374   1.521   1.099  14.277  0.2132 -0.4950  1.4429
 7580SOL     OW34375   1.682   4.351   5.579 -0.5676 -0.9441  0.4375
 7580SOL    HW134376   1.754   4.321   5.524 -0.0071 -0.6933  1.0407
 7580SOL    HW234377   1.658   4.427   5.524 -1.1314  1.3069  3.8194
 7581SOL     OW34378   4.201   1.166  12.712  0.4971 -0.9193  0.3073
 7581SOL    HW134379   4.186   1.110  12.636  0.4494 -1.4401  0.7042
 7581SOL    HW234380   4.286   1.200  12.681  0.4414 -1.4312 -0.4167
 7582SOL     OW34381   1.216   1.320   1.885  0.2866 -0.0012  0.4549
 7582SOL    HW134382   1.144   1.354   1.938  0.4434 -1.1811  1.4428
 7582SOL    HW234383   1.235   1.242   1.938 -2.3030 -0.2196  1.0204
 7583SOL     OW34384   0.855   4.306   8.140  0.7437  0.2869  0.1933
 7583SOL    HW134385   0.849   4.241   8.209 -1.8887 -0.5638 -0.8542
 7583SOL    HW234386   0.907   4.376   8.179 -0.7354  0.4799  1.8195
 7584SOL     OW34387   1.418   4.317  16.063  0.3949  0.6258  0.2968
 7584SOL    HW134388   1.325   4.335  16.052  0.2615 -0.1926  0.0767
 7584SOL    HW234389   1.429   4.227  16.095  0.7977 -0.0471 -1.7364
 7585SOL     OW34390   2.538   1.339   1.622  0.3927 -0.0397 -0.2324
 7585SOL    HW134391   2.514   1.259   1.575 -0.1309 -1.2023  2.0119
 7585SOL    HW234392   2.614   1.375   1.576  0.9234 -0.8785 -0.0270
 7586SOL     OW34393   2.507   0.879   0.594 -0.3742 -0.1016  0.4918
 7586SOL    HW134394   2.455   0.889   0.514  0.5119  2.3725  0.2418
 7586SOL    HW234395   2.562   0.957   0.599 -0.5045  0.0182  0.0313
 7587SOL     OW34396   3.825   1.914   9.113  0.0332  0.3268  0.2897
 7587SOL    HW134397   3.849   1.896   9.023  0.3475  0.8565  0.2701
 7587SOL    HW234398   3.733   1.941   9.108 -0.5147 -1.6387 -0.2630
 7588SOL     OW34399   1.806   4.532   8.324 -0.4287 -0.1579 -0.0023
 7588SOL    HW134400   1.720   4.508   8.358  0.4484 -1.8121  1.0211
 7588SOL    HW234401   1.851   4.539   8.408 -0.9137  0.6911  0.1778
 7589SOL     OW34402   1.933   3.020  13.139  0.0456  0.1955  0.1702
 7589SOL    HW134403   1.928   2.925  13.148 -0.6200  0.2793  0.7234
 7589SOL    HW234404   1.939   3.030  13.044 -0.4185 -1.2684 -0.0015
 7590SOL     OW34405   0.057   2.215  10.004 -0.6446 -0.0359  0.0885
 7590SOL    HW134406   4.718   2.168  10.039 -0.5080  0.2174  0.7363
 7590SOL    HW234407   0.110   2.142   9.973  0.8511  1.9805 -2.0977
 7591SOL     OW34408   0.486   3.469   8.414 -0.2783  0.1765  0.3688
 7591SOL    HW134409   0.490   3.379   8.382 -1.7269  0.2311  0.0223
 7591SOL    HW234410   0.565   3.511   8.380 -1.1461 -1.6955 -3.9413
 7592SOL     OW34411   1.991   0.750  12.410  0.1405  0.1003  0.0902
 7592SOL    HW134412   2.018   0.665  12.376  0.6429 -0.6304  2.2837
 7592SOL    HW234413   2.073   0.793  12.434  0.3755 -0.1065 -0.3561
 7593SOL     OW34414   0.792   0.663   7.636 -0.5526  0.0326 -0.1921
 7593SOL    HW134415   0.816   0.716   7.560  0.4282 -1.4533 -0.9370
 7593SOL    HW234416   0.852   0.588   7.632 -1.4332 -0.7572  1.2861
 7594SOL     OW34417   2.398   0.302  17.016  0.7466 -0.5279 -0.3351
 7594SOL    HW134418   2.407   0.385  17.062  2.2471 -2.8295  3.5098
 7594SOL    HW234419   2.485   0.267  17.033 -0.4606 -3.2775  0.1522
 7595SOL     OW34420   3.718   4.623  13.800 -0.0728 -0.2920  0.4340
 7595SOL    HW134421   3.661   4.664  13.735 -2.2648 -0.1915  2.4157
 7595SOL    HW234422   3.744   4.544  13.754  1.2712  0.1284  0.4669
 7596SOL     OW34423   1.544   1.230   2.086 -0.1447  0.6433 -0.4736
 7596SOL    HW134424   1.505   1.162   2.032 -2.6222  1.8603 -0.2033
 7596SOL    HW234425   1.612   1.254   2.023  0.4179  0.8873  0.2214
 7597SOL     OW34426   2.769   1.956   4.417 -0.3674  0.3715 -0.0699
 7597SOL    HW134427   2.787   1.946   4.510  1.0035 -0.2471 -0.4037
 7597SOL    HW234428   2.675   1.971   4.415 -0.6027 -1.1920 -0.8804
 7598SOL     OW34429   4.546   1.908   5.566 -0.6549 -0.3112 -0.3876
 7598SOL    HW134430   4.521   1.928   5.656  3.3720  0.3234  0.5640
 7598SOL    HW234431   4.521   1.819   5.540 -1.0301  0.6143 -3.2119
 7599SOL     OW34432   2.121   0.872  16.793  0.1295 -0.3639 -0.2519
 7599SOL    HW134433   2.179   0.869  16.870  0.0320 -1.2877 -0.2137
 7599SOL    HW234434   2.107   0.966  16.783 -0.2493 -0.2771  0.9898
 7600SOL     OW34435   2.981   0.989   3.625 -0.3623  0.2070 -0.0652
 7600SOL    HW134436   2.957   0.988   3.718  0.0966  0.8975  0.0575
 7600SOL    HW234437   2.909   1.037   3.584 -0.1812  1.2722  0.8479
 7601SOL     OW34438   3.060   3.785  17.016 -0.4923 -0.2907 -0.4018
 7601SOL    HW134439   3.067   3.691  17.000 -0.3831 -0.3706  0.1043
 7601SOL    HW234440   3.155   3.801  17.013 -0.5070  0.1683  1.5166
 7602SOL     OW34441   0.508   2.168  16.481  0.0203 -0.4234  0.5767
 7602SOL    HW134442   0.428   2.124  16.452  1.7966 -1.9979 -1.9245
 7602SOL    HW234443   0.529   2.122  16.562 -0.5873 -0.8998  0.4610
 7603SOL     OW34444   1.303   4.512  13.197 -0.0386  0.4060  0.1457
 7603SOL    HW134445   1.253   4.445  13.243 -2.9312  1.7578 -1.0696
 7603SOL    HW234446   1.383   4.464  13.174  0.3403  1.0074  0.1965
 7604SOL     OW34447   2.529   4.264   9.417  0.0709 -0.1234 -0.6003
 7604SOL    HW134448   2.493   4.291   9.332 -2.6866 -2.7948 -0.2859
 7604SOL    HW234449   2.542   4.354   9.446 -0.3358 -0.1660 -0.2889
 7605SOL     OW34450   2.812   3.841  13.892 -0.1392  0.3979  0.0305
 7605SOL    HW134451   2.852   3.913  13.940  4.2582  0.4561 -3.6806
 7605SOL    HW234452   2.752   3.888  13.834  1.0349  0.5492 -1.0670
 7606SOL     OW34453   2.435   3.029   6.809  0.6346  0.1389 -0.2310
 7606SOL    HW134454   2.524   2.993   6.817  0.3739 -0.4295  0.1605
 7606SOL    HW234455   2.401   3.043   6.897  0.1427  0.6167 -0.5056
 7607SOL     OW34456   0.820   0.477   5.813 -0.3589 -0.1479 -0.0176
 7607SOL    HW134457   0.755   0.406   5.814 -1.8626  1.1637 -2.5811
 7607SOL    HW234458   0.768   0.558   5.817 -3.1728 -1.8324 -1.9804
 7608SOL     OW34459   0.306   3.478   1.117 -0.2729  0.0607 -0.0813
 7608SOL    HW134460   0.402   3.476   1.122 -0.3145  1.3936  1.1822
 7608SOL    HW234461   0.293   3.448   1.027 -1.0309  0.6170 -0.1516
 7609SOL     OW34462   2.017   2.536  16.562 -0.3030  0.1414 -0.0404
 7609SOL    HW134463   2.100   2.520  16.517 -0.9994 -0.3831 -1.1532
 7609SOL    HW234464   1.957   2.540  16.487 -0.9561 -1.2078  0.4187
 7610SOL     OW34465   0.408   1.065   5.816  0.4618  0.3163  0.8243
 7610SOL    HW134466   0.495   1.062   5.857 -0.5369  0.7055  2.9936
 7610SOL    HW234467   0.359   1.117   5.880 -0.4205 -0.3072  0.6485
 7611SOL     OW34468   2.496   0.645   3.742 -0.6329  0.3911 -0.0338
 7611SOL    HW134469   2.533   0.556   3.747  0.5610  0.9515  1.3028
 7611SOL    HW234470   2.405   0.634   3.769 -0.5199 -1.2646 -0.3053
 7612SOL     OW34471   1.095   2.383   4.591 -0.1224  0.7693  0.7489
 7612SOL    HW134472   1.064   2.313   4.649  1.4356 -0.0785  0.5789
 7612SOL    HW234473   1.027   2.398   4.526  0.5536 -2.0260 -0.6141
 7613SOL     OW34474   3.959   1.022  10.605 -0.2900 -0.2692  0.2262
 7613SOL    HW134475   4.026   0.993  10.543  0.9280 -0.2070  1.5148
 7613SOL    HW234476   3.884   1.050  10.553 -0.1127  3.2423  1.8287
 7614SOL     OW34477   2.731   2.057   5.346  0.6815 -0.6623 -0.2356
 7614SOL    HW134478   2.658   2.116   5.364  0.7942 -0.0493 -1.7840
 7614SOL    HW234479   2.774   2.043   5.430  1.1536  2.2588  0.0046
 7615SOL     OW34480   4.236   2.855  12.827 -0.0279 -0.6439 -0.3117
 7615SOL    HW134481   4.288   2.821  12.755 -1.1376 -1.6008 -0.6636
 7615SOL    HW234482   4.257   2.788  12.892  0.9927  0.1178  0.1434
 7616SOL     OW34483   2.785   3.803   7.884 -0.4841  0.1122 -0.2513
 7616SOL    HW134484   2.701   3.847   7.897 -1.0861 -1.2580  0.5647
 7616SOL    HW234485   2.771   3.755   7.802 -3.0503  0.2033  0.1213
 7617SOL     OW34486   3.175   1.599   0.215  0.4450 -0.0160  0.0442
 7617SOL    HW134487   3.138   1.578   0.300 -0.1981  0.1962 -0.1821
 7617SOL    HW234488   3.110   1.586   0.146  1.1023 -1.5364 -0.2766
 7618SOL     OW34489   2.522   2.265   6.270  0.7335 -0.2001  0.4180
 7618SOL    HW134490   2.558   2.295   6.186 -1.4496  0.2958 -0.3417
 7618SOL    HW234491   2.539   2.343   6.323 -0.6096  2.0215 -2.4065
 7619SOL     OW34492   0.322   4.027  17.538  0.3521  0.2281  0.2251
 7619SOL    HW134493   0.241   4.045  17.586  0.2088 -0.6191  0.3024
 7619SOL    HW234494   0.373   3.989  17.609  0.1142  0.2925  0.4305
 7620SOL     OW34495   0.956   2.203   1.894  0.1748 -0.0303  0.2520
 7620SOL    HW134496   1.043   2.189   1.856  1.3418  3.3044  1.6343
 7620SOL    HW234497   0.933   2.119   1.932 -1.3707 -0.4653 -1.6287
 7621SOL     OW34498   1.591   2.134   5.512 -0.5083  0.1921 -0.4993
 7621SOL    HW134499   1.520   2.072   5.500  0.0019 -0.0189 -2.4231
 7621SOL    HW234500   1.662   2.070   5.502 -0.5579 -0.3722  2.5269
 7622SOL     OW34501   3.657   1.988  11.647 -0.0772  0.0724 -0.1556
 7622SOL    HW134502   3.695   2.073  11.671  1.8749 -0.7519 -0.3705
 7622SOL    HW234503   3.605   2.007  11.569 -1.2087  1.6579  0.9568
 7623SOL     OW34504   2.986   4.091   4.989  0.3096 -0.1992  0.2692
 7623SOL    HW134505   2.997   4.040   5.070  2.3761 -1.8059 -1.0248
 7623SOL    HW234506   3.022   4.030   4.925 -0.8106 -2.3683  1.7086
 7624SOL     OW34507   2.076   3.356   1.312 -0.2606 -0.1303 -0.0449
 7624SOL    HW134508   2.026   3.417   1.258  0.3710 -1.3940 -2.0620
 7624SOL    HW234509   2.141   3.320   1.252  0.1565 -0.1016  0.3857
 7625SOL     OW34510   0.164   0.933   8.470 -0.1652  1.1364 -0.4772
 7625SOL    HW134511   0.180   1.008   8.414  0.4339  0.9847 -0.5166
 7625SOL    HW234512   0.100   0.883   8.421  0.6793 -0.0881 -0.3521
 7626SOL     OW34513   1.730   4.265   9.374  0.6526  0.3722  0.5722
 7626SOL    HW134514   1.743   4.258   9.468  1.1307 -0.7870  0.4153
 7626SOL    HW234515   1.756   4.356   9.362 -0.1647  0.3396 -1.4004
 7627SOL     OW34516   0.937   0.476   1.753  0.1882 -0.1001 -0.1347
 7627SOL    HW134517   0.897   0.396   1.786  3.5765 -1.1037  1.6002
 7627SOL    HW234518   0.862   0.529   1.728 -0.5809  0.9259  4.2497
 7628SOL     OW34519   0.239   0.850   2.273  0.2715 -0.1342  0.0213
 7628SOL    HW134520   0.296   0.927   2.277 -1.3704  0.9098  3.0441
 7628SOL    HW234521   0.173   0.868   2.339  0.5485 -1.3291  0.6189
 7629SOL     OW34522   1.352   0.725  10.011  0.0294 -0.7597  0.2568
 7629SOL    HW134523   1.421   0.666  10.040 -0.0760 -1.4812 -0.9457
 7629SOL    HW234524   1.400   0.790   9.960 -0.7445 -0.1499  0.2991
 7630SOL     OW34525   3.839   2.914   3.343 -0.2199 -0.6063 -0.1816
 7630SOL    HW134526   3.899   2.973   3.298  0.6028 -0.5104  1.0520
 7630SOL    HW234527   3.788   2.878   3.271 -2.9820 -0.6830  1.7972
 7631SOL     OW34528   2.866   1.344  12.617 -0.6794 -0.2688  0.0719
 7631SOL    HW134529   2.886   1.415  12.678  0.2863  1.8618 -2.7381
 7631SOL    HW234530   2.772   1.344  12.636 -0.5216 -1.8205  0.8909
 7632SOL     OW34531   2.412   0.958  16.693 -0.0633 -0.5296  0.2549
 7632SOL    HW134532   2.486   1.013  16.669 -0.2407  0.1076  1.1843
 7632SOL    HW234533   2.360   1.018  16.746 -0.5822  0.0909 -0.9674
 7633SOL     OW34534   3.187   1.313  16.025  0.3799 -0.3325 -1.0873
 7633SOL    HW134535   3.268   1.289  16.070 -0.0711 -1.8846 -1.1108
 7633SOL    HW234536   3.137   1.232  16.037  1.6540 -0.8728  0.5479
 7634SOL     OW34537   1.891   3.822  17.312  0.2189 -0.0798  0.7088
 7634SOL    HW134538   1.861   3.908  17.341 -2.3507 -0.6544 -0.2436
 7634SOL    HW234539   1.877   3.841  17.219  0.3360 -1.4193  0.4129
 7635SOL     OW34540   4.360   1.480   7.673 -0.7298  0.0808 -0.0432
 7635SOL    HW134541   4.307   1.424   7.731 -0.1749  0.0694  0.4631
 7635SOL    HW234542   4.353   1.562   7.721  0.3292  0.1278  0.0324
 7636SOL     OW34543   2.570   1.610   7.252  0.1167  0.0487  0.2847
 7636SOL    HW134544   2.579   1.518   7.226 -0.2134 -0.0251  0.4372
 7636SOL    HW234545   2.500   1.613   7.317  1.2761  2.7006  1.4140
 7637SOL     OW34546   4.150   0.389   7.033 -0.2369 -0.0046 -0.3455
 7637SOL    HW134547   4.068   0.340   7.043 -0.7522  0.7640 -0.8152
 7637SOL    HW234548   4.139   0.477   7.069 -2.0382 -0.8685  1.2008
 7638SOL     OW34549   2.687   0.282   5.952  0.4545 -0.8267  0.5872
 7638SOL    HW134550   2.599   0.320   5.948 -0.6006 -3.3049  0.5679
 7638SOL    HW234551   2.679   0.202   5.901  1.1013 -1.4406  1.4402
 7639SOL     OW34552   3.897   0.851  11.136 -0.4110 -0.3404  0.1925
 7639SOL    HW134553   3.856   0.823  11.054 -1.2349  0.6473  0.2671
 7639SOL    HW234554   3.849   0.932  11.149 -0.6220 -0.3158 -0.7308
 7640SOL     OW34555   1.595   4.733   7.330 -0.6100  0.1523 -0.0691
 7640SOL    HW134556   1.639   0.052   7.266  2.2740 -0.7151  1.1601
 7640SOL    HW234557   1.539   0.051   7.386  1.8446 -1.4640  3.9494
 7641SOL     OW34558   1.538   0.303   5.190 -0.3742  0.6303 -0.3364
 7641SOL    HW134559   1.508   0.371   5.250 -0.1423 -0.9537  1.5564
 7641SOL    HW234560   1.603   0.256   5.242 -1.0053 -1.4737 -1.4769
 7642SOL     OW34561   0.617   2.311   5.179 -0.5100 -0.2242  0.2407
 7642SOL    HW134562   0.595   2.340   5.268  2.1478  1.5325  0.3107
 7642SOL    HW234563   0.651   2.224   5.198  2.5678  0.8851 -0.2208
 7643SOL     OW34564   2.142   0.350   6.943  0.4681  0.0610 -0.3672
 7643SOL    HW134565   2.172   0.273   6.894 -1.6585 -1.3588  0.5576
 7643SOL    HW234566   2.152   0.312   7.031 -0.0972  1.3128  0.2267
 7644SOL     OW34567   0.386   2.505   8.901 -0.9733  0.3653  0.0250
 7644SOL    HW134568   0.359   2.467   8.818  0.9235  0.3134 -0.5745
 7644SOL    HW234569   0.480   2.492   8.911 -1.2868  0.0510  2.6234
 7645SOL     OW34570   1.040   3.350   3.969 -0.2151 -0.0302  0.2268
 7645SOL    HW134571   0.987   3.394   3.902  2.1927  0.3139 -1.4610
 7645SOL    HW234572   1.051   3.416   4.037 -0.3921  0.8231 -0.5709
 7646SOL     OW34573   1.978   0.644  12.121  0.2908 -0.2137 -0.5378
 7646SOL    HW134574   2.028   0.573  12.162 -0.4616  0.0756  0.8932
 7646SOL    HW234575   2.021   0.718  12.163 -2.1273  0.9577 -0.0952
 7647SOL     OW34576   1.858   2.667   3.638 -0.3203 -0.0678  0.0076
 7647SOL    HW134577   1.905   2.707   3.711 -0.5516  0.2544 -0.0176
 7647SOL    HW234578   1.788   2.622   3.687 -3.2815  1.1542 -3.0930
 7648SOL     OW34579   1.072   3.813   5.180  0.1838 -0.2544  1.0779
 7648SOL    HW134580   1.061   3.772   5.094 -0.4097 -2.0852  2.0446
 7648SOL    HW234581   1.136   3.883   5.166  0.7984 -1.2760 -1.3394
 7649SOL     OW34582   2.266   0.320  13.458 -0.1057 -0.3652  0.1668
 7649SOL    HW134583   2.339   0.281  13.508 -0.9257 -3.3243 -0.9276
 7649SOL    HW234584   2.292   0.412  13.465 -1.0369 -0.1139  0.2191
 7650SOL     OW34585   3.322   0.307  16.360  0.8494  0.1612 -0.5422
 7650SOL    HW134586   3.328   0.269  16.272 -3.1549  0.7052 -1.0850
 7650SOL    HW234587   3.366   0.243  16.416 -3.1663 -1.3682  0.8555
 7651SOL     OW34588   3.477   3.572   2.926 -0.1613 -0.9928 -0.1165
 7651SOL    HW134589   3.452   3.640   2.863 -1.6899 -0.6439  0.8712
 7651SOL    HW234590   3.553   3.615   2.965 -2.0670  1.6589  0.6473
 7652SOL     OW34591   0.399   4.613   8.576  0.2360 -0.0517  0.0856
 7652SOL    HW134592   0.350   4.575   8.649  2.7838  0.9111  2.3292
 7652SOL    HW234593   0.489   4.587   8.597 -0.5794 -0.4447  3.0489
 7653SOL     OW34594   1.740   1.475  14.897  0.4906  0.5428 -0.2146
 7653SOL    HW134595   1.770   1.526  14.972 -1.9773  0.7074  0.6635
 7653SOL    HW234596   1.810   1.466  14.833  1.7057 -1.2177  1.3791
 7654SOL     OW34597   2.673   0.677   6.414 -0.2225  0.0830  0.4870
 7654SOL    HW134598   2.650   0.741   6.347  0.7424 -2.8902 -2.6883
 7654SOL    HW234599   2.753   0.713   6.453 -0.3358 -0.7859  1.5411
 7655SOL     OW34600   3.596   2.703  15.804 -0.1930  0.5077  0.2244
 7655SOL    HW134601   3.691   2.708  15.796 -0.2328  1.0886  0.1510
 7655SOL    HW234602   3.581   2.691  15.898 -2.7399 -1.5884 -0.4405
 7656SOL     OW34603   0.374   3.378  16.153 -0.1433  0.0496 -0.3952
 7656SOL    HW134604   0.394   3.386  16.247 -0.6485 -0.5547 -0.2359
 7656SOL    HW234605   0.298   3.434  16.140 -0.7985 -0.7149  0.1312
 7657SOL     OW34606   3.164   4.708   5.530  0.7737 -0.0020 -0.6582
 7657SOL    HW134607   3.162   0.065   5.550 -2.0608 -0.3472  0.5821
 7657SOL    HW234608   3.074   4.694   5.502  1.2968 -2.1269 -1.2667
 7658SOL     OW34609   0.344   0.988  13.462 -0.0188  0.4657 -0.2458
 7658SOL    HW134610   0.301   0.942  13.534  2.3247 -1.0559  0.1726
 7658SOL    HW234611   0.282   1.058  13.443  0.1911  0.2161 -1.8689
 7659SOL     OW34612   4.187   2.776   2.988  0.5418 -0.0259  0.2947
 7659SOL    HW134613   4.106   2.827   2.982 -0.4131 -1.3454  2.1370
 7659SOL    HW234614   4.163   2.740   3.073 -1.3042 -0.3237 -0.3502
 7660SOL     OW34615   2.019   0.510   5.589  0.5437  0.4259 -1.1988
 7660SOL    HW134616   2.075   0.510   5.667 -0.6289  0.9023 -0.3478
 7660SOL    HW234617   2.076   0.550   5.524  1.5037 -1.3735 -1.4450
 7661SOL     OW34618   3.596   2.235   5.971  0.1429 -0.5911 -0.0224
 7661SOL    HW134619   3.662   2.301   5.950 -1.2902  1.3765  1.6144
 7661SOL    HW234620   3.603   2.159   5.913 -0.5575  1.4159 -2.7180
 7662SOL     OW34621   4.303   0.900   4.218  0.0448  0.2557 -0.3800
 7662SOL    HW134622   4.395   0.872   4.216 -0.8363 -2.7005  1.1287
 7662SOL    HW234623   4.258   0.820   4.192 -0.4029  0.2714  0.3590
 7663SOL     OW34624   0.862   0.994   4.059 -0.1534 -0.3019 -0.1827
 7663SOL    HW134625   0.953   0.964   4.063  0.7887  2.3302 -2.0325
 7663SOL    HW234626   0.866   1.083   4.023 -0.7525 -0.3879 -0.4608
 7664SOL     OW34627   4.075   3.221   5.794  0.4212  0.3525 -0.4834
 7664SOL    HW134628   4.004   3.277   5.826 -0.4024 -0.2995 -1.1741
 7664SOL    HW234629   4.066   3.258   5.706 -2.9759  1.8433  0.4561
 7665SOL     OW34630   1.163   3.720  10.939  1.0005  0.1493 -0.1769
 7665SOL    HW134631   1.230   3.743  11.004  0.6819  0.1877  0.1448
 7665SOL    HW234632   1.198   3.637  10.906  1.7912  0.5138 -0.2535
 7666SOL     OW34633   3.212   3.698   6.247 -0.3622 -0.3089 -0.6187
 7666SOL    HW134634   3.200   3.640   6.172 -0.4992 -0.0054 -0.8346
 7666SOL    HW234635   3.188   3.777   6.199 -3.0587 -1.8454 -1.7664
 7667SOL     OW34636   2.324   1.250  15.286 -0.2092  0.2943 -0.0921
 7667SOL    HW134637   2.238   1.248  15.326 -0.3553  1.1704 -0.3540
 7667SOL    HW234638   2.336   1.165  15.243  1.9373  0.1840  0.7172
 7668SOL     OW34639   4.385   4.054  10.264  0.1709 -0.1271  0.4824
 7668SOL    HW134640   4.403   3.974  10.214  0.3191 -0.2656  0.7562
 7668SOL    HW234641   4.454   4.114  10.236 -1.8177  2.6970  1.6159
 7669SOL     OW34642   1.932   1.373   5.257 -0.4413 -0.1943 -0.2032
 7669SOL    HW134643   2.012   1.327   5.281 -1.0574 -1.1935 -0.0650
 7669SOL    HW234644   1.958   1.440   5.193 -0.9792  0.9732  0.7924
 7670SOL     OW34645   2.954   4.725   4.666  0.0271 -0.4507 -0.2336
 7670SOL    HW134646   3.005   0.053   4.618 -1.7982  0.9270 -0.3072
 7670SOL    HW234647   2.891   0.044   4.713  0.8590  1.5255 -1.4680
 7671SOL     OW34648   3.596   2.710  11.124 -0.4442 -0.3023 -0.2069
 7671SOL    HW134649   3.539   2.787  11.123  0.3606  0.2968  1.4597
 7671SOL    HW234650   3.537   2.646  11.164  0.8426 -1.6443 -0.4522
 7672SOL     OW34651   3.781   4.500  12.979  0.3002  0.2996  0.3210
 7672SOL    HW134652   3.841   4.447  12.927 -1.6093 -2.6540  1.1633
 7672SOL    HW234653   3.828   4.501  13.063  3.4233  0.6219 -1.4076
 7673SOL     OW34654   4.078   1.641   8.529  0.5125 -0.5172 -0.5758
 7673SOL    HW134655   4.139   1.697   8.481  1.5348 -0.9165  0.2634
 7673SOL    HW234656   4.093   1.673   8.618 -2.9826 -1.1590  0.2228
 7674SOL     OW34657   3.627   2.422   9.700  0.0839  0.1635  0.3408
 7674SOL    HW134658   3.705   2.470   9.674 -0.6486  1.2974  0.2267
 7674SOL    HW234659   3.602   2.374   9.621  4.7173  0.8931 -1.5421
 7675SOL     OW34660   3.230   2.100   0.125  0.1198  0.0542  0.3544
 7675SOL    HW134661   3.242   2.192   0.149  1.2861 -0.2380  0.9043
 7675SOL    HW234662   3.138   2.096   0.100 -0.0356 -0.3804  0.9774
 7676SOL     OW34663   2.252   1.526  16.666  0.0232 -0.4033  0.1111
 7676SOL    HW134664   2.235   1.620  16.658  3.8232  0.2070 -0.8126
 7676SOL    HW234665   2.304   1.532  16.747  1.6956  1.7595 -1.1203
 7677SOL     OW34666   3.933   3.153   4.476  0.1641 -0.1374  0.3870
 7677SOL    HW134667   3.954   3.129   4.386 -1.3905  0.8878 -0.2512
 7677SOL    HW234668   3.859   3.094   4.488  1.5468 -1.4753  2.2869
 7678SOL     OW34669   4.471   1.544   2.120 -0.1691  0.5094  0.0759
 7678SOL    HW134670   4.379   1.522   2.111  0.0760 -0.0489 -1.1021
 7678SOL    HW234671   4.484   1.566   2.212 -1.0669 -0.9032  0.5227
 7679SOL     OW34672   1.651   3.137   1.572 -0.4123  0.3679  0.0110
 7679SOL    HW134673   1.709   3.144   1.496  0.1081  0.6363  0.4338
 7679SOL    HW234674   1.678   3.056   1.616  0.6630  0.4277 -0.5328
 7680SOL     OW34675   1.305   2.071   4.728 -0.4085  0.2042  0.7363
 7680SOL    HW134676   1.390   2.113   4.739  0.9302 -2.1196 -0.5593
 7680SOL    HW234677   1.325   2.039   4.640 -0.7490  0.7938  0.4473
 7681SOL     OW34678   2.850   0.846  16.040 -0.0082 -0.0143  0.3208
 7681SOL    HW134679   2.765   0.804  16.050  0.4349 -0.2022  3.2462
 7681SOL    HW234680   2.867   0.849  15.946 -0.0662  2.2822  0.3839
 7682SOL     OW34681   4.127   0.553  17.700  0.2254  0.6162 -0.7317
 7682SOL    HW134682   4.062   0.486  17.719  1.2421 -0.4820 -1.1829
 7682SOL    HW234683   4.102   0.567  17.609  1.0903  0.0488 -1.0498
 7683SOL     OW34684   0.992   0.226   9.113  0.0928  0.3713  0.1409
 7683SOL    HW134685   1.000   0.237   9.018 -0.8097 -3.8010 -0.4443
 7683SOL    HW234686   0.932   0.151   9.116  1.0962 -0.3837  1.2732
 7684SOL     OW34687   1.964   2.623   9.138  1.0753  0.1844 -0.4778
 7684SOL    HW134688   2.008   2.696   9.094  0.5898 -1.2633 -3.3610
 7684SOL    HW234689   1.959   2.644   9.232  1.6552  0.5776 -0.5373
 7685SOL     OW34690   4.650   1.068   4.567  0.5560 -0.3927 -0.4722
 7685SOL    HW134691   4.622   0.989   4.612 -1.6598 -0.1924 -1.4888
 7685SOL    HW234692   4.599   1.060   4.486  1.5046  1.6621 -1.2810
 7686SOL     OW34693   0.075   0.612  10.620  0.0503 -0.4308 -0.1989
 7686SOL    HW134694   0.160   0.569  10.617  0.5010  0.5108 -1.1980
 7686SOL    HW234695   0.099   0.680  10.557  0.1037 -0.4326 -0.1802
 7687SOL     OW34696   1.588   4.022   6.613  0.5056  1.1900  0.5916
 7687SOL    HW134697   1.612   4.044   6.523  1.4784  0.1901  0.6107
 7687SOL    HW234698   1.509   3.975   6.588  0.3182  0.7712  1.9807
 7688SOL     OW34699   2.235   4.659   1.932  0.0095 -0.4428  0.0679
 7688SOL    HW134700   2.217   4.565   1.934 -0.9068 -0.2691 -0.0032
 7688SOL    HW234701   2.313   4.653   1.988 -0.0119 -2.0264 -0.0712
 7689SOL     OW34702   0.389   1.445   3.804 -0.2713 -0.1102  0.2535
 7689SOL    HW134703   0.365   1.443   3.711  1.1682 -1.2875 -0.0703
 7689SOL    HW234704   0.358   1.358   3.828  0.5722 -0.6047 -0.5054
 7690SOL     OW34705   4.222   1.334   9.365  0.2092  0.6818 -0.0460
 7690SOL    HW134706   4.318   1.339   9.374  0.2652  0.3254 -0.4473
 7690SOL    HW234707   4.193   1.421   9.394  1.0582  1.5654 -1.7784
 7691SOL     OW34708   2.030   2.965  11.865  0.3167 -0.9359 -0.4079
 7691SOL    HW134709   2.094   2.897  11.845  1.4803 -0.4550  1.5854
 7691SOL    HW234710   2.079   3.011  11.934  2.3903  1.9325 -3.7553
 7692SOL     OW34711   1.301   2.436  14.121 -0.4076 -0.6793  0.3531
 7692SOL    HW134712   1.234   2.397  14.065 -1.7798  1.8295  0.2527
 7692SOL    HW234713   1.247   2.447  14.199 -0.3729  1.8968  0.0241
 7693SOL     OW34714   0.869   4.418  15.822 -0.2276 -0.1089 -0.4774
 7693SOL    HW134715   0.825   4.342  15.784 -3.4795  2.4097 -1.7610
 7693SOL    HW234716   0.903   4.464  15.745  2.4108  1.6431  1.7363
 7694SOL     OW34717   2.813   1.896   4.100  0.3866  0.4125  0.1643
 7694SOL    HW134718   2.782   1.896   4.190 -0.2536  0.0816 -0.0507
 7694SOL    HW234719   2.737   1.850   4.063  0.6450 -0.4370  0.6704
 7695SOL     OW34720   4.282   1.161   4.152  0.0880 -0.3731 -0.0926
 7695SOL    HW134721   4.282   1.074   4.191  0.8082 -0.8815 -1.2233
 7695SOL    HW234722   4.345   1.147   4.081 -1.6581  0.4236 -1.8121
 7696SOL     OW34723   1.141   4.387   5.255 -1.0494  0.3748 -1.1302
 7696SOL    HW134724   1.046   4.397   5.263 -1.2436 -2.4374 -0.0710
 7696SOL    HW234725   1.145   4.311   5.197  0.0741  0.2566 -0.8837
 7697SOL     OW34726   4.333   3.367   5.338 -0.3791  0.7676  0.2242
 7697SOL    HW134727   4.410   3.311   5.345 -0.8994  0.2099  1.5300
 7697SOL    HW234728   4.293   3.378   5.424 -0.3655  2.1192  0.0496
 7698SOL     OW34729   1.889   4.468  15.263 -0.1832  0.2268 -0.0419
 7698SOL    HW134730   1.845   4.485  15.180 -1.5177 -1.1906  0.3899
 7698SOL    HW234731   1.982   4.483  15.247 -0.4222 -0.5155 -2.0737
 7699SOL     OW34732   0.582   2.756   4.526  0.3099 -0.1863 -0.5252
 7699SOL    HW134733   0.656   2.788   4.578 -1.1217  0.7945  0.8856
 7699SOL    HW234734   0.625   2.689   4.474 -0.5173  0.0028 -1.4474
 7700SOL     OW34735   2.345   3.947   6.421 -0.3193 -0.0462 -0.4268
 7700SOL    HW134736   2.423   3.987   6.460 -0.8635 -0.8125  1.4363
 7700SOL    HW234737   2.307   4.014   6.364  1.5430  1.0242 -0.4090
 7701SOL     OW34738   3.222   1.677  13.302 -0.1004 -0.4082 -0.7106
 7701SOL    HW134739   3.235   1.772  13.295 -0.9015 -0.2847 -0.6151
 7701SOL    HW234740   3.198   1.669  13.395  0.2973  2.4381 -0.3662
 7702SOL     OW34741   1.439   2.956   0.341 -0.5731 -0.2922  0.3996
 7702SOL    HW134742   1.429   3.003   0.424  2.5086 -0.2651  0.7588
 7702SOL    HW234743   1.409   2.867   0.360 -0.4619  0.0872  2.2862
 7703SOL     OW34744   2.061   1.026  12.536  0.2432  0.0960  0.3843
 7703SOL    HW134745   1.990   1.052  12.595  1.9808  1.3844  1.9156
 7703SOL    HW234746   2.124   0.978  12.591  0.1933 -2.3865 -1.7168
 7704SOL     OW34747   3.917   0.412   9.452  0.2846  0.0730 -0.5370
 7704SOL    HW134748   3.887   0.361   9.376  1.7947 -2.2209  0.4298
 7704SOL    HW234749   3.858   0.369   9.514 -0.1826  0.5934 -0.6175
 7705SOL     OW34750   1.675   1.688  14.695  0.2061  0.4217 -0.5185
 7705SOL    HW134751   1.733   1.734  14.756 -1.1780  0.9266  0.3974
 7705SOL    HW234752   1.666   1.606  14.743 -1.0638  0.5543 -0.5404
 7706SOL     OW34753   3.163   0.402   7.689  0.6110  0.2212 -0.1657
 7706SOL    HW134754   3.230   0.334   7.677 -0.6116 -0.5867 -2.3813
 7706SOL    HW234755   3.089   0.349   7.720  0.2007  0.1199 -1.3060
 7707SOL     OW34756   0.370   4.214  10.821  0.2336 -0.0117 -0.4458
 7707SOL    HW134757   0.288   4.222  10.773 -1.0083  0.3345  1.7469
 7707SOL    HW234758   0.420   4.293  10.801  0.3980 -0.2420 -0.9454
 7708SOL     OW34759   1.007   0.101  16.792  0.0645  0.5793  0.5666
 7708SOL    HW134760   0.959   0.111  16.710  1.9985 -1.2055 -0.7883
 7708SOL    HW234761   1.086   0.055  16.763  0.3862  1.4074  0.1121
 7709SOL     OW34762   4.280   1.624   3.167 -0.1113 -0.3470 -0.2454
 7709SOL    HW134763   4.219   1.644   3.238  1.4546 -0.5272  1.1669
 7709SOL    HW234764   4.307   1.709   3.133 -1.6039  0.7759  1.3687
 7710SOL     OW34765   4.343   2.527   4.096  0.6227  0.4105 -0.3939
 7710SOL    HW134766   4.400   2.556   4.167 -0.9997  0.9376  0.7092
 7710SOL    HW234767   4.350   2.432   4.098  4.9834  0.7282 -1.1449
 7711SOL     OW34768   2.568   2.584   9.063  0.4049 -0.2357  0.6398
 7711SOL    HW134769   2.608   2.556   9.145  0.6511 -0.4976  0.4323
 7711SOL    HW234770   2.577   2.677   9.084  2.8519 -0.0789 -1.1216
 7712SOL     OW34771   3.513   3.091   2.782  0.1291 -0.2766  0.1443
 7712SOL    HW134772   3.531   3.145   2.705  0.2293  2.0392  1.8243
 7712SOL    HW234773   3.445   3.147   2.819 -1.9616 -0.4871 -3.3292
 7713SOL     OW34774   3.566   1.695  14.566 -0.5359 -0.0222 -0.6709
 7713SOL    HW134775   3.581   1.623  14.505 -0.5017  1.1915 -2.0905
 7713SOL    HW234776   3.627   1.763  14.537  0.1776 -1.8504 -3.4657
 7714SOL     OW34777   4.141   3.436   2.450 -0.3279  0.1587 -0.5461
 7714SOL    HW134778   4.182   3.382   2.517 -1.8112  0.1221  0.3410
 7714SOL    HW234779   4.111   3.374   2.383 -2.1177 -1.2591  1.5544
 7715SOL     OW34780   2.665   2.934   1.938 -0.0513 -0.5122 -0.8983
 7715SOL    HW134781   2.744   2.967   1.895 -0.9785  3.0366  0.0958
 7715SOL    HW234782   2.603   2.943   1.865  0.2959  0.5840 -1.0568
 7716SOL     OW34783   4.577   3.079   8.015  0.3507 -0.0911 -0.1680
 7716SOL    HW134784   4.540   3.138   8.082 -0.0567  0.4747 -0.8866
 7716SOL    HW234785   4.577   3.134   7.936  1.9786 -0.9203 -0.7424
 7717SOL     OW34786   2.655   3.056  15.692  0.3163  0.2032  0.3259
 7717SOL    HW134787   2.732   3.007  15.722  0.9263 -0.5029 -2.4211
 7717SOL    HW234788   2.605   3.064  15.774  0.7133 -2.5256  0.8186
 7718SOL     OW34789   0.499   4.346  14.894 -0.6313  0.0534  0.0301
 7718SOL    HW134790   0.452   4.413  14.943 -0.2514 -0.6673  1.3796
 7718SOL    HW234791   0.526   4.390  14.814 -0.3623 -1.4418 -0.7067
 7719SOL     OW34792   3.983   1.291   2.938 -0.2783  0.5803  0.5051
 7719SOL    HW134793   4.039   1.213   2.944 -1.0167  0.0842  0.8819
 7719SOL    HW234794   3.982   1.315   2.845 -0.1595  1.8244  0.8323
 7720SOL     OW34795   4.225   1.956   7.643 -0.2939  0.0263 -0.4119
 7720SOL    HW134796   4.177   1.943   7.561  0.6495 -1.9146 -0.6773
 7720SOL    HW234797   4.218   2.051   7.649  0.5650  0.1151 -0.7680
 7721SOL     OW34798   3.921   0.717  16.235 -0.5388  0.5449 -0.0602
 7721SOL    HW134799   3.971   0.639  16.258 -0.4341  0.7421  0.3943
 7721SOL    HW234800   3.859   0.685  16.170  0.3003 -0.0818 -0.5633
 7722SOL     OW34801   1.174   0.129   1.204 -0.2431  0.3239  0.4986
 7722SOL    HW134802   1.172   0.039   1.171  0.1740  0.6292 -0.3481
 7722SOL    HW234803   1.265   0.130   1.234 -0.0591 -0.1439 -0.0289
 7723SOL     OW34804   3.190   1.763   8.006 -0.0914 -0.3486 -0.0911
 7723SOL    HW134805   3.096   1.746   7.998 -0.1701  0.7771 -1.4527
 7723SOL    HW234806   3.211   1.747   7.914 -0.6392  1.3517 -0.5160
 7724SOL     OW34807   3.794   2.669  10.973 -0.0004 -0.0532  0.8617
 7724SOL    HW134808   3.717   2.688  11.028  0.5107  0.5806  1.3611
 7724SOL    HW234809   3.758   2.660  10.885 -0.3066  3.1605  0.6559
 7725SOL     OW34810   0.701   4.397   1.600  0.1672  0.6522 -0.8643
 7725SOL    HW134811   0.678   4.413   1.692  0.8782 -2.0674 -0.1954
 7725SOL    HW234812   0.711   4.481   1.556  1.8380  0.9758  0.1379
 7726SOL     OW34813   0.486   3.562   6.952  0.0519 -0.0636  0.2357
 7726SOL    HW134814   0.413   3.538   6.896  0.6624 -0.5585 -0.3569
 7726SOL    HW234815   0.558   3.589   6.895  0.6410  0.2649  1.1320
 7727SOL     OW34816   1.603   3.156   7.701  0.0332 -0.0563  0.4933
 7727SOL    HW134817   1.564   3.086   7.753  1.9301 -2.1105 -0.7985
 7727SOL    HW234818   1.579   3.136   7.611  1.1468 -1.3864  0.4862
 7728SOL     OW34819   2.919   3.548  17.297 -0.0540  0.6391  0.0698
 7728SOL    HW134820   2.955   3.538  17.209  1.1751 -0.3500  0.6754
 7728SOL    HW234821   2.858   3.622  17.299 -0.8743 -0.0747  1.3709
 7729SOL     OW34822   1.184   3.034   5.378 -0.3781  0.2289 -0.0118
 7729SOL    HW134823   1.207   2.941   5.375 -0.5749  0.1823 -0.0491
 7729SOL    HW234824   1.124   3.055   5.306 -1.4849  3.1820  1.7767
 7730SOL     OW34825   0.691   1.968   6.584  0.6627 -0.0484 -0.2512
 7730SOL    HW134826   0.617   1.930   6.537 -0.6920 -0.4557  2.2198
 7730SOL    HW234827   0.703   1.904   6.655  1.0737 -1.2677 -1.4281
 7731SOL     OW34828   2.034   1.605   1.777  0.2866 -0.1396 -0.7996
 7731SOL    HW134829   2.100   1.613   1.845 -1.6925 -1.7308  1.2852
 7731SOL    HW234830   2.064   1.672   1.715 -2.4259  1.5054 -0.3315
 7732SOL     OW34831   1.660   2.673   4.190 -0.0391 -0.0815  0.2842
 7732SOL    HW134832   1.698   2.629   4.266  1.2822  0.1767 -0.2284
 7732SOL    HW234833   1.721   2.743   4.167  1.5100 -0.7387  2.4643
 7733SOL     OW34834   1.439   3.217   2.698  0.1535 -0.2479 -0.2838
 7733SOL    HW134835   1.524   3.198   2.659  0.0324 -1.4306  0.0393
 7733SOL    HW234836   1.443   3.312   2.690 -0.2809 -0.1302  0.8958
 7734SOL     OW34837   3.792   0.040  10.768 -0.4699 -0.3113 -0.4810
 7734SOL    HW134838   3.703   0.075  10.763 -0.5953 -0.6531 -0.6599
 7734SOL    HW234839   3.849   0.117  10.769  1.4789 -1.7442  0.6451
 7735SOL     OW34840   2.518   3.228   7.943  0.0574  0.1372 -0.1275
 7735SOL    HW134841   2.484   3.229   7.854  0.6451 -0.4644 -0.3632
 7735SOL    HW234842   2.602   3.180   7.941  0.1108  0.1945  0.6719
 7736SOL     OW34843   3.227   0.726  14.799 -0.1554  0.3413 -0.1004
 7736SOL    HW134844   3.287   0.771  14.739  0.2754  1.4166  1.1288
 7736SOL    HW234845   3.265   0.764  14.878  2.5334 -0.5794 -0.9232
 7737SOL     OW34846   2.927   1.407  15.846 -0.1334 -0.0289 -0.0984
 7737SOL    HW134847   3.017   1.377  15.863 -0.8441 -2.5813 -0.7916
 7737SOL    HW234848   2.873   1.329  15.857 -1.8095  0.8878 -2.0512
 7738SOL     OW34849   3.721   0.080  12.563 -0.1860 -0.0350  0.5048
 7738SOL    HW134850   3.729   0.033  12.645 -1.4032 -3.7819 -1.5178
 7738SOL    HW234851   3.711   0.174  12.582  1.2736  0.5515 -1.5894
 7739SOL     OW34852   3.178   3.831  10.949  0.7471 -0.1013  0.0313
 7739SOL    HW134853   3.169   3.918  10.987 -2.8902 -1.4956  2.3607
 7739SOL    HW234854   3.273   3.822  10.938  0.4824 -2.0142 -0.6704
 7740SOL     OW34855   1.742   3.413   4.195 -0.2620 -0.4577  0.6090
 7740SOL    HW134856   1.829   3.410   4.236  1.5105 -1.3628 -3.2317
 7740SOL    HW234857   1.762   3.405   4.102 -1.1416 -2.4528  0.5837
 7741SOL     OW34858   2.918   3.447   5.411  0.1340 -0.4964  0.0612
 7741SOL    HW134859   2.950   3.427   5.323  0.6929  0.9362 -0.0782
 7741SOL    HW234860   2.829   3.412   5.405  0.1723 -0.4340 -0.8144
 7742SOL     OW34861   2.175   2.041   6.454 -0.5413  0.1311 -0.5600
 7742SOL    HW134862   2.124   1.969   6.492 -1.5142  0.8945 -0.4266
 7742SOL    HW234863   2.175   2.011   6.363  1.0671 -1.4004 -0.0660
 7743SOL     OW34864   1.734   4.546   2.224 -0.5369 -0.2756  0.2115
 7743SOL    HW134865   1.804   4.602   2.258  0.0309 -1.1258  0.4529
 7743SOL    HW234866   1.720   4.485   2.297 -3.1066  1.1424  0.8926
 7744SOL     OW34867   3.297   2.999   1.185 -0.5445  0.2519 -0.2696
 7744SOL    HW134868   3.341   3.084   1.175  0.4954 -0.2978 -0.3978
 7744SOL    HW234869   3.207   3.030   1.181 -1.4171 -2.2988 -0.4508
 7745SOL     OW34870   0.691   2.396  11.676  0.2621 -0.4772 -0.1096
 7745SOL    HW134871   0.698   2.310  11.635  0.3731 -0.6940  0.3659
 7745SOL    HW234872   0.596   2.405  11.684  0.3309  0.9391 -0.8184
 7746SOL     OW34873   1.605   3.280   4.396  0.2694  0.0153 -0.7125
 7746SOL    HW134874   1.652   3.313   4.319  1.4451 -0.0856 -0.0408
 7746SOL    HW234875   1.537   3.228   4.353  0.8977  0.2331 -1.9982
 7747SOL     OW34876   2.762   4.699   5.349  0.2443 -0.2725  0.8237
 7747SOL    HW134877   2.822   4.673   5.280  0.9972 -0.4124  1.5286
 7747SOL    HW234878   2.803   4.686   5.435  1.2946 -0.5364  0.2696
 7748SOL     OW34879   0.500   0.496   5.199  0.5580  0.2448  0.1685
 7748SOL    HW134880   0.490   0.456   5.112  0.0507  0.8161 -0.0343
 7748SOL    HW234881   0.502   0.590   5.184  0.1616  0.3993  1.1245
 7749SOL     OW34882   0.235   0.662   6.613  0.5155 -0.7366 -0.1123
 7749SOL    HW134883   0.206   0.656   6.522 -0.2285 -0.6578  0.1200
 7749SOL    HW234884   0.320   0.618   6.611  0.5070 -0.7538 -0.0965
 7750SOL     OW34885   0.189   1.422   2.413 -0.0238 -0.1044  0.1166
 7750SOL    HW134886   0.148   1.503   2.383  0.1240  0.0251  0.2634
 7750SOL    HW234887   0.278   1.427   2.379 -0.0500  1.3226  0.2484
 7751SOL     OW34888   2.191   2.957   8.572  0.4855  0.0271 -0.0895
 7751SOL    HW134889   2.285   2.954   8.553  0.2907 -3.0784 -0.6420
 7751SOL    HW234890   2.180   2.990   8.661 -1.9831 -1.4244  0.1411
 7752SOL     OW34891   3.906   1.593   7.406 -0.5595  0.8632 -0.0335
 7752SOL    HW134892   3.952   1.676   7.419 -0.5588  1.1355 -1.7609
 7752SOL    HW234893   3.924   1.585   7.312  0.8825  2.6708  0.0691
 7753SOL     OW34894   1.195   1.836   2.216 -0.1829 -0.2216 -0.0912
 7753SOL    HW134895   1.112   1.791   2.232 -0.6604 -0.1167 -2.3587
 7753SOL    HW234896   1.228   1.794   2.137  3.2743  0.4801  0.9408
 7754SOL     OW34897   4.265   3.847  11.096  0.9978 -0.1376 -0.1441
 7754SOL    HW134898   4.184   3.803  11.071  0.1016  0.9469  0.8580
 7754SOL    HW234899   4.238   3.934  11.127 -3.1876 -0.8687 -1.8529
 7755SOL     OW34900   2.649   2.670  10.071 -0.1288 -0.0654  0.0501
 7755SOL    HW134901   2.724   2.697  10.018  0.2880 -1.4499 -0.0625
 7755SOL    HW234902   2.658   2.733  10.142  0.3248  0.5252 -0.5284
 7756SOL     OW34903   3.584   2.282   2.258 -0.5642 -0.2419  0.0978
 7756SOL    HW134904   3.559   2.328   2.178  0.0827 -0.2177 -0.0892
 7756SOL    HW234905   3.670   2.254   2.226 -0.5954 -1.7252  1.3332
 7757SOL     OW34906   2.049   2.976   2.735  0.1890  0.4676  0.0354
 7757SOL    HW134907   1.967   2.928   2.721  1.0844 -0.8774 -0.6425
 7757SOL    HW234908   2.077   2.986   2.644  0.6039  0.2190  0.1383
 7758SOL     OW34909   0.030   3.803   6.049  0.8752  0.2835 -0.0395
 7758SOL    HW134910   0.004   3.879   6.101  0.4688 -0.3480  0.6770
 7758SOL    HW234911   4.730   3.841   5.969 -0.1011  1.3812  0.9263
 7759SOL     OW34912   2.866   4.398   8.750  0.9286 -0.4131 -0.2138
 7759SOL    HW134913   2.880   4.312   8.710  0.3385  0.0675 -1.4499
 7759SOL    HW234914   2.921   4.448   8.690  2.1531  0.6260  1.7836
 7760SOL     OW34915   2.937   2.661   3.838 -0.2764  1.0659  0.0228
 7760SOL    HW134916   3.007   2.708   3.794 -0.2911  0.4800 -0.6299
 7760SOL    HW234917   2.883   2.630   3.765 -0.2345  2.3227 -0.5363
 7761SOL     OW34918   3.477   4.108   5.109 -0.5346 -0.2062 -0.0339
 7761SOL    HW134919   3.487   4.014   5.119  1.4072 -0.1719 -1.6862
 7761SOL    HW234920   3.519   4.145   5.187  0.3307  1.1072 -1.1215
 7762SOL     OW34921   3.363   3.064   7.023 -0.2498 -0.0668  0.3077
 7762SOL    HW134922   3.458   3.060   7.032 -0.0464 -0.2317 -2.0101
 7762SOL    HW234923   3.348   3.158   7.019 -0.8788 -0.2900 -2.7007
 7763SOL     OW34924   1.706   1.183   1.855 -0.0534 -0.0980  0.0667
 7763SOL    HW134925   1.665   1.100   1.878 -0.7114  1.0227  2.9744
 7763SOL    HW234926   1.794   1.157   1.827 -0.1183  0.0953 -0.3141
 7764SOL     OW34927   0.759   0.225  10.673  0.1595 -0.6968 -0.6422
 7764SOL    HW134928   0.731   0.270  10.753 -1.1998 -2.5526 -0.0599
 7764SOL    HW234929   0.843   0.189  10.702 -1.8538 -3.0342  2.2421
 7765SOL     OW34930   3.031   3.118   5.326  0.2978 -0.1548  0.3752
 7765SOL    HW134931   3.101   3.165   5.280 -0.2139  1.6574  1.4481
 7765SOL    HW234932   2.961   3.125   5.261  0.3861 -2.9948 -0.0510
 7766SOL     OW34933   1.257   2.066   7.178  0.2799  0.4914 -0.1704
 7766SOL    HW134934   1.291   1.980   7.202  1.0644  0.4781 -1.3319
 7766SOL    HW234935   1.230   2.044   7.089  0.2525 -2.2173  0.5079
 7767SOL     OW34936   0.834   0.716  10.347 -0.2411  0.0715 -0.5234
 7767SOL    HW134937   0.873   0.635  10.312 -1.2936  0.4660 -2.6387
 7767SOL    HW234938   0.817   0.690  10.437 -0.9110  2.2494 -0.0206
 7768SOL     OW34939   3.231   3.434  11.122 -0.2814 -0.5511  0.7806
 7768SOL    HW134940   3.190   3.395  11.045  2.4703  2.3508 -2.1500
 7768SOL    HW234941   3.218   3.353  11.171 -2.1390 -0.1742  0.9374
 7769SOL     OW34942   3.198   0.855   3.873 -0.0188  0.7227 -0.4084
 7769SOL    HW134943   3.108   0.889   3.872 -0.4661 -0.3895  1.1788
 7769SOL    HW234944   3.244   0.913   3.933  0.7844 -0.2684 -0.0730
 7770SOL     OW34945   0.339   4.580  16.049  0.1031 -0.3880 -0.2042
 7770SOL    HW134946   0.413   4.627  16.012  0.0184  2.0058  2.6531
 7770SOL    HW234947   0.373   4.492  16.063  4.0094  0.8225 -2.0184
 7771SOL     OW34948   3.297   0.689  11.781 -0.2102 -1.1206 -0.1671
 7771SOL    HW134949   3.295   0.669  11.687  0.1708 -2.3489  0.0915
 7771SOL    HW234950   3.387   0.719  11.788 -0.0825 -1.9584  1.5990
 7772SOL     OW34951   0.770   1.820   3.648  0.1359  0.0745 -0.5433
 7772SOL    HW134952   0.799   1.857   3.565  0.5104 -1.7931 -1.2217
 7772SOL    HW234953   0.847   1.841   3.702  1.9183 -3.6835 -1.6258
 7773SOL     OW34954   2.450   4.303  16.118  0.1446  0.6486 -0.4493
 7773SOL    HW134955   2.528   4.270  16.074  2.0369  2.7055  1.3338
 7773SOL    HW234956   2.391   4.230  16.132 -0.3774  1.1804  0.1512
 7774SOL     OW34957   0.256   0.039   2.554 -0.1138  0.1464 -0.1898
 7774SOL    HW134958   0.280   0.087   2.633 -1.2726  0.2153  0.1188
 7774SOL    HW234959   0.174   0.000   2.585  0.9647 -1.8527  0.1776
 7775SOL     OW34960   0.184   0.387  11.313  0.3216  0.2273 -0.0593
 7775SOL    HW134961   0.151   0.321  11.375  0.7996 -1.5686 -1.7149
 7775SOL    HW234962   0.260   0.358  11.262 -0.1074  0.5173 -0.8491
 7776SOL     OW34963   1.152   1.100   4.134 -0.0262  0.1153  0.1994
 7776SOL    HW134964   1.125   1.008   4.134 -1.3957  0.5216  1.2310
 7776SOL    HW234965   1.119   1.126   4.048 -0.2663  1.1557  0.6084
 7777SOL     OW34966   3.041   0.250   1.296 -0.0201  0.5386 -0.5464
 7777SOL    HW134967   2.989   0.316   1.342 -1.1835 -0.3840 -0.5204
 7777SOL    HW234968   3.024   0.280   1.207 -4.2131  0.9831  0.4031
 7778SOL     OW34969   1.779   3.021   9.904 -0.3805 -0.3632  0.0558
 7778SOL    HW134970   1.868   2.996   9.930  0.2909  3.3769  1.4851
 7778SOL    HW234971   1.805   3.075   9.829 -0.1564 -1.5308 -0.7075
 7779SOL     OW34972   1.148   4.313   9.824 -0.0456  0.7945 -0.4995
 7779SOL    HW134973   1.143   4.400   9.863 -1.6598  1.0679 -1.3050
 7779SOL    HW234974   1.237   4.307   9.790  0.6926  1.3626  1.3311
 7780SOL     OW34975   0.919   2.116   0.787  0.6218  0.1888 -0.3336
 7780SOL    HW134976   0.837   2.116   0.739  0.1776  1.8084  0.4282
 7780SOL    HW234977   0.959   2.031   0.767  0.0955 -0.2169  0.3101
 7781SOL     OW34978   1.345   0.400   3.273 -0.1197  0.6424  0.0291
 7781SOL    HW134979   1.339   0.324   3.331  1.8971 -0.8142 -1.6548
 7781SOL    HW234980   1.350   0.352   3.191  0.5368 -0.7057  0.8561
 7782SOL     OW34981   3.816   2.893   4.330 -0.4888  0.2321 -0.7943
 7782SOL    HW134982   3.893   2.837   4.323 -1.9761 -1.8897 -0.0785
 7782SOL    HW234983   3.764   2.852   4.399  0.1096  3.0092  1.3346
 7783SOL     OW34984   2.171   3.428  16.766  0.3114 -0.3351  0.2739
 7783SOL    HW134985   2.092   3.398  16.810 -1.9666  2.0797 -2.1349
 7783SOL    HW234986   2.161   3.523  16.779 -2.7203 -0.2745 -2.4692
 7784SOL     OW34987   4.438   2.402   7.142  0.5977  0.1974 -0.3446
 7784SOL    HW134988   4.514   2.444   7.181 -0.4951  0.7663  1.1579
 7784SOL    HW234989   4.436   2.468   7.071  0.9756 -0.3020 -0.8200
 7785SOL     OW34990   0.502   3.639   3.782  0.2776  0.6971 -0.8082
 7785SOL    HW134991   0.555   3.694   3.840  0.7081 -1.1650  0.5526
 7785SOL    HW234992   0.476   3.701   3.714  1.3587  2.9733  0.8637
 7786SOL     OW34993   4.197   2.793   1.536  0.0444  0.0338  0.5881
 7786SOL    HW134994   4.121   2.742   1.566 -1.3535  3.0646  2.1456
 7786SOL    HW234995   4.167   2.811   1.447 -3.5898  0.5967  1.9208
 7787SOL     OW34996   0.337   4.659  12.353  0.0578 -0.2183 -0.2494
 7787SOL    HW134997   0.331   4.636  12.445  1.1913 -0.6179 -0.2815
 7787SOL    HW234998   0.415   4.715  12.353 -1.3045  1.6880 -0.1534
 7788SOL     OW34999   3.042   2.984   7.453 -0.0264 -0.8315 -0.0853
 7788SOL    HW135000   3.022   2.892   7.471  1.8960 -0.9320  1.4286
 7788SOL    HW235001   3.043   2.992   7.357 -2.6828  2.6323  0.1896
 7789SOL     OW35002   1.322   0.782   4.325 -0.5549 -0.1005 -0.0943
 7789SOL    HW135003   1.354   0.868   4.296  0.0396 -0.2862  0.0135
 7789SOL    HW235004   1.398   0.752   4.374 -0.6680 -0.8262 -0.3680
 7790SOL     OW35005   2.047   1.137   4.965  0.3647  0.6179  0.9593
 7790SOL    HW135006   1.963   1.144   5.010 -1.2303  0.2559 -1.9892
 7790SOL    HW235007   2.091   1.080   5.027  1.1011  0.6304  0.4574
 7791SOL     OW35008   1.423   2.591   4.926 -0.6008  0.3970  0.2801
 7791SOL    HW135009   1.494   2.655   4.935 -0.0009 -0.6606  2.9715
 7791SOL    HW235010   1.387   2.623   4.843 -1.6159  0.3346  0.7062
 7792SOL     OW35011   3.487   2.600  15.561  0.9336  0.3488  0.1007
 7792SOL    HW135012   3.514   2.663  15.628  0.0668  0.7608  0.0593
 7792SOL    HW235013   3.426   2.552  15.617 -1.0621  0.3024 -2.1371
 7793SOL     OW35014   3.439   3.704  12.236 -0.2746 -0.7502  0.3697
 7793SOL    HW135015   3.398   3.778  12.190  0.1490  0.7398  2.3967
 7793SOL    HW235016   3.527   3.712  12.200 -1.4077  0.9449 -2.0420
 7794SOL     OW35017   4.182   3.732   2.427 -0.4410  0.3850  0.3793
 7794SOL    HW135018   4.159   3.675   2.500  0.3815  0.8699  1.0059
 7794SOL    HW235019   4.269   3.754   2.460  0.2075  0.3633 -1.2956
 7795SOL     OW35020   1.460   0.575   4.479  0.0092 -0.1719 -0.1484
 7795SOL    HW135021   1.487   0.511   4.544  1.7654  0.2170 -0.4962
 7795SOL    HW235022   1.372   0.540   4.471 -0.2537  0.6415 -0.9232
 7796SOL     OW35023   0.963   3.217  13.294  0.0139  0.0918 -0.2568
 7796SOL    HW135024   0.881   3.174  13.317  0.7955 -0.2592  1.8614
 7796SOL    HW235025   1.009   3.224  13.378 -2.5333 -1.6514  1.2864
 7797SOL     OW35026   1.875   1.489   6.022  0.4957  0.0176 -0.0863
 7797SOL    HW135027   1.848   1.559   5.962  0.0500 -1.9106 -2.1284
 7797SOL    HW235028   1.787   1.467   6.052  0.1809  0.0020 -1.0078
 7798SOL     OW35029   0.407   1.370  14.883  0.5361 -0.4893  0.4900
 7798SOL    HW135030   0.339   1.320  14.838 -0.8052  0.5923  1.3077
 7798SOL    HW235031   0.478   1.310  14.860 -0.0407 -0.8165 -0.4281
 7799SOL     OW35032   0.073   2.311   4.841  0.1283 -0.3406 -0.0042
 7799SOL    HW135033   0.026   2.342   4.764  0.8590  1.3112  0.2003
 7799SOL    HW235034   0.056   2.218   4.828 -2.3939  0.3719 -1.6947
 7800SOL     OW35035   0.811   0.739   7.384 -0.6685 -0.4433 -0.6313
 7800SOL    HW135036   0.742   0.715   7.322  2.0775 -4.7467 -2.0600
 7800SOL    HW235037   0.864   0.660   7.373  0.1408  0.0982 -0.6685
 7801SOL     OW35038   1.819   2.056   4.383 -0.1737 -0.1913  0.4065
 7801SOL    HW135039   1.909   2.042   4.414  0.1146 -1.4003 -0.9629
 7801SOL    HW235040   1.823   2.149   4.406  2.0607 -0.6781  1.9830
 7802SOL     OW35041   2.653   3.612  12.585 -0.2982  0.7800 -0.1996
 7802SOL    HW135042   2.733   3.650  12.620 -0.9139  2.1750 -0.2992
 7802SOL    HW235043   2.678   3.554  12.514 -1.9738  0.2001 -0.3152
 7803SOL     OW35044   3.465   0.374  14.409  0.6647  0.0446 -0.0070
 7803SOL    HW135045   3.371   0.369  14.397  0.6221 -2.3890  1.1840
 7803SOL    HW235046   3.468   0.410  14.498 -1.6157  2.4443 -0.9256
 7804SOL     OW35047   2.260   2.359   3.326  0.2965 -0.4347  0.3183
 7804SOL    HW135048   2.200   2.325   3.260  2.4100 -2.1109 -0.7282
 7804SOL    HW235049   2.244   2.306   3.405 -2.3127  0.5205  0.4292
 7805SOL     OW35050   0.054   1.473   6.720 -0.0002  0.1264 -0.5197
 7805SOL    HW135051   0.094   1.541   6.665  1.6468  0.2581  0.8754
 7805SOL    HW235052   0.039   1.523   6.800 -0.4563 -1.7012  0.5179
 7806SOL     OW35053   3.662   2.206   5.409  0.3210  0.0306  0.4365
 7806SOL    HW135054   3.606   2.129   5.416  3.1142 -2.2825 -2.5630
 7806SOL    HW235055   3.629   2.269   5.473 -0.2717 -0.4386  0.5890
 7807SOL     OW35056   3.046   2.049  14.257  0.0938  0.5417  0.1744
 7807SOL    HW135057   3.028   2.093  14.174  0.3133  1.5438  0.6646
 7807SOL    HW235058   3.136   2.016  14.250 -0.6737 -1.4229 -0.3332
 7808SOL     OW35059   1.188   2.424   5.689  0.6688 -0.3560  0.3135
 7808SOL    HW135060   1.196   2.341   5.736  3.4742 -0.7810 -0.8886
 7808SOL    HW235061   1.240   2.408   5.610  0.5068  1.4987 -0.1711
 7809SOL     OW35062   0.866   3.366  16.449  0.9554 -0.6085  0.2509
 7809SOL    HW135063   0.875   3.328  16.536  0.2868 -0.5993  0.3287
 7809SOL    HW235064   0.833   3.452  16.475 -0.5429 -0.7201 -1.2486
 7810SOL     OW35065   3.373   0.172   1.885  0.6240  0.2422 -0.6330
 7810SOL    HW135066   3.397   0.167   1.978 -0.6121 -1.2118 -0.3993
 7810SOL    HW235067   3.278   0.161   1.880  0.6557  0.4827 -1.6655
 7811SOL     OW35068   2.246   2.740   6.988 -0.3863 -0.2222 -0.1048
 7811SOL    HW135069   2.335   2.712   7.011  0.2213  1.7003 -0.0437
 7811SOL    HW235070   2.250   2.836   6.987  0.5435 -0.2601 -0.4014
 7812SOL     OW35071   4.050   4.157  12.446  0.2435  0.0941  0.3044
 7812SOL    HW135072   3.962   4.138  12.415  0.1153  1.8728 -0.3758
 7812SOL    HW235073   4.105   4.097  12.396 -3.0149 -2.3422 -0.3241
 7813SOL     OW35074   0.035   2.704   0.551 -0.4863 -0.0012  0.1773
 7813SOL    HW135075   4.676   2.711   0.555 -0.6065 -0.8743 -0.9918
 7813SOL    HW235076   0.037   2.627   0.493  1.6211 -0.0740  0.3418
 7814SOL     OW35077   0.075   4.497   7.528  0.1461 -0.0482 -0.4880
 7814SOL    HW135078   0.081   4.564   7.596  0.0166  0.0314 -0.5565
 7814SOL    HW235079   0.101   4.417   7.574 -1.8045  0.9474  2.3662
 7815SOL     OW35080   0.690   0.499   3.030 -0.2474  0.9787 -0.0471
 7815SOL    HW135081   0.685   0.482   2.936  0.6942 -0.2037  0.1209
 7815SOL    HW235082   0.718   0.590   3.032  2.3452  0.1461  1.7693
 7816SOL     OW35083   2.303   2.894  11.127  0.0129  0.1622 -0.3103
 7816SOL    HW135084   2.239   2.958  11.159  0.4114  0.7070 -0.6026
 7816SOL    HW235085   2.373   2.960  11.124  0.5173 -0.3978 -0.6809
 7817SOL     OW35086   1.494   3.501   5.886  0.3373  0.1746 -0.0002
 7817SOL    HW135087   1.525   3.422   5.843  1.4523  1.7334 -2.0818
 7817SOL    HW235088   1.485   3.566   5.816 -1.5321  1.5384  1.5141
 7818SOL     OW35089   3.040   4.018   4.421 -0.7074  0.5458  0.6584
 7818SOL    HW135090   3.005   4.107   4.409  1.7951  1.3925 -0.2976
 7818SOL    HW235091   3.124   4.042   4.460  0.1848 -0.1611 -0.8505
 7819SOL     OW35092   3.764   2.429  17.270 -0.4203 -0.2474  0.6080
 7819SOL    HW135093   3.854   2.400  17.254 -0.0950  2.0157 -1.5803
 7819SOL    HW235094   3.725   2.405  17.186 -1.9177 -0.9312  1.4991
 7820SOL     OW35095   0.600   3.099   6.596 -0.1308  0.0498 -0.0763
 7820SOL    HW135096   0.650   3.023   6.626 -0.9777  0.6264  2.7462
 7820SOL    HW235097   0.640   3.171   6.644  1.5060 -0.9638  0.0907
 7821SOL     OW35098   0.929   4.144  13.447 -0.0502  0.5538  0.0633
 7821SOL    HW135099   0.836   4.142  13.421 -0.5793  0.8933  1.9669
 7821SOL    HW235100   0.970   4.077  13.392 -0.4505  0.8318 -0.5817
 7822SOL     OW35101   3.793   2.786   4.598 -0.1521 -0.2688  0.6517
 7822SOL    HW135102   3.713   2.838   4.596  1.0937  1.7130  2.2124
 7822SOL    HW235103   3.775   2.745   4.683 -2.2825 -1.6910 -0.4725
 7823SOL     OW35104   0.371   1.756   1.552  0.5211 -0.2691  0.2921
 7823SOL    HW135105   0.405   1.693   1.488 -0.7750 -0.8580  0.1854
 7823SOL    HW235106   0.300   1.710   1.597 -0.3125  0.9910  0.2531
 7824SOL     OW35107   3.245   0.464   8.816 -0.0269  0.2401 -0.4285
 7824SOL    HW135108   3.209   0.473   8.904  1.7281  2.3211  0.0764
 7824SOL    HW235109   3.171   0.485   8.759  0.2019  0.7197 -0.5542
 7825SOL     OW35110   1.707   1.647   5.834  0.6643 -0.7194  0.5781
 7825SOL    HW135111   1.796   1.656   5.798 -0.3558  0.5438 -1.5782
 7825SOL    HW235112   1.692   1.730   5.879  2.8420  0.0989 -0.1695
 7826SOL     OW35113   2.079   1.411   4.519 -0.7985 -0.0489  0.6071
 7826SOL    HW135114   2.055   1.372   4.603 -0.8030  0.6735  0.9393
 7826SOL    HW235115   2.172   1.428   4.534 -1.1028 -0.2629  2.8290
 7827SOL     OW35116   0.098   3.201  16.916 -0.6952  0.5358  0.3811
 7827SOL    HW135117   0.039   3.177  16.988  0.9796 -0.2141  1.4987
 7827SOL    HW235118   0.041   3.180  16.842 -1.9552 -0.8166  1.7256
 7828SOL     OW35119   0.413   3.557   6.353 -0.3129  0.9552  0.1583
 7828SOL    HW135120   0.431   3.479   6.300 -1.5950  0.1286  0.9486
 7828SOL    HW235121   0.410   3.521   6.442 -3.2821 -1.1173 -0.7880
 7829SOL     OW35122   3.453   3.938  15.920 -0.0076 -0.3714 -0.0894
 7829SOL    HW135123   3.385   3.871  15.930  1.2901 -1.5718  0.6252
 7829SOL    HW235124   3.419   3.992  15.848 -0.2969 -1.2658 -0.6171
 7830SOL     OW35125   4.588   0.551   7.081 -0.2994  0.5167  0.6008
 7830SOL    HW135126   4.574   0.600   7.000  0.2797  1.3198  0.9865
 7830SOL    HW235127   4.562   0.464   7.050  1.8035  0.3415 -0.6971
 7831SOL     OW35128   2.258   3.442   1.105  0.3547  0.0276  0.5445
 7831SOL    HW135129   2.229   3.515   1.051 -1.0791 -0.7081  0.3207
 7831SOL    HW235130   2.287   3.383   1.035  0.1579 -0.3572  0.7882
 7832SOL     OW35131   4.330   2.600   4.886 -0.7149  0.3926  0.0560
 7832SOL    HW135132   4.277   2.629   4.811 -1.0608 -2.1543 -0.7080
 7832SOL    HW235133   4.399   2.543   4.850  0.4627  0.6175  1.9731
 7833SOL     OW35134   3.795   1.406   3.906 -0.2156  0.0558 -0.5271
 7833SOL    HW135135   3.710   1.424   3.947 -0.7205 -1.6660 -0.8163
 7833SOL    HW235136   3.775   1.389   3.814  0.8190  0.5108 -0.8310
 7834SOL     OW35137   1.848   1.633   6.998  0.6911  0.4966 -0.2219
 7834SOL    HW135138   1.874   1.687   6.923  0.6618 -0.1823 -0.7175
 7834SOL    HW235139   1.938   1.632   7.032  1.4317 -0.4314 -2.2006
 7835SOL     OW35140   1.532   0.017   2.308 -0.1111 -0.4280  0.1004
 7835SOL    HW135141   1.611   4.714   2.271  0.9344  2.3567 -0.6584
 7835SOL    HW235142   1.462   0.009   2.243  1.0969 -1.7447 -1.0225
 7836SOL     OW35143   1.029   0.722   3.246 -0.4759 -0.1205  0.2067
 7836SOL    HW135144   0.971   0.648   3.262 -0.1886 -0.7281 -1.5714
 7836SOL    HW235145   0.962   0.787   3.229 -1.5735 -0.3296  3.8122
 7837SOL     OW35146   3.348   1.037   5.321 -0.5581  0.0964  0.1755
 7837SOL    HW135147   3.316   1.029   5.411 -2.2444  1.1108 -0.3364
 7837SOL    HW235148   3.415   0.969   5.314  0.0348  0.6568  0.3577
 7838SOL     OW35149   1.606   2.369   8.095 -0.3143 -0.2584 -0.0243
 7838SOL    HW135150   1.547   2.303   8.058  0.8165 -1.1544 -0.2432
 7838SOL    HW235151   1.547   2.417   8.152 -1.0471 -0.8630 -0.2823
 7839SOL     OW35152   0.710   1.861  11.051  0.7579  0.1629 -0.4927
 7839SOL    HW135153   0.789   1.859  10.997  1.4797 -1.9824  0.6753
 7839SOL    HW235154   0.731   1.927  11.117  1.0810 -0.9304  0.4767
 7840SOL     OW35155   0.964   3.397   5.277  0.2125  0.1545 -0.3664
 7840SOL    HW135156   1.030   3.458   5.310 -2.3327  2.4834  0.4844
 7840SOL    HW235157   0.918   3.392   5.360  0.9334  2.3640  0.1724
 7841SOL     OW35158   3.187   3.631  11.555 -0.0292  0.2220 -0.4890
 7841SOL    HW135159   3.109   3.678  11.527  0.5196  0.1126 -2.1499
 7841SOL    HW235160   3.236   3.601  11.478  1.2797  0.3344  0.2849
 7842SOL     OW35161   1.748   0.492   2.428 -0.2684 -0.3480  0.0676
 7842SOL    HW135162   1.696   0.558   2.383  0.5492  1.5077  1.8530
 7842SOL    HW235163   1.784   0.535   2.505 -1.7941  3.0684 -1.1551
 7843SOL     OW35164   0.624   4.238   4.563  0.7370  0.2162 -0.1565
 7843SOL    HW135165   0.550   4.221   4.622 -0.0549 -1.5470 -1.6621
 7843SOL    HW235166   0.601   4.196   4.480  2.4166 -1.6240  0.3066
 7844SOL     OW35167   3.248   2.948   3.171  0.1366 -0.6279 -0.8596
 7844SOL    HW135168   3.308   2.955   3.097  0.0626  0.1175 -0.8504
 7844SOL    HW235169   3.192   2.874   3.147  0.0948 -1.7677  2.7219
 7845SOL     OW35170   0.066   0.792   5.624  0.1802  0.4890  0.0198
 7845SOL    HW135171   0.015   0.873   5.637 -0.1730  0.6062 -2.0625
 7845SOL    HW235172   0.140   0.829   5.672  1.2524 -1.7904  0.1015
 7846SOL     OW35173   0.347   1.337  10.662 -0.1176  0.3058  0.2100
 7846SOL    HW135174   0.291   1.396  10.712  0.5834  1.7502 -0.7083
 7846SOL    HW235175   0.384   1.407  10.608  0.7752 -0.1240  0.2603
 7847SOL     OW35176   2.832   0.704  14.676  0.1927 -0.4288  0.1059
 7847SOL    HW135177   2.898   0.640  14.702 -1.2056 -1.6855  0.5784
 7847SOL    HW235178   2.766   0.650  14.633 -1.5301  0.9698  1.0120
 7848SOL     OW35179   2.524   2.412  11.117 -0.2829 -0.7075 -0.2641
 7848SOL    HW135180   2.529   2.435  11.025  2.5175  0.3698  0.1633
 7848SOL    HW235181   2.431   2.425  11.137 -0.3031 -0.6092 -0.4277
 7849SOL     OW35182   1.692   1.919   5.909  0.1341 -0.0426 -0.9066
 7849SOL    HW135183   1.698   1.991   5.972  2.4864 -1.3544  0.3537
 7849SOL    HW235184   1.761   1.957   5.856  0.0065 -0.8279 -1.6261
 7850SOL     OW35185   2.206   2.692   8.427  0.3487  0.3316 -0.2162
 7850SOL    HW135186   2.202   2.783   8.398 -0.1753  0.0238 -1.1154
 7850SOL    HW235187   2.161   2.703   8.511  0.4682 -1.4435  0.0721
 7851SOL     OW35188   0.627   3.793   2.407  0.2808  0.4190  0.2606
 7851SOL    HW135189   0.560   3.725   2.403 -0.0646  0.7589  0.2933
 7851SOL    HW235190   0.705   3.740   2.393  0.2780  0.4888 -0.0087
 7852SOL     OW35191   2.351   2.404   2.619  0.3766 -0.4138 -0.1106
 7852SOL    HW135192   2.399   2.476   2.659  0.8937 -1.0174  0.3604
 7852SOL    HW235193   2.347   2.353   2.700 -0.2164 -0.9928 -0.5020
 7853SOL     OW35194   4.471   1.286   4.591  0.5730  0.2130  0.1317
 7853SOL    HW135195   4.548   1.241   4.626  0.6264 -0.3179 -0.6836
 7853SOL    HW235196   4.424   1.212   4.551  1.4098 -0.7466  0.9277
 7854SOL     OW35197   1.341   4.083  10.510 -0.1424  0.3093  0.7402
 7854SOL    HW135198   1.318   4.019  10.577 -3.2302  1.4073  0.7312
 7854SOL    HW235199   1.254   4.077  10.472  0.1308  1.5656 -0.1086
 7855SOL     OW35200   0.798   0.936   4.926 -0.1635 -0.0198  0.7338
 7855SOL    HW135201   0.742   0.973   4.857 -0.0023  1.1875  1.2595
 7855SOL    HW235202   0.774   0.844   4.918  2.5573 -0.4756 -2.4596
 7856SOL     OW35203   2.866   0.677   3.876 -0.0826 -0.8564  0.2910
 7856SOL    HW135204   2.873   0.691   3.970 -0.3021  0.1224  0.1599
 7856SOL    HW235205   2.833   0.587   3.871 -0.6591 -0.6908  1.0754
 7857SOL     OW35206   4.164   1.289   3.679 -0.0917  0.0671  0.7362
 7857SOL    HW135207   4.243   1.338   3.700  0.7500 -0.2651 -1.7036
 7857SOL    HW235208   4.174   1.266   3.587  0.7427 -0.4235  0.9406
 7858SOL     OW35209   2.559   1.816  14.108  0.0879 -0.1068  0.0715
 7858SOL    HW135210   2.654   1.815  14.097 -0.1863  1.1854 -2.3411
 7858SOL    HW235211   2.547   1.886  14.044  2.8971 -0.2574 -0.6123
 7859SOL     OW35212   1.279   0.352   4.270  0.2847 -0.3306 -0.1262
 7859SOL    HW135213   1.205   0.356   4.330  1.1394  0.2136  0.9127
 7859SOL    HW235214   1.266   0.263   4.237 -0.9551  0.4006 -1.5322
 7860SOL     OW35215   1.556   1.570  12.111 -0.1606 -0.0069 -0.2202
 7860SOL    HW135216   1.463   1.589  12.098 -0.9163 -1.5845  3.0574
 7860SOL    HW235217   1.597   1.651  12.079  0.6895  0.5343  2.2528
 7861SOL     OW35218   3.664   2.436  11.441 -0.5065 -0.4325 -0.1085
 7861SOL    HW135219   3.710   2.353  11.427  1.6250  0.3994  2.0739
 7861SOL    HW235220   3.609   2.423  11.518 -0.8272 -0.4256 -0.3364
 7862SOL     OW35221   2.858   1.879  12.625  0.2597  0.2995 -0.1482
 7862SOL    HW135222   2.825   1.829  12.550  0.9418 -0.6445  0.1711
 7862SOL    HW235223   2.947   1.901  12.599  0.2501  0.4118 -0.0862
 7863SOL     OW35224   0.001   0.204   5.758 -0.5442  0.2083 -0.0714
 7863SOL    HW135225   4.648   0.187   5.787 -1.0197  3.3225  0.2854
 7863SOL    HW235226   0.024   0.139   5.691 -0.3593  2.3081 -2.0443
 7864SOL     OW35227   3.932   1.028   6.624 -0.9325 -0.3122 -0.1802
 7864SOL    HW135228   4.022   1.002   6.639 -0.8725 -1.9350 -3.5044
 7864SOL    HW235229   3.905   0.944   6.588  1.3783 -1.3376  0.5143
 7865SOL     OW35230   4.478   4.164   6.590  0.2824 -0.5225  0.1988
 7865SOL    HW135231   4.533   4.180   6.666 -0.6111 -1.7740  1.1176
 7865SOL    HW235232   4.426   4.090   6.623  1.8600 -1.6306  0.1676
 7866SOL     OW35233   1.753   4.077   7.280 -0.1195 -0.1920 -0.1898
 7866SOL    HW135234   1.736   4.001   7.336  0.8372 -0.5069 -0.3210
 7866SOL    HW235235   1.706   4.152   7.318  1.1920  0.7485 -0.4183
 7867SOL     OW35236   4.445   1.830   6.650  0.0643  0.5607  0.5947
 7867SOL    HW135237   4.525   1.861   6.692 -0.0054  1.3735  0.1287
 7867SOL    HW235238   4.481   1.791   6.571  1.7095  2.6360  0.3347
 7868SOL     OW35239   1.610   3.432   8.980 -0.0707  0.3826  0.0130
 7868SOL    HW135240   1.548   3.360   8.967  1.2597 -0.5317 -1.2296
 7868SOL    HW235241   1.692   3.387   8.960  0.2450  1.4434 -1.0036
 7869SOL     OW35242   0.886   3.513   7.192  0.2456  0.0356  0.3300
 7869SOL    HW135243   0.904   3.421   7.176  0.1143 -0.0841  0.8907
 7869SOL    HW235244   0.791   3.514   7.206  0.1754 -1.0884 -0.1058
 7870SOL     OW35245   1.143   1.799  12.865 -0.1890  0.1390  0.0626
 7870SOL    HW135246   1.223   1.796  12.918 -0.7588 -0.9093  0.8620
 7870SOL    HW235247   1.148   1.726  12.804 -0.5338  1.4962 -1.5906
 7871SOL     OW35248   3.918   4.465   2.332  0.5715  0.7116 -0.4158
 7871SOL    HW135249   3.922   4.428   2.421  0.7458  1.0186 -0.2948
 7871SOL    HW235250   3.831   4.505   2.335 -0.4914 -1.8196  2.9183
 7872SOL     OW35251   0.956   2.143   3.965  0.5946 -0.2110  0.2946
 7872SOL    HW135252   0.875   2.092   3.959  0.5642 -0.2022  0.6486
 7872SOL    HW235253   0.974   2.125   4.057  1.0191 -1.7857 -0.0933
 7873SOL     OW35254   4.619   3.417  17.707 -0.2166 -0.2861  0.0996
 7873SOL    HW135255   4.548   3.393   0.022  1.2649 -1.5419  1.3353
 7873SOL    HW235256   4.570   3.472  17.645  1.5718 -0.4886 -1.4853
 7874SOL     OW35257   3.018   2.117   2.869  0.2798  0.2649 -0.5311
 7874SOL    HW135258   3.058   2.078   2.947  3.4172 -0.2769 -2.4205
 7874SOL    HW235259   3.038   2.210   2.875 -0.0316  0.4241 -2.1653
 7875SOL     OW35260   2.807   3.646   7.642  0.0264 -0.3813 -0.0610
 7875SOL    HW135261   2.769   3.562   7.669 -2.6283  0.2392 -1.8685
 7875SOL    HW235262   2.866   3.617   7.572  0.4840  0.7607 -0.1525
 7876SOL     OW35263   1.097   4.711   5.432 -0.4372 -0.2759 -0.3709
 7876SOL    HW135264   1.047   4.678   5.357 -2.1596  0.6888  0.3438
 7876SOL    HW235265   1.183   4.675   5.413 -0.6103 -1.4923  1.1497
 7877SOL     OW35266   1.152   0.039   8.043 -0.2788 -0.4168 -0.0342
 7877SOL    HW135267   1.128   0.069   7.955 -1.1760  1.1440  0.7445
 7877SOL    HW235268   1.083   4.709   8.047 -0.8429  0.2951  2.1175
 7878SOL     OW35269   3.605   2.387   9.970  0.4634 -0.0933  0.5774
 7878SOL    HW135270   3.696   2.386   9.942  0.5039 -0.5330  0.7349
 7878SOL    HW235271   3.576   2.389   9.879  0.6328 -0.7776  0.5140
 7879SOL     OW35272   3.688   0.973   2.788  0.1486 -0.0095  0.2172
 7879SOL    HW135273   3.603   0.974   2.744  1.3314  0.1335 -2.0535
 7879SOL    HW235274   3.673   1.010   2.875 -2.1304  2.6138 -1.3337
 7880SOL     OW35275   4.339   0.461   3.995  0.4482  0.4895 -0.3679
 7880SOL    HW135276   4.267   0.506   3.949  0.5056  1.0526  0.0929
 7880SOL    HW235277   4.303   0.373   4.002  1.9452 -0.0773  0.1399
 7881SOL     OW35278   2.756   3.596   6.506 -0.1424 -0.2273 -0.0983
 7881SOL    HW135279   2.818   3.661   6.472 -0.4916 -0.4239 -1.0840
 7881SOL    HW235280   2.736   3.648   6.585 -0.0554  0.1276 -0.3093
 7882SOL     OW35281   2.186   0.761  17.032 -0.2306 -0.4796 -0.0926
 7882SOL    HW135282   2.175   0.676  17.076  1.3233 -0.0674  1.0868
 7882SOL    HW235283   2.151   0.831  17.087 -2.0212  1.8109 -4.1444
 7883SOL     OW35284   2.018   0.494   4.355  0.0717 -0.2877  0.6115
 7883SOL    HW135285   2.101   0.538   4.335  0.2813 -0.2239  1.6001
 7883SOL    HW235286   1.978   0.554   4.418  1.7216 -0.7365  2.1129
 7884SOL     OW35287   0.716   0.351   3.463 -0.6083 -0.3494 -0.0177
 7884SOL    HW135288   0.693   0.259   3.453  0.0235 -0.8476  3.0368
 7884SOL    HW235289   0.728   0.353   3.558  0.7116  0.2418 -0.1937
 7885SOL     OW35290   2.918   4.304   6.072 -0.2293 -0.1755 -0.4389
 7885SOL    HW135291   2.849   4.286   6.008 -2.1997  1.0984  1.3282
 7885SOL    HW235292   2.986   4.321   6.007  1.1948  2.1236  1.6533
 7886SOL     OW35293   2.330   1.376   2.420  0.0972  0.5439 -0.2794
 7886SOL    HW135294   2.362   1.323   2.347 -1.8612 -1.3834  0.2747
 7886SOL    HW235295   2.332   1.312   2.491  0.0209  2.3579  1.3669
 7887SOL     OW35296   1.428   3.712   2.199 -1.3245 -0.3615 -0.4943
 7887SOL    HW135297   1.336   3.687   2.209 -0.8926 -1.7548  0.0565
 7887SOL    HW235298   1.426   3.794   2.150 -0.9201 -0.8835 -1.3852
 7888SOL     OW35299   1.634   1.576  17.049 -0.4556 -0.7706  0.2642
 7888SOL    HW135300   1.579   1.544  17.121 -1.7539  0.1402 -0.3311
 7888SOL    HW235301   1.567   1.573  16.982  1.4585  0.4908 -1.7053
 7889SOL     OW35302   0.235   2.411   6.200  0.3017  0.1652  0.3748
 7889SOL    HW135303   0.222   2.331   6.149 -0.9441  1.5560 -1.4909
 7889SOL    HW235304   0.154   2.411   6.250  0.0733  0.5065  0.0042
 7890SOL     OW35305   1.961   2.432   4.928  0.0403 -0.1170  0.6964
 7890SOL    HW135306   1.895   2.502   4.925 -0.2504 -0.3742  1.1812
 7890SOL    HW235307   2.012   2.464   5.002 -2.9705  2.1233  1.8081
 7891SOL     OW35308   0.438   2.089   4.541  0.1910  0.9055  0.5394
 7891SOL    HW135309   0.498   2.164   4.534 -1.5654  2.1781 -0.7290
 7891SOL    HW235310   0.358   2.110   4.493 -0.4344  0.6856  1.5015
 7892SOL     OW35311   4.353   0.332   0.015 -0.3374 -0.0983  0.4351
 7892SOL    HW135312   4.389   0.413  17.724  2.4654 -0.5244  2.2542
 7892SOL    HW235313   4.372   0.268  17.691  1.9004 -0.2228  1.1639
 7893SOL     OW35314   1.863   2.351   3.538  0.2677  0.4458 -0.0463
 7893SOL    HW135315   1.889   2.442   3.527  0.2431  0.3307 -0.9922
 7893SOL    HW235316   1.822   2.353   3.625  0.3741 -0.2737  0.0183
 7894SOL     OW35317   4.594   3.726  12.806  0.2848 -0.3254 -0.4816
 7894SOL    HW135318   4.578   3.773  12.888  0.2649 -1.0388 -0.0809
 7894SOL    HW235319   4.644   3.651  12.837  0.5914  0.6547  1.3828
 7895SOL     OW35320   0.342   0.967   4.037 -0.7157  0.2931  0.3822
 7895SOL    HW135321   0.426   0.945   3.998  0.7509 -0.7741  4.2450
 7895SOL    HW235322   0.320   0.883   4.077 -0.0234  0.6196  1.4261
 7896SOL     OW35323   3.920   3.687  12.226  0.0891  0.1103 -0.3277
 7896SOL    HW135324   3.869   3.607  12.213  1.0803 -0.5665  0.0156
 7896SOL    HW235325   3.996   3.680  12.169  0.6534 -1.3807  0.6044
 7897SOL     OW35326   3.977   4.562   7.038  0.2280  0.2794  0.1894
 7897SOL    HW135327   3.984   4.480   7.087 -3.0555  0.7037  1.3231
 7897SOL    HW235328   4.000   4.626   7.107 -0.4534 -0.8987  1.5033
 7898SOL     OW35329   2.984   2.327   7.170 -0.1664  0.5419  0.4732
 7898SOL    HW135330   3.064   2.286   7.202 -0.6131 -0.7168 -0.0071
 7898SOL    HW235331   3.009   2.348   7.080 -0.0493  0.8056  0.5684
 7899SOL     OW35332   3.570   1.741   7.042  0.0777 -0.0570 -0.9367
 7899SOL    HW135333   3.491   1.687   7.042  0.5562 -0.7685 -1.4461
 7899SOL    HW235334   3.577   1.774   7.131  2.4394 -1.1919 -0.7143
 7900SOL     OW35335   3.031   2.591   0.669  0.0196  0.2348 -0.1458
 7900SOL    HW135336   3.055   2.502   0.695  0.2001  0.3431  0.0651
 7900SOL    HW235337   3.076   2.596   0.585 -0.0493  0.9571 -0.1349
 7901SOL     OW35338   2.213   1.781   5.801  0.3071  0.6118  0.4388
 7901SOL    HW135339   2.220   1.876   5.815  1.7564  0.1598  2.8249
 7901SOL    HW235340   2.291   1.773   5.745 -0.2055 -2.2626  0.1485
 7902SOL     OW35341   2.176   1.896   3.034  0.2358 -0.1588  0.0213
 7902SOL    HW135342   2.211   1.838   2.966  2.7833  1.1631  0.2213
 7902SOL    HW235343   2.240   1.967   3.025  1.0355 -0.9193 -0.2634
 7903SOL     OW35344   0.450   0.850   9.251  0.0287 -0.4670  0.0275
 7903SOL    HW135345   0.363   0.888   9.259 -0.5375 -1.8118  0.2784
 7903SOL    HW235346   0.469   0.837   9.158 -1.1113  2.0620 -0.5522
 7904SOL     OW35347   0.925   1.704   9.276 -0.0531 -0.1019  0.2294
 7904SOL    HW135348   0.899   1.708   9.368  0.2245 -3.2369  0.4454
 7904SOL    HW235349   1.018   1.679   9.277  0.5845  2.2751  0.0850
 7905SOL     OW35350   3.350   3.304   0.071  0.3771  0.1081 -0.4217
 7905SOL    HW135351   3.301   3.335   0.148 -1.1977  2.7767 -2.5117
 7905SOL    HW235352   3.314   3.217   0.059 -0.9432  0.5472  0.3710
 7906SOL     OW35353   2.148   4.325   7.045 -0.0553  0.0698 -0.4462
 7906SOL    HW135354   2.088   4.293   7.112 -2.2447 -0.7207 -2.8050
 7906SOL    HW235355   2.097   4.302   6.968 -2.0771 -4.0971  2.1224
 7907SOL     OW35356   2.923   4.523   8.076  0.0697 -0.6153  0.5052
 7907SOL    HW135357   2.834   4.553   8.091  0.7678  1.7172 -0.0480
 7907SOL    HW235358   2.968   4.554   8.154  1.5267 -0.9170 -0.2104
 7908SOL     OW35359   4.171   4.116   2.088 -0.2280 -0.0002  0.0945
 7908SOL    HW135360   4.209   4.117   2.176  1.7681 -1.1029 -0.7610
 7908SOL    HW235361   4.092   4.168   2.105  1.4431  2.3117  0.7390
 7909SOL     OW35362   4.509   0.088   0.215  0.3077 -0.1663 -0.6831
 7909SOL    HW135363   4.557   0.163   0.249  1.5727 -1.2847  0.0050
 7909SOL    HW235364   4.453   0.138   0.156 -3.2332 -0.9584  2.0575
 7910SOL     OW35365   2.280   1.746   6.908  0.0180  0.2116  0.4561
 7910SOL    HW135366   2.345   1.768   6.975  0.8018 -0.4891 -0.0653
 7910SOL    HW235367   2.221   1.821   6.913 -0.4751 -0.1199 -0.5042
 7911SOL     OW35368   2.144   2.697   3.683 -0.9278  0.6994  0.1892
 7911SOL    HW135369   2.167   2.699   3.590 -0.3713  0.3335  0.3156
 7911SOL    HW235370   2.135   2.602   3.691  1.9095  0.1300 -3.0212
 7912SOL     OW35371   2.005   0.332  12.486  0.1255  0.0973  0.0005
 7912SOL    HW135372   2.024   0.287  12.568  1.7493 -1.2848 -1.1486
 7912SOL    HW235373   1.919   0.372  12.502 -0.6248 -1.1164 -1.0074
 7913SOL     OW35374   1.288   3.273   5.071  0.2500  0.0281 -0.0295
 7913SOL    HW135375   1.237   3.332   5.016 -1.9088 -1.8189 -0.0113
 7913SOL    HW235376   1.366   3.269   5.015 -0.1891 -0.0901 -0.6246
 7914SOL     OW35377   2.315   1.015  15.144 -1.2267 -0.1975  0.5247
 7914SOL    HW135378   2.374   0.951  15.104 -1.0725 -1.2330  2.4309
 7914SOL    HW235379   2.307   1.083  15.077  0.0148 -2.3708 -1.8305
 7915SOL     OW35380   3.208   2.914  16.277  0.0877 -0.5370  0.2237
 7915SOL    HW135381   3.194   2.847  16.210  1.6546  0.0696 -0.7119
 7915SOL    HW235382   3.298   2.940  16.257  0.6689 -2.6711  0.0151
 7916SOL     OW35383   2.254   1.293   4.080 -0.1303  0.0588 -0.1967
 7916SOL    HW135384   2.249   1.388   4.086 -1.7573  0.0253 -0.9598
 7916SOL    HW235385   2.322   1.289   4.012 -1.0570  0.9786 -1.1822
 7917SOL     OW35386   1.886   1.153   3.458 -0.0438 -0.3986  0.4669
 7917SOL    HW135387   1.887   1.236   3.410  0.2544 -0.4284  0.4214
 7917SOL    HW235388   1.806   1.111   3.428 -0.2140  0.4684 -0.3040
 7918SOL     OW35389   2.918   4.362  11.883  0.6156  0.1837  0.0619
 7918SOL    HW135390   2.888   4.310  11.958  2.3361 -0.2154  0.4637
 7918SOL    HW235391   2.973   4.425  11.929 -0.2116  0.9395  0.0185
 7919SOL     OW35392   3.320   0.837   3.337  0.2526 -0.8981 -0.1045
 7919SOL    HW135393   3.282   0.822   3.423 -0.7069 -3.0063 -0.8969
 7919SOL    HW235394   3.245   0.873   3.289 -1.4244 -3.3812  0.6079
 7920SOL     OW35395   1.394   0.389   9.217  0.1828  0.5211  0.4084
 7920SOL    HW135396   1.426   0.381   9.127  1.7388 -1.3676  1.1310
 7920SOL    HW235397   1.300   0.404   9.208  0.4047  2.8824  2.0684
 7921SOL     OW35398   0.452   1.698   3.858  0.2268  0.4161  0.3599
 7921SOL    HW135399   0.393   1.767   3.829  1.5886  0.5807 -2.0546
 7921SOL    HW235400   0.430   1.630   3.794 -0.6391  0.1471  0.9488
 7922SOL     OW35401   0.402   1.973  17.095  0.6901  0.3215 -0.3442
 7922SOL    HW135402   0.458   1.954  17.170 -1.0174 -0.3695  0.7485
 7922SOL    HW235403   0.354   1.891  17.099 -2.1451  1.9674 -0.8963
 7923SOL     OW35404   1.945   0.707   4.543 -0.0922 -0.2385 -0.3184
 7923SOL    HW135405   1.918   0.791   4.505  0.0537 -1.0278 -2.1543
 7923SOL    HW235406   1.856   0.697   4.578 -1.2818  0.6785 -3.0759
 7924SOL     OW35407   0.864   4.496  17.345  0.0344  0.6806 -0.0301
 7924SOL    HW135408   0.929   4.561  17.317  0.9507  0.1580  0.9035
 7924SOL    HW235409   0.798   4.559  17.375 -0.6480  0.4493 -1.0457
 7925SOL     OW35410   0.140   0.772   4.677  0.2667 -0.0602 -0.3076
 7925SOL    HW135411   0.226   0.737   4.654  1.0749  2.1921 -0.7876
 7925SOL    HW235412   0.104   0.708   4.738 -0.1486 -1.1068 -1.6653
 7926SOL     OW35413   3.045   3.929  16.742  0.2437 -0.2020  0.5869
 7926SOL    HW135414   3.138   3.930  16.761 -0.0008 -0.1913  1.7507
 7926SOL    HW235415   3.023   3.842  16.773  1.1369 -0.6291  0.0125
 7927SOL     OW35416   3.429   2.997  10.737  0.1215  0.0961 -0.0055
 7927SOL    HW135417   3.406   2.913  10.775 -2.3076  0.8724  0.2163
 7927SOL    HW235418   3.444   2.971  10.646  0.0598  0.9002 -0.2490
 7928SOL     OW35419   3.945   3.988  12.185  0.1704 -0.3306 -0.3820
 7928SOL    HW135420   3.879   4.031  12.239  0.3746 -1.0512  0.4349
 7928SOL    HW235421   3.905   3.902  12.200 -0.4197 -0.2899 -1.6699
 7929SOL     OW35422   4.443   2.703   0.143 -0.2416  0.0008  0.2569
 7929SOL    HW135423   4.386   2.727   0.217 -0.3551  2.8832 -0.7997
 7929SOL    HW235424   4.468   2.610   0.145  0.6343  0.2320 -0.3459
 7930SOL     OW35425   2.431   4.017   4.329  0.4084  0.1133  0.0322
 7930SOL    HW135426   2.519   3.983   4.346  0.1350  0.1282  1.4728
 7930SOL    HW235427   2.448   4.056   4.244 -1.3085 -1.0552 -0.8411
 7931SOL     OW35428   3.353   2.424   5.938 -0.0141  0.2819  0.0193
 7931SOL    HW135429   3.420   2.356   5.942  0.7923  1.1657  1.3228
 7931SOL    HW235430   3.333   2.434   6.031 -0.3210  1.4358 -0.1690
 7932SOL     OW35431   3.358   1.454  14.851  0.0509  0.3332 -0.2186
 7932SOL    HW135432   3.414   1.532  14.849  0.6585 -0.0806  0.6391
 7932SOL    HW235433   3.330   1.464  14.942 -1.2327  1.5060 -0.7519
 7933SOL     OW35434   2.038   3.631   8.919 -0.1211  0.2760  0.0723
 7933SOL    HW135435   1.979   3.625   8.844 -0.5265 -3.1991  0.6645
 7933SOL    HW235436   2.029   3.542   8.953  0.3061  1.1965  2.5748
 7934SOL     OW35437   1.029   1.303   7.294 -0.1979  0.4500 -0.3013
 7934SOL    HW135438   1.059   1.239   7.230  2.7953  0.5464  0.9634
 7934SOL    HW235439   0.977   1.363   7.241  0.0109 -0.2512 -1.3054
 7935SOL     OW35440   0.370   4.675   4.991  0.0532 -0.8223  0.5414
 7935SOL    HW135441   0.314   4.636   4.923 -1.5858  0.1302  1.3438
 7935SOL    HW235442   0.442   4.612   4.984 -0.0200 -0.8763  0.2568
 7936SOL     OW35443   2.621   2.290   6.674 -0.7501  0.2575  0.7071
 7936SOL    HW135444   2.565   2.214   6.688 -1.6189  0.5070 -1.3907
 7936SOL    HW235445   2.554   2.347   6.636  1.7740  1.5357 -1.8504
 7937SOL     OW35446   2.052   0.150  12.995 -0.2546  0.5208  0.0094
 7937SOL    HW135447   2.100   0.068  12.982  2.0161  1.6750  1.0955
 7937SOL    HW235448   2.099   0.167  13.076  0.9467  2.8125 -1.1740
 7938SOL     OW35449   2.355   0.698  11.140 -0.2802  0.7975 -0.0075
 7938SOL    HW135450   2.364   0.609  11.173  1.0607  1.1492  0.5603
 7938SOL    HW235451   2.352   0.760  11.213 -1.7557 -0.6717  1.1829
 7939SOL     OW35452   0.395   0.241   7.302 -0.1053  0.5667 -0.3019
 7939SOL    HW135453   0.346   0.218   7.222  0.8369 -1.3679 -0.3289
 7939SOL    HW235454   0.434   0.157   7.324 -0.5274  0.7511  1.1161
 7940SOL     OW35455   1.382   2.642   0.725  0.3686  0.2195  0.0114
 7940SOL    HW135456   1.377   2.549   0.703  2.0367  0.3927 -1.0856
 7940SOL    HW235457   1.393   2.626   0.819 -0.2393  1.0977  0.2330
 7941SOL     OW35458   4.201   3.148   0.678  0.2751 -0.0003  0.4734
 7941SOL    HW135459   4.256   3.073   0.699 -0.6936 -0.1538  2.3895
 7941SOL    HW235460   4.219   3.141   0.584 -1.8121  3.0929 -0.1746
 7942SOL     OW35461   2.132   1.234   5.501 -0.4586 -0.1825 -0.1139
 7942SOL    HW135462   2.158   1.180   5.575 -0.2386  0.8443  0.5629
 7942SOL    HW235463   2.206   1.221   5.441  0.1558  1.0188  0.3795
 7943SOL     OW35464   4.092   3.083   3.344 -0.2835 -0.0398  0.2161
 7943SOL    HW135465   4.131   3.146   3.283 -0.2776  1.5231  1.8587
 7943SOL    HW235466   4.077   3.140   3.419 -0.4149  1.7003 -1.1324
 7944SOL     OW35467   2.858   3.611   4.201  0.1847  0.1573  0.0122
 7944SOL    HW135468   2.848   3.527   4.156 -0.7929  0.8098 -0.9757
 7944SOL    HW235469   2.954   3.619   4.204  0.5379 -3.3241 -1.4776
 7945SOL     OW35470   4.399   1.676   8.743 -0.1565  0.6925 -0.3200
 7945SOL    HW135471   4.443   1.759   8.723 -2.3153  2.1118  0.8784
 7945SOL    HW235472   4.458   1.611   8.706  0.8514 -0.1528  2.7574
 7946SOL     OW35473   4.575   3.544   7.892  0.4428  0.0811 -0.1112
 7946SOL    HW135474   4.637   3.615   7.910 -0.6970  0.9974  0.2032
 7946SOL    HW235475   4.627   3.467   7.914 -1.2981 -0.9878  0.3324
 7947SOL     OW35476   4.429   2.106  11.531  0.6701  0.0501  0.0315
 7947SOL    HW135477   4.374   2.085  11.606 -0.3109 -0.0102 -0.7062
 7947SOL    HW235478   4.442   2.020  11.492  1.5507 -0.1396  0.7432
 7948SOL     OW35479   3.865   4.585   8.633  0.8325 -0.1905  0.3757
 7948SOL    HW135480   3.951   4.559   8.667  0.3337  2.1473  3.4425
 7948SOL    HW235481   3.824   4.631   8.707  1.4067 -4.4728  3.3568
 7949SOL     OW35482   1.995   4.279   6.825  0.0179 -0.8909 -0.0637
 7949SOL    HW135483   1.942   4.347   6.786 -0.1429 -1.9552 -1.7045
 7949SOL    HW235484   2.000   4.205   6.765  1.1055 -0.8338 -0.0429
 7950SOL     OW35485   4.643   3.004   5.731  0.0438 -0.4005 -0.3643
 7950SOL    HW135486   4.591   2.925   5.720 -0.8023  0.2497 -0.9990
 7950SOL    HW235487   4.673   3.020   5.642  0.7298 -0.5096 -0.1553
 7951SOL     OW35488   2.040   0.483   2.031  0.5206 -0.3498  0.0559
 7951SOL    HW135489   1.950   0.458   2.052  0.0109 -0.3783 -2.1043
 7951SOL    HW235490   2.062   0.501   2.122 -1.3736  1.7702  0.1010
 7952SOL     OW35491   4.351   1.513   3.996  0.0928  0.2394 -0.2331
 7952SOL    HW135492   4.404   1.450   3.946 -0.5672 -1.3673  1.0956
 7952SOL    HW235493   4.396   1.597   3.992  0.8918 -0.1896 -0.1930
 7953SOL     OW35494   2.089   2.334   6.787  0.2333 -0.1366 -0.1263
 7953SOL    HW135495   2.118   2.423   6.766 -0.5657 -0.0325 -0.7494
 7953SOL    HW235496   2.161   2.279   6.757 -1.1021 -1.4797 -0.8440
 7954SOL     OW35497   4.734   0.757  10.210  0.1197 -0.1548 -0.2383
 7954SOL    HW135498   4.719   0.841  10.168  1.0829  0.1645  0.0571
 7954SOL    HW235499   0.046   0.790  10.286  0.4702 -1.4453  0.1047
 7955SOL     OW35500   0.371   0.354  11.790  0.1922  0.7062 -0.3292
 7955SOL    HW135501   0.342   0.357  11.881 -0.9260 -0.1221 -0.6702
 7955SOL    HW235502   0.377   0.260  11.778 -0.9778  0.4704  0.9006
 7956SOL     OW35503   0.338   3.332   5.459  0.0942 -0.8079 -0.1189
 7956SOL    HW135504   0.393   3.394   5.507 -0.5352 -0.2262 -0.1398
 7956SOL    HW235505   0.350   3.265   5.526 -0.8381 -0.2987  0.5693
 7957SOL     OW35506   0.508   1.247   9.075  0.2069  0.2777 -0.1141
 7957SOL    HW135507   0.549   1.329   9.046 -0.7918 -0.0398 -2.4255
 7957SOL    HW235508   0.552   1.234   9.159 -1.0099  0.6427  0.5627
 7958SOL     OW35509   2.591   3.325   4.217  0.3815  0.3133  0.4071
 7958SOL    HW135510   2.537   3.404   4.229 -1.3888 -0.8146 -0.0074
 7958SOL    HW235511   2.665   3.358   4.167 -0.9336  2.6015 -0.0354
 7959SOL     OW35512   2.795   2.003  14.340 -0.1003 -0.0641  0.2388
 7959SOL    HW135513   2.881   2.038  14.320 -0.2039 -0.2345 -0.4739
 7959SOL    HW235514   2.794   1.925  14.285  0.6620  1.0220 -1.2872
 7960SOL     OW35515   1.878   3.663  12.868 -0.1225  0.2205  0.0096
 7960SOL    HW135516   1.812   3.689  12.803 -1.2505  0.4028  1.2296
 7960SOL    HW235517   1.829   3.651  12.949  1.9238 -1.9671  0.9340
 7961SOL     OW35518   1.020   0.107   7.808  0.0323 -0.3520  0.2723
 7961SOL    HW135519   0.933   0.069   7.813 -0.2098 -0.3530 -3.9720
 7961SOL    HW235520   1.033   0.137   7.718  2.6221  0.7718  1.0005
 7962SOL     OW35521   2.625   1.556   5.139 -0.0419 -0.0834  0.3767
 7962SOL    HW135522   2.616   1.615   5.064 -1.3260  2.2232  2.3659
 7962SOL    HW235523   2.721   1.558   5.143 -0.1038 -0.4417  2.0018
 7963SOL     OW35524   1.893   3.345   3.552  0.1234  0.1476 -0.1456
 7963SOL    HW135525   1.962   3.344   3.485  0.5699  1.5332  0.3111
 7963SOL    HW235526   1.919   3.410   3.616  0.7375 -0.0495 -0.1897
 7964SOL     OW35527   2.187   1.316   6.854  0.8325 -0.2626  0.1883
 7964SOL    HW135528   2.123   1.347   6.789 -0.7079 -2.3705  0.6853
 7964SOL    HW235529   2.129   1.288   6.926 -0.7771  1.5938 -0.3874
 7965SOL     OW35530   0.813   1.291   7.680  0.4868  0.3002 -0.3374
 7965SOL    HW135531   0.854   1.269   7.763 -0.3865  0.9884  0.2769
 7965SOL    HW235532   0.723   1.280   7.711  1.2728 -1.6371  1.2549
 7966SOL     OW35533   2.275   3.019  16.071  0.2646  0.4238 -0.5405
 7966SOL    HW135534   2.278   2.978  15.985  1.6407  0.2854 -0.4299
 7966SOL    HW235535   2.280   3.112  16.048 -0.0505  0.2999 -1.1125
 7967SOL     OW35536   0.806   1.584  14.512 -0.4444  0.4145 -0.1441
 7967SOL    HW135537   0.755   1.652  14.556  2.7089  0.6709  3.1026
 7967SOL    HW235538   0.878   1.633  14.471  0.0427  1.4272  1.9303
 7968SOL     OW35539   1.709   1.133   8.267 -0.7502  0.1083  0.2122
 7968SOL    HW135540   1.699   1.061   8.329  3.0587 -1.3266 -0.8505
 7968SOL    HW235541   1.761   1.200   8.312 -1.3906 -0.1844  1.3944
 7969SOL     OW35542   1.387   3.393  13.432  0.0714  0.4100 -0.3166
 7969SOL    HW135543   1.422   3.473  13.469 -0.3169 -0.1643  1.2776
 7969SOL    HW235544   1.332   3.419  13.358  1.1418  0.0290 -1.2413
 7970SOL     OW35545   1.328   2.121   9.863  0.0362  0.1832  0.5517
 7970SOL    HW135546   1.413   2.157   9.838  0.7089 -1.0829  1.0138
 7970SOL    HW235547   1.292   2.200   9.903  0.3980  0.9094 -0.5766
 7971SOL     OW35548   1.029   3.807   1.579 -0.4451  0.1897 -0.3155
 7971SOL    HW135549   1.062   3.720   1.599  1.9873  0.8879 -1.3057
 7971SOL    HW235550   0.933   3.802   1.578 -0.5020  1.1590 -0.2197
 7972SOL     OW35551   1.385   3.548   4.227 -0.1221 -0.6720  0.5640
 7972SOL    HW135552   1.358   3.557   4.319  0.0440 -0.2971  0.5766
 7972SOL    HW235553   1.383   3.453   4.219 -2.4076 -0.6307  0.4713
 7973SOL     OW35554   2.734   2.230   1.370 -0.1495 -0.1438  0.0332
 7973SOL    HW135555   2.639   2.236   1.374  0.0787  3.2305 -0.2364
 7973SOL    HW235556   2.764   2.320   1.361 -1.8600  0.3966 -0.0637
 7974SOL     OW35557   1.803   3.743   2.598  0.7206  0.4892 -0.1181
 7974SOL    HW135558   1.787   3.793   2.518  0.5227  1.3075  0.4382
 7974SOL    HW235559   1.789   3.658   2.555 -0.3316  1.6170 -2.0285
 7975SOL     OW35560   0.958   2.534   5.646 -0.0727  0.2643  0.2055
 7975SOL    HW135561   0.961   2.548   5.552 -2.4409  0.0340  0.0873
 7975SOL    HW235562   1.049   2.509   5.658  1.1417  4.0120 -1.1368
 7976SOL     OW35563   1.774   3.479   4.903  0.2247 -0.4576 -0.2387
 7976SOL    HW135564   1.828   3.449   4.829  0.1482 -0.7912 -0.1592
 7976SOL    HW235565   1.767   3.415   4.973 -0.8871 -0.5764 -0.4425
 7977SOL     OW35566   0.306   3.116   8.543  0.5038 -0.2627 -0.1755
 7977SOL    HW135567   0.241   3.185   8.525  1.3489  0.6606  0.2986
 7977SOL    HW235568   0.381   3.166   8.510  0.1476 -0.2306 -0.9390
 7978SOL     OW35569   1.005   0.402   8.407  0.0357 -0.6797  0.0760
 7978SOL    HW135570   1.072   0.343   8.372  0.8273 -0.7464  1.7234
 7978SOL    HW235571   0.931   0.367   8.357  1.0835 -1.5136 -0.8900
 7979SOL     OW35572   0.240   4.657   8.332 -0.0902 -0.2260  0.0978
 7979SOL    HW135573   0.276   4.632   8.417  0.4894  0.1168 -0.0463
 7979SOL    HW235574   0.227   4.573   8.288  2.5647 -1.4130  1.5904
 7980SOL     OW35575   3.430   1.955   5.909 -0.1115  0.3989 -0.5887
 7980SOL    HW135576   3.423   2.005   5.990 -1.8578  1.5278 -1.4439
 7980SOL    HW235577   3.452   1.868   5.942 -0.2954  0.2484 -0.8575
 7981SOL     OW35578   0.653   1.465   5.249  0.0989  0.0639 -0.4341
 7981SOL    HW135579   0.655   1.539   5.189 -2.6582 -0.4840 -1.1653
 7981SOL    HW235580   0.560   1.444   5.256  0.3625 -0.4942  1.3886
 7982SOL     OW35581   2.589   1.726   7.515 -0.0172 -0.6009 -0.4874
 7982SOL    HW135582   2.635   1.703   7.434  2.4555  0.5896  0.5537
 7982SOL    HW235583   2.498   1.703   7.498 -0.6165  0.3805  1.3255
 7983SOL     OW35584   1.252   2.130  14.674  0.0920 -0.1145 -0.3703
 7983SOL    HW135585   1.260   2.124  14.578 -0.8188  2.0589 -0.5754
 7983SOL    HW235586   1.339   2.104  14.703 -0.1516 -0.2671  0.2112
 7984SOL     OW35587   0.764   1.964   2.846 -0.8084  0.0746  0.1151
 7984SOL    HW135588   0.777   1.870   2.833 -0.6676 -0.1062  1.6403
 7984SOL    HW235589   0.726   1.966   2.934  1.0710  0.0945  0.9301
 7985SOL     OW35590   0.726   0.312   8.330 -0.3230 -0.1010 -0.2086
 7985SOL    HW135591   0.633   0.331   8.323 -0.2959 -0.6261 -2.1952
 7985SOL    HW235592   0.735   0.261   8.249  1.6911 -2.5693  1.5596
 7986SOL     OW35593   3.611   1.486  14.406 -0.1585  0.5951  0.1201
 7986SOL    HW135594   3.706   1.487  14.413  0.0077  0.6823 -2.1341
 7986SOL    HW235595   3.583   1.396  14.395  0.3992  0.5045 -0.5830
 7987SOL     OW35596   4.568   1.812  12.745 -0.0862  0.1508  0.2879
 7987SOL    HW135597   4.625   1.745  12.782 -2.2290 -1.4756  0.6545
 7987SOL    HW235598   4.578   1.874  12.816  1.9574 -0.8344  0.8464
 7988SOL     OW35599   2.111   2.225  11.806 -0.1359  0.4568  0.6191
 7988SOL    HW135600   2.185   2.233  11.747 -0.2554 -0.0331  0.4024
 7988SOL    HW235601   2.108   2.308  11.853 -1.6259  0.4153  0.6010
 7989SOL     OW35602   2.820   4.235   7.726  0.3366 -0.2538  0.5864
 7989SOL    HW135603   2.776   4.270   7.648 -2.3898  0.6361  2.5348
 7989SOL    HW235604   2.816   4.309   7.787 -0.0270  0.3086 -0.1082
 7990SOL     OW35605   4.587   4.598   8.791 -0.6343 -0.1398  0.0549
 7990SOL    HW135606   4.512   4.596   8.851  1.3307 -0.6784  2.5227
 7990SOL    HW235607   4.646   4.561   8.857 -0.1562 -0.3607 -0.4916
 7991SOL     OW35608   0.835   4.027   1.742  0.1595  0.2814 -0.2057
 7991SOL    HW135609   0.756   4.037   1.795 -0.2694 -1.7350 -0.4885
 7991SOL    HW235610   0.866   4.116   1.723 -1.1666  0.4245 -1.6372
 7992SOL     OW35611   0.210   2.629   1.782  0.3765 -0.3499 -0.0304
 7992SOL    HW135612   0.303   2.618   1.800  0.3420  0.4302  0.6036
 7992SOL    HW235613   0.191   2.536   1.767  1.8210 -0.6838  0.2769
 7993SOL     OW35614   0.066   3.698   4.052  0.2597 -0.0620 -1.0473
 7993SOL    HW135615   4.728   3.642   4.071  0.3117 -0.3899 -1.8068
 7993SOL    HW235616   0.141   3.638   4.058 -0.7410 -1.5583 -3.5576
 7994SOL     OW35617   0.365   3.719  11.604  0.1245 -0.1497  0.1282
 7994SOL    HW135618   0.305   3.645  11.603 -2.4697  1.9328  0.8987
 7994SOL    HW235619   0.318   3.769  11.670  1.1103  0.4803  0.3445
 7995SOL     OW35620   1.845   2.173  12.085 -0.0127  0.1142 -0.0563
 7995SOL    HW135621   1.894   2.184  12.166 -1.3155  1.9042  0.4833
 7995SOL    HW235622   1.764   2.130  12.114  0.1720  1.3357  2.2690
 7996SOL     OW35623   0.026   0.563   7.622  0.1017  0.0585 -0.2576
 7996SOL    HW135624   0.074   0.486   7.652 -0.6735 -0.8946 -1.4563
 7996SOL    HW235625   4.681   0.523   7.592  1.0291 -1.1142 -1.1899
 7997SOL     OW35626   2.293   4.215   5.069  0.4852  0.5605 -0.2732
 7997SOL    HW135627   2.223   4.248   5.012 -1.3688 -1.8371  0.5920
 7997SOL    HW235628   2.357   4.192   5.001  2.9981  1.6144  1.7747
 7998SOL     OW35629   0.915   0.453   7.368 -0.2838  0.1083 -0.5032
 7998SOL    HW135630   0.846   0.418   7.425  0.2310 -0.8029 -0.4209
 7998SOL    HW235631   0.875   0.439   7.282  0.7391  2.3743 -1.3443
 7999SOL     OW35632   1.534   1.822   1.995  0.4119 -0.1082  0.3081
 7999SOL    HW135633   1.598   1.888   1.970  2.3050 -0.8047  3.4261
 7999SOL    HW235634   1.551   1.810   2.088  0.0723 -2.7097  0.0535
 8000SOL     OW35635   3.724   2.056   2.464 -0.2192 -0.0789  0.1940
 8000SOL    HW135636   3.767   1.992   2.520 -0.7147 -1.2820 -0.8060
 8000SOL    HW235637   3.729   2.119   2.536 -3.3195 -0.4657  0.7379
 8001SOL     OW35638   0.269   3.056   8.224  0.4529  0.2177 -0.1068
 8001SOL    HW135639   0.350   3.014   8.195 -0.0468 -0.5843 -0.3404
 8001SOL    HW235640   0.209   3.013   8.163  0.7531 -1.4353  0.7563
 8002SOL     OW35641   2.918   0.880  15.428 -0.0769  0.2950  0.1695
 8002SOL    HW135642   2.892   0.791  15.403 -1.0491  1.1216 -1.7896
 8002SOL    HW235643   2.916   0.925  15.344  0.7221  1.1403  0.6002
 8003SOL     OW35644   0.638   2.127   8.496 -0.4861  0.1966 -0.4698
 8003SOL    HW135645   0.664   2.081   8.416  1.8865 -1.8548  1.4749
 8003SOL    HW235646   0.716   2.168   8.534 -1.3445 -0.4019  1.9680
 8004SOL     OW35647   0.891   0.105   7.269 -0.3442  0.9248 -0.4652
 8004SOL    HW135648   0.847   0.175   7.220 -1.1144  1.7698  1.4637
 8004SOL    HW235649   0.951   0.073   7.201  0.6790  0.2850  0.7347
 8005SOL     OW35650   4.604   2.866   4.884  0.5245  0.4787 -0.7020
 8005SOL    HW135651   4.684   2.905   4.919  0.5480  1.7888 -2.2058
 8005SOL    HW235652   4.635   2.777   4.901 -0.9193  0.2516  0.7801
 8006SOL     OW35653   1.486   1.284   4.890  0.3572 -0.6457  0.2968
 8006SOL    HW135654   1.552   1.324   4.946  1.1898  1.5470 -2.2635
 8006SOL    HW235655   1.535   1.235   4.824  0.1237 -1.1197  0.4726
 8007SOL     OW35656   4.505   2.197  12.223 -0.1624  0.0741  0.3332
 8007SOL    HW135657   4.494   2.110  12.260 -0.2638 -0.3438 -0.6788
 8007SOL    HW235658   4.418   2.233  12.242 -0.5755 -0.5442 -0.4104
 8008SOL     OW35659   4.434   2.087   3.998  0.4883  0.2462  0.5287
 8008SOL    HW135660   4.518   2.072   3.955  0.0182 -0.7318 -0.0282
 8008SOL    HW235661   4.393   2.148   3.936 -1.4480  0.1092  1.6802
 8009SOL     OW35662   1.725   1.785  11.737 -0.1727  0.3769 -0.2477
 8009SOL    HW135663   1.666   1.847  11.693 -0.5368 -0.6206 -1.1821
 8009SOL    HW235664   1.810   1.813  11.704  0.2127  1.2717  1.5091
 8010SOL     OW35665   4.729   1.232   6.230  0.2381 -0.0700  1.0401
 8010SOL    HW135666   0.009   1.326   6.220 -0.2378 -0.3853 -2.8285
 8010SOL    HW235667   0.062   1.202   6.289 -0.9302  0.0674  2.5047
 8011SOL     OW35668   4.652   0.331   8.813 -0.2850 -0.5013 -0.5350
 8011SOL    HW135669   4.604   0.248   8.816 -0.0093 -0.5929  1.7688
 8011SOL    HW235670   4.684   0.333   8.903 -0.0073 -1.0154 -0.6207
 8012SOL     OW35671   4.461   4.671   2.559 -0.0699 -0.1041 -0.2515
 8012SOL    HW135672   4.542   4.624   2.581 -1.3912 -1.2330  2.1063
 8012SOL    HW235673   4.406   4.607   2.515  0.2006 -0.1299 -0.5578
 8013SOL     OW35674   4.269   3.626   3.446 -0.8419 -0.2550 -0.2863
 8013SOL    HW135675   4.287   3.718   3.429  2.1328 -0.5675  1.1303
 8013SOL    HW235676   4.235   3.629   3.536  0.2248 -1.0505  0.1506
 8014SOL     OW35677   2.408   4.023   7.650 -0.1508  0.7051  1.4074
 8014SOL    HW135678   2.324   3.994   7.614  0.9103  0.1498 -0.6280
 8014SOL    HW235679   2.464   3.946   7.647 -0.2464  0.7026 -0.5063
 8015SOL     OW35680   4.103   3.323   8.704 -0.3568 -0.5439 -0.4649
 8015SOL    HW135681   4.070   3.242   8.743 -1.7063 -0.6436 -1.8304
 8015SOL    HW235682   4.173   3.347   8.764 -1.3939  2.6620 -0.5476
 8016SOL     OW35683   3.386   1.979  17.692 -0.4301 -0.2984 -0.1386
 8016SOL    HW135684   3.437   1.908  17.731  1.5998  0.5159 -1.2664
 8016SOL    HW235685   3.333   2.010   0.021 -1.7210  0.0602 -1.2399
 8017SOL     OW35686   0.970   4.263   1.636 -0.3183  0.1823  0.7273
 8017SOL    HW135687   0.898   4.304   1.587 -1.1403 -1.0535  0.9049
 8017SOL    HW235688   1.039   4.329   1.639  0.8822 -0.9482 -2.0929
 8018SOL     OW35689   0.570   2.227   1.603 -0.1852  0.0518 -0.1344
 8018SOL    HW135690   0.578   2.137   1.633 -0.7222  0.2728  0.6662
 8018SOL    HW235691   0.580   2.283   1.680 -0.4631 -0.9382  0.6188
 8019SOL     OW35692   1.387   2.589   4.227 -0.1903 -0.2130  0.0250
 8019SOL    HW135693   1.324   2.570   4.158  1.0863  1.4745 -1.5766
 8019SOL    HW235694   1.460   2.614   4.171 -0.6711  1.1181  0.0110
 8020SOL     OW35695   2.428   1.201   2.888 -0.2345  0.1063  0.3567
 8020SOL    HW135696   2.481   1.144   2.832 -1.6465  0.1452 -1.0333
 8020SOL    HW235697   2.487   1.275   2.902  1.5181 -1.3370  0.6179
 8021SOL     OW35698   1.566   1.753   0.664  0.2257 -0.2352 -0.0456
 8021SOL    HW135699   1.547   1.668   0.703 -0.9500  0.7164  1.4786
 8021SOL    HW235700   1.584   1.796   0.748  1.8288 -0.8355 -0.0999
 8022SOL     OW35701   0.664   0.206  13.809  0.1215  0.2769 -0.0390
 8022SOL    HW135702   0.604   0.145  13.852  1.8977 -1.3852  0.0655
 8022SOL    HW235703   0.670   0.165  13.722  0.5751 -2.6775  1.3979
 8023SOL     OW35704   3.684   1.995   4.157  0.0903  0.1092  0.1779
 8023SOL    HW135705   3.605   2.011   4.209  0.0031  1.7386 -0.4578
 8023SOL    HW235706   3.716   1.925   4.213  0.8472 -0.7213 -1.3032
 8024SOL     OW35707   2.221   0.223  16.836  0.1166 -0.1716  0.5265
 8024SOL    HW135708   2.286   0.257  16.896  0.3745 -2.0247  1.3023
 8024SOL    HW235709   2.270   0.165  16.777 -0.3837 -0.0969  0.0343
 8025SOL     OW35710   1.408   1.705   8.284 -0.5328 -0.0276 -0.4427
 8025SOL    HW135711   1.483   1.740   8.237 -1.8732 -0.5153 -2.9273
 8025SOL    HW235712   1.384   1.789   8.323  2.4577  0.1922  0.9455
 8026SOL     OW35713   1.433   2.087   6.443 -0.1291  0.3148  0.0032
 8026SOL    HW135714   1.428   2.180   6.424  2.3360 -0.3556 -3.9635
 8026SOL    HW235715   1.480   2.062   6.363 -0.5463  0.1811 -0.2039
 8027SOL     OW35716   1.374   4.088  10.981  0.1608  0.1929 -0.3215
 8027SOL    HW135717   1.386   4.010  11.037  1.0655 -0.5081 -1.4921
 8027SOL    HW235718   1.439   4.145  11.023  0.3405 -1.6303  1.8801
 8028SOL     OW35719   3.643   3.596   5.458 -0.4553 -0.5082 -0.0887
 8028SOL    HW135720   3.702   3.658   5.414  0.3452 -1.0923  0.1646
 8028SOL    HW235721   3.591   3.655   5.512 -0.0887  0.3796 -0.7042
 8029SOL     OW35722   2.931   2.015   0.767  0.5955 -0.2023  0.1228
 8029SOL    HW135723   2.952   1.938   0.820 -0.5104 -1.3700 -1.1359
 8029SOL    HW235724   2.877   1.972   0.701  1.2313  0.9108 -1.1103
 8030SOL     OW35725   1.077   1.646   9.053  0.4298 -0.5179 -0.7341
 8030SOL    HW135726   1.015   1.699   9.103  1.7741 -0.6984  1.1380
 8030SOL    HW235727   1.137   1.619   9.123 -0.9179 -2.3676 -0.2946
 8031SOL     OW35728   0.947   2.974   6.201 -0.0461 -0.0989 -0.4113
 8031SOL    HW135729   0.991   2.892   6.222  3.2742  1.6745 -0.4410
 8031SOL    HW235730   0.887   2.943   6.133 -0.5208 -0.7798  0.3254
 8032SOL     OW35731   1.559   1.775  14.469 -0.0121  0.6673 -0.0079
 8032SOL    HW135732   1.649   1.801  14.448  0.3891 -0.7123 -0.0565
 8032SOL    HW235733   1.576   1.743  14.558 -0.4831 -1.4835 -0.6822
 8033SOL     OW35734   1.352   2.362  16.841  0.8058  0.0863  0.7501
 8033SOL    HW135735   1.447   2.358  16.849  0.8220  0.6879  0.8039
 8033SOL    HW235736   1.336   2.292  16.778 -0.7504  0.0143  1.2069
 8034SOL     OW35737   2.725   0.068   4.373  0.0807  0.3669  0.3093
 8034SOL    HW135738   2.764   0.055   4.287 -1.6360  0.3058 -0.4498
 8034SOL    HW235739   2.680   0.152   4.369 -0.6113 -0.1459 -2.0424
 8035SOL     OW35740   1.585   1.555   6.836 -0.2528  0.5023  0.1368
 8035SOL    HW135741   1.492   1.571   6.847  0.0980  1.3481  1.9524
 8035SOL    HW235742   1.612   1.592   6.921  2.2902 -1.7484  0.3143
 8036SOL     OW35743   2.415   2.576  15.119  0.4331  0.1600 -0.5417
 8036SOL    HW135744   2.347   2.532  15.170  0.6970  0.7131  0.2796
 8036SOL    HW235745   2.395   2.669  15.121 -0.5788 -0.1078  1.2676
 8037SOL     OW35746   3.535   4.099   4.153 -0.3070 -0.3333  0.1529
 8037SOL    HW135747   3.521   4.078   4.245 -0.7831  2.6003  0.7201
 8037SOL    HW235748   3.551   4.015   4.109 -1.3159 -0.4496  0.0068
 8038SOL     OW35749   1.920   4.647   0.829 -0.5768 -0.2203 -0.1825
 8038SOL    HW135750   2.014   4.644   0.814 -0.2710  1.4485  1.4078
 8038SOL    HW235751   1.903   4.733   0.868  1.9136 -0.1176  0.6761
 8039SOL     OW35752   1.433   1.201   6.161 -0.3493 -0.3609  0.9290
 8039SOL    HW135753   1.494   1.182   6.233 -0.3123 -1.0284  0.7228
 8039SOL    HW235754   1.455   1.129   6.102  0.7411  1.4285 -0.8736
 8040SOL     OW35755   4.678   4.372   3.376 -0.0973  0.3809  0.5620
 8040SOL    HW135756   0.034   4.352   3.392 -0.0070 -0.2746 -0.8225
 8040SOL    HW235757   4.646   4.311   3.442 -2.1822  1.8184  0.8982
 8041SOL     OW35758   3.718   3.562   5.110  0.2118  0.4450 -0.6094
 8041SOL    HW135759   3.624   3.574   5.128  0.0155 -0.1530 -1.2307
 8041SOL    HW235760   3.714   3.468   5.094 -2.3841  1.0063 -3.4054
 8042SOL     OW35761   0.490   3.538   2.329  0.3235 -0.5640  0.2265
 8042SOL    HW135762   0.537   3.477   2.385 -0.9207 -1.2110  0.5625
 8042SOL    HW235763   0.528   3.512   2.245 -1.4660 -0.9330 -0.4787
 8043SOL     OW35764   2.381   4.489  17.322  0.3626  0.3826 -0.0392
 8043SOL    HW135765   2.311   4.548  17.295  1.3076  0.9015 -1.3100
 8043SOL    HW235766   2.457   4.533  17.286  0.9967 -0.8712 -0.2540
 8044SOL     OW35767   4.271   1.662   4.519  0.5624  0.7041  0.4932
 8044SOL    HW135768   4.184   1.691   4.547 -0.0857 -0.4862 -0.3057
 8044SOL    HW235769   4.260   1.587   4.461 -0.5186  0.1338  1.4216
 8045SOL     OW35770   2.160   2.924   4.463  0.2113 -0.2453  0.2522
 8045SOL    HW135771   2.188   2.975   4.388  0.3695 -2.4263 -1.1719
 8045SOL    HW235772   2.233   2.933   4.523 -0.2253 -1.8504  1.0450
 8046SOL     OW35773   4.138   2.961   4.529  0.5997 -0.7831 -0.2940
 8046SOL    HW135774   4.050   2.993   4.511  0.3704 -1.7128 -0.8207
 8046SOL    HW235775   4.191   3.030   4.488 -0.0953  0.3423  0.6919
 8047SOL     OW35776   0.011   1.338   1.998 -0.1311 -0.6144  0.1718
 8047SOL    HW135777   0.076   1.340   1.928 -0.8180 -0.8248 -0.4767
 8047SOL    HW235778   0.039   1.414   2.049 -1.4461 -0.1586  0.2185
 8048SOL     OW35779   4.498   1.762  13.335 -0.1828 -0.1558  0.2529
 8048SOL    HW135780   4.570   1.778  13.396  1.3075 -0.8448 -1.3189
 8048SOL    HW235781   4.541   1.693  13.283  0.1880 -0.1748  0.5828
 8049SOL     OW35782   1.521   1.728   6.400  0.1850  0.1610  0.2975
 8049SOL    HW135783   1.504   1.644   6.443  1.9456 -0.6656 -0.6325
 8049SOL    HW235784   1.610   1.734   6.436 -0.0112  2.0227  0.4344
 8050SOL     OW35785   4.702   0.279   9.655  0.4354  0.2108 -0.0687
 8050SOL    HW135786   0.058   0.258   9.661  0.2307 -1.3976 -2.8014
 8050SOL    HW235787   4.687   0.323   9.739 -0.4663  0.4596 -0.3575
 8051SOL     OW35788   3.835   3.982   6.658  0.1023 -0.0435 -0.5615
 8051SOL    HW135789   3.824   3.917   6.727  2.8165 -0.2390 -0.2896
 8051SOL    HW235790   3.780   3.945   6.590  0.3119  0.1879 -0.8572
 8052SOL     OW35791   2.347   3.347  12.978 -0.2539 -0.2378 -0.3320
 8052SOL    HW135792   2.254   3.366  12.966 -0.1448  0.7704  0.4275
 8052SOL    HW235793   2.376   3.412  13.043  0.5309 -1.6261  0.7076
 8053SOL     OW35794   3.359   4.251  10.945 -0.1374 -0.0523 -0.1587
 8053SOL    HW135795   3.386   4.180  11.003 -1.2127  1.6088  2.3670
 8053SOL    HW235796   3.446   4.288  10.933  1.1133 -2.2078  2.3296
 8054SOL     OW35797   2.983   0.275  17.664 -0.2397 -0.2389 -0.3007
 8054SOL    HW135798   2.968   0.349  17.722 -0.1464 -1.3489  1.1378
 8054SOL    HW235799   3.041   0.220  17.717 -1.5587 -1.6685 -0.3459
 8055SOL     OW35800   1.801   3.029   0.297  0.1204  0.4968  0.1436
 8055SOL    HW135801   1.778   3.122   0.300 -0.8680  0.1829  2.1785
 8055SOL    HW235802   1.718   2.985   0.283  0.3682  0.0869 -0.0494
 8056SOL     OW35803   1.917   0.905   9.356  0.7906 -0.1366  0.1977
 8056SOL    HW135804   1.865   0.984   9.339  0.5187 -0.2326  0.5857
 8056SOL    HW235805   1.852   0.850   9.400  0.9692  1.1035  2.0079
 8057SOL     OW35806   2.232   0.252  11.936  0.3613 -0.0976  0.1065
 8057SOL    HW135807   2.163   0.267  11.872 -1.0321 -1.7648  1.2064
 8057SOL    HW235808   2.186   0.255  12.020 -0.8840  0.6839 -0.6053
 8058SOL     OW35809   3.356   1.269   3.198 -0.4098  0.5281  0.1645
 8058SOL    HW135810   3.337   1.279   3.105 -0.6674 -0.9435  0.0639
 8058SOL    HW235811   3.268   1.251   3.233 -0.2376 -2.1172 -0.8489
 8059SOL     OW35812   3.132   3.074   7.215 -0.4302  0.1765  0.2558
 8059SOL    HW135813   3.154   3.036   7.129  2.0316 -0.2636  1.0850
 8059SOL    HW235814   3.221   3.089   7.244  0.2985  0.2574 -1.9962
 8060SOL     OW35815   1.413   1.717   1.017 -0.8174 -0.2650 -0.7782
 8060SOL    HW135816   1.344   1.777   1.045 -0.9220 -1.2274  1.0569
 8060SOL    HW235817   1.420   1.657   1.092 -0.4084  0.2639 -0.3927
 8061SOL     OW35818   2.145   0.077   8.624 -0.2073  0.3792  0.2715
 8061SOL    HW135819   2.194   0.118   8.553 -1.6779 -0.0415 -1.0010
 8061SOL    HW235820   2.206   0.079   8.698  0.8761  1.5511 -0.6552
 8062SOL     OW35821   0.492   0.003   7.368 -0.0743  0.2356  0.0808
 8062SOL    HW135822   0.466   4.667   7.311  1.1227 -0.9064  0.9923
 8062SOL    HW235823   0.584   4.717   7.382  0.2500  1.0536 -0.7943
 8063SOL     OW35824   3.380   1.439  10.651  0.3905  0.1220  0.0465
 8063SOL    HW135825   3.400   1.459  10.559 -2.7295  1.3492 -0.3758
 8063SOL    HW235826   3.416   1.520  10.689 -0.9424  0.2163  1.1034
 8064SOL     OW35827   1.917   4.604   4.475  0.7416  0.6735 -0.1744
 8064SOL    HW135828   1.966   4.619   4.555  0.1639 -0.0330  0.3070
 8064SOL    HW235829   1.910   4.694   4.442 -2.4638  0.4217 -0.1989
 8065SOL     OW35830   3.105   0.285   6.506 -0.4089  0.8886 -0.9886
 8065SOL    HW135831   3.196   0.306   6.524 -1.0666  2.4434  0.5714
 8065SOL    HW235832   3.062   0.329   6.580  0.3987  1.9998 -1.1748
 8066SOL     OW35833   3.356   1.819   8.409  0.3164 -0.4901  0.3934
 8066SOL    HW135834   3.362   1.862   8.324 -0.8173 -2.2830 -0.5945
 8066SOL    HW235835   3.267   1.844   8.435  0.0239 -1.6119  0.4452
 8067SOL     OW35836   0.308   0.813   5.769  0.1094 -0.2959  0.3958
 8067SOL    HW135837   0.395   0.781   5.747 -0.3156 -0.2324 -1.3482
 8067SOL    HW235838   0.324   0.897   5.812  1.2720  0.3537 -1.3067
 8068SOL     OW35839   3.850   4.264  10.063  0.0578 -0.8106  0.3340
 8068SOL    HW135840   3.906   4.238  10.137  0.2315  0.0566  0.5129
 8068SOL    HW235841   3.780   4.202  10.083  0.9616 -1.7723  0.5336
 8069SOL     OW35842   1.343   2.717   0.453  0.1520  0.3908 -0.2698
 8069SOL    HW135843   1.420   2.699   0.508  0.8477  0.7230 -1.1233
 8069SOL    HW235844   1.329   2.643   0.393  0.1440 -0.5938  0.9451
 8070SOL     OW35845   0.852   3.945   5.572  0.6124 -0.0975 -0.4823
 8070SOL    HW135846   0.926   3.994   5.536  0.5192  0.1743 -0.3038
 8070SOL    HW235847   0.780   3.997   5.536  0.1581  0.4140  1.1607
 8071SOL     OW35848   2.625   1.682  17.294  0.0873 -0.3780 -0.3205
 8071SOL    HW135849   2.591   1.734  17.221  0.4140  0.4624  0.1235
 8071SOL    HW235850   2.713   1.720  17.296 -0.1178 -0.0097  1.9445
 8072SOL     OW35851   2.004   2.147   2.886 -0.5335 -0.0472 -0.4695
 8072SOL    HW135852   2.059   2.089   2.835  1.0466  1.9406 -1.0176
 8072SOL    HW235853   1.915   2.141   2.850 -1.1042 -1.2847  1.1278
 8073SOL     OW35854   0.148   4.063   7.297 -0.0182  0.2855 -0.3842
 8073SOL    HW135855   0.210   4.077   7.225  0.6782 -2.1343 -0.2306
 8073SOL    HW235856   0.069   4.070   7.244  0.4129 -1.9527 -1.3134
 8074SOL     OW35857   0.332   3.236   5.725 -0.6720 -0.5301 -0.2720
 8074SOL    HW135858   0.354   3.323   5.758 -0.9437 -0.0120 -1.4534
 8074SOL    HW235859   0.237   3.238   5.737 -0.7065 -0.2979 -0.5676
 8075SOL     OW35860   1.255   2.042   6.124 -0.0396 -0.2615  0.0791
 8075SOL    HW135861   1.246   1.976   6.193 -0.9766  1.1803  1.3508
 8075SOL    HW235862   1.346   2.026   6.099  0.9126  1.2454  2.6065
 8076SOL     OW35863   3.134   2.041   3.138 -0.2733 -0.3550 -0.0836
 8076SOL    HW135864   3.221   2.002   3.141  0.1864  0.6693 -0.1997
 8076SOL    HW235865   3.121   2.104   3.209  1.2491  2.2323 -2.1037
 8077SOL     OW35866   2.045   2.574  11.043  0.4707 -0.1991 -0.2636
 8077SOL    HW135867   1.957   2.538  11.049  1.0465 -1.7341 -1.0027
 8077SOL    HW235868   2.087   2.550  10.960 -1.4490 -1.3736 -0.8806
 8078SOL     OW35869   4.666   1.166   3.651 -0.1050  0.6167 -0.3747
 8078SOL    HW135870   4.726   1.218   3.704 -2.6871  0.0693  3.0142
 8078SOL    HW235871   4.585   1.216   3.655  0.9880  2.2429  1.0627
 8079SOL     OW35872   2.098   3.088   0.906 -0.3280  0.0786 -0.1351
 8079SOL    HW135873   2.052   3.111   0.987 -1.4535  1.0983 -1.0632
 8079SOL    HW235874   2.174   3.140   0.931 -0.3974  0.3732 -0.5376
 8080SOL     OW35875   3.732   4.457   9.614 -0.4793 -0.2605 -0.3306
 8080SOL    HW135876   3.686   4.540   9.616  0.6813  0.3130  1.8243
 8080SOL    HW235877   3.780   4.457   9.697  2.1518 -1.8041 -1.8587
 8081SOL     OW35878   1.336   3.156   8.733 -0.1130 -0.4218 -0.6059
 8081SOL    HW135879   1.259   3.210   8.712 -0.8801 -1.0221  0.6985
 8081SOL    HW235880   1.395   3.179   8.662 -0.5405 -0.5527 -1.0055
 8082SOL     OW35881   0.374   4.570  16.671 -0.1786 -0.2074 -0.8250
 8082SOL    HW135882   0.400   4.478  16.679 -2.0201 -0.9860 -4.0684
 8082SOL    HW235883   0.314   4.570  16.596  0.6409 -0.3880 -1.4769
 8083SOL     OW35884   3.849   2.411   6.929 -0.5819 -0.4831 -0.3126
 8083SOL    HW135885   3.808   2.449   6.851 -2.0677  1.2425  1.3195
 8083SOL    HW235886   3.938   2.445   6.927 -0.5610 -0.5737 -0.9176
 8084SOL     OW35887   0.537   2.863  14.964 -0.1696 -0.2378 -0.0761
 8084SOL    HW135888   0.504   2.948  14.990  0.1592 -0.3616  0.7403
 8084SOL    HW235889   0.470   2.806  15.001  1.1382  1.0869  4.2265
 8085SOL     OW35890   1.538   2.426   6.857 -0.2125  0.1444  0.2877
 8085SOL    HW135891   1.460   2.374   6.875  1.5342 -1.8957  2.0242
 8085SOL    HW235892   1.599   2.352   6.860 -1.5028 -0.9673 -1.5569
 8086SOL     OW35893   1.608   3.357   0.995  0.6494  0.4277  0.4278
 8086SOL    HW135894   1.621   3.277   0.945  0.6192 -0.1070  1.2748
 8086SOL    HW235895   1.694   3.398   1.001  2.2288 -3.1016  1.8050
 8087SOL     OW35896   0.587   0.469   7.686  0.2281  0.1027 -0.1673
 8087SOL    HW135897   0.635   0.548   7.662  0.8214  0.1106  1.0152
 8087SOL    HW235898   0.594   0.415   7.608 -3.7640  0.8982 -1.0553
 8088SOL     OW35899   4.137   0.890  14.233  0.1172 -0.6083  0.3062
 8088SOL    HW135900   4.170   0.968  14.188 -4.7954  1.8439  0.9604
 8088SOL    HW235901   4.204   0.896  14.300 -1.5404  0.8980  1.8509
 8089SOL     OW35902   1.785   1.168   5.673  0.2034 -0.2119 -0.3468
 8089SOL    HW135903   1.750   1.244   5.719 -2.4137 -1.9060  0.5264
 8089SOL    HW235904   1.770   1.199   5.584  1.3957  1.9420  0.2229
 8090SOL     OW35905   0.185   4.098   1.119  0.6799  0.4607 -0.1594
 8090SOL    HW135906   0.224   4.013   1.100 -0.4349  0.0806 -0.8021
 8090SOL    HW235907   0.245   4.157   1.164 -1.0976  0.4678  2.2304
 8091SOL     OW35908   2.217   1.162  11.627 -0.0994 -0.6836 -0.1013
 8091SOL    HW135909   2.202   1.090  11.688  0.5842 -2.8369 -2.4918
 8091SOL    HW235910   2.160   1.149  11.551 -0.4065  1.1669 -0.1957
 8092SOL     OW35911   3.940   1.665   9.179 -0.0008 -0.0173 -0.4702
 8092SOL    HW135912   3.992   1.659   9.099  0.2968  4.0864 -0.6182
 8092SOL    HW235913   3.912   1.757   9.175  0.2750 -0.0533 -2.8179
 8093SOL     OW35914   2.004   4.712  13.840 -0.2869 -0.0613  0.1176
 8093SOL    HW135915   1.945   0.045  13.870  0.2011  0.8450 -1.0261
 8093SOL    HW235916   1.981   4.646  13.906  0.7646 -0.9198 -0.3778
 8094SOL     OW35917   0.908   0.956  10.838  0.5180  0.0312 -0.3872
 8094SOL    HW135918   0.958   1.022  10.887  0.8505  0.4453 -1.2828
 8094SOL    HW235919   0.847   0.917  10.901  0.2458 -0.9901 -1.2767
 8095SOL     OW35920   2.113   4.021   3.493 -0.7052  0.1050  0.3623
 8095SOL    HW135921   2.182   4.050   3.554 -1.4099  0.1301  1.1486
 8095SOL    HW235922   2.046   4.087   3.511 -2.2498 -2.0577  2.6163
 8096SOL     OW35923   2.553   0.617  13.883 -0.6220 -0.0038  0.6455
 8096SOL    HW135924   2.597   0.683  13.829 -0.7076 -0.5467 -0.0859
 8096SOL    HW235925   2.466   0.656  13.894 -0.2090  1.1454 -0.2033
 8097SOL     OW35926   0.483   2.405   2.240  0.6273  0.3372 -0.1383
 8097SOL    HW135927   0.528   2.401   2.155  0.1577  1.1582 -0.4291
 8097SOL    HW235928   0.392   2.392   2.214  0.5079 -1.6824  1.3233
 8098SOL     OW35929   0.362   0.277   6.564 -0.0866  0.1822 -0.0075
 8098SOL    HW135930   0.347   0.299   6.656 -0.1279  0.8061 -0.1638
 8098SOL    HW235931   0.272   0.283   6.530 -0.4182  0.3104  0.8914
 8099SOL     OW35932   4.405   1.096   6.759 -0.1614  0.0547  0.2936
 8099SOL    HW135933   4.479   1.054   6.715  0.6329  2.2666 -0.4347
 8099SOL    HW235934   4.401   1.026   6.825  0.2859  0.0724  0.3408
 8100SOL     OW35935   2.599   4.138   4.144  0.0213 -0.0832  0.3151
 8100SOL    HW135936   2.684   4.165   4.179  0.1317 -0.4109  0.2985
 8100SOL    HW235937   2.604   4.173   4.055  0.2420  0.3423  0.4950
 8101SOL     OW35938   2.850   2.822   3.558  0.2377  0.0735 -0.2394
 8101SOL    HW135939   2.779   2.885   3.569  1.1423  0.8336  1.2952
 8101SOL    HW235940   2.805   2.738   3.571 -0.0846  0.1327 -1.0015
 8102SOL     OW35941   4.146   0.885   1.844  0.3665 -0.0018  0.6161
 8102SOL    HW135942   4.143   0.887   1.748 -0.5602  1.2408  0.6627
 8102SOL    HW235943   4.229   0.931   1.852  0.9496 -1.4014  2.3758
 8103SOL     OW35944   2.171   4.021  12.429  0.6180 -0.5713  0.3677
 8103SOL    HW135945   2.097   3.992  12.482  0.3881 -2.1946 -0.8606
 8103SOL    HW235946   2.167   3.965  12.352  2.2714  0.7136 -0.6709
 8104SOL     OW35947   0.609   2.274   2.955 -0.0370  0.3876  0.0020
 8104SOL    HW135948   0.636   2.251   2.867  0.0489  2.3143 -0.4690
 8104SOL    HW235949   0.662   2.352   2.974  0.4073  0.1001 -0.0600
 8105SOL     OW35950   3.924   0.510  16.771  0.2459  0.2949  0.0674
 8105SOL    HW135951   3.893   0.600  16.784  1.0012  0.5033  0.4316
 8105SOL    HW235952   4.013   0.517  16.804  0.1359 -0.1371  0.4548
 8106SOL     OW35953   2.589   1.179   4.012 -0.0535 -0.0045 -0.5003
 8106SOL    HW135954   2.584   1.257   3.956 -2.0976 -1.5737 -2.4999
 8106SOL    HW235955   2.682   1.156   4.015 -0.0866 -0.2649 -1.5716
 8107SOL     OW35956   1.710   0.170   2.057 -0.2929 -0.1020  0.0446
 8107SOL    HW135957   1.717   0.146   1.964  0.7010 -0.9917  0.3522
 8107SOL    HW235958   1.759   0.251   2.063  1.0278 -1.3083  5.1592
 8108SOL     OW35959   3.135   0.045   4.420  0.2156 -0.4358 -0.6385
 8108SOL    HW135960   3.107   0.116   4.362 -1.2452  0.3820  1.0488
 8108SOL    HW235961   3.204   0.093   4.467 -0.0049  0.1796 -0.9420
 8109SOL     OW35962   0.911   4.484  10.021  0.5914  0.5031 -0.4226
 8109SOL    HW135963   1.006   4.478  10.016  0.3908 -3.1440  0.5225
 8109SOL    HW235964   0.903   4.552  10.088 -0.3696 -2.0972  2.0805
 8110SOL     OW35965   2.498   0.520   5.625  0.0728  0.3511  0.0320
 8110SOL    HW135966   2.546   0.569   5.558 -2.0705  1.7258 -0.4696
 8110SOL    HW235967   2.523   0.429   5.607 -2.2523  0.2781 -2.7364
 8111SOL     OW35968   3.789   2.157   2.113 -0.0583 -0.2728  0.0099
 8111SOL    HW135969   3.849   2.211   2.062  0.2331 -1.7686 -1.2457
 8111SOL    HW235970   3.840   2.084   2.147 -0.7419 -0.4535  0.6476
 8112SOL     OW35971   3.346   1.310   2.675  0.4919 -0.3955 -0.0082
 8112SOL    HW135972   3.413   1.331   2.741 -0.6375  2.3003  0.2984
 8112SOL    HW235973   3.297   1.241   2.719  0.6815 -0.8470 -0.5095
 8113SOL     OW35974   4.694   2.506  16.682 -0.4533  0.5473  0.1505
 8113SOL    HW135975   4.680   2.586  16.630  1.2920  0.1018 -1.0171
 8113SOL    HW235976   4.724   2.444  16.615 -1.2224 -0.0764  0.4017
 8114SOL     OW35977   0.378   2.041   2.847 -0.7577 -0.1854  0.1395
 8114SOL    HW135978   0.371   1.978   2.776 -2.6874 -0.0999  0.2534
 8114SOL    HW235979   0.444   2.104   2.819 -0.3501 -1.9363 -2.7453
 8115SOL     OW35980   2.066   3.246   7.612  0.0233 -0.2322 -0.0807
 8115SOL    HW135981   2.070   3.256   7.707  2.2838 -2.1350  0.0108
 8115SOL    HW235982   2.028   3.160   7.593 -2.0198  0.8664 -1.0106
 8116SOL     OW35983   2.451   3.151   5.554  0.1479  0.2641 -0.0717
 8116SOL    HW135984   2.486   3.210   5.621 -0.0980 -0.4177  0.6643
 8116SOL    HW235985   2.385   3.207   5.515 -0.7721 -1.8444 -1.5565
 8117SOL     OW35986   3.547   2.001   5.550  0.4208 -0.3781  0.4139
 8117SOL    HW135987   3.609   2.033   5.616 -1.1221  0.9378  1.2142
 8117SOL    HW235988   3.467   2.038   5.589 -0.1448 -2.0964  0.8550
 8118SOL     OW35989   2.138   2.045   5.575 -0.9419  0.1134 -0.3812
 8118SOL    HW135990   2.061   2.043   5.633  0.0066 -1.8609  0.7796
 8118SOL    HW235991   2.097   2.052   5.489 -0.1606  1.0666 -0.6698
 8119SOL     OW35992   1.587   4.182   2.249 -0.1573  0.1005  0.4253
 8119SOL    HW135993   1.629   4.246   2.306  0.7938 -0.3637  0.2379
 8119SOL    HW235994   1.585   4.102   2.302 -0.1689 -0.3712 -0.2859
 8120SOL     OW35995   1.183   1.181   3.803 -0.0557 -0.4025  0.0229
 8120SOL    HW135996   1.278   1.175   3.807  0.0685  0.0514 -2.2018
 8120SOL    HW235997   1.162   1.088   3.814 -1.1314 -0.1062  0.4888
 8121SOL     OW35998   1.099   4.501  11.960 -0.0009  0.1989 -0.4347
 8121SOL    HW135999   1.165   4.562  11.993 -1.0306  0.4331  1.1619
 8121SOL    HW236000   1.045   4.559  11.906 -1.3506 -0.7155 -0.0372
 8122SOL     OW36001   1.014   2.571   3.563 -0.1226 -0.1825  0.2556
 8122SOL    HW136002   1.071   2.621   3.504 -0.3719  0.5731  0.6581
 8122SOL    HW236003   1.047   2.484   3.541  1.9749 -0.1088  3.0790
 8123SOL     OW36004   4.409   1.661   7.283  0.3154  0.1222 -0.1693
 8123SOL    HW136005   4.319   1.629   7.295 -0.0777  1.0743 -0.6378
 8123SOL    HW236006   4.443   1.588   7.231 -0.1878 -0.5548  0.4461
 8124SOL     OW36007   1.977   2.870   3.465 -0.4024 -0.4897  0.2165
 8124SOL    HW136008   1.922   2.874   3.543  0.7353  0.2954  0.9822
 8124SOL    HW236009   1.972   2.778   3.439 -0.5280 -0.2446 -0.6329
 8125SOL     OW36010   0.874   4.581   9.647  0.2085  0.4199  0.7791
 8125SOL    HW136011   0.926   4.648   9.692  3.0137 -0.8756 -0.5209
 8125SOL    HW236012   0.819   4.636   9.591  0.8120 -1.4640 -1.6772
 8126SOL     OW36013   1.536   3.553   1.897  0.0785 -0.0279 -0.2194
 8126SOL    HW136014   1.445   3.578   1.883  0.1093  0.0066 -0.3585
 8126SOL    HW236015   1.546   3.482   1.834  0.0194 -0.0318 -0.2247
 8127SOL     OW36016   4.074   2.785   1.282 -0.8385 -0.5459 -0.3293
 8127SOL    HW136017   4.011   2.712   1.284  1.7099 -2.7492 -0.7653
 8127SOL    HW236018   4.147   2.747   1.234 -1.0417 -0.5774 -0.6112
 8128SOL     OW36019   2.634   4.496   2.250  0.4048 -0.4437  0.0266
 8128SOL    HW136020   2.693   4.427   2.221  2.2834  1.1999 -0.1018
 8128SOL    HW236021   2.681   4.568   2.292 -2.0117 -0.6494  3.1097
 8129SOL     OW36022   3.747   4.140   7.857 -0.5390  0.8925  0.7767
 8129SOL    HW136023   3.814   4.082   7.820  1.3820  1.6092  3.1131
 8129SOL    HW236024   3.716   4.075   7.921 -1.4347  0.6457  0.0825
 8130SOL     OW36025   2.140   1.158  16.465 -0.2421 -0.3422  0.5785
 8130SOL    HW136026   2.219   1.210  16.480  0.0225 -0.6272  0.1712
 8130SOL    HW236027   2.161   1.070  16.497 -2.6738 -1.2229 -0.3058
 8131SOL     OW36028   4.331   2.602   1.707 -0.2677 -0.4234  0.3446
 8131SOL    HW136029   4.420   2.637   1.703 -0.7414  0.8409  0.9183
 8131SOL    HW236030   4.286   2.686   1.701 -0.3022 -0.6085 -2.1148
 8132SOL     OW36031   4.117   4.303   9.802  0.5728 -0.9288  0.7104
 8132SOL    HW136032   4.180   4.337   9.738 -0.2824  1.4491  1.1242
 8132SOL    HW236033   4.168   4.330   9.879  0.0873  1.4421  0.2068
 8133SOL     OW36034   1.725   0.778   6.020  0.7290  0.1854 -0.5788
 8133SOL    HW136035   1.729   0.874   6.015 -0.7860  0.2571 -0.6536
 8133SOL    HW236036   1.815   0.776   6.052  0.5206  2.6770  0.1764
 8134SOL     OW36037   0.115   0.294  16.236  0.3297  0.2540  0.2931
 8134SOL    HW136038   0.107   0.311  16.143  0.4566 -1.5238 -0.0393
 8134SOL    HW236039   0.124   0.199  16.237  0.4803  0.2725  1.1182
 8135SOL     OW36040   1.642   0.723   7.748  0.1588 -0.1789 -0.4453
 8135SOL    HW136041   1.596   0.796   7.707 -0.0415 -0.2697 -0.3782
 8135SOL    HW236042   1.586   0.705   7.823  0.8967  0.0188  0.1521
 8136SOL     OW36043   3.221   0.669  12.803  0.0314  0.0919  0.3361
 8136SOL    HW136044   3.259   0.638  12.885  1.2875  0.4265 -0.1276
 8136SOL    HW236045   3.301   0.682  12.753 -0.1970  0.6842  0.1189
 8137SOL     OW36046   4.533   0.991   8.187 -0.6156 -0.1375  0.3877
 8137SOL    HW136047   4.486   1.073   8.205  0.1099 -0.2188  2.6094
 8137SOL    HW236048   4.468   0.931   8.150 -0.6315  0.8626 -1.2309
 8138SOL     OW36049   2.122   4.656  16.059  0.2513  0.4304 -0.4751
 8138SOL    HW136050   2.149   4.565  16.047  0.3735  0.4567 -0.4024
 8138SOL    HW236051   2.046   4.655  16.001  0.7127 -0.1746 -1.0683
 8139SOL     OW36052   0.793   4.304   6.224  0.0987 -0.0971  0.6906
 8139SOL    HW136053   0.825   4.253   6.149  0.6426  0.5955  0.4526
 8139SOL    HW236054   0.705   4.326   6.195  0.1763 -2.1331 -1.1045
 8140SOL     OW36055   4.097   3.655   6.037 -0.4649  0.3783  0.6292
 8140SOL    HW136056   4.181   3.694   6.062 -0.9771 -0.2553  3.4174
 8140SOL    HW236057   4.112   3.563   6.058  0.6193  0.3568 -0.2234
 8141SOL     OW36058   0.669   2.070   0.639 -0.3225 -0.2169 -0.0176
 8141SOL    HW136059   0.583   2.057   0.600  0.4512  2.0416 -2.4167
 8141SOL    HW236060   0.725   2.050   0.564 -1.1827  0.7126 -0.8959
 8142SOL     OW36061   4.035   3.639   2.233 -0.4395 -0.4923  0.3182
 8142SOL    HW136062   4.011   3.722   2.193 -1.3816 -1.0864 -0.3591
 8142SOL    HW236063   4.112   3.661   2.285 -0.3530  0.8041 -0.3790
 8143SOL     OW36064   1.005   3.896  12.036  0.7430  0.1657 -0.4109
 8143SOL    HW136065   1.047   3.851  11.963  0.7680 -1.3103  0.5187
 8143SOL    HW236066   1.059   3.859  12.106  1.7690  0.6521 -0.9316
 8144SOL     OW36067   3.701   3.537   6.558 -0.4058  0.2255 -0.2839
 8144SOL    HW136068   3.776   3.541   6.618 -2.3647 -0.2250  2.1836
 8144SOL    HW236069   3.744   3.483   6.492 -0.4055 -3.0616  2.3595
 8145SOL     OW36070   4.678   1.222   3.033  0.0407  0.1671 -0.1883
 8145SOL    HW136071   4.638   1.138   3.013 -3.3118  1.4482  1.1301
 8145SOL    HW236072   4.664   1.263   2.948 -1.8624 -0.6829 -0.2924
 8146SOL     OW36073   2.007   2.277   1.887  0.2527 -0.0298 -0.7385
 8146SOL    HW136074   2.097   2.303   1.865  0.4767 -0.3473 -0.2054
 8146SOL    HW236075   2.014   2.265   1.982  1.0593 -3.1603 -1.1795
 8147SOL     OW36076   0.102   1.720   5.505  0.2357  0.6306  0.0860
 8147SOL    HW136077   0.181   1.701   5.454 -1.3731 -2.3694 -1.3170
 8147SOL    HW236078   0.033   1.684   5.449  0.1584  0.9977 -0.0552
 8148SOL     OW36079   3.704   4.118  17.022  0.3661  0.1245  0.2616
 8148SOL    HW136080   3.767   4.117  17.094 -0.9868 -2.4457  1.4084
 8148SOL    HW236081   3.730   4.196  16.972 -0.2775  0.8546  1.0620
 8149SOL     OW36082   2.416   2.772   9.873  0.3129 -0.1375  0.0437
 8149SOL    HW136083   2.497   2.808   9.909  0.4686 -0.4527  0.0126
 8149SOL    HW236084   2.457   2.707   9.816  0.1882 -0.5883  0.4608
 8150SOL     OW36085   4.558   0.841   9.853 -0.0070  0.2550  0.1981
 8150SOL    HW136086   4.631   0.802   9.806 -0.8735  0.3905 -1.2774
 8150SOL    HW236087   4.599   0.918   9.893  0.0212  0.5482 -0.3861
 8151SOL     OW36088   0.444   2.343   8.092 -0.3219  0.6507 -0.1506
 8151SOL    HW136089   0.359   2.314   8.057  0.0720  0.7930 -1.2263
 8151SOL    HW236090   0.486   2.264   8.125 -0.1744  1.5973  1.9248
 8152SOL     OW36091   1.317   2.733   3.641  0.3514  0.1599  0.0387
 8152SOL    HW136092   1.369   2.808   3.613 -0.4257  1.1447  1.2407
 8152SOL    HW236093   1.275   2.701   3.561 -0.0920  2.8090 -0.8016
 8153SOL     OW36094   4.124   3.672   9.537  0.8270  0.1567  0.0505
 8153SOL    HW136095   4.165   3.744   9.489  0.5526  0.2513 -0.0448
 8153SOL    HW236096   4.185   3.612   9.495 -0.0461 -0.3819 -0.4310
 8154SOL     OW36097   4.703   2.801   9.532 -0.2241 -0.7324  0.1182
 8154SOL    HW136098   4.681   2.859   9.605  1.8344  0.0654  0.1008
 8154SOL    HW236099   4.717   2.720   9.582  1.1136  0.0313  0.9701
 8155SOL     OW36100   4.247   4.657  10.530  0.1722 -0.4172  0.1061
 8155SOL    HW136101   4.203   4.595  10.587  0.5973  0.8951  1.8573
 8155SOL    HW236102   4.218   0.003  10.569  0.6697 -0.1899  0.0045
 8156SOL     OW36103   3.579   1.807  12.242 -0.2183  0.0072 -0.8269
 8156SOL    HW136104   3.659   1.772  12.280 -0.2044  1.7970  0.7979
 8156SOL    HW236105   3.507   1.761  12.285  1.0541 -0.5828  0.6566
 8157SOL     OW36106   1.726   2.010   0.175  0.4609  1.1224 -0.0265
 8157SOL    HW136107   1.707   2.010   0.269 -0.4876 -0.4296 -0.2160
 8157SOL    HW236108   1.821   2.009   0.172  0.5333  4.3076  1.5510
 8158SOL     OW36109   0.482   1.492   2.019  0.5469 -0.0602 -0.2785
 8158SOL    HW136110   0.436   1.430   2.077 -0.4947 -0.8786 -1.9573
 8158SOL    HW236111   0.546   1.536   2.075 -0.9504  1.0067  0.6106
 8159SOL     OW36112   3.947   2.853  11.356 -1.0111  0.1357 -0.1859
 8159SOL    HW136113   3.878   2.796  11.390 -0.5520 -0.8980 -0.9676
 8159SOL    HW236114   4.027   2.800  11.362 -0.9621  0.1269 -0.9168
 8160SOL     OW36115   0.386   0.662   4.616  0.0719 -0.3765 -1.0660
 8160SOL    HW136116   0.414   0.624   4.533 -0.4724 -0.1154 -1.3694
 8160SOL    HW236117   0.396   0.589   4.676  1.0896 -1.7196 -2.8830
 8161SOL     OW36118   2.324   4.365   2.891 -0.5467  0.3462  0.1771
 8161SOL    HW136119   2.341   4.333   2.980  1.4739 -2.0306 -1.0476
 8161SOL    HW236120   2.279   4.296   2.842  1.1893  0.7411 -1.9219
 8162SOL     OW36121   3.364   4.706   1.425 -0.0394  0.5764 -0.0543
 8162SOL    HW136122   3.367   4.618   1.464 -1.4559  0.5994  0.1262
 8162SOL    HW236123   3.270   4.709   1.409  0.1021  3.8789 -0.1910
 8163SOL     OW36124   4.634   1.825   4.341 -0.1397  0.3744 -0.0035
 8163SOL    HW136125   4.548   1.825   4.299 -0.2059  0.3658  0.1347
 8163SOL    HW236126   4.607   1.886   4.409  2.0678  0.9102  0.4063
 8164SOL     OW36127   1.192   3.603   8.716 -0.5480 -0.4581 -1.0849
 8164SOL    HW136128   1.204   3.542   8.789 -0.1858 -0.1356 -0.8759
 8164SOL    HW236129   1.281   3.614   8.683  0.4998  0.1322  1.9965
 8165SOL     OW36130   1.115   3.315   4.818 -0.2674  0.4315 -0.1354
 8165SOL    HW136131   1.020   3.320   4.809 -0.2742  1.0354  0.2798
 8165SOL    HW236132   1.129   3.221   4.808  0.2202  0.5836 -0.9931
 8166SOL     OW36133   0.508   1.975   1.699 -0.5995  0.0761  0.2637
 8166SOL    HW136134   0.483   1.952   1.610 -1.5591 -0.6497  0.7201
 8166SOL    HW236135   0.512   1.889   1.740  1.5894  0.9197  1.8286
 8167SOL     OW36136   4.551   1.845  11.986  0.3911  0.0346  0.2296
 8167SOL    HW136137   4.603   1.801  11.919  1.1311  2.0602 -0.5435
 8167SOL    HW236138   4.618   1.909  12.011 -0.4180  0.3251  1.6732
 8168SOL     OW36139   1.691   2.894   0.689  0.5151  0.3109 -0.0720
 8168SOL    HW136140   1.773   2.899   0.640  0.8533  0.2654  0.4910
 8168SOL    HW236141   1.700   2.832   0.761 -0.2586 -0.2216 -0.4344
 8169SOL     OW36142   1.544   0.100   9.377 -0.0863 -0.0933 -0.2002
 8169SOL    HW136143   1.517   0.099   9.285  0.1741  1.4418 -0.3003
 8169SOL    HW236144   1.490   0.171   9.412  0.2339 -0.6953  1.5468
 8170SOL     OW36145   3.337   3.829  17.113  0.1140  0.1987  0.0541
 8170SOL    HW136146   3.344   3.749  17.165  1.1957  0.0512 -0.3311
 8170SOL    HW236147   3.406   3.877  17.157 -0.3377  1.2243 -0.3553
 8171SOL     OW36148   2.559   0.591  11.624 -0.0243 -0.2387 -0.9841
 8171SOL    HW136149   2.555   0.508  11.577 -0.7825 -0.8188  0.1308
 8171SOL    HW236150   2.521   0.572  11.709  1.5609  0.6575 -0.0642
 8172SOL     OW36151   2.966   2.559   6.215  0.1861 -0.3176 -0.7282
 8172SOL    HW136152   2.941   2.556   6.123 -0.2832 -1.0666 -0.5719
 8172SOL    HW236153   2.991   2.652   6.223 -3.2292  0.6099 -0.7773
 8173SOL     OW36154   3.963   4.533   1.445  0.3554 -0.0172  0.4617
 8173SOL    HW136155   4.022   4.543   1.371 -0.0889  2.3295  0.4340
 8173SOL    HW236156   3.893   4.482   1.405  0.5216 -0.2971  0.5299
 8174SOL     OW36157   4.270   0.325   4.921  0.7665 -0.1322  0.0678
 8174SOL    HW136158   4.208   0.260   4.888  1.7348 -0.7417 -0.5370
 8174SOL    HW236159   4.351   0.284   4.894  1.5393  0.7110  1.0642
 8175SOL     OW36160   3.901   3.194   2.385 -0.0643 -0.1678 -0.5478
 8175SOL    HW136161   3.822   3.199   2.331  0.0272 -0.2055 -0.6832
 8175SOL    HW236162   3.974   3.222   2.329  0.9534  0.4342  1.0735
 8176SOL     OW36163   3.725   0.164   2.389 -0.2618  0.0444 -0.5428
 8176SOL    HW136164   3.744   0.250   2.424 -1.4662  0.8999 -1.9751
 8176SOL    HW236165   3.661   0.129   2.452 -0.1471  0.2363 -0.3225
 8177SOL     OW36166   2.917   4.727   7.301  0.3915  0.0720 -0.0993
 8177SOL    HW136167   2.922   0.081   7.332  2.5810 -0.0437 -0.1364
 8177SOL    HW236168   2.832   4.702   7.336  0.6137 -1.9208 -0.9788
 8178SOL     OW36169   3.523   3.831   4.469 -0.0574  0.3230 -0.4465
 8178SOL    HW136170   3.552   3.915   4.504  1.8213  0.0691 -1.3708
 8178SOL    HW236171   3.565   3.829   4.383  0.0389  0.6404 -0.4047
 8179SOL     OW36172   4.644   4.210   8.269  0.4205 -0.1073  0.1713
 8179SOL    HW136173   4.624   4.302   8.254 -2.2711 -0.8508 -0.7318
 8179SOL    HW236174   4.559   4.170   8.289  0.1767  0.6884  0.7579
 8180SOL     OW36175   2.917   1.684  12.197 -0.8981 -0.1675 -0.1726
 8180SOL    HW136176   2.903   1.759  12.138 -0.4364  0.9135  1.1018
 8180SOL    HW236177   3.004   1.699  12.234 -0.1879  0.9786 -2.3099
 8181SOL     OW36178   2.378   1.794   1.475 -0.0652 -0.0552 -0.0288
 8181SOL    HW136179   2.467   1.793   1.439  0.0377  1.1614  0.1987
 8181SOL    HW236180   2.346   1.704   1.466  2.2259 -0.9347  0.4584
 8182SOL     OW36181   4.641   1.289  11.541 -1.0940 -0.0471  0.8619
 8182SOL    HW136182   4.652   1.299  11.636  0.3509  0.7007  0.6079
 8182SOL    HW236183   4.569   1.347  11.518  0.6650  1.2561 -1.2827
 8183SOL     OW36184   2.808   1.119   3.442  0.0245  0.5010  0.0756
 8183SOL    HW136185   2.885   1.161   3.405  0.4447  0.7324  1.2273
 8183SOL    HW236186   2.739   1.173   3.405 -0.6576 -0.2474  0.2424
 8184SOL     OW36187   2.136   4.394   3.802 -0.1218 -0.2757 -0.3166
 8184SOL    HW136188   2.217   4.431   3.766  0.5132 -1.0242  0.3306
 8184SOL    HW236189   2.084   4.474   3.796 -0.9647 -0.9368 -1.7910
 8185SOL     OW36190   1.307   0.748   6.987  0.7151 -0.1584 -0.3436
 8185SOL    HW136191   1.351   0.666   7.010  0.4462  0.7016  3.3486
 8185SOL    HW236192   1.310   0.779   7.078 -1.6068  0.4496 -0.4655
 8186SOL     OW36193   1.951   0.257   7.927 -0.5439  0.5433  0.7994
 8186SOL    HW136194   1.924   0.320   7.993 -1.7638  0.8460 -0.0030
 8186SOL    HW236195   1.868   0.229   7.888  0.8147 -0.8845 -1.0483
 8187SOL     OW36196   0.986   2.424   2.187 -0.0909 -0.2959 -0.1563
 8187SOL    HW136197   0.936   2.481   2.129 -1.5952 -2.1495 -0.7048
 8187SOL    HW236198   0.977   2.335   2.153 -0.6678  0.5782 -2.3155
 8188SOL     OW36199   4.457   1.937   7.975 -0.3287 -0.3358  0.0657
 8188SOL    HW136200   4.493   1.978   8.054  1.5544  1.9521 -2.0023
 8188SOL    HW236201   4.506   1.976   7.904 -1.4552 -0.2825 -0.6770
 8189SOL     OW36202   2.655   1.978   8.385  0.2821 -0.3442  0.4894
 8189SOL    HW136203   2.667   1.993   8.478 -0.2920 -1.6633  0.7742
 8189SOL    HW236204   2.722   1.917   8.354  1.2856  1.4158 -0.7972
 8190SOL     OW36205   4.213   4.228  10.825 -0.3502  0.7319 -0.2490
 8190SOL    HW136206   4.198   4.268  10.910 -1.7999  0.3532 -0.3324
 8190SOL    HW236207   4.243   4.299  10.768  3.0078 -0.1695  0.4002
 8191SOL     OW36208   2.446   2.921   8.471  0.1163 -0.4249  0.1409
 8191SOL    HW136209   2.524   2.915   8.415  0.5283  0.3072  0.6220
 8191SOL    HW236210   2.476   2.866   8.544 -2.0618 -1.6788  0.0897
 8192SOL     OW36211   0.019   2.079   6.529 -0.2795 -0.7472 -0.0287
 8192SOL    HW136212   4.706   2.150   6.570  0.6479 -0.1556  0.0665
 8192SOL    HW236213   4.736   2.023   6.604 -0.2052  0.2350  0.7134
 8193SOL     OW36214   1.798   1.570   8.268  0.6717  0.5217 -0.1323
 8193SOL    HW136215   1.791   1.520   8.187  2.0611 -2.0724  1.3376
 8193SOL    HW236216   1.881   1.616   8.253  0.9707 -0.0782 -0.3268
 8194SOL     OW36217   1.421   0.683   5.683  0.2620 -0.4468  0.3371
 8194SOL    HW136218   1.351   0.725   5.732  0.2058  1.0800 -1.0556
 8194SOL    HW236219   1.419   0.593   5.715  0.5716 -0.6956 -0.3378
 8195SOL     OW36220   4.562   1.421   8.771 -0.3540 -1.2349  0.2834
 8195SOL    HW136221   4.582   1.397   8.680 -0.7778  2.4900 -0.7860
 8195SOL    HW236222   4.642   1.468   8.793 -1.4101  0.3420  0.7139
 8196SOL     OW36223   0.542   3.465   3.418  0.6286  0.0514 -0.1028
 8196SOL    HW136224   0.585   3.530   3.473  0.5546  0.9462 -1.0911
 8196SOL    HW236225   0.587   3.389   3.454 -3.4859 -1.1148  2.5862
 8197SOL     OW36226   3.781   0.437   6.822 -0.4530 -0.3340  0.5283
 8197SOL    HW136227   3.729   0.365   6.858 -0.8098 -0.4746 -0.2776
 8197SOL    HW236228   3.763   0.426   6.729  1.2970 -1.6614  0.3431
 8198SOL     OW36229   2.133   1.981   4.124 -0.5982 -0.1528 -0.2626
 8198SOL    HW136230   2.099   2.024   4.045 -1.3274  1.5875  0.9911
 8198SOL    HW236231   2.104   1.891   4.114 -0.1048 -0.2158 -1.1775
 8199SOL     OW36232   0.043   1.361   9.293 -0.4296  1.2204  0.4600
 8199SOL    HW136233   0.012   1.311   9.368  0.2251 -0.7580 -0.5723
 8199SOL    HW236234   0.033   1.292   9.226 -1.1195  1.3622  0.4105
 8200SOL     OW36235   2.605   2.821   4.255 -0.2908  0.2690 -0.0393
 8200SOL    HW136236   2.581   2.913   4.259  0.7887  0.6750 -2.7901
 8200SOL    HW236237   2.654   2.799   4.335 -1.3816 -0.5491  0.4029
 8201SOL     OW36238   4.307   3.240   7.708 -0.4721  0.0612 -0.2645
 8201SOL    HW136239   4.305   3.169   7.644  1.0967 -0.0138 -0.2474
 8201SOL    HW236240   4.360   3.210   7.782  0.1769 -1.0744 -1.1933
 8202SOL     OW36241   3.523   2.030   9.547 -0.4707 -0.1840 -0.0586
 8202SOL    HW136242   3.481   2.034   9.461  0.9559 -1.6620 -0.8137
 8202SOL    HW236243   3.605   2.078   9.533  0.0651 -0.4550  2.2486
 8203SOL     OW36244   0.459   1.079  11.626  0.2572  0.2969 -0.3727
 8203SOL    HW136245   0.410   1.006  11.588 -0.1455 -1.1646  2.9336
 8203SOL    HW236246   0.397   1.138  11.670 -0.5190 -0.8045  0.0246
 8204SOL     OW36247   2.018   1.028   8.244  0.2534 -0.1509  0.1022
 8204SOL    HW136248   2.089   1.092   8.253  0.5274 -0.5936  1.1020
 8204SOL    HW236249   1.962   1.071   8.179 -1.5030 -1.4724  0.7413
 8205SOL     OW36250   1.534   4.334   9.172  0.0183 -0.1624 -0.7305
 8205SOL    HW136251   1.584   4.276   9.229 -0.4061 -0.2317 -0.4292
 8205SOL    HW236252   1.590   4.341   9.095  0.9754 -0.4308 -0.0565
 8206SOL     OW36253   4.452   2.254   5.002  0.4375  0.6920 -0.5349
 8206SOL    HW136254   4.374   2.200   4.987  0.6761  0.0271  0.6347
 8206SOL    HW236255   4.457   2.317   4.929  0.9700  1.3957  0.1104
 8207SOL     OW36256   3.071   1.966   8.413 -0.6211 -0.1134 -0.1348
 8207SOL    HW136257   2.976   1.961   8.396 -0.4500 -1.1986 -0.7232
 8207SOL    HW236258   3.098   1.957   8.321  0.2307  1.0758 -0.0011
 8208SOL     OW36259   3.951   0.661  11.871 -0.3320 -0.0393 -0.4984
 8208SOL    HW136260   3.884   0.667  11.939  0.5284  0.5577  0.2917
 8208SOL    HW236261   3.898   0.685  11.795  0.3155  0.7090 -0.7047
 8209SOL     OW36262   4.633   2.093   6.239  0.3759 -0.2022  0.5215
 8209SOL    HW136263   4.715   2.062   6.278 -0.3050 -0.7544  1.5161
 8209SOL    HW236264   4.670   2.161   6.182 -1.2043 -2.4853 -3.2454
 8210SOL     OW36265   1.397   2.163  14.097  0.4976 -0.0548 -0.3172
 8210SOL    HW136266   1.469   2.167  14.034 -0.0221  1.5650 -0.8075
 8210SOL    HW236267   1.367   2.254  14.098 -3.8026 -1.4903  2.1839
 8211SOL     OW36268   0.920   0.850   0.123 -0.1868  0.4771  0.1831
 8211SOL    HW136269   0.995   0.795   0.149  0.5328  1.6576  0.5852
 8211SOL    HW236270   0.969   0.928   0.096  1.3606 -1.7514 -3.5195
 8212SOL     OW36271   1.723   2.504   9.396 -0.0475  0.6101 -0.3509
 8212SOL    HW136272   1.764   2.440   9.337 -0.6945  1.5349 -1.8268
 8212SOL    HW236273   1.774   2.582   9.374  0.3336  0.5768  0.4337
 8213SOL     OW36274   3.623   2.092   1.051  0.2512 -0.1090  0.0836
 8213SOL    HW136275   3.603   2.019   0.992 -0.9992 -1.7010  2.4799
 8213SOL    HW236276   3.546   2.147   1.056  1.6928  2.0979 -1.8257
 8214SOL     OW36277   3.577   1.782   0.013  0.9862 -0.0504 -0.1199
 8214SOL    HW136278   3.545   1.700  17.719 -0.6346  1.4512 -2.0186
 8214SOL    HW236279   3.668   1.789  17.731  1.5085 -0.0230  1.6728
 8215SOL     OW36280   0.597   1.674  14.050 -0.4756 -0.6941 -0.0643
 8215SOL    HW136281   0.512   1.651  14.012 -1.0099  0.5809  0.3541
 8215SOL    HW236282   0.560   1.750  14.094  2.4984 -0.1018  1.4371
 8216SOL     OW36283   0.137   3.034   6.936 -0.2919 -0.1482  0.1087
 8216SOL    HW136284   0.166   2.963   6.878 -1.2178 -0.5751  0.1672
 8216SOL    HW236285   0.213   3.054   6.990 -0.8788  4.2900 -0.6905
 8217SOL     OW36286   1.633   4.537   1.834 -0.3380  0.0830 -0.5278
 8217SOL    HW136287   1.570   4.604   1.858  0.7020  0.6061  0.7425
 8217SOL    HW236288   1.630   4.472   1.904  2.8736  0.4635 -0.0409
 8218SOL     OW36289   2.698   3.789   6.667 -1.0852  0.3449 -0.1171
 8218SOL    HW136290   2.722   3.863   6.723  1.6200 -0.1671 -0.5862
 8218SOL    HW236291   2.603   3.787   6.665 -1.0348 -0.8630 -1.1830
 8219SOL     OW36292   4.307   3.362   3.830  0.0470  0.2450  0.0309
 8219SOL    HW136293   4.315   3.302   3.756  2.4319  0.2691  0.2756
 8219SOL    HW236294   4.245   3.318   3.888  0.0565 -2.0542 -1.7302
 8220SOL     OW36295   2.148   2.109  11.222 -0.1016  0.3748 -0.1333
 8220SOL    HW136296   2.116   2.092  11.311  0.1083  1.2784  0.1137
 8220SOL    HW236297   2.098   2.050  11.164  1.0958  0.6149 -1.4008
 8221SOL     OW36298   2.925   0.913   2.221 -0.3645 -0.0008  0.1313
 8221SOL    HW136299   2.854   0.975   2.204 -0.0980 -0.1726 -1.5770
 8221SOL    HW236300   2.910   0.892   2.313 -0.9752  2.0498  0.5159
 8222SOL     OW36301   1.682   2.697   0.892 -0.3495 -0.5418  0.1674
 8222SOL    HW136302   1.601   2.685   0.942 -0.9161  0.3980 -0.5366
 8222SOL    HW236303   1.731   2.737   0.964 -0.9070 -0.1002  0.3026
 8223SOL     OW36304   2.601   0.178  10.229 -0.1311  0.2349  0.1155
 8223SOL    HW136305   2.593   0.137  10.315 -1.9031  0.1443 -0.0856
 8223SOL    HW236306   2.542   0.121  10.180  0.2992  0.9593 -1.2477
 8224SOL     OW36307   1.860   3.734   3.099 -0.2814 -0.1558 -0.2160
 8224SOL    HW136308   1.923   3.747   3.028 -2.9214  2.5037 -2.0841
 8224SOL    HW236309   1.901   3.768   3.178 -1.4625  0.4794  0.1164
 8225SOL     OW36310   1.308   4.681  12.536 -0.1958 -0.3892 -0.3075
 8225SOL    HW136311   1.363   0.022  12.524 -1.5407  0.5846 -0.1331
 8225SOL    HW236312   1.347   4.642  12.458 -1.5538  0.9999 -1.6911
 8226SOL     OW36313   4.292   0.008  13.696  0.2599  0.0414  0.5937
 8226SOL    HW136314   4.306   4.668  13.641 -1.3585 -0.2445  0.5606
 8226SOL    HW236315   4.299   0.064  13.619  0.3128  3.5424  3.1373
 8227SOL     OW36316   3.609   1.697   1.692  0.0249  0.3423 -0.0731
 8227SOL    HW136317   3.577   1.611   1.721  0.8645  0.6843  1.8308
 8227SOL    HW236318   3.549   1.760   1.732 -0.2480 -0.7527  1.2478
 8228SOL     OW36319   2.750   4.527   5.860  0.4164 -0.0421  0.5566
 8228SOL    HW136320   2.760   4.557   5.950 -0.7881  0.7870  0.4176
 8228SOL    HW236321   2.747   4.432   5.865  2.0005 -0.0895  0.8794
 8229SOL     OW36322   1.072   2.384   2.583  0.4196 -0.1460 -0.5643
 8229SOL    HW136323   1.070   2.315   2.649 -2.8315 -0.1172 -0.6084
 8229SOL    HW236324   1.127   2.447   2.630 -0.9965  0.3480  0.4457
 8230SOL     OW36325   2.956   4.175   3.253 -0.2245  0.5712  0.1075
 8230SOL    HW136326   3.020   4.243   3.233 -2.3084  1.0888 -4.9706
 8230SOL    HW236327   2.919   4.155   3.167  1.3085  0.7896 -0.6044
 8231SOL     OW36328   0.998   3.598   8.490  0.6946  0.6506 -0.0625
 8231SOL    HW136329   1.031   3.569   8.405  1.6984 -0.7460  0.8199
 8231SOL    HW236330   1.058   3.545   8.542 -1.3230  0.7578  2.4175
 8232SOL     OW36331   3.926   3.975   8.984 -0.0113 -0.1785  0.4273
 8232SOL    HW136332   3.915   3.890   8.941 -1.1789  0.3263 -0.2872
 8232SOL    HW236333   3.875   4.031   8.925  1.2351  2.0273  1.4438
 8233SOL     OW36334   4.069   0.357   7.454  0.3790 -0.5487 -0.5343
 8233SOL    HW136335   4.150   0.408   7.450 -0.9715  1.5256 -1.8163
 8233SOL    HW236336   4.055   0.337   7.361  3.2858 -1.6887 -0.7071
 8234SOL     OW36337   0.176   2.675   8.059 -0.1701 -0.2107 -0.0887
 8234SOL    HW136338   0.125   2.679   7.978  0.5085 -0.0467 -0.5102
 8234SOL    HW236339   0.106   2.649   8.119  0.0332  0.2968  0.3696
 8235SOL     OW36340   1.688   0.360   3.187 -0.1743 -0.0522 -0.1047
 8235SOL    HW136341   1.612   0.415   3.202  0.9444  1.2688  0.7617
 8235SOL    HW236342   1.758   0.421   3.211 -1.2153  1.6994 -1.5568
 8236SOL     OW36343   3.707   1.084   7.040 -0.5713 -0.4786  0.1068
 8236SOL    HW136344   3.645   1.019   7.008  0.2370 -1.3176  0.2615
 8236SOL    HW236345   3.672   1.162   6.995  1.2499  0.1770 -0.1873
 8237SOL     OW36346   3.793   3.061   6.272  0.0468 -0.2850 -0.0223
 8237SOL    HW136347   3.873   3.091   6.315  0.8482 -2.1256 -0.2189
 8237SOL    HW236348   3.808   2.967   6.262 -1.1510 -0.4090 -0.6534
 8238SOL     OW36349   2.024   4.715   7.119 -0.2881  0.6333 -0.0353
 8238SOL    HW136350   1.954   4.662   7.156 -0.2310 -0.1645 -1.0551
 8238SOL    HW236351   2.003   4.722   7.025 -3.6813  0.2173  0.6819
 8239SOL     OW36352   0.306   4.426   7.006  0.3001 -0.5372 -0.3356
 8239SOL    HW136353   0.212   4.424   6.987  0.0127  2.3465  0.8772
 8239SOL    HW236354   0.338   4.461   6.922 -2.4786  0.5266 -0.9574
 8240SOL     OW36355   4.304   0.049   7.203 -0.2214 -0.3430 -0.0032
 8240SOL    HW136356   4.236   4.719   7.204 -0.8242  0.2646 -2.6023
 8240SOL    HW236357   4.385   0.007   7.174 -0.3041 -0.1208 -0.5410
 8241SOL     OW36358   2.356   4.659   5.725 -0.3055  0.2340  0.3213
 8241SOL    HW136359   2.335   4.575   5.767  0.5340  0.4357  1.1390
 8241SOL    HW236360   2.357   4.631   5.634 -0.3169 -0.0639  0.4116
 8242SOL     OW36361   1.951   3.912   0.621 -0.0058 -0.6037  0.0597
 8242SOL    HW136362   1.893   3.962   0.679 -0.1964 -1.0340  0.2437
 8242SOL    HW236363   1.931   3.962   0.542 -1.4736 -0.4630  0.5141
 8243SOL     OW36364   4.417   4.042   8.293  0.4947  0.3806 -0.2858
 8243SOL    HW136365   4.399   3.952   8.320 -0.1697  0.9758  1.2415
 8243SOL    HW236366   4.332   4.086   8.307  0.0568  0.2527 -2.4128
 8244SOL     OW36367   2.772   0.132   6.300  0.9467 -0.0569 -0.1058
 8244SOL    HW136368   2.798   0.219   6.329 -1.0316  0.5398 -0.0939
 8244SOL    HW236369   2.751   0.094   6.385  1.2605 -0.5231 -0.2409
 8245SOL     OW36370   2.307   3.003   6.497  0.5260  0.3960  0.7513
 8245SOL    HW136371   2.399   3.025   6.513  0.7433  1.7452 -2.4677
 8245SOL    HW236372   2.259   3.058   6.560  1.7484  1.3491  0.8512
 8246SOL     OW36373   1.269   4.494   8.020  0.0170  0.3448 -0.0132
 8246SOL    HW136374   1.221   4.455   7.947 -1.2377  0.4110  0.7850
 8246SOL    HW236375   1.285   4.418   8.075  3.1125  0.3175 -0.9264
 8247SOL     OW36376   0.041   3.215   6.358 -0.2888 -0.5728  0.1888
 8247SOL    HW136377   4.725   3.218   6.438  0.2253  1.9685  0.4297
 8247SOL    HW236378   4.709   3.227   6.293  0.5950 -4.8115 -1.5563
 8248SOL     OW36379   3.373   3.140  12.355  0.8219 -0.3308  0.4691
 8248SOL    HW136380   3.318   3.184  12.420 -0.1646  0.3929 -0.8487
 8248SOL    HW236381   3.355   3.197  12.281 -0.9784 -0.2475  0.9722
 8249SOL     OW36382   3.184   2.560   4.273 -0.3551  0.1074 -0.5466
 8249SOL    HW136383   3.210   2.554   4.365 -1.7801  0.6306 -0.1051
 8249SOL    HW236384   3.113   2.624   4.285 -0.2350  0.0921  0.2431
 8250SOL     OW36385   2.682   2.301   9.975  0.2666 -0.6867 -0.6891
 8250SOL    HW136386   2.608   2.351   9.943  0.5402  0.0839 -0.1420
 8250SOL    HW236387   2.743   2.335   9.910  1.9706 -2.9547 -0.2988
 8251SOL     OW36388   3.094   2.869   4.525  0.2728  0.6922  0.1881
 8251SOL    HW136389   3.027   2.937   4.524 -1.6912 -1.2985 -2.6030
 8251SOL    HW236390   3.084   2.831   4.437  0.8634 -1.5306  1.0822
 8252SOL     OW36391   2.324   0.894   3.682  0.5501 -0.6529 -0.0295
 8252SOL    HW136392   2.373   0.922   3.759 -1.5297  2.1437  0.3113
 8252SOL    HW236393   2.399   0.895   3.623 -0.2811  2.1500 -1.0520
 8253SOL     OW36394   2.396   3.012  17.202  0.6809  0.0171 -0.1866
 8253SOL    HW136395   2.330   3.026  17.269  0.4597  1.2692 -0.6659
 8253SOL    HW236396   2.344   2.961  17.140 -0.1343 -0.2946  0.7456
 8254SOL     OW36397   4.086   4.013   7.555 -0.1227  0.0884 -0.0193
 8254SOL    HW136398   4.082   3.937   7.613  1.1257 -0.5250 -0.7489
 8254SOL    HW236399   4.024   4.072   7.599 -1.8507 -2.3000  0.7242
 8255SOL     OW36400   0.876   1.000   4.328  0.0382 -0.2709  0.3702
 8255SOL    HW136401   0.886   0.988   4.233  1.5836 -0.6660  0.5888
 8255SOL    HW236402   0.820   0.924   4.338 -1.0108  0.2864 -1.2599
 8256SOL     OW36403   3.400   4.612   0.266  0.7035  0.3940  0.1993
 8256SOL    HW136404   3.378   4.696   0.307  1.9029  0.6692  0.2779
 8256SOL    HW236405   3.396   4.636   0.174 -1.2078 -0.0930  0.1480
 8257SOL     OW36406   1.426   3.132  14.812  0.1376 -0.3888 -0.2463
 8257SOL    HW136407   1.383   3.111  14.729 -0.0841 -2.3720  0.3889
 8257SOL    HW236408   1.514   3.098  14.797  1.0747  1.3190  1.4359
 8258SOL     OW36409   3.530   2.310   7.455 -0.5125 -0.3025  0.5376
 8258SOL    HW136410   3.589   2.278   7.387 -0.4972 -0.4244  0.6098
 8258SOL    HW236411   3.591   2.354   7.514  1.2206 -1.0401 -0.6957
 8259SOL     OW36412   1.525   3.432  11.970 -0.3664 -0.5014  0.3815
 8259SOL    HW136413   1.552   3.379  11.894  0.0089  0.9509 -0.4865
 8259SOL    HW236414   1.504   3.506  11.914 -1.3421 -1.1778 -0.1401
 8260SOL     OW36415   0.035   1.132   9.089  0.1919  0.1368  0.2651
 8260SOL    HW136416   0.097   1.162   9.022 -1.1738 -0.1466 -1.1316
 8260SOL    HW236417   4.689   1.149   9.043  0.2291 -0.5938 -0.0728
 8261SOL     OW36418   3.771   3.019   2.112 -0.7706  0.5111  0.4264
 8261SOL    HW136419   3.846   2.971   2.147  0.3992  1.0651 -1.3356
 8261SOL    HW236420   3.712   2.946   2.092 -0.7436  0.4587  0.5381
 8262SOL     OW36421   1.682   3.247   6.629  0.1762  0.3943 -0.2802
 8262SOL    HW136422   1.613   3.313   6.631 -0.3866 -0.2554  1.7603
 8262SOL    HW236423   1.755   3.287   6.583  0.2173 -1.2557 -1.6707
 8263SOL     OW36424   1.022   0.789  14.402  0.5441  0.0613 -0.1179
 8263SOL    HW136425   1.008   0.862  14.462 -2.4428 -0.9504  0.3984
 8263SOL    HW236426   1.095   0.820  14.347 -0.3796  0.0542 -1.3660
 8264SOL     OW36427   3.485   0.940   8.854  0.6914  0.2886  0.1049
 8264SOL    HW136428   3.502   0.976   8.942  1.5403 -1.1294  0.5147
 8264SOL    HW236429   3.496   1.020   8.803  0.0372 -0.2453 -0.8569
 8265SOL     OW36430   2.986   0.066  16.140  0.1982  0.2261 -0.1209
 8265SOL    HW136431   2.952   0.155  16.133 -2.0627 -0.7871 -2.1115
 8265SOL    HW236432   2.919   0.006  16.171 -1.2318  1.1314 -1.4554
 8266SOL     OW36433   1.986   1.954   5.345  0.4685  0.5119  0.5589
 8266SOL    HW136434   1.945   1.930   5.261 -2.8967 -0.5395  2.4785
 8266SOL    HW236435   1.969   1.873   5.393 -0.4574  0.1044 -0.4508
 8267SOL     OW36436   0.566   1.408   4.840 -0.2608  0.3701  0.1912
 8267SOL    HW136437   0.491   1.400   4.900 -1.0049 -0.7207 -0.8813
 8267SOL    HW236438   0.521   1.350   4.779 -0.0768  0.7368 -0.2900
 8268SOL     OW36439   4.422   3.999  16.504  0.4998  0.8410 -0.1353
 8268SOL    HW136440   4.344   4.047  16.477 -0.4696  0.2271  1.5576
 8268SOL    HW236441   4.454   3.961  16.421  0.6343 -1.3998  0.9471
 8269SOL     OW36442   3.379   0.628  13.009  0.0071  0.2873  0.0099
 8269SOL    HW136443   3.417   0.549  13.047  1.9598  1.3406  0.2373
 8269SOL    HW236444   3.450   0.673  12.964 -0.5955 -0.8766 -2.1552
 8270SOL     OW36445   1.281   1.720   0.600 -0.2925  0.0175  0.2425
 8270SOL    HW136446   1.371   1.736   0.571 -0.5776  0.7030 -0.2542
 8270SOL    HW236447   1.265   1.790   0.664  1.5103 -0.9952  1.8193
 8271SOL     OW36448   0.189   0.938   9.286 -0.0057 -0.0874 -0.0232
 8271SOL    HW136449   0.095   0.950   9.298 -0.2570 -0.1764 -1.8348
 8271SOL    HW236450   0.199   0.939   9.191 -1.0202  0.0919 -0.1288
 8272SOL     OW36451   1.675   1.027  14.846 -0.0958 -0.0510 -0.3709
 8272SOL    HW136452   1.761   1.016  14.806  1.4314 -0.1260  2.9774
 8272SOL    HW236453   1.628   0.999  14.767 -0.8093 -2.0844  0.7763
 8273SOL     OW36454   2.801   3.170   7.969  0.2321 -0.2635 -0.1313
 8273SOL    HW136455   2.843   3.084   7.978 -2.5375 -1.4446  1.4073
 8273SOL    HW236456   2.873   3.230   7.949  1.7569 -1.9972  0.1369
 8274SOL     OW36457   3.846   3.278  17.183  0.4715  0.5289 -0.0253
 8274SOL    HW136458   3.885   3.232  17.109 -0.4579 -0.6693  0.2391
 8274SOL    HW236459   3.923   3.328  17.210  1.4862  0.0009 -1.9769
 8275SOL     OW36460   1.450   2.581   1.019  0.2907  0.6170  0.6808
 8275SOL    HW136461   1.482   2.560   1.107  1.3450  3.4468  0.9573
 8275SOL    HW236462   1.403   2.658   1.049  1.5440  0.3494  3.3184
 8276SOL     OW36463   4.122   0.668  10.252 -0.4375 -0.3167  0.0714
 8276SOL    HW136464   4.210   0.631  10.248 -0.1881  0.0410  2.0554
 8276SOL    HW236465   4.093   0.630  10.169 -0.6196  0.7319 -0.3527
 8277SOL     OW36466   2.431   2.333  17.227  0.6292 -0.0112  0.0749
 8277SOL    HW136467   2.359   2.358  17.169  0.5426  0.6261  0.4545
 8277SOL    HW236468   2.390   2.332  17.314  2.1435 -0.8638  0.7830
 8278SOL     OW36469   2.107   2.976   8.305  0.0017  0.1387  0.7133
 8278SOL    HW136470   2.158   2.992   8.385  0.9496 -0.1193  0.1681
 8278SOL    HW236471   2.174   2.976   8.236 -3.6671 -1.0309 -2.8580
 8279SOL     OW36472   2.352   1.763   1.831  0.0324  0.0605 -0.1245
 8279SOL    HW136473   2.447   1.759   1.821  0.4501 -0.5296  4.0205
 8279SOL    HW236474   2.315   1.756   1.743  0.1968  0.2341 -0.2084
 8280SOL     OW36475   1.302   3.166   4.461  0.2757 -0.3156  0.4658
 8280SOL    HW136476   1.266   3.184   4.375  1.2732 -3.7561 -0.6679
 8280SOL    HW236477   1.239   3.103   4.496 -3.0639  2.6419 -0.2124
 8281SOL     OW36478   1.139   1.226  14.416  0.6909  0.4378 -0.1079
 8281SOL    HW136479   1.119   1.145  14.462 -4.0976  1.7316  0.0686
 8281SOL    HW236480   1.083   1.284  14.467  1.3526 -0.9824  2.2303
 8282SOL     OW36481   3.595   4.690   1.241  0.8837  0.7839  0.1067
 8282SOL    HW136482   3.542   4.716   1.317  0.8244  0.1769  0.2718
 8282SOL    HW236483   3.522   4.655   1.190  1.7509 -0.0287 -0.5684
 8283SOL     OW36484   1.242   4.456   6.197  0.1567  0.2401 -0.1728
 8283SOL    HW136485   1.261   4.549   6.206  0.2214  0.3078 -1.0077
 8283SOL    HW236486   1.225   4.459   6.103 -0.3813 -0.3979 -0.0955
 8284SOL     OW36487   3.397   4.535   1.099  0.2724  0.2308  0.0057
 8284SOL    HW136488   3.347   4.473   1.153  0.4891 -0.4699 -0.6017
 8284SOL    HW236489   3.435   4.475   1.035  0.2311 -0.3348  0.5015
 8285SOL     OW36490   4.225   3.081   5.475  0.6060  0.2216  0.2115
 8285SOL    HW136491   4.304   3.092   5.424 -0.4528  1.7129 -1.0980
 8285SOL    HW236492   4.260   3.074   5.564 -2.0656 -2.9431  1.0204
 8286SOL     OW36493   2.558   1.381   3.139  0.0443 -0.2637  0.6274
 8286SOL    HW136494   2.622   1.438   3.183  0.9400 -1.2496  0.6009
 8286SOL    HW236495   2.506   1.444   3.090  1.7893  1.0724  0.4782
 8287SOL     OW36496   3.763   2.603   4.892 -0.0745 -0.2793  0.0105
 8287SOL    HW136497   3.842   2.656   4.888 -1.1728  1.2661 -1.4580
 8287SOL    HW236498   3.712   2.656   4.955 -0.4807  0.0929 -0.6328
 8288SOL     OW36499   2.044   0.452   4.052 -0.4125  0.0366 -0.0794
 8288SOL    HW136500   2.037   0.368   4.096  0.1512  0.1663  0.2558
 8288SOL    HW236501   2.039   0.512   4.127  1.4815  0.8093 -0.5714
 8289SOL     OW36502   4.000   1.111   5.823  0.1166  0.6430 -0.2889
 8289SOL    HW136503   4.063   1.053   5.779  0.4951  1.6075 -1.0223
 8289SOL    HW236504   4.067   1.174   5.849  0.4645  0.4980 -0.8448
 8290SOL     OW36505   0.386   2.418  16.052  0.1238 -0.2616  0.3253
 8290SOL    HW136506   0.438   2.346  16.087  0.4987 -0.6851 -1.1122
 8290SOL    HW236507   0.368   2.379  15.967 -2.5210 -1.6636  1.5495
 8291SOL     OW36508   4.533   3.173   3.609  0.2397 -0.2878  0.9191
 8291SOL    HW136509   4.619   3.215   3.604  0.1350 -0.0207  1.3751
 8291SOL    HW236510   4.483   3.217   3.540 -0.8279 -0.9254  1.2969
 8292SOL     OW36511   0.086   4.637   6.023 -0.1866  0.7551  0.7021
 8292SOL    HW136512   0.162   4.670   5.974  1.0500 -3.3918 -0.1997
 8292SOL    HW236513   0.091   4.544   6.001  1.0358  0.7951  0.7937
 8293SOL     OW36514   4.349   1.052  11.684 -0.6285  0.0816 -0.1305
 8293SOL    HW136515   4.440   1.031  11.703 -1.2421 -1.1230  1.5236
 8293SOL    HW236516   4.341   1.015  11.596  2.1346  0.0192 -0.3584
 8294SOL     OW36517   3.732   1.702  12.701 -0.3645 -0.2005  0.1924
 8294SOL    HW136518   3.655   1.651  12.725  1.6312 -2.8960  0.7823
 8294SOL    HW236519   3.721   1.778  12.759  0.9705 -1.4551  2.0936
 8295SOL     OW36520   4.015   1.447  15.227  0.4466  0.0356  0.0496
 8295SOL    HW136521   4.072   1.410  15.159 -2.4597 -4.5419  0.0818
 8295SOL    HW236522   3.929   1.405  15.222  1.3409 -1.8880  0.6802
 8296SOL     OW36523   0.192   1.918  10.922 -0.2871 -0.0109  0.0525
 8296SOL    HW136524   0.275   1.874  10.939 -0.5469 -1.7957 -3.3291
 8296SOL    HW236525   0.150   1.895  11.005  1.4971  0.0802  0.9930
 8297SOL     OW36526   3.619   4.342  10.876  0.0077 -0.0365 -0.2647
 8297SOL    HW136527   3.666   4.418  10.909 -1.3858  0.7734 -0.1613
 8297SOL    HW236528   3.669   4.329  10.795  0.9877 -1.2345  0.5419
 8298SOL     OW36529   0.457   2.378   1.945  0.2346  0.0064  0.0142
 8298SOL    HW136530   0.402   2.301   1.931 -0.3878  0.1341  1.7475
 8298SOL    HW236531   0.542   2.343   1.917 -0.0800 -2.3935  2.0337
 8299SOL     OW36532   1.384   0.692   9.011 -0.3280 -0.3068 -0.2621
 8299SOL    HW136533   1.299   0.729   8.990 -0.5381 -0.0688  0.9974
 8299SOL    HW236534   1.392   0.625   8.943 -0.5771  0.2560 -0.8455
 8300SOL     OW36535   2.761   4.701  11.671  0.3126 -0.0655  0.2047
 8300SOL    HW136536   2.852   4.703  11.699 -0.1731 -1.2879  1.8326
 8300SOL    HW236537   2.760   4.630  11.607  0.9234 -0.3069  0.4722
 8301SOL     OW36538   0.212   0.365   4.573 -0.3041 -0.9268  0.4603
 8301SOL    HW136539   0.296   0.325   4.551  2.4592  3.8568  2.1983
 8301SOL    HW236540   0.239   0.403   4.657 -1.5233 -0.2040  0.5251
 8302SOL     OW36541   1.243   1.402   5.112  0.4856 -0.2386  0.2325
 8302SOL    HW136542   1.165   1.396   5.057  0.3377  0.3707  0.3784
 8302SOL    HW236543   1.269   1.494   5.102  1.6875 -0.7497 -1.2295
 8303SOL     OW36544   4.431   3.368   8.238 -0.6381  0.5335 -0.0718
 8303SOL    HW136545   4.356   3.310   8.250 -0.6414  0.3670 -0.8648
 8303SOL    HW236546   4.401   3.429   8.170  0.3476  1.8409  0.6604
 8304SOL     OW36547   0.587   0.335   5.806  0.1584  0.3254 -0.8400
 8304SOL    HW136548   0.552   0.379   5.728  0.5756 -1.2724 -1.9524
 8304SOL    HW236549   0.561   0.245   5.786  0.9478 -0.6034  2.3556
 8305SOL     OW36550   0.913   2.693   7.574 -0.6226 -0.3296 -0.2375
 8305SOL    HW136551   0.860   2.689   7.654  0.0692  1.1500  0.2920
 8305SOL    HW236552   0.861   2.765   7.538 -1.3045 -0.7686 -0.1301
 8306SOL     OW36553   2.540   4.066  10.265 -0.1769 -0.2209 -0.2085
 8306SOL    HW136554   2.523   4.131  10.332  0.1899 -0.8925  0.5308
 8306SOL    HW236555   2.486   3.989  10.281 -0.7021  0.8249  2.9532
 8307SOL     OW36556   2.701   2.541  10.811 -0.8514 -0.0191 -0.0032
 8307SOL    HW136557   2.744   2.456  10.805  0.4224  0.6767 -0.8230
 8307SOL    HW236558   2.783   2.590  10.813 -0.9794  0.2427 -1.0725
 8308SOL     OW36559   3.494   1.322   8.944 -0.6721  0.1191  0.5048
 8308SOL    HW136560   3.464   1.413   8.950 -1.8498 -0.2021 -0.7300
 8308SOL    HW236561   3.469   1.294   9.032  0.9285 -0.4545  0.7841
 8309SOL     OW36562   2.679   1.728   1.753 -0.0523 -0.0933  0.1638
 8309SOL    HW136563   2.642   1.756   1.837  0.0296  0.2697  0.0786
 8309SOL    HW236564   2.768   1.703   1.777 -0.1211 -1.4307 -1.0109
 8310SOL     OW36565   0.108   4.677   3.653 -0.3194  0.1199 -0.0080
 8310SOL    HW136566   0.047   4.618   3.696 -0.8179 -0.2874 -1.2720
 8310SOL    HW236567   0.084   4.671   3.561  1.6495 -0.4509 -0.4941
 8311SOL     OW36568   1.675   2.504   6.017  0.2686  0.0720 -0.0223
 8311SOL    HW136569   1.697   2.425   6.066 -3.2132 -1.5497 -1.0982
 8311SOL    HW236570   1.724   2.569   6.067  2.1144 -0.8916 -0.5678
 8312SOL     OW36571   3.955   0.403  16.534  0.1479 -0.3221 -0.7354
 8312SOL    HW136572   4.004   0.472  16.489  0.7465 -1.6219 -2.0505
 8312SOL    HW236573   3.940   0.443  16.620  1.9704 -2.6435  0.6912
 8313SOL     OW36574   3.750   1.111  15.510  0.5432  0.0097  0.0009
 8313SOL    HW136575   3.822   1.100  15.449 -0.1347  1.3044 -1.0391
 8313SOL    HW236576   3.679   1.145  15.455  0.2851 -0.9626 -0.2660
 8314SOL     OW36577   3.284   4.124   4.556  0.3789  0.1286  0.5919
 8314SOL    HW136578   3.357   4.105   4.496 -0.7095 -0.6704 -0.4692
 8314SOL    HW236579   3.325   4.132   4.642  2.5543  0.1297 -0.4296
 8315SOL     OW36580   3.033   0.045   3.580 -0.7919  0.0213  0.6782
 8315SOL    HW136581   2.949   0.090   3.571 -0.0972  1.6290  2.3058
 8315SOL    HW236582   3.034   4.726   3.501 -1.9835  0.2927  0.4710
 8316SOL     OW36583   2.252   2.468  14.346  0.0398  0.2008  1.0697
 8316SOL    HW136584   2.250   2.563  14.361  1.3087  0.2475  0.9620
 8316SOL    HW236585   2.213   2.472  14.258 -0.0078  4.5498  1.2930
 8317SOL     OW36586   1.721   3.353  13.908 -0.3897  0.4526 -0.1581
 8317SOL    HW136587   1.788   3.416  13.937 -0.0637  0.3140 -0.6187
 8317SOL    HW236588   1.641   3.404  13.895 -0.6359  0.6394  2.0798
 8318SOL     OW36589   3.134   2.838   5.625 -0.2460  0.2862 -0.5009
 8318SOL    HW136590   3.208   2.815   5.681  0.6367  0.7235 -1.4825
 8318SOL    HW236591   3.153   2.791   5.544 -0.7021 -0.0619 -0.4059
 8319SOL     OW36592   4.520   3.070   7.332 -0.6781 -0.2771 -0.0215
 8319SOL    HW136593   4.605   3.082   7.290  0.2702  0.0619  1.9733
 8319SOL    HW236594   4.508   2.975   7.325 -0.8855 -0.5071  3.4508
 8320SOL     OW36595   1.605   4.531  16.097  0.8192  0.2499 -1.1893
 8320SOL    HW136596   1.658   4.550  16.020  0.1170 -2.5452 -2.3680
 8320SOL    HW236597   1.550   4.456  16.073 -0.5915  1.1288 -0.6596
 8321SOL     OW36598   2.450   0.527   6.350  0.0360  0.1184  0.2413
 8321SOL    HW136599   2.394   0.560   6.421  0.6860  1.8245 -0.0513
 8321SOL    HW236600   2.537   0.542   6.385  1.0782 -2.1522 -1.3912
 8322SOL     OW36601   1.383   4.238   4.242 -0.4713 -0.0253  0.0374
 8322SOL    HW136602   1.393   4.165   4.182 -1.3333  0.4402 -0.6760
 8322SOL    HW236603   1.458   4.215   4.297 -1.4471 -1.1957  0.8729
 8323SOL     OW36604   4.491   2.837   4.126  0.2566  0.3166  0.1037
 8323SOL    HW136605   4.472   2.930   4.141 -0.9993 -0.3931  2.9741
 8323SOL    HW236606   4.431   2.810   4.056 -0.2140  0.2146  0.5484
 8324SOL     OW36607   1.411   3.307   6.296 -0.1377  0.1595 -0.2548
 8324SOL    HW136608   1.351   3.368   6.252  0.4033  0.7831 -0.1303
 8324SOL    HW236609   1.494   3.316   6.249 -0.5295 -0.3308 -1.0474
 8325SOL     OW36610   1.171   3.600  15.184 -0.0903 -0.3430 -0.5995
 8325SOL    HW136611   1.137   3.680  15.145  1.3638  0.8371  0.5606
 8325SOL    HW236612   1.261   3.628  15.205 -0.2634 -0.4489  0.2685
 8326SOL     OW36613   4.688   3.545  13.938  0.7172  0.3517 -0.0323
 8326SOL    HW136614   4.606   3.529  13.892 -0.8150 -0.2588  2.9209
 8326SOL    HW236615   4.696   3.637  13.965  3.3855  0.1186 -0.0390
 8327SOL     OW36616   4.234   1.585   2.310 -0.1989  0.0437 -0.3005
 8327SOL    HW136617   4.217   1.602   2.217 -2.0766  0.3483  0.0898
 8327SOL    HW236618   4.151   1.610   2.351  0.3916 -0.3798  1.1674
 8328SOL     OW36619   0.345   3.219   5.191 -0.2979  0.4894  0.2121
 8328SOL    HW136620   0.332   3.232   5.285 -2.7950 -1.1139  0.1063
 8328SOL    HW236621   0.265   3.254   5.152  1.4708  1.6025 -2.3993
 8329SOL     OW36622   2.854   0.242  10.453 -0.4678 -1.0190 -0.0611
 8329SOL    HW136623   2.928   0.213  10.507 -0.5120 -3.2872 -1.2089
 8329SOL    HW236624   2.777   0.187  10.469 -0.6038 -0.6614  0.5085
 8330SOL     OW36625   3.863   1.641   8.035 -0.3512  0.2669 -0.0461
 8330SOL    HW136626   3.866   1.660   7.942 -0.5349 -0.5476 -0.2173
 8330SOL    HW236627   3.955   1.657   8.055 -0.3301  1.1279 -0.8759
 8331SOL     OW36628   1.755   0.616   2.884  0.1385 -0.2280 -0.1835
 8331SOL    HW136629   1.849   0.602   2.898 -0.1679 -1.7027  0.4402
 8331SOL    HW236630   1.731   0.655   2.968  1.6260  0.9760 -0.3282
 8332SOL     OW36631   3.749   3.352   1.901  0.5317  0.5054 -0.5669
 8332SOL    HW136632   3.726   3.259   1.896  1.4666  0.1595  1.4655
 8332SOL    HW236633   3.794   3.363   1.818 -1.0207 -1.2587 -1.6357
 8333SOL     OW36634   3.816   3.266   7.096  0.0133 -0.1196 -0.3811
 8333SOL    HW136635   3.761   3.344   7.093  0.4245  0.1780 -0.0886
 8333SOL    HW236636   3.879   3.277   7.168 -1.0061  1.2998  0.3038
 8334SOL     OW36637   1.109   2.628   0.607 -0.5249  0.1145 -1.0114
 8334SOL    HW136638   1.197   2.639   0.572 -0.0779  0.4635  0.2039
 8334SOL    HW236639   1.070   2.706   0.568 -1.3037 -0.2497 -0.9662
 8335SOL     OW36640   4.550   1.212  10.541  0.4210  0.1174  0.0841
 8335SOL    HW136641   4.517   1.175  10.458  0.4575 -0.2338  0.2261
 8335SOL    HW236642   4.544   1.131  10.593  2.9711  0.0274  0.2445
 8336SOL     OW36643   0.214   3.227   7.625 -0.3499  0.4364  0.1531
 8336SOL    HW136644   0.141   3.283   7.652  0.2753  0.9058  0.8605
 8336SOL    HW236645   0.292   3.279   7.643 -0.2248 -0.4332  2.1789
 8337SOL     OW36646   2.974   3.029  10.363 -0.2347  0.3233 -0.4795
 8337SOL    HW136647   3.000   3.025  10.455  1.1704  0.2036 -0.8741
 8337SOL    HW236648   3.009   2.941  10.343  1.0564  1.3428 -2.7622
 8338SOL     OW36649   3.686   1.525  11.541 -0.4735  0.3626  0.0879
 8338SOL    HW136650   3.671   1.488  11.454 -0.8732  3.2631 -1.0899
 8338SOL    HW236651   3.631   1.477  11.602 -0.9488 -0.4189 -0.9720
 8339SOL     OW36652   4.652   2.856   9.132 -0.1246 -0.0230 -0.3276
 8339SOL    HW136653   4.724   2.882   9.189  0.5452  0.6551 -1.4770
 8339SOL    HW236654   4.651   2.761   9.139  2.3797 -0.1584 -1.9169
 8340SOL     OW36655   2.027   1.356   6.631 -0.1375 -0.4153 -0.2545
 8340SOL    HW136656   2.073   1.376   6.550 -0.5864 -0.1382 -0.4444
 8340SOL    HW236657   1.951   1.413   6.616  0.0417 -0.1312 -0.0756
 8341SOL     OW36658   2.635   2.064  17.310  0.0548  0.2986  0.0690
 8341SOL    HW136659   2.578   2.070  17.387 -0.2203  1.1373 -0.1961
 8341SOL    HW236660   2.575   2.030  17.243 -1.3153  1.4082  0.7237
 8342SOL     OW36661   3.189   2.391   3.139  0.1973 -0.2088 -0.5434
 8342SOL    HW136662   3.224   2.480   3.143 -1.3072  0.3458  0.2388
 8342SOL    HW236663   3.238   2.355   3.214  0.4050  3.0562  0.8774
 8343SOL     OW36664   4.235   2.468   9.443  0.0256 -0.7288  0.0927
 8343SOL    HW136665   4.204   2.398   9.501 -1.3524  0.0975  0.3629
 8343SOL    HW236666   4.245   2.416   9.363 -3.8175 -0.8817 -0.2804
 8344SOL     OW36667   1.144   1.817   5.799 -0.2404 -1.1239  0.0243
 8344SOL    HW136668   1.156   1.730   5.761  0.1033 -0.5646 -1.1524
 8344SOL    HW236669   1.231   1.848   5.826  0.0729 -0.6851 -1.5182
 8345SOL     OW36670   2.255   2.432   5.987  0.6524  0.3634 -0.2863
 8345SOL    HW136671   2.171   2.387   5.990  0.3399  1.0619  1.3465
 8345SOL    HW236672   2.264   2.459   6.078  1.3723 -0.3974 -0.1373
 8346SOL     OW36673   4.624   2.296   2.561  0.2135  0.3143 -0.2943
 8346SOL    HW136674   4.714   2.316   2.585 -0.1107  1.4618 -0.0384
 8346SOL    HW236675   4.634   2.203   2.539 -0.4762  0.2473 -0.3509
 8347SOL     OW36676   2.357   1.190  14.936  0.1777  0.2870  0.0123
 8347SOL    HW136677   2.302   1.263  14.905 -0.1554  1.2875  2.9788
 8347SOL    HW236678   2.405   1.177  14.854 -0.3790  1.0523 -0.4449
 8348SOL     OW36679   0.711   2.025   3.929  0.2108  0.0988 -0.8517
 8348SOL    HW136680   0.629   2.029   3.880 -1.6969  2.1677  2.5326
 8348SOL    HW236681   0.703   1.942   3.976  0.8924  0.1215 -0.6894
 8349SOL     OW36682   1.513   3.922   7.739 -0.0873  0.1754  0.2993
 8349SOL    HW136683   1.578   3.885   7.799 -0.1918  1.3809  1.1631
 8349SOL    HW236684   1.565   3.957   7.667 -3.0113  1.4095 -1.1950
 8350SOL     OW36685   0.539   1.517   8.995 -0.0785  0.3913 -0.3199
 8350SOL    HW136686   0.528   1.585   9.062  0.1959  2.1388 -2.0266
 8350SOL    HW236687   0.456   1.512   8.947 -1.5903 -0.2884  2.3697
 8351SOL     OW36688   2.150   0.890  16.539  0.5315  0.6551  0.0643
 8351SOL    HW136689   2.119   0.806  16.503 -0.8934  0.7990  0.9486
 8351SOL    HW236690   2.122   0.870  16.628 -2.6163  2.1538 -0.6081
 8352SOL     OW36691   3.713   2.541   1.894 -0.3032  0.2018 -0.0436
 8352SOL    HW136692   3.804   2.536   1.925 -0.7304 -0.6234  1.0713
 8352SOL    HW236693   3.726   2.579   1.807 -2.4731 -0.9497 -0.8601
 8353SOL     OW36694   4.668   0.276   6.253  0.2942  0.2643  0.3794
 8353SOL    HW136695   4.612   0.322   6.315  1.3647  2.7504 -0.5020
 8353SOL    HW236696   4.661   0.329   6.174  0.5967  2.8842  2.1292
 8354SOL     OW36697   2.189   4.395  12.809 -0.2657  0.3318 -0.4086
 8354SOL    HW136698   2.168   4.330  12.743  0.6683 -0.9239  0.5227
 8354SOL    HW236699   2.165   4.338  12.882  1.6130 -1.0643 -0.8841
 8355SOL     OW36700   3.840   3.536  12.656  0.0213 -0.0993  0.0104
 8355SOL    HW136701   3.896   3.488  12.595 -1.0308 -0.7921 -0.4144
 8355SOL    HW236702   3.796   3.606  12.608 -0.3976 -1.0117 -0.9585
 8356SOL     OW36703   1.840   4.111   3.671 -0.2317 -0.6581  0.5864
 8356SOL    HW136704   1.760   4.059   3.671 -1.3981  1.1529  1.8046
 8356SOL    HW236705   1.809   4.193   3.633  0.7016  0.6112  2.5394
 8357SOL     OW36706   1.241   3.988   8.837  0.0836  0.1414 -0.3859
 8357SOL    HW136707   1.176   3.918   8.846 -0.9205  0.8196 -2.4084
 8357SOL    HW236708   1.314   3.960   8.892 -1.6386  0.0664  1.8769
 8358SOL     OW36709   1.907   2.777   7.005 -0.3923  0.7464  0.3984
 8358SOL    HW136710   1.998   2.747   6.997 -0.8702 -0.6214  0.0573
 8358SOL    HW236711   1.901   2.848   6.940 -1.2232  1.1471  0.9168
 8359SOL     OW36712   3.513   3.601   7.394  0.3389 -0.5010  0.5292
 8359SOL    HW136713   3.490   3.693   7.379  1.7962  0.0558  1.7115
 8359SOL    HW236714   3.426   3.561   7.396 -0.4708  1.2316  0.2762
 8360SOL     OW36715   1.374   0.033   8.189  0.1004 -0.3849 -0.3286
 8360SOL    HW136716   1.303   0.044   8.126  1.6753 -0.3424 -2.1280
 8360SOL    HW236717   1.372   4.674   8.180  0.0920 -0.1641 -2.7720
 8361SOL     OW36718   2.240   4.017   3.995  0.2885  0.0439 -0.2096
 8361SOL    HW136719   2.240   4.107   4.026  2.6924  0.3180 -0.9785
 8361SOL    HW236720   2.182   4.032   3.920 -0.3305  1.9128  0.6595
 8362SOL     OW36721   3.399   2.233   3.301  0.1145 -0.0005  0.4182
 8362SOL    HW136722   3.416   2.281   3.382 -3.4617 -0.5796  1.5256
 8362SOL    HW236723   3.445   2.150   3.315 -1.5261 -0.9724  0.1598
 8363SOL     OW36724   3.040   3.303   2.573  0.0889 -0.1530  0.2956
 8363SOL    HW136725   3.131   3.327   2.591 -0.5882  1.4573  1.4857
 8363SOL    HW236726   2.996   3.377   2.614 -0.2324  0.4234 -1.1034
 8364SOL     OW36727   1.049   3.424  12.491 -0.2700  0.1137 -0.3808
 8364SOL    HW136728   1.040   3.519  12.501 -3.3420 -0.2401  0.3550
 8364SOL    HW236729   0.981   3.403  12.427  0.0100 -2.5587  0.1685
 8365SOL     OW36730   0.640   1.365   8.235 -0.3132  0.4432  0.3431
 8365SOL    HW136731   0.627   1.297   8.169  0.6469 -0.2834  0.8992
 8365SOL    HW236732   0.653   1.317   8.317 -0.8665 -2.2185 -1.1186
 8366SOL     OW36733   3.176   3.229  10.279 -0.4617 -0.0634  0.1344
 8366SOL    HW136734   3.164   3.323  10.262 -0.8810  0.2795  2.3381
 8366SOL    HW236735   3.092   3.192  10.303 -0.4016  0.5917  1.3822
 8367SOL     OW36736   1.372   3.222   5.701 -0.6587  0.0886  0.0117
 8367SOL    HW136737   1.392   3.161   5.771  1.2441 -0.1458 -0.7240
 8367SOL    HW236738   1.445   3.203   5.641  0.1419 -2.0993  1.6999
 8368SOL     OW36739   0.490   4.456   1.014  0.5835  0.1138 -0.6280
 8368SOL    HW136740   0.443   4.444   0.932 -1.1502 -0.3324  0.4432
 8368SOL    HW236741   0.480   4.551   1.022  0.5640 -0.0175  0.9163
 8369SOL     OW36742   0.136   1.041  14.336  0.5144 -0.4560 -0.1188
 8369SOL    HW136743   0.214   1.094  14.323 -0.3656  0.6822 -0.6715
 8369SOL    HW236744   0.176   0.956  14.317  0.2379 -0.2860 -1.4148
 8370SOL     OW36745   1.510   3.593  13.696  0.3367 -0.2476 -0.1526
 8370SOL    HW136746   1.445   3.655  13.730 -1.8955 -2.7324  0.1002
 8370SOL    HW236747   1.499   3.526  13.762  0.6437  0.8119  0.9676
 8371SOL     OW36748   3.716   3.841   6.475  0.6047  0.0074 -0.2212
 8371SOL    HW136749   3.747   3.751   6.489 -0.1739 -0.4036 -1.1241
 8371SOL    HW236750   3.638   3.834   6.419  0.7140 -1.5885 -0.1775
 8372SOL     OW36751   3.923   3.867  12.898  0.0163 -0.4714  0.3682
 8372SOL    HW136752   3.908   3.961  12.902 -0.0772 -0.4387 -0.8376
 8372SOL    HW236753   3.976   3.866  12.819 -0.2831 -0.4508  0.1696
 8373SOL     OW36754   0.636   1.183   1.956  0.3236  0.0153 -0.0693
 8373SOL    HW136755   0.576   1.251   1.985  0.1308  0.4588 -1.4780
 8373SOL    HW236756   0.596   1.172   1.869 -0.3098 -0.0405  0.2242
 8374SOL     OW36757   3.091   3.795   3.662 -0.1737 -0.1383  0.0341
 8374SOL    HW136758   3.067   3.723   3.720  0.3170 -2.2059 -2.3224
 8374SOL    HW236759   3.010   3.846   3.649  0.5709  1.0690  0.1489
 8375SOL     OW36760   4.197   0.790   4.987  0.7955  0.6060  0.6177
 8375SOL    HW136761   4.189   0.855   5.056 -1.6450  1.0608 -0.1100
 8375SOL    HW236762   4.232   0.846   4.917 -1.9501 -0.1302 -1.3615
 8376SOL     OW36763   1.649   0.371   5.862  0.2314  0.2060 -0.3373
 8376SOL    HW136764   1.721   0.381   5.924  1.9107 -2.1963 -1.8869
 8376SOL    HW236765   1.672   0.446   5.808  0.5659  0.7784  0.5968
 8377SOL     OW36766   0.903   2.534   6.071  0.3131 -0.8318  0.4235
 8377SOL    HW136767   0.930   2.449   6.107  1.0271 -1.5627 -1.8351
 8377SOL    HW236768   0.843   2.508   6.002  0.3931 -0.8041  0.3436
 8378SOL     OW36769   1.180   1.813   8.690  0.1292  0.1793 -1.0732
 8378SOL    HW136770   1.189   1.886   8.629 -0.8475  1.1359 -0.0699
 8378SOL    HW236771   1.086   1.804   8.708  0.4955  0.2713  0.8496
 8379SOL     OW36772   3.857   3.579   6.768 -0.3258 -0.0464 -0.3059
 8379SOL    HW136773   3.948   3.605   6.782 -0.8085  1.3877  0.1779
 8379SOL    HW236774   3.810   3.649   6.813  2.1419  2.4621 -1.5985
 8380SOL     OW36775   4.508   3.476   6.011  0.1030  0.4445 -0.3606
 8380SOL    HW136776   4.597   3.442   6.008  0.7813  2.0597  0.9281
 8380SOL    HW236777   4.517   3.544   6.078  1.8017 -0.7605  0.6228
 8381SOL     OW36778   0.588   1.124   1.153 -0.0582  0.4490 -0.9722
 8381SOL    HW136779   0.514   1.140   1.094 -0.0341  0.9014 -0.8775
 8381SOL    HW236780   0.620   1.046   1.108  3.2011  0.3476  1.5645
 8382SOL     OW36781   2.755   2.129   3.374 -1.1514 -0.4738  0.0552
 8382SOL    HW136782   2.793   2.081   3.300  1.4736  0.1730  0.9822
 8382SOL    HW236783   2.840   2.169   3.391 -0.8581 -1.3302  0.6625
 8383SOL     OW36784   2.144   0.841   2.919 -0.3152 -0.3368 -0.2146
 8383SOL    HW136785   2.161   0.885   3.002  0.8690 -0.3378 -0.4553
 8383SOL    HW236786   2.168   0.908   2.855  0.6614 -1.4306 -0.9916
 8384SOL     OW36787   4.421   4.200   3.743 -0.1464 -0.3709  0.0763
 8384SOL    HW136788   4.413   4.286   3.785  0.7088 -0.5969  0.6952
 8384SOL    HW236789   4.341   4.185   3.693  0.8189  1.8113 -2.1191
 8385SOL     OW36790   0.699   3.798   3.926 -0.5581 -0.3166  0.0212
 8385SOL    HW136791   0.755   3.739   3.875  0.7214 -3.1906  4.8031
 8385SOL    HW236792   0.687   3.861   3.855  1.5425 -0.6577 -0.6436
 8386SOL     OW36793   3.219   0.800   6.693 -0.8922  0.4692 -0.5583
 8386SOL    HW136794   3.248   0.876   6.643 -2.2435 -0.1999 -2.3690
 8386SOL    HW236795   3.241   0.729   6.633  2.2351  0.9596 -0.0000
 8387SOL     OW36796   1.201   4.052   7.643 -0.5766 -0.1902 -0.0450
 8387SOL    HW136797   1.238   4.120   7.587  0.2260  1.2719  2.2660
 8387SOL    HW236798   1.229   3.980   7.587  1.5245  1.2630 -0.8494
 8388SOL     OW36799   1.438   3.971   2.094 -0.5703 -0.0041  0.3418
 8388SOL    HW136800   1.418   4.033   2.024 -0.7258  2.4045  2.5180
 8388SOL    HW236801   1.519   4.010   2.127 -0.7432  0.4188  0.2673
 8389SOL     OW36802   4.383   2.237   2.158  0.1650  0.2889  0.0759
 8389SOL    HW136803   4.306   2.180   2.169  0.7715 -0.6048 -0.3695
 8389SOL    HW236804   4.391   2.256   2.065 -0.9079 -0.2683 -0.1304
 8390SOL     OW36805   3.622   2.338  17.504 -0.7603 -0.2856 -0.3968
 8390SOL    HW136806   3.668   2.386  17.435 -1.2760 -1.5449 -1.6220
 8390SOL    HW236807   3.691   2.293  17.553 -1.3538 -2.2980 -1.3870
 8391SOL     OW36808   1.787   0.688  11.934  0.1068 -0.5365 -0.0490
 8391SOL    HW136809   1.815   0.778  11.921  2.2748 -0.9165  2.0138
 8391SOL    HW236810   1.848   0.666  12.004 -0.6335 -0.7956  0.5060
 8392SOL     OW36811   4.703   0.293   9.105  0.0942  0.1098 -0.0365
 8392SOL    HW136812   4.707   0.198   9.109 -0.1926  0.1723  1.5189
 8392SOL    HW236813   4.675   0.308   9.195 -1.8537 -1.2203 -0.4325
 8393SOL     OW36814   4.039   2.270   7.201 -0.1708  0.0220 -0.1249
 8393SOL    HW136815   4.012   2.233   7.117  1.2127 -1.2495 -0.0115
 8393SOL    HW236816   4.118   2.221   7.224 -0.0655 -0.0306 -0.5877
 8394SOL     OW36817   3.235   2.559   7.957 -0.2990  0.1703 -0.4880
 8394SOL    HW136818   3.157   2.553   8.012  0.1158 -3.1095 -0.2809
 8394SOL    HW236819   3.186   2.545   7.876 -0.2534  0.0864 -0.5011
 8395SOL     OW36820   0.842   0.276   2.134  0.3009 -0.2445  0.5658
 8395SOL    HW136821   0.879   0.188   2.137 -1.1625 -0.8448  1.1203
 8395SOL    HW236822   0.918   0.317   2.176 -0.7142  1.1403  1.0676
 8396SOL     OW36823   1.478   4.190   5.456 -0.5153  0.5386  0.5708
 8396SOL    HW136824   1.511   4.173   5.368 -0.2936  1.7635  0.4152
 8396SOL    HW236825   1.536   4.258   5.491 -0.6025  1.5152 -1.1921
 8397SOL     OW36826   1.043   3.507   9.889 -0.5088 -0.0322  0.0968
 8397SOL    HW136827   0.992   3.510   9.970 -1.4684  3.1401 -0.6405
 8397SOL    HW236828   0.999   3.578   9.843  2.5280  1.9831  0.2999
 8398SOL     OW36829   3.453   4.280   3.723 -0.2718  0.8014 -0.2929
 8398SOL    HW136830   3.517   4.221   3.761 -0.4443 -0.5305 -2.0443
 8398SOL    HW236831   3.383   4.214   3.714  0.1937  0.4032 -0.9819
 8399SOL     OW36832   1.691   3.815   7.915 -0.2768 -0.2327 -0.0305
 8399SOL    HW136833   1.711   3.750   7.983  1.2531  0.0285 -0.2380
 8399SOL    HW236834   1.743   3.890   7.944 -0.2211  0.4557 -1.9469
 8400SOL     OW36835   1.110   2.320  13.970  0.2292 -0.4971 -0.0321
 8400SOL    HW136836   1.020   2.342  13.995 -0.5650 -2.7038 -1.0259
 8400SOL    HW236837   1.096   2.227  13.952  0.7243 -0.7921  1.0648
 8401SOL     OW36838   1.696   0.315   7.747  0.3772  0.3702 -0.6085
 8401SOL    HW136839   1.618   0.366   7.726 -1.1011 -0.7212  2.2426
 8401SOL    HW236840   1.659   0.245   7.801  0.0218  2.5631  1.9552
 8402SOL     OW36841   4.268   3.126   7.976 -0.0442  0.2442 -0.0840
 8402SOL    HW136842   4.196   3.071   8.007 -0.2469  1.2606  1.2220
 8402SOL    HW236843   4.232   3.214   7.978 -1.9064 -0.4428 -2.5652
 8403SOL     OW36844   2.601   0.884  14.835 -0.6792  0.5729 -0.1050
 8403SOL    HW136845   2.551   0.881  14.754  0.8464  0.9362 -1.0695
 8403SOL    HW236846   2.690   0.899  14.802 -0.0282 -1.6252  0.6042
 8404SOL     OW36847   2.693   1.110   0.549 -0.0441 -0.5811 -0.0548
 8404SOL    HW136848   2.634   1.179   0.582  2.9889  2.7774 -1.5940
 8404SOL    HW236849   2.756   1.114   0.622  0.6580  1.6808 -0.7692
 8405SOL     OW36850   4.329   3.716   3.959 -0.4286  0.1760 -0.0758
 8405SOL    HW136851   4.363   3.703   4.048  0.7536  0.2638 -0.5081
 8405SOL    HW236852   4.239   3.693   3.982 -1.4084  2.1477 -1.9969
 8406SOL     OW36853   4.092   1.065   3.146  0.2939  0.1305 -0.3146
 8406SOL    HW136854   4.182   1.097   3.146 -0.1808  1.4570  0.6438
 8406SOL    HW236855   4.099   0.980   3.190 -2.5331  0.1437  0.1588
 8407SOL     OW36856   4.139   1.701   8.788 -0.4335 -0.1773  0.4592
 8407SOL    HW136857   4.131   1.630   8.851  0.1301 -1.5980 -1.0699
 8407SOL    HW236858   4.235   1.709   8.793 -0.3195 -1.5005  0.2606
 8408SOL     OW36859   4.419   4.479  16.655 -0.5005 -0.1601 -0.7348
 8408SOL    HW136860   4.492   4.419  16.673 -0.9173 -0.4655 -0.0585
 8408SOL    HW236861   4.467   4.561  16.658  0.8245 -0.9389 -0.3276
 8409SOL     OW36862   0.425   3.050   5.530 -0.6027 -0.2571  0.2353
 8409SOL    HW136863   0.344   3.033   5.483 -0.6238  1.0346 -0.2038
 8409SOL    HW236864   0.398   3.046   5.622  0.0542  3.0655  0.6087
 8410SOL     OW36865   0.991   1.473   3.672 -0.9265  0.1841  0.1534
 8410SOL    HW136866   1.058   1.488   3.739 -0.0445  0.1940 -0.7278
 8410SOL    HW236867   0.984   1.563   3.640  1.2594 -0.3259 -1.7716
 8411SOL     OW36868   0.308   1.503   8.842 -0.4400  0.0421 -0.1407
 8411SOL    HW136869   0.276   1.416   8.864 -1.1384  0.0666 -1.0979
 8411SOL    HW236870   0.342   1.499   8.753  2.4331 -1.8338  1.0596
 8412SOL     OW36871   2.941   3.275  14.241  0.4092 -0.6195 -0.4197
 8412SOL    HW136872   2.884   3.204  14.269  0.2217  0.1931  1.2821
 8412SOL    HW236873   2.970   3.243  14.156  1.2665 -0.2146 -0.2771
 8413SOL     OW36874   2.900   3.000  15.432 -0.0721  0.0147  0.1924
 8413SOL    HW136875   2.898   2.975  15.525 -0.8282 -0.0187  0.1713
 8413SOL    HW236876   2.967   2.940  15.397 -1.2973 -1.0165 -0.4140
 8414SOL     OW36877   3.567   2.026   3.392  0.0226 -0.6606 -1.0088
 8414SOL    HW136878   3.603   1.994   3.474 -2.4395  1.4140  0.8829
 8414SOL    HW236879   3.510   1.957   3.359 -1.3794  0.3295 -0.6587
 8415SOL     OW36880   3.411   2.239  13.038  0.6820  0.1847 -0.1133
 8415SOL    HW136881   3.381   2.245  12.947  1.8446 -0.3178 -0.5342
 8415SOL    HW236882   3.330   2.233  13.088 -0.8105 -1.0529 -2.6665
 8416SOL     OW36883   2.050   0.843   3.713 -0.0923  0.1981  1.0712
 8416SOL    HW136884   2.142   0.852   3.691 -0.8568 -2.1858 -3.1550
 8416SOL    HW236885   2.051   0.852   3.808  1.1835  0.4127  1.0374
 8417SOL     OW36886   1.628   1.127   4.736 -0.4417 -0.6386 -0.2234
 8417SOL    HW136887   1.609   1.047   4.786 -0.6466  0.4556  1.4321
 8417SOL    HW236888   1.581   1.116   4.653 -0.1488  0.7221 -0.5668
 8418SOL     OW36889   4.152   0.744  10.855 -0.3208  0.5024  0.1437
 8418SOL    HW136890   4.120   0.758  10.765  0.8793 -1.9164 -0.6636
 8418SOL    HW236891   4.145   0.831  10.893  1.0906  0.3046  0.8424
 8419SOL     OW36892   3.477   3.701   2.378 -0.0258 -0.5882  0.2650
 8419SOL    HW136893   3.545   3.766   2.395 -1.2458  0.8087 -0.2047
 8419SOL    HW236894   3.504   3.669   2.292  0.5699  1.6763 -0.3787
 8420SOL     OW36895   0.654   1.092   0.542  0.0340  0.2421 -0.0052
 8420SOL    HW136896   0.667   1.058   0.630  0.4656 -0.9152 -0.5044
 8420SOL    HW236897   0.587   1.027   0.520  1.1866 -0.4215 -1.6022
 8421SOL     OW36898   3.672   1.630  10.551  0.1271 -0.4012 -0.2463
 8421SOL    HW136899   3.636   1.604  10.466 -2.5593  0.1847  0.7299
 8421SOL    HW236900   3.762   1.598  10.541  0.1039 -0.9227  1.1876
 8422SOL     OW36901   3.120   2.193   7.883  0.6453  0.3788 -0.1949
 8422SOL    HW136902   3.189   2.141   7.841 -1.4133  2.2306 -5.8520
 8422SOL    HW236903   3.079   2.120   7.930  1.9246 -1.9885 -2.6994
 8423SOL     OW36904   4.137   0.063   2.711  0.2232 -0.0286 -0.2228
 8423SOL    HW136905   4.157   4.707   2.724  0.3570  0.2740  1.6645
 8423SOL    HW236906   4.042   0.059   2.721  0.1775  2.6142  0.4014
 8424SOL     OW36907   2.146   0.962  16.152  0.1609  0.0733  0.4701
 8424SOL    HW136908   2.104   0.887  16.195 -1.0380  1.1750  1.1985
 8424SOL    HW236909   2.225   0.971  16.205  0.7471  0.4458 -0.4610
 8425SOL     OW36910   1.325   3.123  14.569 -0.1754  0.1812  0.2991
 8425SOL    HW136911   1.231   3.108  14.580 -0.2391  0.3566 -0.0128
 8425SOL    HW236912   1.334   3.211  14.533 -2.7378 -0.8654 -2.9639
 8426SOL     OW36913   1.244   2.521   7.152 -0.0041 -0.4305 -0.0756
 8426SOL    HW136914   1.192   2.459   7.203 -0.6794 -0.4818 -0.8325
 8426SOL    HW236915   1.335   2.503   7.176  0.0581  0.7273  0.5562
 8427SOL     OW36916   4.031   4.033   4.783 -0.9674 -0.4065 -0.6587
 8427SOL    HW136917   4.038   3.957   4.840 -3.0890 -0.6651 -0.7661
 8427SOL    HW236918   4.005   4.098   4.848 -1.1633  0.3244 -1.4662
 8428SOL     OW36919   1.804   0.768   9.846 -0.3590  0.2623  0.0215
 8428SOL    HW136920   1.837   0.697   9.792 -0.7523  0.5469 -0.5920
 8428SOL    HW236921   1.832   0.751   9.936  1.3566 -2.0217 -0.9519
 8429SOL     OW36922   0.478   3.364   6.160  0.5002  0.1147 -0.4848
 8429SOL    HW136923   0.389   3.332   6.173  0.3140  1.0716  0.6102
 8429SOL    HW236924   0.488   3.343   6.067  1.0060  0.1368 -0.4330
 8430SOL     OW36925   2.428   3.843   7.129 -0.0236 -0.0677 -0.2364
 8430SOL    HW136926   2.421   3.753   7.161  1.1852  0.5090  1.5963
 8430SOL    HW236927   2.336   3.867   7.132 -0.1640 -0.2098 -2.7603
 8431SOL     OW36928   4.552   2.352   1.499 -0.7120 -0.1350  0.0178
 8431SOL    HW136929   4.488   2.287   1.526  1.6062 -0.7894  3.8531
 8431SOL    HW236930   4.499   2.397   1.433 -0.2022 -1.3517 -1.2312
 8432SOL     OW36931   2.620   0.968   2.496  0.3847  0.0755  0.0602
 8432SOL    HW136932   2.621   0.880   2.534  0.1292  0.3540  0.7264
 8432SOL    HW236933   2.619   0.948   2.403  0.5995 -0.9640  0.2840
 8433SOL     OW36934   2.600   2.757   8.191  0.1332  0.2372  0.0332
 8433SOL    HW136935   2.694   2.763   8.175  0.5186 -1.4190  1.6708
 8433SOL    HW236936   2.591   2.663   8.206 -0.7037  0.0760 -1.4096
 8434SOL     OW36937   4.343   2.203   1.891 -0.1733  0.3245  0.5201
 8434SOL    HW136938   4.365   2.199   1.798  1.8421  0.6884  0.9716
 8434SOL    HW236939   4.352   2.112   1.920  1.6945  0.2190 -0.3759
 8435SOL     OW36940   3.860   0.892   4.909  0.5286 -0.4129  0.5490
 8435SOL    HW136941   3.781   0.947   4.917  2.1187  1.9431  0.1358
 8435SOL    HW236942   3.866   0.845   4.992 -0.8907 -1.5538 -0.0013
 8436SOL     OW36943   4.242   2.138   8.614 -0.5412 -0.2023  0.8250
 8436SOL    HW136944   4.236   2.230   8.642 -1.3806  0.3382 -1.0958
 8436SOL    HW236945   4.293   2.094   8.681 -0.7234  0.0524  1.1325
 8437SOL     OW36946   3.555   3.146   4.371  0.2211 -0.2341  1.0795
 8437SOL    HW136947   3.507   3.143   4.288  1.7675 -0.5230  0.1904
 8437SOL    HW236948   3.632   3.194   4.340 -0.1379 -1.0134 -1.0805
 8438SOL     OW36949   1.650   2.969  14.783  0.1627  0.5739 -0.0458
 8438SOL    HW136950   1.614   2.884  14.758  0.6285  0.2729  0.3272
 8438SOL    HW236951   1.646   2.961  14.878 -1.2383 -2.2512 -0.3382
 8439SOL     OW36952   4.529   1.812  13.695  0.2615 -0.1599 -0.4307
 8439SOL    HW136953   4.506   1.894  13.651 -2.2732 -0.3021  0.6548
 8439SOL    HW236954   4.568   1.840  13.777  0.2514  0.5308 -0.6611
 8440SOL     OW36955   1.363   4.260  17.499 -0.5403 -0.1959  0.4493
 8440SOL    HW136956   1.362   4.164  17.496  1.2927 -0.3202  3.4935
 8440SOL    HW236957   1.426   4.283  17.431 -1.5749  0.3489 -0.3165
 8441SOL     OW36958   0.791   0.244  11.158  0.2389 -0.1890 -0.0589
 8441SOL    HW136959   0.862   0.247  11.095 -1.0340  2.1989 -1.3849
 8441SOL    HW236960   0.736   0.191  11.101 -0.4432  1.5457 -0.9978
 8442SOL     OW36961   3.574   4.004  12.465 -0.4343 -0.1166  0.1301
 8442SOL    HW136962   3.568   3.983  12.558  1.0742 -0.1348  0.2191
 8442SOL    HW236963   3.620   3.927  12.431 -0.3999  0.7213 -1.7125
 8443SOL     OW36964   0.001   3.384   9.328 -0.2871  1.0129  0.9152
 8443SOL    HW136965   0.090   3.351   9.342 -1.0568 -1.0361  0.9305
 8443SOL    HW236966   4.681   3.313   9.356  0.8561  0.1801  1.1140
 8444SOL     OW36967   3.383   2.387   8.176 -0.3954 -0.3584 -0.1859
 8444SOL    HW136968   3.344   2.326   8.238  0.1262  0.2558  0.7547
 8444SOL    HW236969   3.304   2.433   8.147 -1.2988 -2.1390 -0.5570
 8445SOL     OW36970   3.209   4.524  10.956  0.3818 -0.2784  0.6241
 8445SOL    HW136971   3.275   4.557  10.896  0.5042  0.9770  1.4514
 8445SOL    HW236972   3.240   4.443  10.997  0.2616  0.7754  2.7977
 8446SOL     OW36973   1.938   0.882   5.266  0.3751  0.4759 -0.0782
 8446SOL    HW136974   1.868   0.826   5.233  2.0047 -0.9995 -1.0244
 8446SOL    HW236975   1.929   0.882   5.361 -0.5300 -0.5159 -0.1654
 8447SOL     OW36976   2.774   1.190  15.912  0.6765  0.4104 -0.3264
 8447SOL    HW136977   2.730   1.139  15.980 -1.5147  1.2617 -1.1000
 8447SOL    HW236978   2.760   1.131  15.839  0.4579  0.5107 -0.3658
 8448SOL     OW36979   3.859   0.982   1.778 -0.6538 -0.3452  0.3426
 8448SOL    HW136980   3.855   0.991   1.683 -0.6188 -0.7933  0.2951
 8448SOL    HW236981   3.900   0.896   1.789  2.0473  0.7014 -1.4360
 8449SOL     OW36982   0.660   2.600   2.970  0.2716 -0.2607  0.3818
 8449SOL    HW136983   0.675   2.588   3.063 -1.4389  0.2728  0.7129
 8449SOL    HW236984   0.580   2.652   2.961  0.3511 -0.1540  0.2785
 8450SOL     OW36985   3.170   4.515   5.742 -0.2457 -0.1455 -0.4497
 8450SOL    HW136986   3.157   4.559   5.658  1.2097 -1.0368 -1.1568
 8450SOL    HW236987   3.154   4.581   5.809  1.3223  0.4434 -0.6562
 8451SOL     OW36988   3.678   2.906  16.045  0.6889 -0.3379 -0.3843
 8451SOL    HW136989   3.589   2.938  16.032  0.5628 -0.7166 -0.4696
 8451SOL    HW236990   3.659   2.854  16.123  1.3233 -0.8447 -0.5689
 8452SOL     OW36991   1.877   3.936   5.472  0.5230 -0.2779 -0.3271
 8452SOL    HW136992   1.824   3.938   5.551  0.9197  1.4012 -0.0965
 8452SOL    HW236993   1.961   3.901   5.502 -0.6400 -0.6186  2.5297
 8453SOL     OW36994   4.474   3.571   3.783  0.3097 -0.0959  0.6557
 8453SOL    HW136995   4.435   3.637   3.840 -0.4538 -1.9745  2.3047
 8453SOL    HW236996   4.430   3.492   3.816 -1.3796 -0.4493 -2.3954
 8454SOL     OW36997   4.075   1.002   7.328 -0.5626  0.4189  0.2606
 8454SOL    HW136998   4.067   1.048   7.411  0.6834  0.2981  0.4544
 8454SOL    HW236999   4.011   0.933   7.345  0.8219 -1.2076 -1.0829
 8455SOL     OW37000   4.414   2.681   0.865 -0.3018  0.1254  0.0564
 8455SOL    HW137001   4.489   2.739   0.857 -0.7407  0.9103  1.7474
 8455SOL    HW237002   4.439   2.626   0.939 -2.6635 -2.0642 -0.7503
 8456SOL     OW37003   0.361   0.057  11.794  0.6125  0.3711 -0.2891
 8456SOL    HW137004   0.316   0.073  11.877 -0.5667  0.5507 -0.9546
 8456SOL    HW237005   0.447   0.077  11.831  0.4664  4.0595 -1.9057
 8457SOL     OW37006   3.048   1.475   5.484  0.2763  0.0615  0.5676
 8457SOL    HW137007   3.144   1.471   5.474  0.4753  0.9932  2.0485
 8457SOL    HW237008   3.018   1.401   5.433  0.9031 -0.7508  1.3772
 8458SOL     OW37009   2.719   2.349   4.622 -0.0273 -0.4444  0.5772
 8458SOL    HW137010   2.771   2.270   4.607  0.5822 -0.1740  1.2996
 8458SOL    HW237011   2.661   2.324   4.693 -1.0410  0.6984  0.1373
 8459SOL     OW37012   2.805   2.551   7.704 -0.3839 -0.1326  0.2270
 8459SOL    HW137013   2.889   2.508   7.723 -0.3194 -0.8784 -1.7318
 8459SOL    HW237014   2.766   2.534   7.790 -0.2670 -2.8920 -0.2465
 8460SOL     OW37015   2.284   0.471   8.909  0.2162 -0.7322  0.3551
 8460SOL    HW137016   2.378   0.486   8.915  0.1099  0.3834 -0.8554
 8460SOL    HW237017   2.245   0.550   8.947  1.3473  0.3254 -0.6799
 8461SOL     OW37018   0.795   4.217  12.565  0.0469 -0.7846 -0.3682
 8461SOL    HW137019   0.814   4.130  12.601  2.0550 -1.0230 -1.9866
 8461SOL    HW237020   0.791   4.201  12.471  0.0492  1.3585 -0.7192
 8462SOL     OW37021   1.070   1.449   2.099  0.0411  0.0266  0.1681
 8462SOL    HW137022   1.016   1.399   2.160  0.2110  1.1865  1.2764
 8462SOL    HW237023   1.140   1.464   2.163 -1.2904  0.6862  1.4839
 8463SOL     OW37024   0.677   2.798  14.719  0.8554 -0.6825  0.6055
 8463SOL    HW137025   0.628   2.813  14.800 -2.2801  1.6001 -1.7129
 8463SOL    HW237026   0.701   2.889  14.704 -0.2330 -0.1435  2.1066
 8464SOL     OW37027   2.620   3.370   2.583 -0.2757  0.0477  0.4733
 8464SOL    HW137028   2.609   3.412   2.498  0.6079  0.4602  0.5624
 8464SOL    HW237029   2.637   3.281   2.552  0.4592 -0.0669  1.1984
 8465SOL     OW37030   1.545   3.131   7.420 -0.0585  0.7108  0.0596
 8465SOL    HW137031   1.590   3.052   7.391 -0.9491  0.0988  0.3632
 8465SOL    HW237032   1.573   3.194   7.353 -1.5571  0.7901 -0.4979
 8466SOL     OW37033   2.718   4.011   8.748 -0.3904  0.5772 -0.7101
 8466SOL    HW137034   2.767   4.084   8.709  0.9837 -0.3789 -0.7773
 8466SOL    HW237035   2.741   4.015   8.841  2.0404 -0.1672 -1.2783
 8467SOL     OW37036   2.054   2.445   4.327  0.5011  0.1793  0.1643
 8467SOL    HW137037   2.080   2.394   4.250 -1.8397 -0.7304 -0.0310
 8467SOL    HW237038   2.058   2.536   4.300  0.2686 -0.3446 -1.5930
 8468SOL     OW37039   0.755   4.640   6.837 -0.4354 -0.3766 -0.3809
 8468SOL    HW137040   0.729   4.574   6.772  1.3154 -0.1800 -1.3008
 8468SOL    HW237041   0.746   4.722   6.789 -2.5420  0.5071  1.5458
 8469SOL     OW37042   1.829   4.347   6.437 -0.6759  0.7475  0.3599
 8469SOL    HW137043   1.793   4.261   6.460  1.4882 -1.0486 -2.8795
 8469SOL    HW237044   1.823   4.342   6.341 -0.0085 -0.9686  0.3941
 8470SOL     OW37045   4.222   4.413  12.925 -0.6056 -0.3353  0.1632
 8470SOL    HW137046   4.178   4.458  12.853 -1.2981 -0.4565  0.5086
 8470SOL    HW237047   4.310   4.402  12.890  0.6407  1.7671  2.6284
 8471SOL     OW37048   4.176   2.227  13.454  0.5495  0.5631  0.5312
 8471SOL    HW137049   4.200   2.155  13.397 -2.4612 -0.0634  0.0416
 8471SOL    HW237050   4.082   2.226  13.476  0.0807 -0.1027 -1.5760
 8472SOL     OW37051   2.697   0.489  15.695 -0.5883 -0.1999 -0.4308
 8472SOL    HW137052   2.644   0.424  15.648 -0.2017  0.0739 -1.2448
 8472SOL    HW237053   2.713   0.554  15.627  3.1684 -0.6690  0.0018
 8473SOL     OW37054   4.276   3.280   3.223 -0.0196 -0.1118 -0.1732
 8473SOL    HW137055   4.324   3.354   3.186  0.3141 -0.9275 -1.3573
 8473SOL    HW237056   4.342   3.211   3.226 -1.0633 -1.1439 -0.8636
 8474SOL     OW37057   2.606   4.293  13.554  0.3905 -0.2388  0.0345
 8474SOL    HW137058   2.607   4.283  13.458  1.6640  2.4482 -0.2443
 8474SOL    HW237059   2.543   4.221  13.561  0.4834 -0.1363  1.8142
 8475SOL     OW37060   4.392   3.795  11.407 -0.1465  0.8990 -0.2994
 8475SOL    HW137061   4.303   3.782  11.440 -0.2492  0.0148 -0.9333
 8475SOL    HW237062   4.420   3.867  11.464  0.8801  0.1832  0.1036
 8476SOL     OW37063   0.817   1.579   6.653  0.8518 -0.5320  0.5321
 8476SOL    HW137064   0.778   1.495   6.679  0.0039 -0.6777 -1.2040
 8476SOL    HW237065   0.827   1.557   6.560  0.2599 -1.4809  0.6853
 8477SOL     OW37066   4.568   3.259   5.452 -0.2782 -0.5119 -0.7685
 8477SOL    HW137067   4.652   3.241   5.495  0.1013  0.2963 -1.1820
 8477SOL    HW237068   4.596   3.293   5.367  1.0879  3.0814  1.1529
 8478SOL     OW37069   1.052   1.705   3.578 -0.1359  0.0667  0.0856
 8478SOL    HW137070   1.105   1.707   3.498 -3.3760 -2.5030 -2.1678
 8478SOL    HW237071   1.057   1.797   3.605 -5.1794 -0.1178  1.5625
 8479SOL     OW37072   3.036   3.324   3.653 -0.4851 -0.2439 -0.2938
 8479SOL    HW137073   3.027   3.229   3.649  0.3315 -0.3214 -0.3767
 8479SOL    HW237074   3.126   3.319   3.685 -0.6649  1.1302  0.4193
 8480SOL     OW37075   3.256   2.355   1.575  0.5573 -0.3903 -0.1850
 8480SOL    HW137076   3.221   2.434   1.534  0.2347  0.4488  1.6906
 8480SOL    HW237077   3.264   2.300   1.497 -2.2569 -1.5132  0.2867
 8481SOL     OW37078   4.289   3.099   7.484  0.5544 -0.0656 -0.2724
 8481SOL    HW137079   4.370   3.101   7.433  0.5332  2.2760 -0.2444
 8481SOL    HW237080   4.220   3.079   7.421 -0.6052  0.6688  0.7721
 8482SOL     OW37081   1.507   2.251   0.410  0.4048  0.3501 -0.0185
 8482SOL    HW137082   1.506   2.160   0.439 -0.0724 -0.0120 -1.1917
 8482SOL    HW237083   1.542   2.292   0.489 -0.3051  0.8797  0.0277
 8483SOL     OW37084   2.964   4.145   2.277 -0.4220  0.3499 -0.1074
 8483SOL    HW137085   2.881   4.187   2.299 -0.7006  0.8318 -2.0004
 8483SOL    HW237086   2.943   4.078   2.213 -2.8750  2.6453 -1.7319
 8484SOL     OW37087   2.144   0.373  17.095  0.1839  0.3793  0.0895
 8484SOL    HW137088   2.225   0.341  17.135  1.2730  1.9430 -0.8534
 8484SOL    HW237089   2.135   0.351  17.002  1.4350 -2.0325  0.5495
 8485SOL     OW37090   1.686   4.223  10.129 -0.3920 -0.4306 -0.1928
 8485SOL    HW137091   1.729   4.181  10.204  1.7821  0.2458 -1.0767
 8485SOL    HW237092   1.593   4.221  10.153 -0.4483 -0.7596 -0.4417
 8486SOL     OW37093   1.845   0.160   3.281  0.3219 -0.0212  0.0064
 8486SOL    HW137094   1.775   0.218   3.250  1.9453  1.1074 -1.5194
 8486SOL    HW237095   1.864   0.191   3.369  0.5818  2.3258 -0.8801
 8487SOL     OW37096   3.045   1.289   2.258 -0.0256  0.3465 -0.2149
 8487SOL    HW137097   3.008   1.250   2.179  1.7603 -2.0822  0.1382
 8487SOL    HW237098   3.103   1.220   2.291 -1.3270 -0.5016  0.3245
 8488SOL     OW37099   0.041   3.139  11.311  0.0460  0.3951  0.5999
 8488SOL    HW137100   4.691   3.147  11.271 -0.4273  0.8434  1.7029
 8488SOL    HW237101   0.094   3.206  11.269 -0.8041  0.1730 -0.8275
 8489SOL     OW37102   0.788   3.777   8.238  0.2450 -0.5326 -0.0549
 8489SOL    HW137103   0.846   3.829   8.293 -0.6353  0.3332  0.0695
 8489SOL    HW237104   0.827   3.798   8.153  0.6444  0.5496  0.4005
 8490SOL     OW37105   3.281   0.479   2.954  0.3198 -0.0522 -0.2517
 8490SOL    HW137106   3.228   0.405   2.926  2.0879 -2.3004  2.3222
 8490SOL    HW237107   3.216   0.549   2.945  0.0700 -0.2962 -0.3468
 8491SOL     OW37108   2.122   3.980   6.833 -1.0743 -0.7534 -0.3827
 8491SOL    HW137109   2.170   3.926   6.770  0.1541 -2.1716  1.7405
 8491SOL    HW237110   2.028   3.960   6.829 -1.3118  0.1620  0.7726
 8492SOL     OW37111   4.140   0.793   8.103  0.1939  0.7694  0.2727
 8492SOL    HW137112   4.166   0.871   8.055 -2.6847  1.9396  0.6535
 8492SOL    HW237113   4.052   0.811   8.135 -0.7697 -1.0971 -1.2518
 8493SOL     OW37114   2.285   2.139   6.683  0.0400 -0.0383  0.3063
 8493SOL    HW137115   2.340   2.070   6.721  0.1759  0.2332  0.6080
 8493SOL    HW237116   2.288   2.119   6.590  0.0060 -0.6091  0.4280
 8494SOL     OW37117   1.284   4.240   8.176  0.3883 -0.5669  0.2715
 8494SOL    HW137118   1.360   4.248   8.118  0.3690 -1.7847  0.0764
 8494SOL    HW237119   1.315   4.259   8.265  0.0114  0.0033  0.2798
 8495SOL     OW37120   2.100   2.121  16.830 -0.0868  0.0118 -0.0618
 8495SOL    HW137121   2.061   2.039  16.798 -3.3812  1.8343 -0.6769
 8495SOL    HW237122   2.107   2.176  16.752  0.1263 -1.2567 -0.9527
 8496SOL     OW37123   4.053   0.926  10.368  0.0250 -0.2962  0.3457
 8496SOL    HW137124   4.094   0.854  10.320  0.2748  0.2606 -0.2770
 8496SOL    HW237125   3.998   0.958  10.297 -0.3626 -1.3792  0.1503
 8497SOL     OW37126   1.354   1.742   2.555  0.1038  0.1720 -0.1620
 8497SOL    HW137127   1.413   1.792   2.610 -0.6458 -0.8637  1.5845
 8497SOL    HW237128   1.415   1.696   2.498 -1.7084 -1.1746 -1.0358
 8498SOL     OW37129   0.542   3.382   0.972  0.3388 -0.4042 -0.0298
 8498SOL    HW137130   0.622   3.364   1.022  0.3516 -1.1981 -0.3380
 8498SOL    HW237131   0.567   3.344   0.888  0.2375  1.0494 -0.7128
 8499SOL     OW37132   1.585   1.662  13.087 -0.4097 -0.0427 -0.1681
 8499SOL    HW137133   1.609   1.570  13.089  1.6421  0.4816 -1.1286
 8499SOL    HW237134   1.643   1.700  13.152 -0.2594 -2.1302  0.9129
 8500SOL     OW37135   1.453   0.415   6.043 -0.1524  0.2272 -0.3330
 8500SOL    HW137136   1.508   0.467   6.102  0.8177 -2.3496  1.0297
 8500SOL    HW237137   1.513   0.408   5.969  1.6885  0.5093  1.1297
 8501SOL     OW37138   2.292   3.914  12.650 -0.2671  0.0975  0.0749
 8501SOL    HW137139   2.281   3.950  12.561  0.0370  1.1411  0.4607
 8501SOL    HW237140   2.327   3.827  12.629 -1.9171 -0.3015 -0.9981
 8502SOL     OW37141   0.320   1.999   4.157  0.4820 -0.5234  0.4374
 8502SOL    HW137142   0.267   1.926   4.126  0.2989 -0.8142  1.4355
 8502SOL    HW237143   0.392   1.949   4.195  1.9105 -0.8322 -2.6830
 8503SOL     OW37144   3.565   3.380   8.175 -0.1614 -0.6384  0.4239
 8503SOL    HW137145   3.653   3.351   8.201  0.6405  0.4666 -1.0131
 8503SOL    HW237146   3.522   3.311   8.225  1.3031 -2.4030 -0.7036
 8504SOL     OW37147   3.272   1.264   8.768  0.4094  0.0607  0.2002
 8504SOL    HW137148   3.229   1.199   8.824 -1.2203  1.2172  0.2771
 8504SOL    HW237149   3.330   1.296   8.837  0.6422  2.3662 -1.0806
 8505SOL     OW37150   4.441   1.304   2.358 -0.2956  0.4388  0.3452
 8505SOL    HW137151   4.441   1.379   2.298 -0.7122  0.6657  0.6337
 8505SOL    HW237152   4.534   1.293   2.377 -0.4578 -2.1343 -0.3853
 8506SOL     OW37153   4.620   3.977  14.643 -0.0099  0.7075 -0.1065
 8506SOL    HW137154   4.536   3.944  14.676 -0.1408  0.8420 -0.3005
 8506SOL    HW237155   4.630   4.057  14.694  2.2643 -0.1588  0.7566
 8507SOL     OW37156   0.592   3.770   2.123  0.7217  0.2167  0.7032
 8507SOL    HW137157   0.547   3.846   2.086 -1.3314 -0.9229  0.8620
 8507SOL    HW237158   0.611   3.809   2.208  1.4583  0.1525  0.5695
 8508SOL     OW37159   1.945   3.568   3.720  0.3258  0.1609  0.4165
 8508SOL    HW137160   1.947   3.654   3.678  2.0632 -0.1412 -0.1284
 8508SOL    HW237161   2.010   3.589   3.787 -0.6852 -0.3208  1.5315
 8509SOL     OW37162   0.463   3.661   4.323  0.3404  0.3861 -0.1605
 8509SOL    HW137163   0.410   3.730   4.284  0.6380  1.8710  2.1182
 8509SOL    HW237164   0.535   3.710   4.361  2.0126 -0.9586 -1.5668
 8510SOL     OW37165   3.175   3.291   3.102 -0.2857 -0.2915  0.0575
 8510SOL    HW137166   3.105   3.231   3.075  0.6677 -0.8368 -1.2320
 8510SOL    HW237167   3.215   3.301   3.016  2.9375  0.1641  1.6261
 8511SOL     OW37168   3.892   3.059   8.301  0.4813 -0.1240 -0.5276
 8511SOL    HW137169   3.836   3.000   8.251 -0.3730 -2.0119  2.6220
 8511SOL    HW237170   3.833   3.124   8.339 -0.6602 -0.9690 -0.8229
 8512SOL     OW37171   1.381   0.955   8.725  0.2529  0.3349  0.5194
 8512SOL    HW137172   1.358   0.872   8.684  1.2725 -0.0075  0.6389
 8512SOL    HW237173   1.364   1.006   8.645 -1.0660  0.5385  0.9265
 8513SOL     OW37174   3.416   1.098   4.215 -0.1413  0.1552 -0.4558
 8513SOL    HW137175   3.333   1.079   4.170  1.2468 -0.0378 -2.9646
 8513SOL    HW237176   3.390   1.072   4.303  0.2318  0.4678 -0.2574
 8514SOL     OW37177   4.352   0.134  12.905 -0.6064  0.3064 -0.0085
 8514SOL    HW137178   4.364   0.192  12.980 -3.7045  0.5205  0.3045
 8514SOL    HW237179   4.290   0.080  12.953  1.1924 -1.3326  0.4672
 8515SOL     OW37180   4.685   2.548   8.848  0.1564 -0.3111  0.3003
 8515SOL    HW137181   4.719   2.472   8.894  2.3925  0.9804  0.8101
 8515SOL    HW237182   0.002   2.618   8.885 -0.3339  0.6795 -0.8669
 8516SOL     OW37183   1.959   4.549   5.019 -0.6234 -0.3200 -0.2061
 8516SOL    HW137184   1.921   4.636   5.016 -0.8183 -0.5030 -2.8110
 8516SOL    HW237185   1.908   4.501   5.084 -1.6044 -0.8823 -1.3959
 8517SOL     OW37186   2.115   2.775   6.069  0.1492 -0.6537 -0.4588
 8517SOL    HW137187   2.093   2.861   6.105 -0.3951 -1.2877  0.7127
 8517SOL    HW237188   2.058   2.774   5.992  0.4930  2.5880 -0.7760
 8518SOL     OW37189   0.152   0.497   3.176  0.2379  0.2705 -0.2631
 8518SOL    HW137190   0.218   0.565   3.190  0.1758  0.4905 -1.0515
 8518SOL    HW237191   0.149   0.480   3.082 -0.0963  0.0808 -0.2198
 8519SOL     OW37192   0.856   2.112   8.711  0.1468 -0.6400 -0.4607
 8519SOL    HW137193   0.849   2.101   8.805 -3.1820  0.6970 -0.5407
 8519SOL    HW237194   0.867   2.025   8.673 -0.9690 -0.2768 -1.6283
 8520SOL     OW37195   2.551   2.169  10.825 -0.5956  0.1276  0.4858
 8520SOL    HW137196   2.503   2.205  10.751 -0.3403 -0.8129 -0.1286
 8520SOL    HW237197   2.488   2.103  10.853 -0.9966  0.9139  1.4132
 8521SOL     OW37198   0.191   1.052   4.801 -0.3188  0.3447 -0.3455
 8521SOL    HW137199   0.101   1.075   4.823 -0.3849 -1.5245  1.3031
 8521SOL    HW237200   0.207   1.078   4.710  0.2596  0.2699 -0.2623
 8522SOL     OW37201   1.730   4.095   3.381  0.2323 -0.1043 -0.4151
 8522SOL    HW137202   1.673   4.154   3.331 -0.5417 -0.1958  0.3626
 8522SOL    HW237203   1.668   4.042   3.431  2.0222 -0.1678  1.7385
 8523SOL     OW37204   4.722   2.529  12.716  0.6682 -0.0934 -0.3381
 8523SOL    HW137205   4.729   2.605  12.658  0.6619 -0.8451 -1.3308
 8523SOL    HW237206   4.634   2.502  12.690  1.2061 -1.1598 -1.0535
 8524SOL     OW37207   2.763   3.944   5.809  0.1459 -0.2158  0.1381
 8524SOL    HW137208   2.764   4.016   5.745  0.2191  0.3319  0.7481
 8524SOL    HW237209   2.846   3.957   5.856  0.3930  0.7812 -0.5579
 8525SOL     OW37210   0.914   2.808  12.195 -0.6453 -0.2960  0.1035
 8525SOL    HW137211   0.902   2.884  12.138  0.5523 -1.5973 -1.8515
 8525SOL    HW237212   0.827   2.771  12.206 -1.2273  0.9799 -0.2560
 8526SOL     OW37213   0.910   0.752   7.870 -0.0671  0.4617  0.3746
 8526SOL    HW137214   0.901   0.821   7.804 -0.8889  0.7388  0.7795
 8526SOL    HW237215   0.881   0.684   7.809 -1.1690 -0.8716  2.3955
 8527SOL     OW37216   3.940   4.713   3.855  0.5636  0.2058  0.0969
 8527SOL    HW137217   3.880   4.654   3.810 -0.9148  1.6577  0.1902
 8527SOL    HW237218   3.885   0.054   3.846  0.6009  0.3971  1.5269
 8528SOL     OW37219   0.711   4.170   5.038  0.1573  0.3114 -0.0311
 8528SOL    HW137220   0.709   4.204   4.949 -2.1652 -1.2967 -0.5912
 8528SOL    HW237221   0.650   4.096   5.035 -1.0005  1.1755  2.2245
 8529SOL     OW37222   3.503   0.885   6.502  0.3903 -0.1677 -0.0910
 8529SOL    HW137223   3.520   0.807   6.555 -0.5109 -0.0466  0.3773
 8529SOL    HW237224   3.535   0.852   6.418 -1.1359  1.4676 -1.3156
 8530SOL     OW37225   0.460   4.127   2.361 -0.2197 -0.1629 -0.5687
 8530SOL    HW137226   0.472   4.053   2.420  1.7602  0.2926 -0.3803
 8530SOL    HW237227   0.490   4.197   2.419  1.5631 -0.0208 -1.6628
 8531SOL     OW37228   2.690   4.436   6.347  0.8019 -0.4786  0.6975
 8531SOL    HW137229   2.619   4.372   6.342  0.0461  0.2396  2.2566
 8531SOL    HW237230   2.646   4.503   6.399 -0.6558  0.5796 -1.8797
 8532SOL     OW37231   3.360   2.470   7.609  0.3071  0.0252 -0.2449
 8532SOL    HW137232   3.280   2.422   7.629  0.3641 -0.5375 -1.3725
 8532SOL    HW237233   3.393   2.404   7.548  1.8303 -0.4017  1.0371
 8533SOL     OW37234   4.548   4.360   8.635  0.0576 -0.8780  0.1766
 8533SOL    HW137235   4.623   4.369   8.576 -1.6553  1.0383 -1.7124
 8533SOL    HW237236   4.554   4.435   8.695  0.8411 -0.3248 -0.5954
 8534SOL     OW37237   0.857   0.384   2.445 -0.3094 -0.4376  0.3625
 8534SOL    HW137238   0.822   0.303   2.409 -0.0107 -0.2870 -0.2686
 8534SOL    HW237239   0.823   0.373   2.534  0.8728  0.4007  0.9213
 8535SOL     OW37240   0.254   1.201   5.967 -0.0572 -0.1985 -0.0590
 8535SOL    HW137241   0.210   1.275   5.925 -0.0095 -0.2546 -0.2079
 8535SOL    HW237242   0.180   1.144   5.991  0.0479 -0.3151 -0.0127
 8536SOL     OW37243   0.233   4.709   5.227 -0.3880 -0.0518  0.2794
 8536SOL    HW137244   0.145   4.673   5.222 -1.2971  2.2980 -0.8705
 8536SOL    HW237245   0.253   4.716   5.133  2.4439  2.9883  1.1127
 8537SOL     OW37246   4.624   3.851   3.505 -0.3737  0.0324 -0.6897
 8537SOL    HW137247   4.705   3.818   3.544 -0.6752 -1.4817 -1.3775
 8537SOL    HW237248   4.631   3.812   3.418 -1.8576  2.6906 -2.0126
 8538SOL     OW37249   1.041   0.253   4.992  0.3744  0.3064 -0.0420
 8538SOL    HW137250   1.070   0.269   5.082 -0.9823  1.4319  0.1891
 8538SOL    HW237251   1.117   0.284   4.942 -0.8462  2.2925 -0.6700
 8539SOL     OW37252   0.693   0.837   1.943 -0.1007  0.3819 -0.2332
 8539SOL    HW137253   0.776   0.790   1.949  0.2438  0.9891 -0.2675
 8539SOL    HW237254   0.665   0.845   2.034  1.0143 -2.3620  0.3445
 8540SOL     OW37255   1.825   0.380  12.187 -0.2266 -0.3051 -0.3135
 8540SOL    HW137256   1.834   0.465  12.143 -0.6477 -0.4680 -0.7162
 8540SOL    HW237257   1.858   0.328  12.114  1.9452 -0.3408  0.7059
 8541SOL     OW37258   1.257   2.133   1.927 -0.5130 -0.8965  0.4481
 8541SOL    HW137259   1.321   2.100   1.990 -1.1326  0.0313  1.5530
 8541SOL    HW237260   1.258   2.058   1.867 -4.1738 -0.3641 -0.2644
 8542SOL     OW37261   3.715   3.358  10.527  0.1028 -0.1127  0.0693
 8542SOL    HW137262   3.751   3.446  10.519  1.0694 -0.7222 -2.1758
 8542SOL    HW237263   3.776   3.325  10.593 -0.0313  1.3783  0.9353
 8543SOL     OW37264   3.539   2.055   4.687  0.3338  0.7308 -0.0399
 8543SOL    HW137265   3.598   2.002   4.741  0.4746  0.5401 -0.3823
 8543SOL    HW237266   3.462   2.072   4.741  0.7674  0.8511  0.5430
 8544SOL     OW37267   3.948   4.222  15.730  0.2554 -0.4444 -0.0487
 8544SOL    HW137268   3.982   4.303  15.768  1.9834 -2.2424  2.1793
 8544SOL    HW237269   3.880   4.253  15.671 -0.5895 -0.3265  0.9840
 8545SOL     OW37270   4.512   2.980   5.984 -0.6442  0.0787 -0.1899
 8545SOL    HW137271   4.436   3.023   5.947 -0.5151 -1.1790 -1.9253
 8545SOL    HW237272   4.572   3.009   5.916  1.0773 -2.4770  0.2191
 8546SOL     OW37273   4.550   0.435  15.538  0.4247 -0.2681 -0.1986
 8546SOL    HW137274   4.637   0.434  15.500  0.4362 -2.6613 -0.1029
 8546SOL    HW237275   4.502   0.501  15.488 -1.9732 -1.6692  0.2666
 8547SOL     OW37276   4.193   1.133  14.093  0.6081  0.4293 -0.6547
 8547SOL    HW137277   4.144   1.214  14.076 -1.3443 -0.7531 -0.6345
 8547SOL    HW237278   4.261   1.158  14.156  0.4493  0.1519 -0.3738
 8548SOL     OW37279   0.534   3.129  16.026 -0.1787  0.5206  0.4630
 8548SOL    HW137280   0.595   3.057  16.042  0.3144  1.3013  2.1138
 8548SOL    HW237281   0.455   3.093  16.064  1.2748 -0.7098  2.3059
 8549SOL     OW37282   0.482   1.274   6.315 -0.3688 -0.0328 -0.3011
 8549SOL    HW137283   0.446   1.214   6.249 -2.6424 -0.1397  1.0575
 8549SOL    HW237284   0.554   1.218   6.344 -1.5618 -0.8531  1.0377
 8550SOL     OW37285   3.635   2.410   7.118 -0.3117  0.0135  0.3293
 8550SOL    HW137286   3.681   2.395   7.035 -0.8340  1.1937 -0.1821
 8550SOL    HW237287   3.645   2.505   7.129 -1.0568  0.3560 -1.9791
 8551SOL     OW37288   1.409   1.735   5.592  0.0515  0.1814 -0.4276
 8551SOL    HW137289   1.404   1.711   5.685 -1.9560  1.1624 -0.2798
 8551SOL    HW237290   1.371   1.664   5.541  0.1222  0.2206 -0.5356
 8552SOL     OW37291   3.284   2.962  15.257  0.5943 -0.2831 -0.8717
 8552SOL    HW137292   3.221   2.891  15.261  0.4531 -0.1467 -0.6553
 8552SOL    HW237293   3.296   2.974  15.162 -0.7545 -2.8198 -1.3526
 8553SOL     OW37294   2.701   0.914   4.112 -0.2003  0.1119  0.2484
 8553SOL    HW137295   2.674   0.846   4.173  1.5963  0.0169  0.9325
 8553SOL    HW237296   2.725   0.981   4.176  0.4866  0.4387 -0.3461
 8554SOL     OW37297   0.485   2.910   6.367  0.1489 -0.6100  0.2912
 8554SOL    HW137298   0.478   2.961   6.448 -1.1865 -3.0706  1.7304
 8554SOL    HW237299   0.572   2.873   6.377 -0.0328 -1.8263 -2.7904
 8555SOL     OW37300   2.794   3.631   3.190  0.6226  0.3026 -0.4148
 8555SOL    HW137301   2.811   3.647   3.097 -0.7612 -1.3083 -0.9233
 8555SOL    HW237302   2.884   3.609   3.215  1.0244  0.0572 -2.0307
 8556SOL     OW37303   0.956   0.831   1.702  0.0086  0.4605  0.1258
 8556SOL    HW137304   0.904   0.907   1.726 -2.8357 -1.3712 -0.2493
 8556SOL    HW237305   0.996   0.806   1.786 -1.5163  0.7124  0.9407
 8557SOL     OW37306   3.710   0.863   3.400  0.4588  0.5350  0.0213
 8557SOL    HW137307   3.638   0.904   3.448 -0.2330  0.6141 -1.0806
 8557SOL    HW237308   3.714   0.775   3.438 -1.0605  0.1274 -0.7691
 8558SOL     OW37309   0.927   1.149   6.024  0.1786  0.0679  0.2189
 8558SOL    HW137310   0.885   1.224   6.065  0.6761  0.6776 -0.3982
 8558SOL    HW237311   1.014   1.185   6.009  0.5004 -0.6173  0.4336
 8559SOL     OW37312   3.148   2.824   6.079 -0.2621 -0.1343 -0.1435
 8559SOL    HW137313   3.072   2.873   6.050 -0.4917 -1.2422 -1.4263
 8559SOL    HW237314   3.171   2.862   6.163 -1.4062 -1.2506  0.6789
 8560SOL     OW37315   2.187   2.265   2.391 -0.1567  0.1001  0.1314
 8560SOL    HW137316   2.240   2.185   2.392 -0.0970  0.1358 -0.3057
 8560SOL    HW237317   2.237   2.330   2.441 -2.9991  0.6584  2.1841
 8561SOL     OW37318   3.469   4.324   0.947  0.5105 -0.2975  0.2044
 8561SOL    HW137319   3.393   4.281   0.987 -1.1359  0.1142 -2.5169
 8561SOL    HW237320   3.509   4.248   0.905  1.2226 -1.0678  2.2693
 8562SOL     OW37321   4.414   1.170   2.710  0.0363 -0.1317  0.0915
 8562SOL    HW137322   4.413   1.104   2.779 -3.7873  0.2879  0.4193
 8562SOL    HW237323   4.492   1.223   2.727  0.4439 -0.3540 -1.0550
 8563SOL     OW37324   3.571   1.412  15.677  0.0219 -0.0581 -0.0399
 8563SOL    HW137325   3.579   1.351  15.604  1.4704  0.3025 -0.1672
 8563SOL    HW237326   3.488   1.372  15.706 -0.1933 -1.6349 -2.8557
 8564SOL     OW37327   4.316   4.306  17.399 -0.6151 -0.5265 -0.5936
 8564SOL    HW137328   4.286   4.223  17.363 -1.0870 -0.9402  0.7391
 8564SOL    HW237329   4.391   4.320  17.343 -0.7369 -0.7934 -0.8210
 8565SOL     OW37330   0.654   0.179   6.968 -0.5269 -0.0862  0.3806
 8565SOL    HW137331   0.725   0.184   6.905  0.3121  3.3829  1.5512
 8565SOL    HW237332   0.618   0.092   6.954 -1.4171  0.3898 -0.2962
 8566SOL     OW37333   2.177   4.027  17.260  1.0142  0.1744  0.1200
 8566SOL    HW137334   2.167   3.957  17.196  3.4529  0.5435 -0.6722
 8566SOL    HW237335   2.202   3.983  17.341  0.4762  1.9404  1.2559
 8567SOL     OW37336   1.879   2.189   7.313 -0.3210  0.2895  0.5255
 8567SOL    HW137337   1.934   2.253   7.357 -2.6854  2.7123 -0.0527
 8567SOL    HW237338   1.809   2.248   7.284  1.3506  1.0291 -2.0036
 8568SOL     OW37339   4.127   2.130   3.756 -0.0560  0.2406 -0.0910
 8568SOL    HW137340   4.112   2.069   3.828 -2.0012  1.6203  0.6569
 8568SOL    HW237341   4.145   2.212   3.800  1.7415 -0.1142 -0.1809
 8569SOL     OW37342   1.191   3.113  13.167  0.1523  0.0277 -0.2665
 8569SOL    HW137343   1.127   3.173  13.206 -0.7343 -1.5820  0.7913
 8569SOL    HW237344   1.215   3.070  13.250 -1.7296 -1.5689 -0.5476
 8570SOL     OW37345   1.820   1.176  11.581 -0.2008  0.3718 -0.4202
 8570SOL    HW137346   1.835   1.093  11.625  0.8387 -0.4869 -2.4033
 8570SOL    HW237347   1.872   1.160  11.502 -2.3047  0.9588 -1.9253
 8571SOL     OW37348   0.204   4.540   4.844 -0.6584 -0.2618  0.6763
 8571SOL    HW137349   0.208   4.469   4.779 -1.0364  0.5203 -0.2035
 8571SOL    HW237350   0.130   4.590   4.810 -1.3826 -1.8502 -0.1307
 8572SOL     OW37351   0.335   3.460   5.885  0.1338 -0.0954  0.0593
 8572SOL    HW137352   0.319   3.499   5.971 -0.7166 -3.7710  1.5764
 8572SOL    HW237353   0.297   3.526   5.828  1.5673  0.4500 -0.2548
 8573SOL     OW37354   3.600   4.210   0.091  0.3721 -0.5166  0.1330
 8573SOL    HW137355   3.518   4.258   0.090  0.8613  0.2709 -1.3604
 8573SOL    HW237356   3.642   4.239   0.172  0.2487 -0.2969  0.1172
 8574SOL     OW37357   1.055   2.600   4.791  0.0456 -0.5386 -0.3144
 8574SOL    HW137358   1.085   2.525   4.740 -1.8720  0.0682 -2.3640
 8574SOL    HW237359   1.007   2.550   4.858  0.8538 -1.6005 -0.5326
 8575SOL     OW37360   0.600   4.287  17.557 -0.3460 -0.2130  0.6333
 8575SOL    HW137361   0.526   4.260  17.503 -0.3633 -1.5172  1.3159
 8575SOL    HW237362   0.603   4.379  17.532 -0.7865 -1.2337 -3.1548
 8576SOL     OW37363   2.816   3.380   3.048  0.0034 -0.3347 -0.0233
 8576SOL    HW137364   2.791   3.434   2.973  1.3867 -2.1550 -1.8190
 8576SOL    HW237365   2.787   3.441   3.115  1.5303  1.7496 -1.2454
 8577SOL     OW37366   0.479   1.271  17.337  0.2460 -0.0933 -0.2937
 8577SOL    HW137367   0.472   1.365  17.348  0.1880  0.1262 -2.1918
 8577SOL    HW237368   0.548   1.244  17.398  1.4258 -1.0116 -2.0144
 8578SOL     OW37369   1.798   4.391   8.732 -0.1952  0.1520 -0.2759
 8578SOL    HW137370   1.876   4.403   8.678 -0.5012 -1.4582 -1.0911
 8578SOL    HW237371   1.797   4.481   8.762  1.1854  0.9100 -2.4890
 8579SOL     OW37372   2.138   2.669   7.365 -0.2691 -0.4419  0.3761
 8579SOL    HW137373   2.150   2.639   7.455  1.4771  0.9640  0.5930
 8579SOL    HW237374   2.138   2.764   7.374  0.3420 -0.3025 -1.0808
 8580SOL     OW37375   1.731   0.754   3.112 -0.1467  0.3972  0.0236
 8580SOL    HW137376   1.653   0.765   3.166 -0.5118 -0.6647 -0.2925
 8580SOL    HW237377   1.780   0.700   3.174 -1.1216  0.8782  1.2105
 8581SOL     OW37378   1.151   1.045   4.508 -0.4337  0.0643 -0.2943
 8581SOL    HW137379   1.118   0.955   4.506  0.0492 -0.1114 -0.4503
 8581SOL    HW237380   1.077   1.087   4.464 -1.2387  0.7215  1.7032
 8582SOL     OW37381   3.160   3.604   5.492  0.0246 -0.0059 -0.4053
 8582SOL    HW137382   3.097   3.532   5.493  0.7490 -0.6360 -0.1600
 8582SOL    HW237383   3.225   3.578   5.557 -0.5743  0.8001  0.5205
 8583SOL     OW37384   4.692   1.854   5.189  0.6222 -0.6223  0.4977
 8583SOL    HW137385   4.717   1.763   5.204  0.7482 -0.9315 -1.6453
 8583SOL    HW237386   4.692   1.858   5.094 -0.1092  1.4521  0.5896
 8584SOL     OW37387   4.066   1.370  13.994  0.5131  0.1557 -0.0635
 8584SOL    HW137388   4.117   1.439  14.036  0.1721  0.3343  0.0526
 8584SOL    HW237389   4.103   1.377  13.905  1.4772  1.1418  0.4196
 8585SOL     OW37390   4.652   2.031   2.469  0.0945  0.0590  0.5176
 8585SOL    HW137391   4.579   1.977   2.438  0.9096 -1.6966  1.6952
 8585SOL    HW237392   4.714   1.970   2.509  0.3472 -1.0579 -1.5841
 8586SOL     OW37393   0.594   3.298   0.720 -0.7838 -0.0582 -0.8466
 8586SOL    HW137394   0.588   3.203   0.733  2.2895 -0.1409 -0.1101
 8586SOL    HW237395   0.655   3.302   0.647 -0.8154 -0.5222 -0.8946
 8587SOL     OW37396   1.697   3.778  14.917 -0.0819 -0.1436 -0.5608
 8587SOL    HW137397   1.676   3.692  14.955 -1.3974 -0.6284 -2.3456
 8587SOL    HW237398   1.631   3.833  14.959  3.1342  1.3136  2.6065
 8588SOL     OW37399   4.020   0.555  15.521  0.2674 -0.3320 -0.8134
 8588SOL    HW137400   4.020   0.493  15.595 -2.5042  0.8507  0.1558
 8588SOL    HW237401   4.104   0.599  15.534  0.3212 -1.2327  1.8960
 8589SOL     OW37402   2.576   4.584  17.153 -0.3136 -0.2081 -0.1827
 8589SOL    HW137403   2.624   4.631  17.221 -1.9475  1.0458  0.0864
 8589SOL    HW237404   2.648   4.537  17.110  0.9345  0.8808  0.7230
 8590SOL     OW37405   4.712   3.605   2.399  0.0137 -0.8730 -0.0894
 8590SOL    HW137406   0.064   3.598   2.432  0.2688 -0.1510 -0.6092
 8590SOL    HW237407   4.714   3.694   2.364 -0.0048 -0.2807  1.4462
 8591SOL     OW37408   3.358   4.376  17.607  0.1707 -0.5720 -0.3493
 8591SOL    HW137409   3.340   4.284  17.587  5.5488 -1.9767  1.4960
 8591SOL    HW237410   3.277   4.414  17.572  0.1016  0.0692  0.5011
 8592SOL     OW37411   3.735   3.687   2.666  0.2918 -0.5141 -0.0105
 8592SOL    HW137412   3.762   3.600   2.638 -1.4905 -0.6687 -1.2104
 8592SOL    HW237413   3.786   3.739   2.604  0.2736 -0.0863  0.3304
 8593SOL     OW37414   1.442   0.688   7.516 -0.2266  0.2272  0.1739
 8593SOL    HW137415   1.355   0.715   7.546  0.8299  1.5530  2.0227
 8593SOL    HW237416   1.441   0.612   7.574  4.0378 -1.4031 -1.8865
 8594SOL     OW37417   3.662   2.810   1.991 -0.1083  0.1075  0.0278
 8594SOL    HW137418   3.699   2.722   1.993  0.7903  0.4893  0.1283
 8594SOL    HW237419   3.612   2.799   1.910  2.3687  0.4883 -1.5801
 8595SOL     OW37420   0.922   4.383  11.631 -0.4148  0.3512 -0.4129
 8595SOL    HW137421   0.856   4.375  11.700  0.2406 -1.2455  0.0323
 8595SOL    HW237422   0.951   4.471  11.653  1.1833 -0.3134  0.1890
 8596SOL     OW37423   0.948   3.624   6.281  0.2180  0.4069 -0.1727
 8596SOL    HW137424   0.879   3.579   6.231  0.6752 -0.1614 -0.2968
 8596SOL    HW237425   1.008   3.551   6.267 -1.7239 -0.8569 -1.9715
 8597SOL     OW37426   0.676   1.270   8.503 -0.0534 -0.3090  0.2036
 8597SOL    HW137427   0.617   1.195   8.494  1.3075 -1.3883  0.3086
 8597SOL    HW237428   0.757   1.227   8.531  0.4293  1.0704  0.8760
 8598SOL     OW37429   1.456   3.162   2.132 -0.1127 -0.0968  0.0112
 8598SOL    HW137430   1.426   3.077   2.099 -1.1385 -0.9046  3.0403
 8598SOL    HW237431   1.405   3.219   2.075 -0.8130  0.5222  1.2428
 8599SOL     OW37432   3.603   3.853   4.037 -0.0109  0.3575  0.3671
 8599SOL    HW137433   3.580   3.768   4.000  0.5775 -0.4939  1.9273
 8599SOL    HW237434   3.687   3.834   4.078 -0.1106 -1.9408 -0.5036
 8600SOL     OW37435   2.067   1.759  13.126  0.0678  0.0093 -0.3407
 8600SOL    HW137436   2.019   1.842  13.118  0.1669  0.1163  0.1628
 8600SOL    HW237437   2.007   1.696  13.085  1.3718 -0.5809 -1.3126
 8601SOL     OW37438   3.419   4.135  12.242  0.0162  0.0192  0.0881
 8601SOL    HW137439   3.451   4.135  12.332 -0.7598 -1.2588  0.3698
 8601SOL    HW237440   3.488   4.083  12.200  1.4684 -0.6913  3.3684
 8602SOL     OW37441   3.745   3.288   4.300 -0.0962 -0.6244  0.1660
 8602SOL    HW137442   3.833   3.261   4.327 -1.0640 -1.9936  1.9264
 8602SOL    HW237443   3.762   3.289   4.206 -0.4893  0.0312  0.0984
 8603SOL     OW37444   3.450   0.433   5.261 -0.0215 -0.4789 -0.2048
 8603SOL    HW137445   3.474   0.488   5.336 -2.1775 -1.0585  0.9022
 8603SOL    HW237446   3.538   0.403   5.238  0.1622  0.4707 -0.7384
 8604SOL     OW37447   4.199   4.276   6.227 -0.1272  0.2680  0.2672
 8604SOL    HW137448   4.171   4.185   6.213  2.2885 -0.3471 -0.6657
 8604SOL    HW237449   4.169   4.326   6.151 -0.4307 -2.2999 -1.3277
 8605SOL     OW37450   2.161   3.850  12.886  0.0343  0.2968  0.2504
 8605SOL    HW137451   2.202   3.865  12.800  1.8856 -0.9886  0.9040
 8605SOL    HW237452   2.089   3.789  12.872 -0.5016  0.9597  0.1059
 8606SOL     OW37453   4.700   4.485   4.536  0.4983 -0.1335  0.0190
 8606SOL    HW137454   4.721   4.552   4.602  1.3032  0.1235 -0.4979
 8606SOL    HW237455   4.649   4.539   4.476  1.4853  0.8556  0.0749
 8607SOL     OW37456   1.866   0.606   3.717 -0.2903 -0.6389 -0.2548
 8607SOL    HW137457   1.815   0.654   3.782  3.0262  1.3400  0.8556
 8607SOL    HW237458   1.936   0.671   3.712 -1.4736  0.7105  1.0024
 8608SOL     OW37459   2.322   1.991   4.529  0.1845 -0.3392  0.1885
 8608SOL    HW137460   2.380   2.040   4.471 -0.1442 -1.3250 -0.9628
 8608SOL    HW237461   2.335   2.048   4.605 -1.8830  1.0541 -0.5012
 8609SOL     OW37462   4.682   4.022   6.184 -0.0846  0.8548  0.2540
 8609SOL    HW137463   4.597   4.065   6.176  0.7160  2.5739  0.9494
 8609SOL    HW237464   0.010   4.083   6.221  0.2855  1.2394 -1.0513
 8610SOL     OW37465   2.077   2.723  14.947 -0.6120 -0.3807 -0.2142
 8610SOL    HW137466   2.119   2.637  14.945  0.9475  0.4059 -0.9979
 8610SOL    HW237467   1.988   2.689  14.963 -0.0254 -2.0023 -0.3736
 8611SOL     OW37468   3.854   1.118  16.077 -0.2159 -0.1086 -0.8623
 8611SOL    HW137469   3.858   1.146  15.986  0.2771  2.0511 -0.1888
 8611SOL    HW237470   3.779   1.175  16.096  0.0696  0.1039 -0.3657
 8612SOL     OW37471   4.290   3.012   6.825 -0.1545 -0.0573 -0.0371
 8612SOL    HW137472   4.214   3.030   6.881 -1.4639 -1.0091 -1.5250
 8612SOL    HW237473   4.293   2.917   6.822  0.1114 -0.0034 -1.2128
 8613SOL     OW37474   3.971   0.260  10.725 -0.8705 -0.4076 -0.0987
 8613SOL    HW137475   3.925   0.343  10.738  0.1116  0.3795 -1.6047
 8613SOL    HW237476   4.059   0.279  10.756 -0.6114 -0.2713 -0.9016
 8614SOL     OW37477   1.324   0.049   2.483 -0.2166  0.1644  0.1752
 8614SOL    HW137478   1.401   0.057   2.426 -0.1102  1.8903  0.5515
 8614SOL    HW237479   1.283   4.711   2.440 -1.1306 -0.3081  1.8608
 8615SOL     OW37480   1.619   3.299   3.749  0.3288  0.0215 -0.5664
 8615SOL    HW137481   1.543   3.306   3.691  1.2051  1.6969 -1.5156
 8615SOL    HW237482   1.587   3.235   3.812  2.4412  0.8261  1.3125
 8616SOL     OW37483   1.537   3.161  13.355 -0.3613  0.1925  0.0602
 8616SOL    HW137484   1.612   3.185  13.301  1.9188 -0.7756  2.7785
 8616SOL    HW237485   1.504   3.235  13.407  0.2420 -0.7274  1.7430
 8617SOL     OW37486   4.430   3.342  12.896  0.1106  0.1293  0.4920
 8617SOL    HW137487   4.394   3.259  12.867  1.1947 -0.6595  1.3898
 8617SOL    HW237488   4.363   3.403  12.865  0.3360  0.3319  0.4071
 8618SOL     OW37489   0.988   3.334   6.482 -0.5239 -0.4457  0.3037
 8618SOL    HW137490   0.941   3.321   6.400  1.6785  0.2975 -1.0751
 8618SOL    HW237491   1.019   3.245   6.501  2.7366  0.1635 -2.2297
 8619SOL     OW37492   0.373   3.859  15.782 -0.1776 -0.1064  0.1488
 8619SOL    HW137493   0.441   3.883  15.844 -0.8434  0.0601  0.8087
 8619SOL    HW237494   0.384   3.764  15.778 -0.4792 -0.0693 -1.9204
 8620SOL     OW37495   1.566   4.534   5.437 -0.3077 -0.5006  0.4537
 8620SOL    HW137496   1.569   4.627   5.459  0.4632 -0.6056  0.7915
 8620SOL    HW237497   1.488   4.539   5.381  0.7298 -2.0495 -1.1250
 8621SOL     OW37498   1.336   2.252   8.591 -0.2536 -0.4768 -0.3567
 8621SOL    HW137499   1.382   2.222   8.670  0.0857  0.6672 -0.1215
 8621SOL    HW237500   1.320   2.342   8.618  0.9812  0.0669 -1.4467
 8622SOL     OW37501   2.784   2.536   3.614  0.1445  0.1376  0.0629
 8622SOL    HW137502   2.703   2.531   3.665 -0.0054 -1.3840 -0.3379
 8622SOL    HW237503   2.757   2.507   3.527  1.8218  0.2436 -0.4777
 8623SOL     OW37504   4.643   4.333   5.073 -0.5198 -0.2435 -0.5278
 8623SOL    HW137505   4.628   4.371   4.987 -0.6822  0.6539 -0.0970
 8623SOL    HW237506   4.657   4.240   5.055  1.2652  0.6644 -3.8645
 8624SOL     OW37507   1.057   2.022  13.475 -0.3998 -0.0003 -0.1160
 8624SOL    HW137508   1.033   1.948  13.419 -1.3452  1.7453 -1.9961
 8624SOL    HW237509   1.148   1.995  13.490 -0.0659  1.1026 -0.1780
 8625SOL     OW37510   3.414   0.977   8.458  0.6363 -0.2729  0.0272
 8625SOL    HW137511   3.321   0.981   8.483  0.1131 -1.6000 -1.7141
 8625SOL    HW237512   3.448   1.046   8.515  0.2327 -0.6240  0.6865
 8626SOL     OW37513   2.554   4.556   4.296 -0.5580 -0.0899 -0.0877
 8626SOL    HW137514   2.536   4.649   4.283  2.4330  0.5783  0.5964
 8626SOL    HW237515   2.563   4.550   4.392 -1.4666 -0.2057 -0.0076
 8627SOL     OW37516   1.442   1.615  11.515 -0.7852  0.7158 -0.6027
 8627SOL    HW137517   1.531   1.642  11.491 -0.1828 -1.2140 -0.6051
 8627SOL    HW237518   1.447   1.623  11.610  0.8100 -1.5227 -0.4834
 8628SOL     OW37519   3.195   0.747   5.283  0.0228  0.0042  0.0609
 8628SOL    HW137520   3.186   0.699   5.365 -3.6038  1.3033  0.4401
 8628SOL    HW237521   3.275   0.719   5.239  0.2599  0.2048  0.3652
 8629SOL     OW37522   3.187   2.154  11.589 -0.0817 -0.2917  0.3063
 8629SOL    HW137523   3.126   2.080  11.591 -1.2804  0.7137  0.1203
 8629SOL    HW237524   3.263   2.124  11.639 -0.4031 -0.6092  0.5999
 8630SOL     OW37525   4.487   3.097   4.780 -0.0694 -0.0982  0.0640
 8630SOL    HW137526   4.543   3.104   4.702 -0.6611  0.9453 -0.2806
 8630SOL    HW237527   4.525   3.023   4.826  0.2825 -1.3447 -2.1902
 8631SOL     OW37528   0.038   0.100   3.997  0.0399  0.0420  0.4198
 8631SOL    HW137529   0.087   0.042   3.938 -0.0694 -0.3403  0.7089
 8631SOL    HW237530   4.694   0.048   4.003  0.3662 -0.5051  0.1200
 8632SOL     OW37531   0.081   2.443   5.314  0.0680 -0.0719  0.2619
 8632SOL    HW137532   0.150   2.396   5.267  0.9272  0.7817  0.6615
 8632SOL    HW237533   0.002   2.393   5.294  0.1920  0.0361 -0.4995
 8633SOL     OW37534   2.580   4.431   3.514  0.6266  0.4327  0.0921
 8633SOL    HW137535   2.545   4.399   3.598 -0.5519  2.3676  0.3354
 8633SOL    HW237536   2.533   4.376   3.451 -0.4545  0.1007  1.1891
 8634SOL     OW37537   1.143   2.164   5.350 -0.5552  0.3154 -0.5693
 8634SOL    HW137538   1.104   2.219   5.282  1.3757  0.2326 -1.7756
 8634SOL    HW237539   1.153   2.078   5.308 -1.5945 -0.6813  1.2052
 8635SOL     OW37540   2.678   1.693   8.095  0.4505  0.2879  0.1708
 8635SOL    HW137541   2.664   1.777   8.053 -0.4079  0.0402 -0.0526
 8635SOL    HW237542   2.739   1.664   8.027  1.4325  0.7417  0.8650
 8636SOL     OW37543   3.652   3.261   3.794 -0.1501  0.1813  0.2311
 8636SOL    HW137544   3.639   3.349   3.759 -0.0556  0.0788 -0.0635
 8636SOL    HW237545   3.563   3.227   3.799  0.0312 -0.5741 -1.7775
 8637SOL     OW37546   1.269   0.175   5.323  0.0364  0.5243 -0.0383
 8637SOL    HW137547   1.263   0.107   5.255 -0.3610  0.5602 -0.0371
 8637SOL    HW237548   1.187   0.223   5.313 -0.3984  0.4959  3.4326
 8638SOL     OW37549   4.038   3.985  16.130 -0.2714 -0.5338  0.3058
 8638SOL    HW137550   4.127   3.957  16.153 -0.4155 -0.9343  0.3775
 8638SOL    HW237551   3.983   3.924  16.179 -0.4002  1.1265  2.2278
 8639SOL     OW37552   2.187   2.595   7.607  0.2471 -0.1891  0.0693
 8639SOL    HW137553   2.258   2.541   7.644  2.1141  0.6477 -2.2385
 8639SOL    HW237554   2.128   2.598   7.682 -0.3855  0.2665 -0.4466
 8640SOL     OW37555   1.942   4.391   4.295  0.3298  0.2955 -0.5310
 8640SOL    HW137556   1.904   4.448   4.362 -0.4770 -0.6287 -0.2040
 8640SOL    HW237557   1.966   4.315   4.347  0.6626  0.3462 -0.6153
 8641SOL     OW37558   1.209   1.309  10.224  0.3658 -0.0511  0.2554
 8641SOL    HW137559   1.298   1.341  10.240  1.3482 -2.4127 -0.4466
 8641SOL    HW237560   1.227   1.264  10.142 -0.8152  1.7280 -0.9697
 8642SOL     OW37561   2.845   3.813  17.191 -0.1272  0.1237  0.3739
 8642SOL    HW137562   2.903   3.812  17.115 -1.5681  0.6591 -0.7211
 8642SOL    HW237563   2.760   3.782  17.159 -0.8085  1.4096  0.9072
 8643SOL     OW37564   3.740   3.190  16.194 -0.1049  0.3220  0.2216
 8643SOL    HW137565   3.724   3.133  16.269 -1.1452  2.3417  1.5176
 8643SOL    HW237566   3.669   3.254  16.197 -0.8191 -0.4481 -0.1549
 8644SOL     OW37567   0.878   4.228   3.784 -0.5607  0.1350 -0.1764
 8644SOL    HW137568   0.860   4.320   3.766  1.2245  1.2573  3.9349
 8644SOL    HW237569   0.961   4.215   3.737 -2.5889 -2.3734 -3.1353
 8645SOL     OW37570   2.147   1.723   6.385  0.7206 -0.6075 -0.4798
 8645SOL    HW137571   2.163   1.723   6.479 -0.4824  0.4977 -0.2647
 8645SOL    HW237572   2.217   1.784   6.360  0.1935 -0.5117 -1.7394
 8646SOL     OW37573   3.742   2.690  11.365  0.4654  0.2800 -0.2558
 8646SOL    HW137574   3.707   2.608  11.399  2.9989 -0.3173  0.9436
 8646SOL    HW237575   3.675   2.738  11.317 -1.2254 -0.6394  1.2182
 8647SOL     OW37576   4.122   2.136   2.160  0.4682  0.0883  0.0990
 8647SOL    HW137577   4.048   2.088   2.198 -1.0768  0.4364 -2.4785
 8647SOL    HW237578   4.086   2.173   2.079 -0.5049  0.9224  0.9088
 8648SOL     OW37579   4.563   2.279  11.353  0.0127  0.0827 -0.5242
 8648SOL    HW137580   4.511   2.243  11.425  0.1421 -0.2828 -0.6170
 8648SOL    HW237581   4.578   2.204  11.296 -2.4325 -1.1167  0.3731
 8649SOL     OW37582   0.791   0.321   3.731  0.0744  0.7439 -0.1240
 8649SOL    HW137583   0.871   0.371   3.717 -0.0088  0.6428 -0.9780
 8649SOL    HW237584   0.819   0.230   3.726  1.5462  1.2429 -0.8975
 8650SOL     OW37585   1.142   4.189   2.465 -0.1325 -0.2538 -0.0835
 8650SOL    HW137586   1.182   4.164   2.382  1.1257 -0.2538  0.5286
 8650SOL    HW237587   1.199   4.264   2.481 -0.3420 -0.7808  3.1316
 8651SOL     OW37588   4.377   0.437   6.214  0.4089  0.1179  0.2111
 8651SOL    HW137589   4.364   0.518   6.165 -4.9337 -2.3101 -2.4439
 8651SOL    HW237590   4.330   0.458   6.294 -0.7567  1.5018 -0.8280
 8652SOL     OW37591   2.535   3.626   1.667  0.8019  0.3377  0.1809
 8652SOL    HW137592   2.572   3.699   1.618  1.0391  0.8915  1.1719
 8652SOL    HW237593   2.542   3.658   1.757  0.2546  1.9332 -0.3319
 8653SOL     OW37594   0.350   4.657   9.139 -0.7126  0.2444  0.0524
 8653SOL    HW137595   0.421   4.602   9.107 -1.5655 -0.0532 -1.3152
 8653SOL    HW237596   0.283   4.593   9.165 -0.3374 -0.6641 -1.2586
 8654SOL     OW37597   0.792   0.018  10.487  0.1387 -0.0971  0.1411
 8654SOL    HW137598   0.759   4.689  10.549  1.4870 -0.6160  0.3041
 8654SOL    HW237599   0.768   0.104  10.520 -0.3038 -0.0239 -0.3718
 8655SOL     OW37600   0.220   0.057   1.917 -0.1653 -0.4916  0.3672
 8655SOL    HW137601   0.189   0.142   1.886  0.5934 -0.7583 -1.1384
 8655SOL    HW237602   0.130   0.030   1.932  0.0614 -1.1427  0.5471
 8656SOL     OW37603   2.077   0.563   4.733 -0.4660  0.4574  0.4049
 8656SOL    HW137604   2.117   0.634   4.782  0.6163 -0.3674  0.7317
 8656SOL    HW237605   2.045   0.614   4.659 -2.8490 -0.0841  1.0320
 8657SOL     OW37606   4.477   1.746   6.397 -0.7426 -0.5913  0.3979
 8657SOL    HW137607   4.458   1.839   6.386 -2.0247 -0.8583  0.3089
 8657SOL    HW237608   4.399   1.714   6.351  0.7649 -0.8324 -2.0172
 8658SOL     OW37609   0.848   2.144   7.764 -0.5551  0.2230  0.7358
 8658SOL    HW137610   0.918   2.209   7.771 -1.1426  1.0323 -1.3295
 8658SOL    HW237611   0.817   2.168   7.677  1.7316  0.7314  0.0648
 8659SOL     OW37612   0.493   1.806   3.480  0.2379  0.3957  0.2719
 8659SOL    HW137613   0.517   1.866   3.550  0.5334  1.2866 -0.5918
 8659SOL    HW237614   0.421   1.858   3.444 -0.1770 -0.1075  0.3733
 8660SOL     OW37615   3.318   4.640   3.947  0.1179  0.0080  0.7826
 8660SOL    HW137616   3.240   4.673   3.990  0.5280 -0.9701  2.2758
 8660SOL    HW237617   3.299   4.661   3.856 -0.6892 -0.1489  0.9179
 8661SOL     OW37618   0.376   1.941  11.941 -0.0548  0.2765  0.3660
 8661SOL    HW137619   0.377   2.006  12.011 -1.0033  2.2120 -1.3977
 8661SOL    HW237620   0.343   1.861  11.981 -0.3748 -0.5108 -1.4447
 8662SOL     OW37621   3.093   1.142   1.849  0.2618 -0.2362  0.1286
 8662SOL    HW137622   3.179   1.154   1.888  0.5281  0.4598 -0.6707
 8662SOL    HW237623   3.073   1.048   1.852 -1.5163  0.0397 -2.3599
 8663SOL     OW37624   2.988   0.141   2.681 -0.0952 -0.2013  0.0962
 8663SOL    HW137625   3.020   0.062   2.636 -2.1703 -1.8237  1.4656
 8663SOL    HW237626   2.965   0.101   2.765  1.1887  0.5859  0.8172
 8664SOL     OW37627   4.408   0.146   7.435  0.8781  0.0991 -0.3112
 8664SOL    HW137628   4.355   0.095   7.497 -0.0339  0.5636 -0.7049
 8664SOL    HW237629   4.375   0.108   7.354 -1.5526 -0.0471  0.7439
 8665SOL     OW37630   2.130   2.562   1.266 -0.4124  0.2746 -0.5190
 8665SOL    HW137631   2.169   2.590   1.183  0.4880 -0.4955 -0.3599
 8665SOL    HW237632   2.047   2.609   1.263 -0.2339  0.7542  2.3949
 8666SOL     OW37633   3.221   3.106   4.819  0.3559 -0.2270 -0.0555
 8666SOL    HW137634   3.186   3.169   4.882  1.5637  1.4409 -1.0483
 8666SOL    HW237635   3.203   3.160   4.743  1.6193 -1.7929 -1.4716
 8667SOL     OW37636   4.704   4.045   2.585  0.5379  0.0727 -0.3099
 8667SOL    HW137637   4.702   3.958   2.624  2.7282  0.6636  1.0968
 8667SOL    HW237638   0.056   4.066   2.612  0.5251  2.0703 -1.8676
 8668SOL     OW37639   4.322   3.265   2.572  0.2553  0.6224  0.0599
 8668SOL    HW137640   4.261   3.198   2.600  0.6506  0.1864 -0.1294
 8668SOL    HW237641   4.388   3.213   2.527 -2.6814 -1.9118 -1.2838
 8669SOL     OW37642   0.047   1.445   0.579 -0.3503  0.1168  0.0803
 8669SOL    HW137643   0.111   1.509   0.608 -2.3157  3.3609 -2.6344
 8669SOL    HW237644   0.019   1.477   0.493 -0.5369  1.0783  0.4994
 8670SOL     OW37645   4.256   3.042   5.041 -0.0343  0.7697  0.0674
 8670SOL    HW137646   4.238   2.965   5.094  2.4825  0.4563  0.4482
 8670SOL    HW237647   4.225   3.007   4.957 -0.4581  0.2314  0.4508
 8671SOL     OW37648   1.722   2.621  13.884 -0.0441  0.2396  0.0157
 8671SOL    HW137649   1.680   2.684  13.826 -2.9318 -1.3357  0.3801
 8671SOL    HW237650   1.657   2.613  13.954  0.2276  0.1501  0.2600
 8672SOL     OW37651   2.776   1.398   9.754  0.3403 -0.0800  0.9948
 8672SOL    HW137652   2.694   1.425   9.712  0.1177 -2.6784 -0.2136
 8672SOL    HW237653   2.744   1.370   9.840 -0.9595  0.6571  0.7430
 8673SOL     OW37654   4.520   3.506   9.205  0.4536 -0.0555 -0.2686
 8673SOL    HW137655   4.499   3.426   9.157  0.4013 -0.1189 -0.1394
 8673SOL    HW237656   4.588   3.478   9.267  2.6390  1.2549 -2.0628
 8674SOL     OW37657   0.481   3.209   8.340 -0.5974  0.4200  0.0539
 8674SOL    HW137658   0.558   3.155   8.355 -0.9880 -1.0414 -3.2116
 8674SOL    HW237659   0.456   3.170   8.255  0.9418  1.0230 -0.6700
 8675SOL     OW37660   2.244   3.021   7.261  0.0859 -0.5273  0.1303
 8675SOL    HW137661   2.328   3.055   7.230 -0.5460  1.3968  0.5314
 8675SOL    HW237662   2.190   3.100   7.266 -0.9896 -1.4068  2.1217
 8676SOL     OW37663   0.723   4.180  14.911 -0.0877 -0.0641 -1.2359
 8676SOL    HW137664   0.649   4.238  14.891 -0.0511  0.4833  0.2538
 8676SOL    HW237665   0.782   4.236  14.961 -0.0862 -0.3899 -0.8730
 8677SOL     OW37666   1.416   4.270   4.623 -0.2799  0.2892  0.2261
 8677SOL    HW137667   1.392   4.186   4.660 -1.4764  0.2928 -0.5369
 8677SOL    HW237668   1.511   4.264   4.628 -0.4668 -1.2522  1.5453
 8678SOL     OW37669   1.371   2.792   4.421 -0.2310  0.3606  0.4323
 8678SOL    HW137670   1.276   2.786   4.420 -0.0549 -2.4610  0.3267
 8678SOL    HW237671   1.384   2.737   4.344  2.0346  0.0124  1.0501
 8679SOL     OW37672   3.382   3.931  14.740  0.1880 -0.4861 -0.6033
 8679SOL    HW137673   3.329   3.915  14.662 -0.7480 -0.3201  0.0082
 8679SOL    HW237674   3.422   3.844  14.747  2.1820  0.4870  0.1945
 8680SOL     OW37675   4.285   1.604  13.006 -0.0010 -0.0256 -0.1539
 8680SOL    HW137676   4.269   1.515  12.975 -1.2401  0.5900 -1.2740
 8680SOL    HW237677   4.381   1.609  13.009 -0.0030 -0.8681  1.3209
 8681SOL     OW37678   0.616   2.801   3.976  0.3442 -0.2022  0.1045
 8681SOL    HW137679   0.695   2.847   3.949  0.1443  0.0951  0.0154
 8681SOL    HW237680   0.661   2.732   4.025 -1.9644 -1.0859  0.9799
 8682SOL     OW37681   4.049   4.654   4.136 -0.4319  0.0466 -0.4760
 8682SOL    HW137682   3.992   4.702   4.076 -1.8716 -1.2990 -0.1833
 8682SOL    HW237683   3.979   4.596   4.164  1.5255 -0.7433  2.7948
 8683SOL     OW37684   2.625   2.891  17.167  0.4213  0.0125  0.8488
 8683SOL    HW137685   2.542   2.931  17.191  0.6807  1.2957 -0.3527
 8683SOL    HW237686   2.618   2.918  17.075  1.8599  0.1699  0.7733
 8684SOL     OW37687   0.771   2.456  16.044  0.8812 -0.4260 -0.4256
 8684SOL    HW137688   0.804   2.374  16.006 -1.1126 -2.1948  1.6949
 8684SOL    HW237689   0.798   2.461  16.135 -2.3422 -2.1254  0.6222
 8685SOL     OW37690   4.297   3.855   3.738  0.3778 -0.4314 -0.1179
 8685SOL    HW137691   4.231   3.787   3.749  0.1188 -0.4699 -1.9317
 8685SOL    HW237692   4.349   3.851   3.819 -0.2795  0.5126  0.3490
 8686SOL     OW37693   3.858   1.731  11.372  0.3334  0.0802 -0.9240
 8686SOL    HW137694   3.953   1.728  11.365  0.3803  0.3359 -0.3925
 8686SOL    HW237695   3.840   1.653  11.426  1.1227  0.8168  0.4027
 8687SOL     OW37696   3.457   0.210   1.550  0.1858 -0.3118  0.1559
 8687SOL    HW137697   3.437   0.125   1.510  0.0672  0.3313 -1.1611
 8687SOL    HW237698   3.386   0.264   1.516  0.5018  1.5423  2.4884
 8688SOL     OW37699   1.248   0.923  14.322 -0.3047  0.4592 -0.5558
 8688SOL    HW137700   1.254   0.857  14.253  0.7903  1.1722 -1.1512
 8688SOL    HW237701   1.275   1.002  14.275  0.4008 -0.1726 -1.2146
 8689SOL     OW37702   1.034   4.540   4.559 -0.4420 -0.3459 -0.2096
 8689SOL    HW137703   1.015   4.485   4.483 -1.6416 -1.1506  0.6815
 8689SOL    HW237704   1.128   4.558   4.547 -0.8908  2.1755  0.0599
 8690SOL     OW37705   4.068   0.714   2.239 -0.2064  0.1514 -0.0425
 8690SOL    HW137706   4.122   0.727   2.317 -2.6124  0.6932  1.5135
 8690SOL    HW237707   4.129   0.742   2.171  0.0334  0.3248  0.2411
 8691SOL     OW37708   0.875   4.132   8.368 -0.0008  0.2575 -0.4144
 8691SOL    HW137709   0.803   4.127   8.431  1.9966 -3.1889  1.6332
 8691SOL    HW237710   0.935   4.062   8.396 -0.3031 -0.1016 -0.6757
 8692SOL     OW37711   3.469   3.777   6.301  0.3541 -0.0448  0.1418
 8692SOL    HW137712   3.428   3.706   6.251 -0.9830  1.8967 -1.5354
 8692SOL    HW237713   3.408   3.849   6.285  1.4814  0.7507 -0.5708
 8693SOL     OW37714   2.216   2.564   8.180  0.0662  0.3688  0.1057
 8693SOL    HW137715   2.203   2.588   8.272  0.4366 -1.9894  0.7744
 8693SOL    HW237716   2.311   2.565   8.170 -0.0116  0.3390 -0.6502
 8694SOL     OW37717   2.418   0.739   4.731 -0.2025 -0.1576  0.0594
 8694SOL    HW137718   2.370   0.729   4.648  0.5579 -0.4606 -0.3516
 8694SOL    HW237719   2.420   0.833   4.749 -2.6647 -0.1836  0.4728
 8695SOL     OW37720   4.093   3.357  17.213 -0.4902 -0.2791 -0.4368
 8695SOL    HW137721   4.135   3.442  17.199  0.4940 -0.6333  0.3663
 8695SOL    HW237722   4.173   3.306  17.203 -0.3102  0.3308 -2.0252
 8696SOL     OW37723   2.889   4.471   2.426 -0.2603  0.1653  0.1866
 8696SOL    HW137724   2.884   4.397   2.486  0.1747 -0.2825 -0.3281
 8696SOL    HW237725   2.949   4.446   2.355 -0.3494 -0.8763  0.4926
 8697SOL     OW37726   2.264   2.004   3.311 -0.0250  0.1466 -0.3353
 8697SOL    HW137727   2.311   2.077   3.352  1.2125 -1.1460  0.5199
 8697SOL    HW237728   2.294   2.000   3.220  0.8003 -0.0620 -0.0554
 8698SOL     OW37729   0.890   3.698   2.213  0.4932 -0.4118  0.2029
 8698SOL    HW137730   0.822   3.636   2.188  1.7135 -1.4045 -0.6648
 8698SOL    HW237731   0.873   3.772   2.155 -2.2760  0.3547  2.0071
 8699SOL     OW37732   1.271   1.210   3.518  0.0413 -0.0037  0.5672
 8699SOL    HW137733   1.191   1.227   3.568 -0.1253  0.9094 -0.0140
 8699SOL    HW237734   1.238   1.159   3.444 -0.0562 -0.4398  0.9070
 8700SOL     OW37735   0.513   0.752   5.102 -0.3183 -0.0779  0.9139
 8700SOL    HW137736   0.445   0.778   5.039  0.0083 -2.6979 -0.4864
 8700SOL    HW237737   0.599   0.786   5.079 -1.1985  0.4083 -1.7034
 8701SOL     OW37738   1.589   3.630   3.646  0.1881 -0.4793  0.1395
 8701SOL    HW137739   1.634   3.570   3.587 -0.8167 -1.0406 -0.0633
 8701SOL    HW237740   1.621   3.596   3.730  2.3226  0.3206 -0.3641
 8702SOL     OW37741   1.156   4.621   4.149  0.5977 -0.3859  0.0500
 8702SOL    HW137742   1.188   4.696   4.199  1.0852 -0.0274 -0.7909
 8702SOL    HW237743   1.233   4.573   4.119 -0.1059 -1.6521  0.2881
 8703SOL     OW37744   2.421   2.200   5.265 -0.1981  0.5077  0.6194
 8703SOL    HW137745   2.448   2.257   5.337  3.4803  0.9325 -1.1318
 8703SOL    HW237746   2.346   2.252   5.235  0.7700  0.5278 -1.7473
 8704SOL     OW37747   3.916   2.666  16.734 -0.4676  0.1217  0.3382
 8704SOL    HW137748   3.865   2.651  16.814 -0.9677 -0.7417 -0.1356
 8704SOL    HW237749   4.007   2.643  16.756  0.1478  2.0750 -0.1788
 8705SOL     OW37750   2.122   0.140  15.362 -0.7735 -0.1054 -0.1044
 8705SOL    HW137751   2.126   0.149  15.266  1.8039  1.0593  0.1058
 8705SOL    HW237752   2.031   0.113  15.357 -0.5525 -0.8107 -0.4114
 8706SOL     OW37753   3.344   0.151   7.728  0.4244 -0.5068 -0.6223
 8706SOL    HW137754   3.417   0.137   7.788  0.3982  3.0301  0.2407
 8706SOL    HW237755   3.279   0.095   7.771  0.1131  1.3109  1.2897
 8707SOL     OW37756   3.206   4.139   2.553 -0.0969  0.1033  0.4497
 8707SOL    HW137757   3.207   4.092   2.470 -1.3881  0.3218  0.3068
 8707SOL    HW237758   3.247   4.224   2.535 -4.2757  1.7342 -1.3285
 8708SOL     OW37759   0.655   2.363   7.927  0.4026  0.0540 -0.9928
 8708SOL    HW137760   0.655   2.267   7.932  1.4341  0.0966 -0.1515
 8708SOL    HW237761   0.569   2.383   7.964 -0.5436 -2.1182 -1.9990
 8709SOL     OW37762   2.298   4.625   4.599  0.0218  0.3727 -0.5427
 8709SOL    HW137763   2.383   4.654   4.566  0.1645  1.0320  0.4248
 8709SOL    HW237764   2.324   4.615   4.690 -0.8283 -0.6289 -0.4090
 8710SOL     OW37765   1.683   2.508  11.642  0.7318 -0.3071  0.6732
 8710SOL    HW137766   1.716   2.587  11.685 -1.3176  1.4908 -1.0530
 8710SOL    HW237767   1.624   2.477  11.712  1.0891  1.7984  1.9003
 8711SOL     OW37768   2.866   0.672   2.944  0.3659  0.4222  0.2634
 8711SOL    HW137769   2.880   0.676   3.039  0.4096  0.0113  0.2740
 8711SOL    HW237770   2.891   0.756   2.906  0.6619 -0.1274 -0.7383
 8712SOL     OW37771   4.305   4.457   2.424  0.1075 -0.0487  0.4444
 8712SOL    HW137772   4.349   4.400   2.362 -0.5860  0.8906 -0.9022
 8712SOL    HW237773   4.311   4.401   2.502 -0.0403 -2.1775 -1.0996
 8713SOL     OW37774   3.581   3.253   9.260  0.0118  0.1044 -0.4699
 8713SOL    HW137775   3.612   3.333   9.303  0.9472 -0.7187  0.3899
 8713SOL    HW237776   3.491   3.283   9.244 -0.0874 -1.7179 -3.2797
 8714SOL     OW37777   3.218   3.742   3.422  0.1614 -0.2570 -0.4921
 8714SOL    HW137778   3.163   3.767   3.496  1.6919 -0.4404  0.7118
 8714SOL    HW237779   3.209   3.822   3.371 -0.8212  0.4225  0.7556
 8715SOL     OW37780   2.959   2.167   9.072 -0.2332 -0.0581  0.9071
 8715SOL    HW137781   2.894   2.224   9.031 -0.2222 -2.0416 -1.8120
 8715SOL    HW237782   2.896   2.099   9.095 -2.1209  1.3822  0.0268
 8716SOL     OW37783   4.243   4.354  12.485  0.4173 -0.4827  0.3992
 8716SOL    HW137784   4.199   4.270  12.494  0.6332 -0.8334 -1.8095
 8716SOL    HW237785   4.170   4.415  12.471  1.3975  1.3531  3.2554
 8717SOL     OW37786   0.211   2.224   5.569  0.1030 -0.2414 -0.6568
 8717SOL    HW137787   0.189   2.131   5.569  1.9837 -0.6684  2.1424
 8717SOL    HW237788   0.257   2.232   5.486  2.1165  1.2228  0.6078
 8718SOL     OW37789   1.004   0.323   0.889  0.5017 -0.0402 -0.0875
 8718SOL    HW137790   0.941   0.277   0.835 -0.2427  1.6927 -0.6999
 8718SOL    HW237791   0.963   0.305   0.974 -1.7147 -0.6617 -1.3128
 8719SOL     OW37792   1.517   2.266   2.309 -0.4388 -0.2284 -0.6412
 8719SOL    HW137793   1.580   2.209   2.353  0.1159 -0.1118 -1.2902
 8719SOL    HW237794   1.467   2.198   2.265  0.7718 -1.2776 -0.3986
 8720SOL     OW37795   2.659   1.986   1.905 -0.7187 -0.3927 -0.4188
 8720SOL    HW137796   2.621   1.928   1.971 -0.8239 -1.1228 -1.1196
 8720SOL    HW237797   2.587   2.049   1.896 -2.7595 -2.5998  0.4325
 8721SOL     OW37798   0.563   2.410   6.585 -0.6104 -0.5450  0.1228
 8721SOL    HW137799   0.532   2.483   6.639  3.4902  1.0307  0.3164
 8721SOL    HW237800   0.650   2.443   6.563 -1.1226 -0.2080 -1.4096
 8722SOL     OW37801   0.566   4.442   9.598 -0.0278 -0.1952 -0.3611
 8722SOL    HW137802   0.660   4.428   9.590 -0.4965 -3.9066  0.5246
 8722SOL    HW237803   0.568   4.528   9.642  0.1556 -1.7577  2.7300
 8723SOL     OW37804   3.825   2.379   0.917  0.2491 -0.7217 -0.2767
 8723SOL    HW137805   3.780   2.445   0.864 -1.0550 -1.9594 -0.7159
 8723SOL    HW237806   3.808   2.405   1.008 -0.3381 -0.8077 -0.3649
 8724SOL     OW37807   3.320   3.259   3.666  0.1381  0.3137 -0.5887
 8724SOL    HW137808   3.314   3.163   3.668 -0.8633  0.3358 -2.4019
 8724SOL    HW237809   3.334   3.273   3.572  0.8234  0.2173 -0.4991
 8725SOL     OW37810   1.694   2.344  13.754  0.2858  0.0963  0.7895
 8725SOL    HW137811   1.673   2.438  13.751 -0.6748 -0.1450  0.0887
 8725SOL    HW237812   1.786   2.344  13.781 -0.1990  1.3151  2.4839
 8726SOL     OW37813   3.053   0.831  11.797 -0.7580 -0.0385 -0.1194
 8726SOL    HW137814   3.006   0.763  11.845 -3.1140 -0.4589 -3.0406
 8726SOL    HW237815   3.143   0.798  11.786 -0.3577  1.2703 -0.7386
 8727SOL     OW37816   2.679   2.586   9.314  0.2262  0.4337  0.4902
 8727SOL    HW137817   2.638   2.522   9.372  2.1055 -1.9712 -0.7618
 8727SOL    HW237818   2.658   2.669   9.355 -0.9843  0.4810 -0.2343
 8728SOL     OW37819   0.645   3.901   8.638  0.1661 -0.0577  0.0426
 8728SOL    HW137820   0.609   3.887   8.550  0.3013 -0.6597  0.0822
 8728SOL    HW237821   0.705   3.826   8.639  0.0725 -0.1472 -1.7489
 8729SOL     OW37822   2.357   1.678  10.865 -1.0246 -0.3626  0.2956
 8729SOL    HW137823   2.427   1.676  10.930  0.2277 -0.2884 -1.0491
 8729SOL    HW237824   2.331   1.588  10.848 -0.2217 -0.1900 -1.8492
 8730SOL     OW37825   2.011   3.610  13.267  0.1000 -0.3718  0.0107
 8730SOL    HW137826   2.091   3.628  13.315  0.2156 -0.6472 -0.0734
 8730SOL    HW237827   1.954   3.684  13.286  0.9934  0.2853  0.0980
 8731SOL     OW37828   2.395   1.960   2.624  0.3831 -0.6503 -1.0295
 8731SOL    HW137829   2.314   1.961   2.676 -1.4841  1.0771 -3.9372
 8731SOL    HW237830   2.363   1.953   2.533  0.0878 -0.1054 -0.9694
 8732SOL     OW37831   0.913   2.463   7.917  0.1238 -0.1796 -0.1593
 8732SOL    HW137832   0.824   2.428   7.927 -0.2059  0.5854 -0.3743
 8732SOL    HW237833   0.966   2.400   7.966  0.4165  1.8573  2.1678
 8733SOL     OW37834   0.864   4.658   2.732  0.2882 -0.1592 -0.3282
 8733SOL    HW137835   0.947   4.611   2.731  1.0074  1.1192 -0.1707
 8733SOL    HW237836   0.859   4.674   2.826  1.5124 -2.0812  0.0584
 8734SOL     OW37837   1.693   0.696   4.594  0.3753  0.0382 -0.1216
 8734SOL    HW137838   1.643   0.736   4.665 -1.1431 -0.7558 -0.7345
 8734SOL    HW237839   1.626   0.633   4.566 -0.1435  0.8434 -0.6851
 8735SOL     OW37840   1.549   2.710   5.896 -0.1581 -0.2162  0.6222
 8735SOL    HW137841   1.486   2.649   5.935 -1.7275 -1.2565 -3.4974
 8735SOL    HW237842   1.624   2.701   5.954  0.9162 -1.4072 -0.9763
 8736SOL     OW37843   2.534   1.072   1.560  0.0222  0.4992  0.3186
 8736SOL    HW137844   2.537   1.016   1.637 -2.6096  1.9359  1.4420
 8736SOL    HW237845   2.458   1.028   1.522  0.6867 -0.5580  0.2045
 8737SOL     OW37846   3.503   2.424  16.237 -0.4925  1.0140  0.0587
 8737SOL    HW137847   3.457   2.386  16.312  0.2287 -2.1778 -1.1142
 8737SOL    HW237848   3.567   2.354  16.220  0.1125  1.8201 -1.0105
 8738SOL     OW37849   4.341   0.050   5.091  0.0411 -0.0445  0.4142
 8738SOL    HW137850   4.364   0.024   5.002 -1.2095 -1.7242  0.5733
 8738SOL    HW237851   4.371   4.709   5.140 -1.6949 -1.1595 -0.2898
 8739SOL     OW37852   0.366   0.755   7.713 -0.1171 -0.2294 -0.5718
 8739SOL    HW137853   0.458   0.767   7.738 -0.8047 -1.8683  2.7673
 8739SOL    HW237854   0.376   0.744   7.619  0.0425  1.6563 -0.7705
 8740SOL     OW37855   1.272   3.329   1.608  0.2371  0.6287 -0.2462
 8740SOL    HW137856   1.361   3.338   1.642 -0.1584 -0.2994  1.0124
 8740SOL    HW237857   1.220   3.380   1.670  0.5451  2.1849 -1.2444
 8741SOL     OW37858   2.265   0.556   6.543 -0.2313  0.0577 -0.1793
 8741SOL    HW137859   2.218   0.634   6.572 -1.5398 -0.5604 -0.6791
 8741SOL    HW237860   2.302   0.517   6.622 -2.0496  0.3882  0.8135
 8742SOL     OW37861   3.442   2.476  10.721 -0.0358  0.0557 -0.2070
 8742SOL    HW137862   3.388   2.424  10.780 -0.5571  0.5404 -0.2528
 8742SOL    HW237863   3.466   2.404  10.663  0.2873 -0.8512  1.0573
 8743SOL     OW37864   0.860   2.583  11.547 -0.0281 -0.0119  0.1156
 8743SOL    HW137865   0.824   2.503  11.583  0.2954 -1.3725 -2.5829
 8743SOL    HW237866   0.781   2.637  11.550 -1.1297 -1.6470  0.5267
 8744SOL     OW37867   0.291   2.529   7.673 -0.2526  0.2742  0.3616
 8744SOL    HW137868   0.359   2.526   7.741 -0.1108 -1.1974  0.1491
 8744SOL    HW237869   0.341   2.562   7.599 -0.5066  1.8122  0.8784
 8745SOL     OW37870   0.515   4.440   5.003 -0.6466 -0.1165 -0.3114
 8745SOL    HW137871   0.578   4.433   5.075  0.5986  0.9385 -1.3030
 8745SOL    HW237872   0.576   4.407   4.937  0.0026 -0.0423  0.2511
 8746SOL     OW37873   3.711   1.111   6.507 -0.0341  0.4549 -0.3086
 8746SOL    HW137874   3.665   1.029   6.486  0.2478 -0.2782  1.9346
 8746SOL    HW237875   3.799   1.077   6.521 -0.4617 -0.4188  0.2791
 8747SOL     OW37876   1.134   0.659   6.243  0.2819  0.1790  1.0531
 8747SOL    HW137877   1.076   0.604   6.191 -1.2678  2.0198  0.8298
 8747SOL    HW237878   1.073   0.721   6.284 -1.6132 -2.0593  1.6045
 8748SOL     OW37879   0.877   2.847   8.720  0.1170  0.0130  0.1318
 8748SOL    HW137880   0.951   2.901   8.746  1.2126 -0.5920 -1.7984
 8748SOL    HW237881   0.920   2.762   8.733 -0.2974 -0.3785 -1.0344
 8749SOL     OW37882   3.095   2.912   1.623 -0.3267  0.1294  0.3215
 8749SOL    HW137883   3.011   2.890   1.663  0.4422  0.5195  2.1211
 8749SOL    HW237884   3.103   2.834   1.567 -0.4919 -0.1413  0.6744
 8750SOL     OW37885   2.744   2.740   4.462  0.6269 -0.1493  0.6327
 8750SOL    HW137886   2.815   2.677   4.448  0.3754 -0.0481 -1.1514
 8750SOL    HW237887   2.780   2.808   4.519 -1.1328  0.0305  1.5513
 8751SOL     OW37888   0.550   0.157   7.680  0.2517  0.0317  0.0606
 8751SOL    HW137889   0.486   0.086   7.676 -1.4834  1.6145  0.0542
 8751SOL    HW237890   0.505   0.223   7.733 -1.8373  1.1255 -3.0817
 8752SOL     OW37891   1.494   3.507   4.741  0.4283  0.0969 -0.5617
 8752SOL    HW137892   1.487   3.419   4.703  0.2970 -0.4584  0.7365
 8752SOL    HW237893   1.583   3.510   4.777  0.9912 -1.8423 -1.7858
 8753SOL     OW37894   3.069   0.217  17.072 -0.0045 -0.0887  0.6122
 8753SOL    HW137895   2.979   0.204  17.042  0.1961 -2.2801  1.0120
 8753SOL    HW237896   3.098   0.127  17.058 -1.3988 -0.2377 -1.2955
 8754SOL     OW37897   1.560   2.180   4.658 -0.3551 -0.0337 -0.5184
 8754SOL    HW137898   1.646   2.140   4.659 -0.8895 -1.1606  0.5753
 8754SOL    HW237899   1.551   2.227   4.575  0.1499 -1.5513 -1.4260
 8755SOL     OW37900   0.038   1.871  11.444  0.6208  0.4456  0.0294
 8755SOL    HW137901   0.075   1.923  11.515  0.6149  0.7299 -0.1789
 8755SOL    HW237902   4.684   1.861  11.472  0.9903 -1.8988  0.3866
 8756SOL     OW37903   4.005   2.902   4.009  0.1930  0.9086 -0.8189
 8756SOL    HW137904   4.038   2.816   4.032 -1.4304  0.4215 -0.3413
 8756SOL    HW237905   4.081   2.943   4.051 -2.2452  2.1275  2.3242
 8757SOL     OW37906   4.230   1.429   8.128  0.3594  0.2536 -0.2346
 8757SOL    HW137907   4.242   1.335   8.139  3.1868  0.4640 -1.6722
 8757SOL    HW237908   4.182   1.459   8.206  3.1614  0.3995  1.4306
 8758SOL     OW37909   3.591   1.181   2.191  0.6944 -0.0428 -0.5854
 8758SOL    HW137910   3.654   1.172   2.120  0.7058 -0.0772 -0.5708
 8758SOL    HW237911   3.587   1.090   2.220 -3.3961 -0.2276 -1.7977
 8759SOL     OW37912   0.001   1.070   2.465  0.2903  0.3053  0.0293
 8759SOL    HW137913   4.714   1.110   2.382 -2.3448 -1.3642 -0.0249
 8759SOL    HW237914   0.003   0.982   2.427 -3.0022 -0.2761  1.1741
 8760SOL     OW37915   1.378   0.427  16.210 -0.1841  0.0270  0.2921
 8760SOL    HW137916   1.472   0.420  16.191  0.4318  0.4296  3.2618
 8760SOL    HW237917   1.373   0.471  16.295  1.5748 -0.4269  0.6294
 8761SOL     OW37918   3.787   1.986   6.650  0.2082 -0.3316  0.5048
 8761SOL    HW137919   3.810   1.968   6.741 -2.2501 -0.4290  1.0899
 8761SOL    HW237920   3.861   2.030   6.608 -0.2848  1.0547  1.1106
 8762SOL     OW37921   0.568   0.677   5.697 -0.3839  0.4975  0.4839
 8762SOL    HW137922   0.517   0.600   5.672  0.9568  0.3782 -1.9011
 8762SOL    HW237923   0.655   0.664   5.660 -1.2837  0.0071 -1.4619
 8763SOL     OW37924   1.775   1.737   6.454  0.2046  0.3121  0.4243
 8763SOL    HW137925   1.830   1.776   6.522 -0.1947 -0.0503  0.9579
 8763SOL    HW237926   1.827   1.751   6.375 -2.0722 -1.6685 -1.4330
 8764SOL     OW37927   4.217   0.519   7.696 -0.3858 -0.4220  0.2858
 8764SOL    HW137928   4.217   0.529   7.601 -0.6067 -3.2637 -0.0204
 8764SOL    HW237929   4.289   0.576   7.725  0.5859 -0.6956 -1.6219
 8765SOL     OW37930   2.505   0.328  15.561  0.2001 -0.0965  0.4582
 8765SOL    HW137931   2.477   0.281  15.483  0.6721 -0.0893  0.2836
 8765SOL    HW237932   2.473   0.418  15.549  2.8379  0.7288 -0.2383
 8766SOL     OW37933   4.108   2.151   0.191  0.5249  0.1385 -0.3361
 8766SOL    HW137934   4.046   2.224   0.190  0.1949 -0.1415 -0.0806
 8766SOL    HW237935   4.193   2.191   0.170  0.7472 -0.0493  0.1967
 8767SOL     OW37936   4.142   3.156   7.084  0.8154 -0.8714  0.5029
 8767SOL    HW137937   4.177   3.072   7.114  1.7304 -1.2995 -1.7987
 8767SOL    HW237938   4.118   3.189   7.170 -0.0662  0.7996 -0.3857
 8768SOL     OW37939   1.219   2.649  16.230  0.0378  0.1655  0.2324
 8768SOL    HW137940   1.191   2.711  16.298 -1.0526  1.3887 -1.3428
 8768SOL    HW237941   1.177   2.665  16.146  2.7384 -1.6924 -1.4382
 8769SOL     OW37942   1.056   1.477   7.609 -0.0633  0.3994  0.1969
 8769SOL    HW137943   1.088   1.520   7.688  2.0416 -0.3373 -0.2533
 8769SOL    HW237944   0.978   1.430   7.638  0.3435 -1.5685 -1.8611
 8770SOL     OW37945   4.467   2.755   4.667  0.0249  0.2222 -0.7594
 8770SOL    HW137946   4.528   2.682   4.658 -0.3518 -0.2330  0.4254
 8770SOL    HW237947   4.500   2.792   4.749 -0.6166 -2.2686  0.6423
 8771SOL     OW37948   1.709   0.683   8.552  0.2184  0.3738  0.5263
 8771SOL    HW137949   1.713   0.606   8.495  1.6080  1.3198 -0.6497
 8771SOL    HW237950   1.614   0.694   8.557  0.2957  1.5227 -0.8758
 8772SOL     OW37951   4.581   0.742  10.662 -0.7785 -0.3048  0.2586
 8772SOL    HW137952   4.650   0.675  10.660 -0.2664  0.1848  1.8244
 8772SOL    HW237953   4.527   0.712  10.735 -0.0506  1.0369  1.3567
 8773SOL     OW37954   0.756   3.837  13.417  0.1696 -0.4147  0.0181
 8773SOL    HW137955   0.709   3.869  13.340  1.8870  0.6294 -0.6059
 8773SOL    HW237956   0.781   3.749  13.388  0.8529 -0.1072 -0.3416
 8774SOL     OW37957   4.465   1.562   4.693 -0.4931  0.2507 -0.4644
 8774SOL    HW137958   4.437   1.593   4.607 -2.2239  1.1942  0.4466
 8774SOL    HW237959   4.461   1.467   4.684  1.4332  0.2509 -1.4821
 8775SOL     OW37960   3.754   2.719   3.971 -0.3547  0.3914 -0.4076
 8775SOL    HW137961   3.733   2.646   3.913  1.9581 -1.1625  0.7237
 8775SOL    HW237962   3.834   2.683   4.009 -1.2035 -1.6330 -0.5293
 8776SOL     OW37963   3.723   3.029   6.555 -0.1437  0.1072  0.6023
 8776SOL    HW137964   3.659   3.062   6.618 -2.2542 -1.5633 -0.6356
 8776SOL    HW237965   3.707   3.083   6.477 -2.2393 -2.2529 -0.6182
 8777SOL     OW37966   0.275   2.657   8.395  0.2586 -0.1772  0.0719
 8777SOL    HW137967   0.251   2.675   8.486  2.9862  2.4077  0.2830
 8777SOL    HW237968   0.186   2.656   8.359 -0.1580  2.4920  1.0385
 8778SOL     OW37969   4.727   3.704  13.230  0.4299  0.3043 -0.5501
 8778SOL    HW137970   0.050   3.732  13.161  2.2459  1.6326  1.5590
 8778SOL    HW237971   4.700   3.782  13.278  0.3549 -0.7016  1.0632
 8779SOL     OW37972   0.855   3.417   8.720 -0.0503 -0.3980 -0.0808
 8779SOL    HW137973   0.809   3.334   8.712 -1.2266  0.1830  0.7216
 8779SOL    HW237974   0.790   3.481   8.691 -0.7694 -0.9082  0.4241
 8780SOL     OW37975   0.559   2.154  12.098  0.3366  0.3207  0.2896
 8780SOL    HW137976   0.564   2.232  12.042 -1.2461  0.3550  0.2071
 8780SOL    HW237977   0.471   2.168  12.132  0.8579 -0.5070  1.9918
 8781SOL     OW37978   0.453   2.474   1.513 -0.1746 -0.3221 -0.3453
 8781SOL    HW137979   0.520   2.409   1.490  0.5695  1.3675 -2.9070
 8781SOL    HW237980   0.511   2.546   1.539  1.6429 -1.6408 -0.7479
 8782SOL     OW37981   2.435   1.377   5.146 -0.3926  0.4494  0.3453
 8782SOL    HW137982   2.356   1.428   5.161  0.1502  1.4991 -0.4152
 8782SOL    HW237983   2.496   1.450   5.142  1.5423 -1.2535 -1.3668
 8783SOL     OW37984   3.810   3.003   5.262 -0.4009 -0.0939  0.1727
 8783SOL    HW137985   3.865   3.023   5.338  0.3948 -0.2700 -0.3700
 8783SOL    HW237986   3.863   3.059   5.205  1.6505 -0.5075  1.6609
 8784SOL     OW37987   2.684   2.111   1.633 -0.3506 -0.6255  0.1218
 8784SOL    HW137988   2.729   2.104   1.549 -1.7841 -2.1742 -0.5020
 8784SOL    HW237989   2.705   2.026   1.672 -0.6333 -0.9293 -0.3922
 8785SOL     OW37990   0.316   2.701  15.007 -0.2929  0.3230  0.2665
 8785SOL    HW137991   0.235   2.713  15.056 -1.5813  3.3371 -2.6502
 8785SOL    HW237992   0.284   2.737  14.924  2.2172  0.4082 -0.6582
 8786SOL     OW37993   3.902   0.539  13.313  0.2390 -0.2590 -0.0711
 8786SOL    HW137994   3.843   0.538  13.238  0.0644 -0.1202  0.0637
 8786SOL    HW237995   3.971   0.475  13.298  1.2718  1.1239 -1.2563
 8787SOL     OW37996   3.535   2.055   4.418  0.3947 -0.0368 -0.7231
 8787SOL    HW137997   3.498   1.967   4.419 -1.4619  0.7050 -2.6400
 8787SOL    HW237998   3.545   2.070   4.512 -1.1320 -0.9367 -0.4173
 8788SOL     OW37999   3.187   0.560   3.987  0.4024  0.1384  0.3698
 8788SOL    HW138000   3.116   0.614   4.021 -0.1070 -0.6785  0.6096
 8788SOL    HW238001   3.184   0.588   3.896  2.5914  0.3330  0.3458
 8789SOL     OW38002   1.266   0.790  12.395  0.0862  0.4866  0.1795
 8789SOL    HW138003   1.272   0.714  12.454 -0.7047 -0.3529 -0.8210
 8789SOL    HW238004   1.354   0.794  12.358  0.3404 -2.7517  0.4013
 8790SOL     OW38005   3.895   4.727  10.504  0.7118  0.4330  0.2223
 8790SOL    HW138006   3.825   4.716  10.569  0.4379 -0.4942 -0.2284
 8790SOL    HW238007   3.950   4.657  10.538  0.0005 -0.7120 -0.9735
 8791SOL     OW38008   0.681   2.714   0.983 -0.0369  0.0803 -0.0787
 8791SOL    HW138009   0.683   2.672   1.069  1.7948  0.3966  0.0430
 8791SOL    HW238010   0.667   2.641   0.923  3.6365 -0.0616 -0.7312
 8792SOL     OW38011   3.657   1.710   8.193 -0.3902  0.2716  0.0850
 8792SOL    HW138012   3.692   1.747   8.274  0.4607  0.1068 -0.2132
 8792SOL    HW238013   3.736   1.688   8.143 -1.4628 -1.5377 -0.8260
 8793SOL     OW38014   1.584   2.476   4.690  0.1377  0.5316 -0.5846
 8793SOL    HW138015   1.513   2.540   4.690 -0.7548 -0.4692  1.0505
 8793SOL    HW238016   1.570   2.451   4.599  2.1068  0.5021 -0.8843
 8794SOL     OW38017   4.472   2.167  17.474 -0.0579 -0.0509 -0.1370
 8794SOL    HW138018   4.542   2.108  17.502 -0.2932 -0.2873 -0.0468
 8794SOL    HW238019   4.508   2.210  17.397 -0.9243 -0.6045 -0.8574
 8795SOL     OW38020   4.153   1.411   7.141 -0.3582  0.2296 -0.0577
 8795SOL    HW138021   4.212   1.447   7.206  1.0444 -0.4638 -0.9445
 8795SOL    HW238022   4.175   1.318   7.142 -0.7708  0.1456  1.3287
 8796SOL     OW38023   0.166   3.787   8.486 -0.2552 -0.5937  0.1146
 8796SOL    HW138024   0.092   3.737   8.451 -0.5771 -0.4874  0.6631
 8796SOL    HW238025   0.147   3.878   8.464  3.3794 -0.5315 -2.9433
 8797SOL     OW38026   3.689   2.433  17.013 -0.3329 -0.1132  0.3270
 8797SOL    HW138027   3.665   2.506  16.954 -1.6392 -0.4466  0.4431
 8797SOL    HW238028   3.601   2.395  17.009  0.0818 -1.1464  1.3560
 8798SOL     OW38029   4.652   4.494   7.772  0.0954  0.2331  0.2918
 8798SOL    HW138030   4.578   4.492   7.711  0.7857 -2.5787 -0.4425
 8798SOL    HW238031   4.652   4.406   7.809 -0.9704  0.0108 -0.2295
 8799SOL     OW38032   0.563   2.795   5.355  0.0287 -0.2353  0.0829
 8799SOL    HW138033   0.573   2.887   5.380 -1.7514 -0.4181  1.3913
 8799SOL    HW238034   0.602   2.806   5.268 -2.4457  1.0795 -0.8425
 8800SOL     OW38035   0.279   4.535  16.384  0.4345 -0.1258 -0.0269
 8800SOL    HW138036   0.327   4.523  16.302  0.9687 -0.3135  0.3066
 8800SOL    HW238037   0.251   4.446  16.407 -2.0463  0.4765 -0.7056
 8801SOL     OW38038   0.045   0.704   8.114  0.4615  0.5084  0.4744
 8801SOL    HW138039   0.051   0.609   8.118 -0.2764  0.4453  0.0806
 8801SOL    HW238040   0.112   0.718   8.047  0.9003  0.1088  0.8315
 8802SOL     OW38041   3.524   0.777   8.295 -0.2687  0.2916 -0.0875
 8802SOL    HW138042   3.612   0.811   8.277  0.1554  0.9238  3.1978
 8802SOL    HW238043   3.475   0.853   8.326 -0.9005  0.7079 -2.0928
 8803SOL     OW38044   3.380   0.557   3.219  0.7102  0.1337  0.0415
 8803SOL    HW138045   3.350   0.563   3.128  0.1564  0.0193  0.2213
 8803SOL    HW238046   3.334   0.474   3.231 -0.4031  1.0432  1.9717
 8804SOL     OW38047   2.710   3.460   4.988  0.7215 -0.4241  0.0015
 8804SOL    HW138048   2.642   3.512   5.031 -0.1331 -2.0808  0.6219
 8804SOL    HW238049   2.732   3.511   4.910  1.3997  1.9407  1.7353
 8805SOL     OW38050   3.417   4.373  13.312  0.5650 -0.0812 -0.2965
 8805SOL    HW138051   3.368   4.293  13.294 -1.0592  1.4362 -2.5963
 8805SOL    HW238052   3.450   4.352  13.399 -0.1964 -0.7065 -0.1587
 8806SOL     OW38053   3.656   1.612  17.504  0.0427 -0.0119  0.3638
 8806SOL    HW138054   3.701   1.694  17.525 -0.1320 -0.2521  1.6849
 8806SOL    HW238055   3.673   1.562  17.583  0.6841 -2.5236 -1.3704
 8807SOL     OW38056   3.248   1.862   0.277  0.7566 -0.1612  0.0385
 8807SOL    HW138057   3.241   1.781   0.225 -0.6783 -0.8171  1.2595
 8807SOL    HW238058   3.274   1.922   0.207 -1.3832  1.3316  0.5134
 8808SOL     OW38059   1.079   3.343  17.665 -0.1387 -0.1544 -0.1014
 8808SOL    HW138060   1.161   3.300  17.686 -2.2349 -3.7248  0.8165
 8808SOL    HW238061   1.069   3.409  17.734  2.1342  1.7170 -1.5968
 8809SOL     OW38062   4.059   3.560   5.275  0.0701  0.2699 -0.0011
 8809SOL    HW138063   4.135   3.573   5.333 -0.2107  0.5405  0.3110
 8809SOL    HW238064   4.039   3.469   5.296  2.2062 -0.5766 -1.6171
 8810SOL     OW38065   2.364   2.750  15.784  0.8755  0.0816 -0.2975
 8810SOL    HW138066   2.412   2.667  15.781  0.8147  0.0910 -1.3326
 8810SOL    HW238067   2.428   2.793  15.841  0.2835  3.1549 -2.0027
 8811SOL     OW38068   3.379   4.155  11.644 -0.0398 -0.2490  0.1954
 8811SOL    HW138069   3.450   4.109  11.690  1.4667  1.1894 -0.6751
 8811SOL    HW238070   3.343   4.193  11.724 -2.7451 -0.9816 -0.6727
 8812SOL     OW38071   2.504   1.585   9.048  0.0369 -0.6476 -0.0513
 8812SOL    HW138072   2.551   1.551   8.973  0.5717 -1.8426  0.8247
 8812SOL    HW238073   2.506   1.506   9.101  0.0903 -0.1447  0.7071
 8813SOL     OW38074   4.216   1.994   0.839 -0.2345 -0.2333  0.3581
 8813SOL    HW138075   4.244   2.078   0.877  0.2682 -0.8216  1.2901
 8813SOL    HW238076   4.206   2.017   0.747 -0.2946 -0.8476  0.2104
 8814SOL     OW38077   0.096   0.464   3.666 -0.2440  0.4379  0.3873
 8814SOL    HW138078   0.126   0.378   3.696 -0.5588 -0.3818 -1.6739
 8814SOL    HW238079   0.027   0.436   3.606  0.8882  0.4236 -0.9089
 8815SOL     OW38080   3.387   1.012   5.050  0.6946 -0.7623  0.1592
 8815SOL    HW138081   3.369   1.019   5.144 -1.7505 -1.9749 -0.2068
 8815SOL    HW238082   3.482   1.021   5.049  0.5418  0.6766 -1.2151
 8816SOL     OW38083   4.534   0.594   8.433  0.2666  0.0618 -0.3458
 8816SOL    HW138084   4.596   0.654   8.392  1.6280 -1.5850 -0.6943
 8816SOL    HW238085   4.468   0.662   8.448 -0.4387 -0.8184  0.5355
 8817SOL     OW38086   1.766   0.895   6.390  0.5301 -0.0218  0.0579
 8817SOL    HW138087   1.750   0.802   6.376 -0.5609 -0.0844  1.6218
 8817SOL    HW238088   1.787   0.894   6.484 -2.1822 -0.7287  0.6688
 8818SOL     OW38089   2.320   2.202  16.270  0.2123 -0.3707  0.4822
 8818SOL    HW138090   2.272   2.250  16.202 -0.7583  0.2814  1.6249
 8818SOL    HW238091   2.286   2.113  16.265 -0.3207 -0.0844 -1.2166
 8819SOL     OW38092   0.035   4.668   8.580 -0.3940 -0.3674 -0.2620
 8819SOL    HW138093   0.077   0.010   8.615 -3.9681  1.4867 -0.0744
 8819SOL    HW238094   4.724   4.636   8.657 -0.7400  0.7778  0.0165
 8820SOL     OW38095   1.582   3.897  10.386  0.7335  0.1305  0.0781
 8820SOL    HW138096   1.654   3.957  10.368  0.1718  0.3071 -1.5899
 8820SOL    HW238097   1.502   3.948  10.395  1.3697  1.1435 -0.0182
 8821SOL     OW38098   2.744   4.089   8.331 -0.0969  0.2696  1.0521
 8821SOL    HW138099   2.668   4.062   8.382 -1.4475  1.8649 -0.1704
 8821SOL    HW238100   2.709   4.111   8.245 -0.7570  0.6398  1.4180
 8822SOL     OW38101   4.520   0.549   7.342  0.0290  0.3215  0.0569
 8822SOL    HW138102   4.535   0.526   7.250  2.6977  0.9274  0.3438
 8822SOL    HW238103   4.565   0.633   7.346  2.4614 -0.9278 -0.6831
 8823SOL     OW38104   2.318   2.927   9.610  0.3492 -0.4978 -0.4454
 8823SOL    HW138105   2.403   2.946   9.649 -0.8857 -0.5681  2.2615
 8823SOL    HW238106   2.298   2.862   9.677  0.1534  0.6388  0.5970
 8824SOL     OW38107   2.113   1.044   6.634 -0.4057 -0.3979 -0.3317
 8824SOL    HW138108   2.117   1.114   6.699  1.4347  0.2830 -1.1744
 8824SOL    HW238109   2.152   1.082   6.555  0.2021  0.7780  0.5521
 8825SOL     OW38110   4.215   2.070   7.998  0.1623  0.5676  0.3274
 8825SOL    HW138111   4.256   2.153   7.975 -0.5119  1.1298  1.1707
 8825SOL    HW238112   4.280   2.010   7.960 -1.4359 -0.5292 -0.6735
 8826SOL     OW38113   3.325   0.870   7.164  0.2462 -0.0159 -0.1035
 8826SOL    HW138114   3.324   0.795   7.223  2.1047  0.1829  0.2001
 8826SOL    HW238115   3.249   0.854   7.108 -0.5776 -1.2799  1.3791
 8827SOL     OW38116   3.621   1.542  10.286 -0.2186  0.8510  0.3616
 8827SOL    HW138117   3.681   1.469  10.298 -1.4096 -0.2762 -0.7190
 8827SOL    HW238118   3.679   1.600  10.236 -0.7292  0.0137 -1.1837
 8828SOL     OW38119   4.222   0.769   8.527 -0.0967 -0.0036  0.0429
 8828SOL    HW138120   4.224   0.747   8.620  0.7375  0.0596  0.0367
 8828SOL    HW238121   4.192   0.860   8.533 -0.3547 -0.0397 -0.7323
 8829SOL     OW38122   2.484   4.187  17.622 -0.8830  0.3225 -0.0003
 8829SOL    HW138123   2.434   4.173  17.541  2.5757  1.2595 -2.2802
 8829SOL    HW238124   2.433   4.253  17.669  1.3234  1.2318  1.0935
 8830SOL     OW38125   0.132   2.079   8.578  0.4782  0.0903  0.3363
 8830SOL    HW138126   0.115   1.985   8.585  1.0043  0.0481  1.1189
 8830SOL    HW238127   0.217   2.082   8.534 -1.3329  0.8965 -3.0543
 8831SOL     OW38128   4.651   4.468   8.159  0.4593  0.5498 -0.1886
 8831SOL    HW138129   4.672   4.541   8.218 -2.9211 -0.0341  1.7550
 8831SOL    HW238130   4.558   4.480   8.136  0.1789 -1.1877 -0.0108
 8832SOL     OW38131   3.532   1.305  15.431 -0.1250 -0.3260  0.4853
 8832SOL    HW138132   3.443   1.318  15.463 -0.5645 -1.1670 -0.3954
 8832SOL    HW238133   3.519   1.252  15.352 -1.7358  2.8347 -1.3468
 8833SOL     OW38134   0.272   0.533   9.794 -0.0744  0.0530 -0.1261
 8833SOL    HW138135   0.288   0.625   9.814  0.8702 -0.3507  0.9655
 8833SOL    HW238136   0.329   0.514   9.720 -1.1744 -0.0901 -0.9389
 8834SOL     OW38137   4.198   3.777   7.732  0.2823  0.4000  0.5889
 8834SOL    HW138138   4.181   3.689   7.764 -0.6568  0.1599 -0.5717
 8834SOL    HW238139   4.294   3.783   7.739  0.2960 -0.3773  1.0488
 8835SOL     OW38140   1.904   3.368   8.586  0.1540 -0.5498  0.0863
 8835SOL    HW138141   1.847   3.341   8.514 -0.3310  0.3164  0.1489
 8835SOL    HW238142   1.906   3.462   8.563  0.1122 -0.5711 -0.0043
 8836SOL     OW38143   4.725   1.718  11.810  0.4601  0.4853  0.2103
 8836SOL    HW138144   0.049   1.773  11.760 -1.0037 -1.0506 -3.2230
 8836SOL    HW238145   0.043   1.675  11.877  0.1845 -1.7820 -1.0222
 8837SOL     OW38146   1.152   4.002   4.891  0.5833 -0.2657  0.0691
 8837SOL    HW138147   1.094   3.925   4.891 -0.5537  0.5976  0.1661
 8837SOL    HW238148   1.148   4.023   4.798 -0.3015 -0.3454  0.0874
 8838SOL     OW38149   3.153   2.001   8.164 -0.0123 -0.4552 -0.2231
 8838SOL    HW138150   3.172   1.928   8.105  1.0466 -0.1580 -0.2501
 8838SOL    HW238151   3.240   2.040   8.154 -0.3623  0.4026  0.1037
 8839SOL     OW38152   1.224   4.278   5.490  0.0041  0.1664  0.1202
 8839SOL    HW138153   1.207   4.303   5.399 -1.6016  0.9577  0.6363
 8839SOL    HW238154   1.316   4.256   5.501  0.4167  0.9867 -1.8374
 8840SOL     OW38155   0.571   0.541   4.489  0.5698  0.4243 -0.0535
 8840SOL    HW138156   0.600   0.470   4.546  0.2557  0.0055 -0.4192
 8840SOL    HW238157   0.580   0.480   4.416  0.9115  0.0054  0.3412
 8841SOL     OW38158   1.037   4.038   8.006 -0.3002  0.4313 -0.2495
 8841SOL    HW138159   0.979   3.968   7.977 -1.2221  0.8081  0.6828
 8841SOL    HW238160   1.045   4.015   8.098  1.4371  2.5641  0.1547
 8842SOL     OW38161   3.239   3.095   7.621  0.6853  0.4343 -0.5991
 8842SOL    HW138162   3.177   3.060   7.557 -2.2103  0.6353  2.1406
 8842SOL    HW238163   3.311   3.115   7.561  1.5854 -2.6717 -0.5458
 8843SOL     OW38164   3.841   2.479   1.190  0.2381 -0.5871  0.2747
 8843SOL    HW138165   3.847   2.543   1.261 -1.2728 -0.9661  0.7319
 8843SOL    HW238166   3.922   2.431   1.207  0.8711  0.6587  0.7884
 8844SOL     OW38167   0.702   0.847   6.200  0.4685 -0.1157  0.8477
 8844SOL    HW138168   0.785   0.894   6.208  0.5881 -0.4977  1.8417
 8844SOL    HW238169   0.728   0.757   6.219 -0.8984 -0.7015 -0.0662
 8845SOL     OW38170   4.610   2.112   4.804 -0.2927  0.2073 -0.0706
 8845SOL    HW138171   4.604   2.109   4.900  2.9837 -1.4927  0.0935
 8845SOL    HW238172   4.581   2.024   4.780  1.1767  0.1010 -1.4087
 8846SOL     OW38173   1.208   4.570   2.343  0.1089 -0.0577 -0.3551
 8846SOL    HW138174   1.189   4.502   2.279  0.1084 -0.0140 -0.4011
 8846SOL    HW238175   1.188   4.653   2.300  1.0387  0.6488  0.5620
 8847SOL     OW38176   0.078   2.419   7.842  0.0863  0.2609 -0.5246
 8847SOL    HW138177   0.079   2.463   7.927  0.0765 -0.9208  0.0882
 8847SOL    HW238178   0.122   2.480   7.784  1.0601  2.1775  2.1967
 8848SOL     OW38179   1.197   4.190   6.385 -0.1065 -0.3330 -0.0687
 8848SOL    HW138180   1.195   4.173   6.291 -2.7170 -1.2684  0.1531
 8848SOL    HW238181   1.105   4.172   6.404 -0.1157 -0.4544 -0.2344
 8849SOL     OW38182   2.623   2.697   2.116 -0.0620  0.2597 -1.3615
 8849SOL    HW138183   2.643   2.784   2.082  0.0462  0.1466 -1.5891
 8849SOL    HW238184   2.710   2.663   2.136 -1.4221 -2.0400  0.6662
 8850SOL     OW38185   0.172   4.645   4.192  0.1795  0.0143  0.2129
 8850SOL    HW138186   0.218   4.581   4.247  0.5967  0.2213  0.1093
 8850SOL    HW238187   0.085   4.605   4.191  0.9719 -1.7359  1.0121
 8851SOL     OW38188   1.684   2.590   7.080 -0.3892  0.3544  0.1168
 8851SOL    HW138189   1.746   2.662   7.067 -1.4062  1.2622  0.2752
 8851SOL    HW238190   1.641   2.599   6.995  0.1463 -0.3267 -0.2201
 8852SOL     OW38191   2.645   0.709   2.580  0.0103 -0.4352  0.1342
 8852SOL    HW138192   2.643   0.706   2.676  0.7402 -0.3832  0.1534
 8852SOL    HW238193   2.600   0.629   2.556  0.6152 -0.5796 -0.5071
 8853SOL     OW38194   3.294   1.062   2.777  0.0758 -0.0307 -0.2406
 8853SOL    HW138195   3.288   1.014   2.694  1.4285  1.3236 -1.1165
 8853SOL    HW238196   3.347   0.998   2.824  2.4817  2.6967  0.7480
 8854SOL     OW38197   3.728   1.196   4.479 -0.6621  0.1802  0.1966
 8854SOL    HW138198   3.802   1.203   4.419 -0.2788 -0.2642  0.6194
 8854SOL    HW238199   3.736   1.105   4.506  1.6399  0.2323 -0.3113
 8855SOL     OW38200   3.969   1.374   8.040  0.2041 -0.6785 -0.4563
 8855SOL    HW138201   4.050   1.425   8.033 -0.9247  1.3910  1.4492
 8855SOL    HW238202   3.903   1.440   8.017 -0.6087 -0.9503  1.0677
 8856SOL     OW38203   3.353   2.028   5.113  0.3455 -0.0082  0.4591
 8856SOL    HW138204   3.317   2.109   5.148 -0.0108  0.6553 -1.4371
 8856SOL    HW238205   3.410   2.000   5.185  0.7064  1.5007  0.7451
 8857SOL     OW38206   1.888   0.925  11.885 -0.1383  0.5618 -0.5023
 8857SOL    HW138207   1.912   0.932  11.792  0.5688  2.2578 -0.1728
 8857SOL    HW238208   1.864   1.017  11.891 -0.7513  0.2540  1.5107
 8858SOL     OW38209   1.946   2.742   6.562  0.6992  0.7503  0.8550
 8858SOL    HW138210   1.916   2.660   6.524 -0.3777  1.8041 -0.5905
 8858SOL    HW238211   2.015   2.781   6.509  2.4691  0.0445  2.6458
 8859SOL     OW38212   3.453   1.043   6.710  0.0368 -0.4871  0.1560
 8859SOL    HW138213   3.456   0.993   6.791  0.3460 -1.2396 -0.3188
 8859SOL    HW238214   3.492   0.981   6.649  1.7562 -1.9202  2.7496
 8860SOL     OW38215   2.556   3.161   9.441 -0.2235 -0.4812  0.4999
 8860SOL    HW138216   2.612   3.230   9.477  0.7256 -1.4296  0.8427
 8860SOL    HW238217   2.551   3.092   9.507 -3.8522 -1.1687 -0.4749
 8861SOL     OW38218   1.844   2.306  11.825  0.4742  0.2702 -0.3932
 8861SOL    HW138219   1.923   2.251  11.822 -0.5837 -1.2247 -1.0837
 8861SOL    HW238220   1.815   2.295  11.916  0.8288  2.1542 -0.0546
 8862SOL     OW38221   1.029   2.613   8.726 -0.0824 -0.1050  0.5430
 8862SOL    HW138222   1.122   2.609   8.703 -0.2435  0.3861 -0.1969
 8862SOL    HW238223   1.037   2.549   8.797  2.4173 -0.8270 -0.4054
 8863SOL     OW38224   2.163   3.275   4.964  0.4036  0.0558 -0.0641
 8863SOL    HW138225   2.185   3.266   4.871 -1.7523  0.0607 -0.5674
 8863SOL    HW238226   2.068   3.268   4.950  0.5272  0.6662 -1.2686
 8864SOL     OW38227   1.081   0.553  16.074  0.4511  0.1635 -0.4476
 8864SOL    HW138228   1.170   0.537  16.041  0.6345 -0.9065  0.5589
 8864SOL    HW238229   1.099   0.640  16.111 -3.4261  0.3817  0.9551
 8865SOL     OW38230   4.515   2.468   8.383 -0.5207  0.1337  0.3014
 8865SOL    HW138231   4.590   2.412   8.405  0.1205  0.1655 -1.8391
 8865SOL    HW238232   4.528   2.541   8.444 -0.9669 -0.3508  0.9748
 8866SOL     OW38233   2.598   1.875   5.865 -0.4399 -0.2525 -0.5581
 8866SOL    HW138234   2.551   1.815   5.807  0.2469  0.8456 -2.2580
 8866SOL    HW238235   2.691   1.865   5.842 -0.6604  0.4438 -1.7452
 8867SOL     OW38236   4.083   3.682  15.242 -0.4073 -0.3633 -0.6219
 8867SOL    HW138237   4.082   3.592  15.208  1.0480  0.0178 -1.6709
 8867SOL    HW238238   4.001   3.715  15.205  0.3410  1.5664 -0.5326
 8868SOL     OW38239   2.098   1.758   8.365 -0.5663  0.2369 -0.0326
 8868SOL    HW138240   2.026   1.767   8.427  0.4092  2.5472  0.7579
 8868SOL    HW238241   2.058   1.775   8.280  1.5325  0.6005 -0.9392
 8869SOL     OW38242   4.247   3.852  12.433 -0.0455 -0.8330 -0.5087
 8869SOL    HW138243   4.280   3.811  12.353  2.4991 -0.7911  0.5030
 8869SOL    HW238244   4.310   3.813  12.494  0.7905  1.1984 -0.0558
 8870SOL     OW38245   3.725   2.453   9.220 -0.8815 -0.2626 -0.0193
 8870SOL    HW138246   3.724   2.387   9.151  2.9893  0.6507 -0.9562
 8870SOL    HW238247   3.778   2.524   9.183 -0.4896 -0.7662 -0.4288
 8871SOL     OW38248   3.613   2.045   8.372 -0.5618  0.0288 -0.0049
 8871SOL    HW138249   3.676   1.976   8.391 -1.1358 -0.1760  1.1799
 8871SOL    HW238250   3.631   2.070   8.281  0.3355 -1.1567 -0.1440
 8872SOL     OW38251   4.205   0.175  13.470 -0.2543  0.7122 -0.2838
 8872SOL    HW138252   4.119   0.159  13.511 -0.2199  3.3685  0.8153
 8872SOL    HW238253   4.193   0.250  13.412 -0.0897  1.8914  1.2167
 8873SOL     OW38254   1.360   0.017   6.490  0.0208 -0.4378 -0.2580
 8873SOL    HW138255   1.378   4.663   6.516 -1.0997 -0.6805 -0.3112
 8873SOL    HW238256   1.429   0.066   6.534  0.5413  0.2043 -1.8308
 8874SOL     OW38257   2.505   2.595   8.804  0.7457 -0.0698 -0.1802
 8874SOL    HW138258   2.495   2.591   8.899  1.8384 -0.7841 -0.0989
 8874SOL    HW238259   2.477   2.684   8.781 -0.5807 -0.6540 -0.8687
 8875SOL     OW38260   1.226   3.493  13.137 -0.7041 -0.2172 -0.2575
 8875SOL    HW138261   1.141   3.448  13.130 -2.0046  2.3317 -0.9126
 8875SOL    HW238262   1.270   3.471  13.055  0.3746  2.1893 -0.3321
 8876SOL     OW38263   0.928   3.057  11.374  0.1215 -0.2278  0.0915
 8876SOL    HW138264   0.952   2.993  11.307 -3.1259 -0.8260 -0.5158
 8876SOL    HW238265   0.860   3.007  11.419  0.1047 -0.8716 -0.6460
 8877SOL     OW38266   3.137   3.692   4.867  0.0103  0.0637  0.3706
 8877SOL    HW138267   3.161   3.776   4.830 -2.0162 -0.0653 -1.2222
 8877SOL    HW238268   3.190   3.689   4.947  0.1094  3.7998  0.4557
 8878SOL     OW38269   2.525   4.353   1.813 -0.1847  0.1082  0.3445
 8878SOL    HW138270   2.538   4.443   1.785 -2.0161 -0.0890 -1.1142
 8878SOL    HW238271   2.553   4.305   1.736 -1.3460 -0.0098 -0.0076
 8879SOL     OW38272   1.606   0.859   4.395  0.0441  0.6369 -0.4202
 8879SOL    HW138273   1.687   0.899   4.426  0.0105 -1.3538  2.2958
 8879SOL    HW238274   1.607   0.774   4.439 -0.1815 -0.4091 -2.4371
 8880SOL     OW38275   0.002   0.799   2.447 -0.0360  0.5704 -0.1875
 8880SOL    HW138276   4.650   0.764   2.443  0.2529 -0.5058  2.6582
 8880SOL    HW238277   0.053   0.719   2.434  0.1482  0.5179  0.8688
 8881SOL     OW38278   3.934   2.807  15.161  0.4245  0.1546 -0.2208
 8881SOL    HW138279   3.845   2.840  15.171  0.5407  0.8504 -1.4777
 8881SOL    HW238280   3.965   2.885  15.115  3.4031 -0.9043 -0.0555
 8882SOL     OW38281   4.729   2.921  15.942 -0.8874 -0.0347  0.8381
 8882SOL    HW138282   0.066   2.933  15.881  0.2099  0.5214  2.2828
 8882SOL    HW238283   4.667   2.984  15.904  0.9871  1.2651 -0.0905
 8883SOL     OW38284   3.772   1.355  15.241  0.0558  0.2386 -0.2901
 8883SOL    HW138285   3.709   1.407  15.190  0.5459  0.8451 -0.2698
 8883SOL    HW238286   3.723   1.328  15.319 -0.2926  1.0408 -0.2311
 8884SOL     OW38287   2.503   3.555   9.305  0.3475  0.1471 -0.0277
 8884SOL    HW138288   2.511   3.606   9.385 -0.7251  1.5287 -0.7961
 8884SOL    HW238289   2.530   3.627   9.248  2.0695 -1.2490 -0.9761
 8885SOL     OW38290   3.817   1.658  15.278 -0.5090  0.2409 -0.2016
 8885SOL    HW138291   3.779   1.604  15.209 -2.0804  0.2315  0.6720
 8885SOL    HW238292   3.881   1.607  15.327  1.3723  2.3943 -0.3987
 8886SOL     OW38293   3.731   1.407   6.242 -0.0803 -0.2102  0.4813
 8886SOL    HW138294   3.819   1.390   6.277 -0.4549 -2.6418  0.2562
 8886SOL    HW238295   3.672   1.395   6.317  1.2166  1.0038  1.7177
 8887SOL     OW38296   3.982   1.351  13.011  0.5429  0.5856  0.1758
 8887SOL    HW138297   4.072   1.376  12.987  0.6610 -0.3169 -0.3459
 8887SOL    HW238298   3.935   1.405  12.948 -1.9751 -1.2086  0.5375
 8888SOL     OW38299   3.499   0.732   6.037  0.0831 -0.2764 -0.1931
 8888SOL    HW138300   3.439   0.684   5.981  0.2442  2.9641 -3.1443
 8888SOL    HW238301   3.574   0.742   5.978 -0.0337  1.0470 -0.1309
 8889SOL     OW38302   3.300   3.663  13.052 -0.2853  0.2663 -0.6946
 8889SOL    HW138303   3.299   3.568  13.045  1.4641  0.4720 -3.7255
 8889SOL    HW238304   3.243   3.679  13.128  0.4236  0.3678 -0.1868
 8890SOL     OW38305   4.289   0.897   9.678  0.0069  0.0074  0.6758
 8890SOL    HW138306   4.353   0.832   9.708 -1.2070 -2.2613 -1.6192
 8890SOL    HW238307   4.231   0.906   9.754 -1.7840 -0.4525 -0.6234
 8891SOL     OW38308   1.961   3.149   6.348  0.1295 -0.3505  0.1787
 8891SOL    HW138309   1.899   3.183   6.413 -0.3500 -0.9949  0.0562
 8891SOL    HW238310   2.016   3.227   6.339  1.2498 -0.9807  1.7641
 8892SOL     OW38311   2.937   3.186   6.623  0.0029 -0.0800 -0.9224
 8892SOL    HW138312   2.999   3.173   6.694  0.3551 -0.1730 -1.2522
 8892SOL    HW238313   2.952   3.277   6.598 -2.5299  0.3937 -0.7575
 8893SOL     OW38314   0.098   2.897   9.319  0.7050 -0.3206 -0.1641
 8893SOL    HW138315   0.183   2.924   9.355  1.4012  0.5903 -2.4887
 8893SOL    HW238316   0.053   2.858   9.394  1.3021 -0.0970  0.3095
 8894SOL     OW38317   1.572   1.015  14.567  0.0268  0.5901 -0.5028
 8894SOL    HW138318   1.520   1.060  14.500  1.2652  0.9773 -1.2057
 8894SOL    HW238319   1.595   0.931  14.527  0.7984 -0.0332  1.2767
 8895SOL     OW38320   1.875   4.471   1.258 -0.7745 -0.2627  0.3400
 8895SOL    HW138321   1.803   4.431   1.208 -0.6076  1.1635 -1.0302
 8895SOL    HW238322   1.948   4.424   1.218 -1.3190  0.1312 -1.1241
 8896SOL     OW38323   0.306   1.630   4.704  0.0247 -0.1121  0.5414
 8896SOL    HW138324   0.279   1.608   4.615  0.5388  2.2338 -0.1858
 8896SOL    HW238325   0.396   1.661   4.693  0.6632 -1.3874  2.0655
 8897SOL     OW38326   2.893   2.509   5.340  0.3139  0.1243  0.5440
 8897SOL    HW138327   2.822   2.480   5.283  0.3373  0.2299  0.4610
 8897SOL    HW238328   2.956   2.543   5.277  0.5295 -0.0441  0.6664
 8898SOL     OW38329   0.263   0.037  12.037 -0.3305  0.2609  0.1048
 8898SOL    HW138330   0.172   0.058  12.018 -1.1148 -2.1683  1.1981
 8898SOL    HW238331   0.253   4.705  12.103 -0.1396  1.6158  1.5264
 8899SOL     OW38332   2.173   3.049   5.153  0.6892  0.1332  0.0100
 8899SOL    HW138333   2.118   3.004   5.089  0.6193  0.3677 -0.0949
 8899SOL    HW238334   2.257   3.067   5.111  0.2781  0.7521 -0.5459
 8900SOL     OW38335   1.828   4.033  15.143  0.1995 -0.1936  0.0395
 8900SOL    HW138336   1.847   4.011  15.052  1.0438 -2.6885  0.8310
 8900SOL    HW238337   1.845   3.951  15.190 -0.2573 -0.6918 -0.6707
 8901SOL     OW38338   0.136   4.573   5.688 -0.2071  1.1918 -0.2343
 8901SOL    HW138339   0.210   4.543   5.740 -2.6801 -0.5842  2.2936
 8901SOL    HW238340   0.175   4.537   5.608  3.2634  0.9739  1.5837
 8902SOL     OW38341   4.528   3.437   8.695 -0.4209  0.3652 -0.8080
 8902SOL    HW138342   4.587   3.378   8.744  0.1725  1.6346 -0.0037
 8902SOL    HW238343   4.451   3.437   8.752 -0.1759 -0.6894 -0.4785
 8903SOL     OW38344   3.770   3.593   5.852 -0.3508 -0.0800 -0.6053
 8903SOL    HW138345   3.799   3.658   5.787 -5.2953 -0.1663 -2.9009
 8903SOL    HW238346   3.730   3.655   5.912 -0.6051  0.9648 -1.8354
 8904SOL     OW38347   1.107   0.838   5.560 -0.1931  0.0392 -1.1361
 8904SOL    HW138348   1.109   0.908   5.494 -0.8716 -0.3979 -1.6216
 8904SOL    HW238349   1.059   0.885   5.628 -1.1688 -1.6514 -0.6644
 8905SOL     OW38350   0.773   0.009   7.721  0.0276 -0.1927 -0.0709
 8905SOL    HW138351   0.798   4.716   7.634 -0.0048  2.4484 -0.9824
 8905SOL    HW238352   0.705   0.073   7.699  0.0013 -0.5188 -0.9251
 8906SOL     OW38353   0.684   2.759  11.658  0.1737 -0.5605  0.4267
 8906SOL    HW138354   0.607   2.731  11.709 -0.2633 -0.3312 -0.1093
 8906SOL    HW238355   0.748   2.754  11.729  1.2342 -2.3145 -0.6525
 8907SOL     OW38356   3.617   3.053   9.048 -0.1199  0.3369 -0.3135
 8907SOL    HW138357   3.597   3.104   9.126  1.1627 -0.7080  0.6920
 8907SOL    HW238358   3.569   3.100   8.980 -0.3117  1.1620  0.3959
 8908SOL     OW38359   2.224   3.659   3.500 -0.0458 -0.4799 -0.3874
 8908SOL    HW138360   2.313   3.696   3.501 -0.2124 -0.1374  1.1577
 8908SOL    HW238361   2.203   3.655   3.593  0.1412 -0.4643 -0.3444
 8909SOL     OW38362   2.486   2.677  13.463 -0.0625 -0.0732 -0.0272
 8909SOL    HW138363   2.575   2.693  13.431  0.3448 -0.4295  0.9079
 8909SOL    HW238364   2.439   2.759  13.447  0.0311 -0.1325 -0.6146
 8910SOL     OW38365   1.702   4.213   4.643 -0.3126 -0.5732 -0.2617
 8910SOL    HW138366   1.797   4.219   4.630 -0.3852 -0.2742 -0.6671
 8910SOL    HW238367   1.701   4.190   4.736 -0.0029  2.0278  0.3861
 8911SOL     OW38368   0.780   2.184  10.029 -0.0172  0.5273  0.1137
 8911SOL    HW138369   0.786   2.095  10.066 -2.8469  1.3867  2.5989
 8911SOL    HW238370   0.719   2.157   9.960  1.5675  0.1956 -1.1691
 8912SOL     OW38371   2.399   2.004  17.175 -0.2013  0.1839  1.0822
 8912SOL    HW138372   2.325   2.036  17.227 -0.1399  2.0863 -0.0141
 8912SOL    HW238373   2.384   2.033  17.085 -1.2039 -0.5053  1.0321
 8913SOL     OW38374   4.100   1.842  16.561 -0.1699  0.0657  0.5201
 8913SOL    HW138375   4.105   1.765  16.617 -2.8270 -1.2198 -0.9775
 8913SOL    HW238376   4.006   1.859  16.568  0.0224  1.9723 -1.2374
 8914SOL     OW38377   4.609   3.168  17.534 -0.0530 -0.4973 -0.1960
 8914SOL    HW138378   4.547   3.219  17.586  1.7708  0.9589  0.5363
 8914SOL    HW238379   4.583   3.077  17.551 -0.8363 -0.5195 -1.5309
 8915SOL     OW38380   3.449   3.959   7.825  0.1012  0.0772 -0.1571
 8915SOL    HW138381   3.489   3.875   7.849  2.5193  2.0928  2.8863
 8915SOL    HW238382   3.362   3.930   7.798 -0.5586  1.4467  0.4550
 8916SOL     OW38383   2.449   0.179   6.621  0.2905 -0.3177  0.0165
 8916SOL    HW138384   2.413   0.167   6.533  1.8022 -0.8457 -0.5298
 8916SOL    HW238385   2.421   0.269   6.636  0.7420 -0.3126  0.8616
 8917SOL     OW38386   2.299   3.376   4.416  0.1496  0.2621  0.2433
 8917SOL    HW138387   2.265   3.392   4.328 -1.9173 -0.1903  0.9646
 8917SOL    HW238388   2.369   3.315   4.393 -0.2929  0.2222 -1.0202
 8918SOL     OW38389   0.635   4.212  13.364 -0.2345 -0.0937 -0.3033
 8918SOL    HW138390   0.579   4.147  13.405 -0.7278  1.0679  0.8490
 8918SOL    HW238391   0.595   4.220  13.277 -1.9607  1.4514  0.6448
 8919SOL     OW38392   1.661   2.389   0.915  0.0303  0.4543 -0.0022
 8919SOL    HW138393   1.693   2.475   0.889  1.3420  0.2218  0.8480
 8919SOL    HW238394   1.567   2.409   0.911  0.1718  1.4352  1.7197
 8920SOL     OW38395   3.875   2.690   8.361  0.4739 -0.2423  0.0398
 8920SOL    HW138396   3.846   2.759   8.301 -1.5521 -1.5905 -0.5249
 8920SOL    HW238397   3.794   2.645   8.387 -1.2890  2.4069 -0.7683
 8921SOL     OW38398   3.529   3.332   7.898 -0.5087  0.1778 -0.6922
 8921SOL    HW138399   3.438   3.305   7.896 -0.6446  0.5510  0.4352
 8921SOL    HW238400   3.546   3.336   7.992  2.3685 -0.2194 -1.1839
 8922SOL     OW38401   3.283   2.597  11.005 -0.1336  0.6066 -0.1659
 8922SOL    HW138402   3.275   2.591  11.100 -2.6645 -1.9886 -0.5417
 8922SOL    HW238403   3.219   2.531  10.978  0.4508 -1.1671  2.8116
 8923SOL     OW38404   3.331   2.048   5.677 -0.4463  0.4777 -0.0689
 8923SOL    HW138405   3.287   2.132   5.692 -1.9169 -0.2620 -0.2703
 8923SOL    HW238406   3.356   2.026   5.767 -0.8622 -1.5604 -0.4625
 8924SOL     OW38407   0.793   0.092   4.371 -0.2439 -0.3053 -0.2275
 8924SOL    HW138408   0.721   0.115   4.312 -1.1618 -0.7590  0.7180
 8924SOL    HW238409   0.785   4.733   4.371 -0.9954 -0.2380  0.2201
 8925SOL     OW38410   3.523   0.651   8.994 -0.1340 -0.3936  0.0304
 8925SOL    HW138411   3.461   0.619   8.929  0.3862  0.2917 -0.8193
 8925SOL    HW238412   3.579   0.710   8.943  2.3398 -3.0731 -0.3878
 8926SOL     OW38413   0.091   4.399   0.705  0.2823  0.2590 -0.3477
 8926SOL    HW138414   0.109   4.370   0.794  1.0987  1.2773 -0.1779
 8926SOL    HW238415   0.175   4.399   0.659  0.4589  1.6667 -0.0339
 8927SOL     OW38416   2.938   3.349  17.667 -0.0577  0.3189 -0.3572
 8927SOL    HW138417   2.927   3.409  17.741  0.5442 -1.5109  1.2229
 8927SOL    HW238418   2.961   3.409  17.595 -0.1822  2.1593  1.1360
 8928SOL     OW38419   0.657   0.556   1.413 -0.3445  0.2703 -0.2526
 8928SOL    HW138420   0.717   0.578   1.485  1.4890 -3.0110 -0.8070
 8928SOL    HW238421   0.672   0.628   1.352 -1.0553 -0.1988 -0.9650
 8929SOL     OW38422   0.459   0.480  11.529 -0.0248 -0.1545  0.1686
 8929SOL    HW138423   0.513   0.408  11.496  1.0307  0.9442 -0.5129
 8929SOL    HW238424   0.406   0.428  11.589 -1.3250  1.0787  0.0738
 8930SOL     OW38425   2.690   0.733   9.146 -0.1345 -0.3195  0.5297
 8930SOL    HW138426   2.785   0.721   9.136 -0.2935 -1.2634  0.0985
 8930SOL    HW238427   2.690   0.685   9.229  0.0324 -0.6985  0.3152
 8931SOL     OW38428   2.328   4.056   1.570 -0.0725  0.5408  0.1794
 8931SOL    HW138429   2.314   3.963   1.587 -0.9972  0.5989 -0.2441
 8931SOL    HW238430   2.311   4.057   1.476  1.9620 -0.3722 -0.1899
 8932SOL     OW38431   0.400   3.800   8.037 -0.1780  0.1924  0.6375
 8932SOL    HW138432   0.412   3.833   8.126 -0.3613  1.7543  0.0785
 8932SOL    HW238433   0.378   3.708   8.052 -1.1725  0.4276  0.6141
 8933SOL     OW38434   4.484   4.611   0.861 -0.3811  0.0615  0.1374
 8933SOL    HW138435   4.479   4.546   0.790 -0.4850  0.2659 -0.0405
 8933SOL    HW238436   4.428   4.572   0.928 -0.7733 -0.2281 -0.3576
 8934SOL     OW38437   2.511   0.965   5.706 -0.2686  0.0610  0.0587
 8934SOL    HW138438   2.478   0.955   5.795  1.2770  3.7749  1.0347
 8934SOL    HW238439   2.602   0.987   5.724 -0.1014 -1.4228  1.0115
 8935SOL     OW38440   3.923   2.979   1.202 -0.2675  0.1602  0.5419
 8935SOL    HW138441   3.874   3.006   1.279 -1.5039 -0.3292 -0.0759
 8935SOL    HW238442   3.976   2.907   1.235  2.5696  1.6250 -0.8377
 8936SOL     OW38443   1.675   2.341   1.486 -0.5907 -0.2755 -0.1376
 8936SOL    HW138444   1.742   2.408   1.473 -1.6700  0.5504 -1.5479
 8936SOL    HW238445   1.705   2.269   1.430  1.7974  1.5311 -1.1999
 8937SOL     OW38446   4.494   2.626  10.518  0.1368  0.3873  0.4478
 8937SOL    HW138447   4.470   2.714  10.489 -0.7474  1.2223  3.7318
 8937SOL    HW238448   4.449   2.572  10.453  1.6892 -0.7917  0.3313
 8938SOL     OW38449   0.895   4.234   5.247 -0.8240  0.1755 -0.7820
 8938SOL    HW138450   0.866   4.180   5.173 -1.0070 -0.7876 -0.0131
 8938SOL    HW238451   0.927   4.169   5.308 -1.4812 -1.3325 -2.0321
 8939SOL     OW38452   1.686   4.626   6.241 -0.1625 -0.5529 -0.9258
 8939SOL    HW138453   1.657   4.646   6.153 -0.0400  0.6095 -0.6949
 8939SOL    HW238454   1.630   4.549   6.253  0.8076 -1.0923  0.1540
 8940SOL     OW38455   0.696   1.787   6.784  0.1925 -0.2464  0.3144
 8940SOL    HW138456   0.640   1.739   6.845  2.0351  0.6832  2.7221
 8940SOL    HW238457   0.726   1.709   6.736  2.6894  1.6576 -1.1897
 8941SOL     OW38458   3.882   0.823  14.989  0.7180 -0.4671  0.2223
 8941SOL    HW138459   3.943   0.794  14.921 -1.9969  0.5405 -2.6708
 8941SOL    HW238460   3.843   0.904  14.954 -0.9000 -0.4795  1.9871
 8942SOL     OW38461   4.427   0.841   6.534  0.1333  0.4617  0.4315
 8942SOL    HW138462   4.462   0.756   6.561 -0.3455 -0.3361 -1.4692
 8942SOL    HW238463   4.418   0.832   6.439 -0.3051 -1.7364  0.6686
 8943SOL     OW38464   0.092   4.206   8.663  0.1775 -0.4329 -0.3772
 8943SOL    HW138465   0.012   4.158   8.641  0.5408 -1.7594  1.2491
 8943SOL    HW238466   0.078   4.289   8.619 -0.7414 -0.6927 -0.5829
 8944SOL     OW38467   1.491   4.574  11.097 -0.4625  0.2920  0.1466
 8944SOL    HW138468   1.550   4.646  11.073  0.3050 -0.1626  0.6672
 8944SOL    HW238469   1.417   4.582  11.036 -1.7948  1.3286  1.9047
 8945SOL     OW38470   3.398   1.057   7.622  0.1011  0.0514  0.2205
 8945SOL    HW138471   3.416   1.029   7.712 -2.4375  1.7043  1.2424
 8945SOL    HW238472   3.331   1.125   7.628  0.8097  0.7308  0.3473
 8946SOL     OW38473   4.157   2.236  12.996 -0.7630  0.5927  0.2865
 8946SOL    HW138474   4.138   2.330  12.997 -0.4129  0.6822 -1.7759
 8946SOL    HW238475   4.072   2.200  13.021  0.6701 -1.4198  2.2481
 8947SOL     OW38476   0.052   1.389   4.628  0.6338  0.7190  0.5400
 8947SOL    HW138477   0.101   1.353   4.554  0.0630 -2.2146  1.5773
 8947SOL    HW238478   0.039   1.477   4.593  0.8298  0.2178 -0.7607
 8948SOL     OW38479   1.778   1.089   5.099 -0.3350  0.1522 -0.3645
 8948SOL    HW138480   1.819   1.018   5.149  1.0915  1.0895 -0.1957
 8948SOL    HW238481   1.694   1.047   5.084 -0.1153 -0.2952 -0.3576
 8949SOL     OW38482   1.189   3.352   0.216 -1.2352  0.4976  0.0621
 8949SOL    HW138483   1.122   3.414   0.186 -0.1079  1.8544  0.3169
 8949SOL    HW238484   1.243   3.410   0.269 -0.6496  1.8739 -2.0486
 8950SOL     OW38485   3.499   2.662  10.461 -0.2875  0.1094 -0.3188
 8950SOL    HW138486   3.532   2.750  10.478  0.3919  0.3651 -3.0020
 8950SOL    HW238487   3.409   2.670  10.493 -0.5305  0.6319 -1.1412
 8951SOL     OW38488   2.940   1.697   2.007 -0.3326  0.1398  0.1565
 8951SOL    HW138489   2.886   1.663   2.078  0.0167  0.7160  0.6945
 8951SOL    HW238490   2.985   1.622   1.966  0.8338  0.2933  1.1543
 8952SOL     OW38491   2.470   2.467   9.904 -0.4166  0.0710  0.2231
 8952SOL    HW138492   2.379   2.446   9.926 -1.0500  0.8797 -1.6544
 8952SOL    HW238493   2.506   2.508   9.983  0.1565 -1.2591  0.6517
 8953SOL     OW38494   1.266   1.839   6.321  0.2081 -0.5779  0.1497
 8953SOL    HW138495   1.206   1.801   6.386  0.6232  1.5999  1.8032
 8953SOL    HW238496   1.349   1.798   6.345 -0.1990 -1.4690  0.0541
 8954SOL     OW38497   2.359   3.095   9.084  0.4104 -0.0710 -0.1216
 8954SOL    HW138498   2.444   3.131   9.109  0.8782 -1.2152 -0.0514
 8954SOL    HW238499   2.349   3.034   9.157  2.4989 -0.8331 -0.4524
 8955SOL     OW38500   0.836   4.250   2.782 -0.0408 -0.0595  0.2727
 8955SOL    HW138501   0.914   4.204   2.814 -0.0944  0.4135  1.0862
 8955SOL    HW238502   0.856   4.249   2.688 -1.9539  0.5583 -0.1290
 8956SOL     OW38503   1.001   2.743   5.810  0.1952  0.1221 -0.1482
 8956SOL    HW138504   0.934   2.794   5.765 -0.1186 -0.2032 -0.0485
 8956SOL    HW238505   1.005   2.664   5.757 -0.3596 -0.1574  0.2204
 8957SOL     OW38506   3.109   2.266  15.770 -0.1421 -0.4641  0.8034
 8957SOL    HW138507   3.082   2.190  15.718 -1.0375 -0.1220  0.7764
 8957SOL    HW238508   3.203   2.247  15.778 -0.1623 -1.7335 -1.7914
 8958SOL     OW38509   4.139   3.835  11.496 -0.5569  0.5516  0.0032
 8958SOL    HW138510   4.125   3.833  11.591 -0.2971 -1.5939 -0.0053
 8958SOL    HW238511   4.063   3.784  11.470 -1.3353  1.6397  0.1547
 8959SOL     OW38512   2.615   3.803   3.823 -0.3267 -0.0766  1.2357
 8959SOL    HW138513   2.633   3.785   3.916 -0.2768  0.1961  1.2784
 8959SOL    HW238514   2.674   3.878   3.815  0.7109 -0.9832  0.4665
 8960SOL     OW38515   2.282   1.265   1.218 -0.4410  0.2527 -0.5666
 8960SOL    HW138516   2.375   1.287   1.220 -0.7731  1.3941  1.9624
 8960SOL    HW238517   2.293   1.177   1.180  1.8006  0.1062  0.3854
 8961SOL     OW38518   2.918   3.522   3.782  0.2980  0.0626 -0.1625
 8961SOL    HW138519   2.959   3.444   3.744  0.9716  0.5034 -0.3396
 8961SOL    HW238520   2.986   3.536   3.847  0.6779 -2.9580  0.0839
 8962SOL     OW38521   3.675   3.780  13.053 -0.1422  0.3778  0.6985
 8962SOL    HW138522   3.638   3.866  13.074  1.2650  1.0147  0.5369
 8962SOL    HW238523   3.756   3.795  13.005  0.3759 -0.5200  1.2990
 8963SOL     OW38524   2.518   4.620  16.547 -0.2078  0.8109 -0.1001
 8963SOL    HW138525   2.578   4.659  16.484 -0.2437 -0.3023 -0.8247
 8963SOL    HW238526   2.437   4.642  16.502 -0.7418 -0.1101  0.4175
 8964SOL     OW38527   0.717   0.654   1.676  0.0304 -0.2472  0.3479
 8964SOL    HW138528   0.773   0.729   1.697 -0.1521 -0.1923  0.6291
 8964SOL    HW238529   0.628   0.687   1.681 -0.1449 -1.0382  2.2289
 8965SOL     OW38530   1.673   0.965   8.480 -0.1749 -0.0640 -0.2837
 8965SOL    HW138531   1.664   0.969   8.576  1.9531  2.8501 -0.1985
 8965SOL    HW238532   1.680   0.870   8.469  1.4446  0.0953 -0.7067
 8966SOL     OW38533   1.808   0.041  10.675 -0.3905  0.0802 -0.1564
 8966SOL    HW138534   1.732   0.096  10.690 -1.6830 -1.8658  0.3475
 8966SOL    HW238535   1.851   0.091  10.605 -1.7990 -0.0490 -1.0968
 8967SOL     OW38536   4.119   2.557   6.978  0.2092 -0.2291 -0.4311
 8967SOL    HW138537   4.091   2.601   7.059 -0.1429 -0.3766 -0.4720
 8967SOL    HW238538   4.155   2.625   6.921 -0.4349 -1.1862 -1.9763
 8968SOL     OW38539   3.705   1.480   5.304  0.1329  0.2550 -0.5574
 8968SOL    HW138540   3.656   1.526   5.372 -0.0451 -0.2566 -0.3438
 8968SOL    HW238541   3.658   1.500   5.223  2.1205 -1.1673 -2.0646
 8969SOL     OW38542   0.397   0.092   9.522  0.2308  0.2204 -0.2170
 8969SOL    HW138543   0.433   0.108   9.435  0.7393 -1.1030 -0.2604
 8969SOL    HW238544   0.407   0.182   9.553  0.6773 -0.7562  2.5067
 8970SOL     OW38545   0.373   2.865  11.585 -0.2082  0.0220  0.5901
 8970SOL    HW138546   0.322   2.917  11.523  1.9925  1.4469 -0.0060
 8970SOL    HW238547   0.434   2.831  11.519 -1.1429  0.3057 -0.4212
 8971SOL     OW38548   4.524   3.277   2.286  0.1017  0.6915 -0.2677
 8971SOL    HW138549   4.486   3.364   2.299 -0.5128  0.4586 -0.4738
 8971SOL    HW238550   4.524   3.274   2.190 -1.9444 -2.1692 -0.1691
 8972SOL     OW38551   3.336   3.017  13.054  0.0918 -0.5768  0.1799
 8972SOL    HW138552   3.393   2.989  12.983 -0.3126 -0.6742 -0.1075
 8972SOL    HW238553   3.396   3.064  13.112  0.3264 -0.6359 -0.0186
 8973SOL     OW38554   0.100   4.524   8.916 -0.5359 -0.8184  0.2529
 8973SOL    HW138555   0.175   4.499   8.861 -0.6305  0.6329 -0.5313
 8973SOL    HW238556   0.131   4.479   8.995 -1.3448 -2.1097 -0.1571
 8974SOL     OW38557   0.698   1.760   3.939  0.1069  0.1529  0.5604
 8974SOL    HW138558   0.729   1.762   3.849 -1.8445 -2.4435 -0.1701
 8974SOL    HW238559   0.604   1.749   3.929 -0.1762  2.4680  0.6722
 8975SOL     OW38560   4.353   4.028   6.776  0.2769 -0.1693 -0.0979
 8975SOL    HW138561   4.267   4.005   6.740 -0.5837  1.6948  0.7593
 8975SOL    HW238562   4.328   4.087   6.848 -0.6285 -1.9839  1.0785
 8976SOL     OW38563   1.604   3.365   7.273 -0.0230  0.7918  0.3585
 8976SOL    HW138564   1.662   3.429   7.232 -0.7206  0.4032 -1.2389
 8976SOL    HW238565   1.591   3.402   7.360 -1.2176  2.3119 -0.4705
 8977SOL     OW38566   1.986   2.047   1.742  0.1974  0.6813 -0.0093
 8977SOL    HW138567   2.004   2.125   1.794 -1.9901 -0.2663  2.1906
 8977SOL    HW238568   1.891   2.052   1.726  0.0414  0.4903  0.8498
 8978SOL     OW38569   1.525   1.261   8.492 -0.3592  0.2002 -0.1901
 8978SOL    HW138570   1.609   1.237   8.529  1.2664  1.7569 -2.8714
 8978SOL    HW238571   1.547   1.345   8.453  1.9350 -1.4381 -2.4504
 8979SOL     OW38572   2.950   2.481   3.242  0.6078  0.4300  0.2441
 8979SOL    HW138573   2.999   2.554   3.281  0.4438  1.0202 -0.6530
 8979SOL    HW238574   3.027   2.442   3.200 -1.0121  0.3512 -2.6601
 8980SOL     OW38575   0.995   1.937   7.558  0.3763 -0.0187  1.0517
 8980SOL    HW138576   0.928   1.911   7.621  0.0665 -0.4894  0.5315
 8980SOL    HW238577   1.076   1.941   7.609  0.1055 -1.6304  1.5952
 8981SOL     OW38578   0.954   0.411   3.064 -0.0562 -0.2280 -0.1204
 8981SOL    HW138579   0.865   0.440   3.080  0.2213  0.0937  0.8711
 8981SOL    HW238580   0.985   0.384   3.151  0.5858 -2.2367 -0.9496
 8982SOL     OW38581   3.482   2.926   8.593 -0.5350  0.2589 -0.2271
 8982SOL    HW138582   3.545   2.883   8.652 -0.4537 -1.3353 -1.4539
 8982SOL    HW238583   3.405   2.919   8.649 -0.7235  1.1958 -0.3682
 8983SOL     OW38584   4.119   1.434   8.979 -0.3145  0.1015 -0.7496
 8983SOL    HW138585   4.033   1.435   9.020 -1.4315 -0.4898 -3.0756
 8983SOL    HW238586   4.168   1.386   9.046 -0.5368  1.2951  0.2745
 8984SOL     OW38587   1.171   3.427   2.804 -0.3338  0.4939 -0.2934
 8984SOL    HW138588   1.262   3.428   2.835  0.6174 -1.3971 -2.9996
 8984SOL    HW238589   1.165   3.452   2.712  1.8496 -0.5668 -0.7308
 8985SOL     OW38590   1.039   1.897   2.466 -0.0786  0.4386 -0.3487
 8985SOL    HW138591   1.131   1.888   2.441 -0.7091 -0.8148 -2.2240
 8985SOL    HW238592   1.056   1.898   2.560  1.4908  0.4407 -0.6398
 8986SOL     OW38593   2.906   0.925  11.196  0.3430 -0.2493 -0.1286
 8986SOL    HW138594   2.988   0.965  11.226  0.0545  0.6231 -0.4829
 8986SOL    HW238595   2.839   0.992  11.209  1.0458  0.4633 -0.1718
 8987SOL     OW38596   2.760   1.059   6.884  0.2412  0.1039 -0.2107
 8987SOL    HW138597   2.707   1.136   6.902  1.5232  1.5950 -2.7633
 8987SOL    HW238598   2.813   1.092   6.811 -0.4885  0.8839 -0.3780
 8988SOL     OW38599   2.443   4.534   3.232 -0.3651  0.7325 -0.4561
 8988SOL    HW138600   2.418   4.450   3.270  0.6682  0.3260 -0.6572
 8988SOL    HW238601   2.374   4.587   3.272  1.6765  1.9025  1.5492
 8989SOL     OW38602   1.840   2.016   7.561  0.5539 -0.0684  0.0717
 8989SOL    HW138603   1.862   2.080   7.493  0.1473 -0.5800 -0.5528
 8989SOL    HW238604   1.893   2.043   7.636  0.1714  0.3397  0.1893
 8990SOL     OW38605   3.190   0.810  15.170 -0.2585  0.1485 -0.2923
 8990SOL    HW138606   3.262   0.789  15.111  1.0533 -0.9921  1.7072
 8990SOL    HW238607   3.222   0.769  15.250  1.6383  0.6966 -0.7740
 8991SOL     OW38608   2.947   0.758   9.318 -0.4835 -0.1687  0.3962
 8991SOL    HW138609   2.995   0.677   9.338 -1.8919 -1.1863 -0.3662
 8991SOL    HW238610   2.950   0.804   9.402  3.0255  0.4042 -0.0341
 8992SOL     OW38611   2.203   4.609   6.327  0.0736  0.2564  0.4353
 8992SOL    HW138612   2.227   4.672   6.395 -0.5608  0.3996  0.5294
 8992SOL    HW238613   2.143   4.567   6.388 -0.6460  0.6409 -0.0066
 8993SOL     OW38614   0.175   3.228   9.582 -0.2443  0.2858  0.4933
 8993SOL    HW138615   0.161   3.308   9.633 -0.6744  0.2754  0.3956
 8993SOL    HW238616   0.229   3.263   9.512 -0.2727 -0.1490  0.2526
 8994SOL     OW38617   2.048   1.432   7.255 -0.5287 -0.4469  0.1554
 8994SOL    HW138618   1.984   1.456   7.322  0.0210 -1.4950  1.0483
 8994SOL    HW238619   2.088   1.516   7.235 -0.2486 -0.8033 -0.7931
 8995SOL     OW38620   3.464   1.479   7.926 -0.6939  0.3522  0.8018
 8995SOL    HW138621   3.424   1.526   8.000 -1.1220 -0.4261  1.0651
 8995SOL    HW238622   3.385   1.432   7.898  0.7925 -0.0413 -2.7275
 8996SOL     OW38623   3.304   1.998   7.561  0.1127 -0.1224  0.7215
 8996SOL    HW138624   3.209   1.999   7.574  0.1696 -0.0687  1.1132
 8996SOL    HW238625   3.316   1.950   7.478 -0.8253 -1.7055  1.4979
 8997SOL     OW38626   4.676   3.137  16.712 -0.5751  0.4580  0.1038
 8997SOL    HW138627   4.595   3.087  16.705  0.0249 -0.9068  2.9374
 8997SOL    HW238628   4.724   3.097  16.639  0.3228 -1.0861  1.5599
 8998SOL     OW38629   2.875   1.089  12.761  0.2892  0.0427 -0.5071
 8998SOL    HW138630   2.965   1.057  12.755  0.2537 -0.4327  1.7102
 8998SOL    HW238631   2.864   1.167  12.706 -1.6151 -0.4050 -0.7714
 8999SOL     OW38632   0.311   0.588  17.286 -0.2552  0.2105 -0.4558
 8999SOL    HW138633   0.374   0.602  17.215  0.4848  1.4349  0.4385
 8999SOL    HW238634   0.254   0.663  17.270 -1.4095 -0.3090  1.3402
 9000SOL     OW38635   1.980   2.170   2.161 -0.3573 -0.0722  0.0980
 9000SOL    HW138636   1.967   2.132   2.248  0.7485  0.8025  0.6474
 9000SOL    HW238637   2.018   2.098   2.111  0.9341 -0.3168  1.4325
 9001SOL     OW38638   2.520   4.512  15.684 -0.2366  0.0627 -0.2742
 9001SOL    HW138639   2.472   4.576  15.631 -2.1649 -0.5968  0.6837
 9001SOL    HW238640   2.497   4.541  15.773  2.4488 -0.2954  0.5336
 9002SOL     OW38641   2.854   1.619   4.104 -0.2700 -0.0619  0.3833
 9002SOL    HW138642   2.865   1.714   4.110  0.4198  0.0861 -2.8658
 9002SOL    HW238643   2.892   1.618   4.016  0.0051  0.2257  0.4949
 9003SOL     OW38644   2.824   1.918   4.675 -0.6377 -0.4903 -0.3296
 9003SOL    HW138645   2.870   2.002   4.682 -2.6614  0.5796  0.1825
 9003SOL    HW238646   2.889   1.855   4.705  0.1380  0.2866 -0.3917
 9004SOL     OW38647   3.763   4.623  10.104  0.3210 -0.3152  0.7522
 9004SOL    HW138648   3.728   4.605  10.017  0.6582  1.3882  0.2702
 9004SOL    HW238649   3.851   4.641  10.070 -0.1693  0.4962 -0.0933
 9005SOL     OW38650   1.356   3.655   7.706  0.0056  0.0891  0.2820
 9005SOL    HW138651   1.425   3.718   7.728  0.7378 -0.2681 -1.0007
 9005SOL    HW238652   1.339   3.628   7.796 -0.4803  0.1018  0.1960
 9006SOL     OW38653   0.890   3.868   1.964  0.2122 -0.7346 -0.0772
 9006SOL    HW138654   0.867   3.784   1.924  0.1806 -0.1647 -1.2768
 9006SOL    HW238655   0.873   3.924   1.888  0.3406 -0.9104 -0.2342
 9007SOL     OW38656   0.463   3.153   1.149 -0.2136 -0.1421  0.4867
 9007SOL    HW138657   0.515   3.090   1.098  1.2596  1.0237  0.5306
 9007SOL    HW238658   0.386   3.161   1.093  0.6376 -0.2634 -0.7069
 9008SOL     OW38659   2.418   4.304   7.473  0.1230  0.0103 -0.1075
 9008SOL    HW138660   2.363   4.263   7.540  1.2865 -1.3088  0.0113
 9008SOL    HW238661   2.355   4.350   7.417 -0.7114  0.4695  1.2127
 9009SOL     OW38662   0.470   1.776   2.383 -0.5004 -0.2942  0.0229
 9009SOL    HW138663   0.539   1.807   2.442  0.7061 -4.4211  0.7463
 9009SOL    HW238664   0.421   1.734   2.454  1.6883 -0.4527  1.4351
 9010SOL     OW38665   3.736   1.872   2.888 -0.1956  0.0035 -0.5025
 9010SOL    HW138666   3.691   1.825   2.958  0.3027  1.4323  0.7688
 9010SOL    HW238667   3.687   1.953   2.878  0.2939  0.0956 -2.1353
 9011SOL     OW38668   4.469   0.835   1.434 -0.4701 -0.1523  0.1648
 9011SOL    HW138669   4.470   0.851   1.529  1.8944  0.3937  0.0383
 9011SOL    HW238670   4.377   0.823   1.409 -0.3913 -2.9314  1.1817
 9012SOL     OW38671   3.209   0.372   8.453  0.4905 -0.2572 -0.4362
 9012SOL    HW138672   3.237   0.336   8.369  5.4518 -3.2298  2.5088
 9012SOL    HW238673   3.258   0.454   8.451 -3.3276  2.0584  0.4629
 9013SOL     OW38674   2.897   0.171   6.998 -0.3887  0.0749 -0.2310
 9013SOL    HW138675   2.862   0.252   6.963 -1.4277  0.1777  1.0587
 9013SOL    HW238676   2.943   0.195   7.078 -2.0840  0.1669  0.7044
 9014SOL     OW38677   1.511   0.421   1.427  0.1394 -0.0655  0.8222
 9014SOL    HW138678   1.425   0.439   1.390  0.7011  1.7081  0.3618
 9014SOL    HW238679   1.499   0.477   1.504 -0.7023 -1.3878  1.6436
 9015SOL     OW38680   0.551   0.905  14.113  0.1117  0.4311 -0.0912
 9015SOL    HW138681   0.600   0.913  14.195  0.3811  2.2604 -0.4296
 9015SOL    HW238682   0.459   0.916  14.138 -0.4493 -0.9144 -1.5493
 9016SOL     OW38683   3.288   1.538  11.377  0.2240 -0.2055 -0.1661
 9016SOL    HW138684   3.245   1.453  11.370 -2.8909  1.3373  0.2495
 9016SOL    HW238685   3.278   1.559  11.284 -1.7066  2.8588  0.7540
 9017SOL     OW38686   4.102   1.355   5.402  0.0207 -0.4327  0.0573
 9017SOL    HW138687   4.137   1.405   5.328  1.8981 -2.5441 -0.4892
 9017SOL    HW238688   4.043   1.420   5.441 -0.8000 -0.4774 -1.1225
 9018SOL     OW38689   3.259   3.747   4.503  0.3423 -0.1612 -0.1662
 9018SOL    HW138690   3.341   3.796   4.489  0.9905 -0.7005  1.8325
 9018SOL    HW238691   3.220   3.793   4.577  0.9945  1.8761 -1.0739
 9019SOL     OW38692   1.683   2.203  10.595  0.2445  0.3295 -0.0262
 9019SOL    HW138693   1.764   2.249  10.615  1.6557 -2.1487 -0.0626
 9019SOL    HW238694   1.665   2.221  10.503 -0.3681 -2.5190 -0.4507
 9020SOL     OW38695   0.544   0.184  10.519 -0.1919 -0.0895 -0.3775
 9020SOL    HW138696   0.621   0.236  10.542  0.7245 -0.3545 -2.7942
 9020SOL    HW238697   0.532   0.138  10.602 -0.0696  1.5239  0.5246
 9021SOL     OW38698   3.181   1.563   2.302 -0.1605 -0.5217  0.1063
 9021SOL    HW138699   3.215   1.549   2.391  1.1359  0.6718 -0.1966
 9021SOL    HW238700   3.224   1.494   2.251 -0.4336 -0.1169 -0.6549
 9022SOL     OW38701   1.750   1.431   8.038  0.4070  0.4164 -0.0572
 9022SOL    HW138702   1.817   1.378   7.996  0.2770 -0.3064  0.6398
 9022SOL    HW238703   1.696   1.463   7.966 -0.7116 -1.0398  0.1228
 9023SOL     OW38704   1.136   2.731  12.362 -0.0012  0.6784 -0.4954
 9023SOL    HW138705   1.194   2.709  12.289  0.1791  1.8441 -0.7036
 9023SOL    HW238706   1.064   2.758  12.305 -0.0732 -0.8811 -1.1380
 9024SOL     OW38707   3.932   0.713   5.119  0.2376  0.5682  0.1807
 9024SOL    HW138708   3.996   0.652   5.082 -1.0794  0.7951 -2.4911
 9024SOL    HW238709   3.980   0.743   5.196  2.3036  1.2789 -1.3700
 9025SOL     OW38710   1.583   3.682  14.671 -0.0163  0.1940  0.1337
 9025SOL    HW138711   1.612   3.726  14.751 -0.1518  0.6046 -0.0428
 9025SOL    HW238712   1.667   3.652  14.637 -0.7978 -0.8966 -0.8416
 9026SOL     OW38713   2.607   0.790   5.149 -0.6268 -0.0977  0.0346
 9026SOL    HW138714   2.649   0.707   5.172 -1.2227 -0.3281  0.2899
 9026SOL    HW238715   2.626   0.790   5.055  0.9828 -3.4625  0.3499
 9027SOL     OW38716   3.465   2.361  11.682 -0.0488  0.2447 -0.0693
 9027SOL    HW138717   3.440   2.343  11.592 -0.5225  1.7676 -0.2453
 9027SOL    HW238718   3.465   2.273  11.719 -2.5168  0.2427 -0.0682
 9028SOL     OW38719   4.679   3.143  10.202 -0.0976  0.3247 -0.2824
 9028SOL    HW138720   4.688   3.058  10.244 -2.1358 -1.1117 -2.7548
 9028SOL    HW238721   4.599   3.176  10.241 -0.7683  0.3386 -1.6575
 9029SOL     OW38722   0.768   0.960  10.228  0.2455  0.2463  0.1800
 9029SOL    HW138723   0.846   1.015  10.230  0.2114  0.3309 -0.5418
 9029SOL    HW238724   0.807   0.876  10.253  1.6489  1.2555  1.3634
 9030SOL     OW38725   1.416   1.913   5.913 -0.5249 -0.3682 -0.3701
 9030SOL    HW138726   1.409   1.831   5.962  0.3800 -0.5110 -0.4858
 9030SOL    HW238727   1.511   1.909   5.901 -0.5244 -0.4430 -0.3357
 9031SOL     OW38728   1.991   4.129   6.556  0.2478  0.2197  0.0505
 9031SOL    HW138729   1.955   4.041   6.566 -0.6363  0.5684 -0.0804
 9031SOL    HW238730   2.026   4.135   6.467 -1.6293 -0.8492 -0.7518
 9032SOL     OW38731   2.495   2.917   7.799 -0.0181  0.2095 -0.1860
 9032SOL    HW138732   2.577   2.867   7.804 -0.4019 -0.0246  3.5179
 9032SOL    HW238733   2.450   2.884   7.721 -0.2926  1.2930 -0.4870
 9033SOL     OW38734   2.298   2.744  14.369  0.1441 -0.3494 -0.5289
 9033SOL    HW138735   2.234   2.814  14.356 -0.1698 -0.0764  2.4842
 9033SOL    HW238736   2.368   2.795  14.409 -0.9121 -0.1144  1.0228
 9034SOL     OW38737   0.410   2.473   3.448  0.2791 -0.5202  0.5102
 9034SOL    HW138738   0.420   2.463   3.543  1.0250  0.4198  0.5240
 9034SOL    HW238739   0.374   2.561   3.447 -1.5704 -1.2637  1.0768
 9035SOL     OW38740   3.336   3.397   4.911  0.9304  0.6905  0.0910
 9035SOL    HW138741   3.405   3.424   4.972  1.6639  1.7395 -1.2020
 9035SOL    HW238742   3.366   3.436   4.829 -3.8767  0.3722 -1.8243
 9036SOL     OW38743   1.477   3.245   4.635  0.3612  0.5183  0.6332
 9036SOL    HW138744   1.407   3.212   4.578  0.1351 -0.5084  1.5016
 9036SOL    HW238745   1.548   3.248   4.571 -0.6823 -1.1452 -0.6054
 9037SOL     OW38746   1.071   2.344  15.998 -0.2865  0.2373  0.5377
 9037SOL    HW138747   0.983   2.306  16.006 -0.2712 -0.0195 -0.4452
 9037SOL    HW238748   1.115   2.262  15.977 -0.4768  0.0186  1.0023
 9038SOL     OW38749   0.236   1.029   1.424  0.6195 -0.3127  0.5614
 9038SOL    HW138750   0.175   1.021   1.497  1.4751 -2.9130  0.9836
 9038SOL    HW238751   0.178   1.068   1.359  0.8680  1.3253  1.3387
 9039SOL     OW38752   3.796   4.151  12.363 -0.5221 -0.0629 -0.1007
 9039SOL    HW138753   3.723   4.108  12.408 -1.3961  2.2030  0.6755
 9039SOL    HW238754   3.750   4.235  12.360  0.2641  0.3067 -1.5284
 9040SOL     OW38755   1.100   3.831   3.467  0.2603  0.0550 -0.2113
 9040SOL    HW138756   1.077   3.918   3.433  2.6964  0.7349 -0.1238
 9040SOL    HW238757   1.081   3.782   3.387 -0.3279  1.0383 -0.6920
 9041SOL     OW38758   1.959   2.522  12.372  0.1286  0.1877  0.2153
 9041SOL    HW138759   2.042   2.519  12.420  0.5026 -0.0827 -0.4578
 9041SOL    HW238760   1.915   2.442  12.400  1.3048 -0.2072  0.9258
 9042SOL     OW38761   1.141   2.260   0.892  0.2770  0.3200 -0.8231
 9042SOL    HW138762   1.065   2.217   0.853  0.2232 -0.0588 -0.3153
 9042SOL    HW238763   1.139   2.230   0.984  0.3238  1.4762 -0.4523
 9043SOL     OW38764   3.624   3.111   8.469 -0.3200 -0.0110 -0.1214
 9043SOL    HW138765   3.704   3.119   8.521 -1.1694 -0.3989  1.2378
 9043SOL    HW238766   3.575   3.037   8.505 -0.0558 -0.0646  0.1259
 9044SOL     OW38767   3.401   2.243   6.532 -0.1683  0.5086 -0.4489
 9044SOL    HW138768   3.412   2.184   6.606  0.1148  0.9422 -0.1425
 9044SOL    HW238769   3.408   2.326   6.579  0.0099 -0.7214  1.6624
 9045SOL     OW38770   4.618   3.130   9.146 -0.1861 -0.2891 -0.1391
 9045SOL    HW138771   4.533   3.085   9.152  0.8144 -2.1015  0.3657
 9045SOL    HW238772   4.657   3.057   9.098 -0.1095 -1.2290  1.3485
 9046SOL     OW38773   1.685   4.216   4.954 -0.5420 -0.3018  0.1832
 9046SOL    HW138774   1.728   4.276   5.014  0.5982  1.1008 -2.0515
 9046SOL    HW238775   1.727   4.130   4.959 -0.3429 -0.1414  1.1094
 9047SOL     OW38776   1.655   0.585   3.375  0.0334  0.1317  0.6198
 9047SOL    HW138777   1.584   0.648   3.367 -0.8379 -0.9072  0.1398
 9047SOL    HW238778   1.726   0.647   3.391  0.5110 -0.0399 -0.8360
 9048SOL     OW38779   1.740   3.549   2.780 -0.0684 -0.1471 -0.6030
 9048SOL    HW138780   1.784   3.616   2.727  2.8532 -2.0292 -0.5024
 9048SOL    HW238781   1.794   3.551   2.859 -2.2641 -1.8076  0.9587
 9049SOL     OW38782   3.932   2.157   5.968 -0.2327  0.0372  0.4474
 9049SOL    HW138783   3.893   2.125   6.049 -4.7064 -2.2435 -2.5764
 9049SOL    HW238784   3.914   2.251   5.972 -0.0552  0.1300 -0.9873
 9050SOL     OW38785   2.077   3.287   5.255 -0.1992  0.1258 -0.3036
 9050SOL    HW138786   2.112   3.200   5.236  2.0577  0.6166  1.6693
 9050SOL    HW238787   2.130   3.333   5.189 -1.2937  1.2890 -0.3791
 9051SOL     OW38788   4.524   0.250   7.811 -0.3399  0.5066 -0.5588
 9051SOL    HW138789   4.453   0.281   7.866 -0.3928  2.1792 -1.5791
 9051SOL    HW238790   4.504   0.288   7.726  0.3186 -0.3898 -1.1216
 9052SOL     OW38791   2.306   0.312   4.050 -0.4786  0.1225 -0.2678
 9052SOL    HW138792   2.347   0.227   4.068 -1.6755 -1.2427 -3.8869
 9052SOL    HW238793   2.217   0.297   4.018 -0.8312  0.5548  0.5268
 9053SOL     OW38794   1.406   3.858   3.559 -0.3868 -0.1543 -0.5207
 9053SOL    HW138795   1.449   3.773   3.554  1.1628  0.6118 -0.3073
 9053SOL    HW238796   1.324   3.849   3.510 -1.0668  0.2477  0.5433
 9054SOL     OW38797   2.082   0.218   5.202  0.0677  0.2355 -0.2411
 9054SOL    HW138798   2.060   0.311   5.213 -0.9480  0.0457 -0.6582
 9054SOL    HW238799   2.108   0.201   5.292  0.2911  1.2196 -0.1159
 9055SOL     OW38800   2.972   2.693   6.875  0.2136 -0.2293  0.4604
 9055SOL    HW138801   2.906   2.625   6.863  0.3866 -0.1662 -0.8503
 9055SOL    HW238802   3.029   2.656   6.807 -2.2355 -0.3298 -1.5568
 9056SOL     OW38803   4.098   0.988   7.594  0.1846  0.3563  0.2044
 9056SOL    HW138804   4.111   0.945   7.679  0.4363 -0.8992 -0.4713
 9056SOL    HW238805   4.009   1.022   7.594  0.9313  2.2703 -0.1191
 9057SOL     OW38806   4.736   0.749  11.710 -0.4637  0.3256 -0.4895
 9057SOL    HW138807   0.046   0.703  11.640 -0.8865 -2.4369  1.0317
 9057SOL    HW238808   0.015   0.675  11.770 -1.1928 -0.3693 -1.1549
 9058SOL     OW38809   4.519   3.436   3.168  0.2628  0.0361 -0.1173
 9058SOL    HW138810   4.609   3.464   3.149 -0.4012  3.1080  1.3145
 9058SOL    HW238811   4.519   3.379   3.091  2.3491 -2.1569  1.4580
 9059SOL     OW38812   0.522   3.249   0.196  0.1449 -0.1202 -0.3380
 9059SOL    HW138813   0.462   3.179   0.222 -0.1010  0.3651  0.4176
 9059SOL    HW238814   0.603   3.204   0.217 -0.0442  0.4230  1.5549
 9060SOL     OW38815   1.902   3.758   7.732 -0.1647 -0.6390  0.6099
 9060SOL    HW138816   1.925   3.843   7.769  0.7589 -1.3464  1.6748
 9060SOL    HW238817   1.817   3.738   7.771 -1.3643 -2.3801 -2.8695
 9061SOL     OW38818   4.381   1.489   3.559  0.4798  0.3923  0.4874
 9061SOL    HW138819   4.326   1.567   3.549  2.1302  1.4435 -0.2507
 9061SOL    HW238820   4.388   1.473   3.465 -1.0927 -2.9051  0.9314
 9062SOL     OW38821   4.656   1.480  14.931 -0.1685  0.2353  0.5992
 9062SOL    HW138822   4.649   1.574  14.942 -1.9294  0.2545 -0.6891
 9062SOL    HW238823   0.015   1.476  14.936 -0.2722 -1.3343  1.4836
 9063SOL     OW38824   4.433   4.428   6.758 -0.6308  0.3754  0.2685
 9063SOL    HW138825   4.418   4.383   6.675  1.4719 -2.9515  1.6678
 9063SOL    HW238826   4.438   4.522   6.745 -3.5788  0.3466 -1.0025
 9064SOL     OW38827   3.754   1.903   3.547  0.2014 -0.1605 -0.2604
 9064SOL    HW138828   3.744   1.813   3.577 -0.4604 -0.3212 -0.9598
 9064SOL    HW238829   3.811   1.882   3.473  0.2925 -0.6655 -0.0469
 9065SOL     OW38830   0.250   3.357   4.724 -0.0847  0.3975  0.0231
 9065SOL    HW138831   0.284   3.431   4.674  1.3896 -0.1327  0.2705
 9065SOL    HW238832   0.254   3.281   4.666 -0.6148 -1.0447  1.8605
 9066SOL     OW38833   0.984   0.281   4.352  0.7064 -0.4584  0.4758
 9066SOL    HW138834   1.026   0.279   4.438  1.6609  2.8473  0.0856
 9066SOL    HW238835   0.908   0.226   4.372 -0.6936  0.7965 -1.4089
 9067SOL     OW38836   2.001   4.612   5.788 -0.7044 -0.0073 -0.0614
 9067SOL    HW138837   1.975   4.540   5.731 -0.6759  1.3053 -1.7343
 9067SOL    HW238838   2.018   4.676   5.719 -0.4383  1.4002  1.3268
 9068SOL     OW38839   3.262   1.822   6.692 -0.8714 -0.1464  0.3682
 9068SOL    HW138840   3.348   1.783   6.706  0.0829  1.8104  0.0217
 9068SOL    HW238841   3.260   1.889   6.761 -0.5005  0.5656 -0.3020
 9069SOL     OW38842   0.889   2.891   8.404 -0.2416 -0.5108  0.1622
 9069SOL    HW138843   0.886   2.871   8.497  1.7565 -0.0223  0.3478
 9069SOL    HW238844   0.972   2.853   8.374 -0.7769 -0.2155 -1.6706
 9070SOL     OW38845   3.740   0.379  15.524  0.8681  0.0634 -0.2392
 9070SOL    HW138846   3.785   0.396  15.441  0.7055  2.0368  0.0689
 9070SOL    HW238847   3.795   0.310  15.561  0.3056  0.6284  1.6364
 9071SOL     OW38848   1.614   3.906   9.232 -0.4774 -0.0657  0.3880
 9071SOL    HW138849   1.675   3.842   9.268 -0.1404 -0.0548 -0.1541
 9071SOL    HW238850   1.677   3.970   9.199 -1.7577  1.3419  0.6986
 9072SOL     OW38851   0.120   3.488  16.221  0.6397  0.4727  0.3792
 9072SOL    HW138852   0.045   3.499  16.279  1.4609  0.9616  1.3474
 9072SOL    HW238853   0.109   3.403  16.178  3.4296  0.6026 -0.6189
 9073SOL     OW38854   1.855   1.857   0.585 -0.4855 -0.0308  0.1892
 9073SOL    HW138855   1.857   1.942   0.540  2.6171  0.1291  0.6403
 9073SOL    HW238856   1.761   1.836   0.582 -0.2866 -0.5885 -1.9521
 9074SOL     OW38857   0.207   0.278   1.763  0.2615 -0.0683  0.0531
 9074SOL    HW138858   0.215   0.373   1.774 -1.1869 -0.0045  0.5445
 9074SOL    HW238859   0.297   0.257   1.738  0.1034  1.2734 -1.6664
 9075SOL     OW38860   1.600   1.820  16.933  0.0453  0.5454  0.2237
 9075SOL    HW138861   1.601   1.859  17.020  1.1487  1.8330 -0.3749
 9075SOL    HW238862   1.635   1.734  16.959  2.5588  0.5442 -3.2777
 9076SOL     OW38863   0.632   1.172   3.819 -0.1222  0.4385 -0.1372
 9076SOL    HW138864   0.541   1.198   3.809 -0.8545 -1.2367  2.1945
 9076SOL    HW238865   0.670   1.223   3.748 -0.6407  1.1792  0.1178
 9077SOL     OW38866   1.797   1.653   2.912  0.4472  0.2991  0.5191
 9077SOL    HW138867   1.851   1.699   2.977  1.6487 -1.0463  0.4830
 9077SOL    HW238868   1.708   1.666   2.943  0.3041  2.6708 -0.8841
 9078SOL     OW38869   3.755   2.708   1.664 -0.2057  0.0355 -0.4834
 9078SOL    HW138870   3.836   2.747   1.696 -0.9921  0.3991  1.0816
 9078SOL    HW238871   3.715   2.790   1.634 -1.2973 -0.9394 -1.7020
 9079SOL     OW38872   2.466   2.290   8.071 -1.0716 -0.4646  0.7456
 9079SOL    HW138873   2.401   2.226   8.041  0.3779 -1.6447  0.1656
 9079SOL    HW238874   2.539   2.258   8.019 -1.6196  1.6640 -1.3374
 9080SOL     OW38875   0.489   1.125   1.715 -0.8451  0.1893  0.5772
 9080SOL    HW138876   0.474   1.138   1.622  0.0467 -0.9179  0.2808
 9080SOL    HW238877   0.422   1.058   1.733 -1.3417  0.1983 -1.2325
 9081SOL     OW38878   4.161   0.435   6.737  0.4173  0.6142 -0.2290
 9081SOL    HW138879   4.148   0.349   6.697 -1.8675  0.3494  1.1016
 9081SOL    HW238880   4.096   0.422   6.805 -0.6103 -0.6289 -1.4552
 9082SOL     OW38881   4.462   3.747   2.518 -0.4386 -0.1240  0.1373
 9082SOL    HW138882   4.532   3.807   2.490  1.0430 -1.3194  1.2593
 9082SOL    HW238883   4.478   3.738   2.612 -1.7218 -2.6248  0.1078
 9083SOL     OW38884   3.990   2.748   4.932 -0.2203 -0.1230 -0.0887
 9083SOL    HW138885   3.968   2.832   4.972  1.8354  1.5832 -2.5244
 9083SOL    HW238886   4.057   2.769   4.867  0.1190  1.8741  0.9356
 9084SOL     OW38887   4.497   3.849   7.128 -0.2151  0.3400  0.7445
 9084SOL    HW138888   4.448   3.848   7.211  0.6263 -1.0973  1.2215
 9084SOL    HW238889   4.529   3.759   7.121 -1.0417  0.1450 -0.4537
 9085SOL     OW38890   2.884   3.408  10.578 -0.8817  0.0829  0.3350
 9085SOL    HW138891   2.788   3.407  10.584 -0.8124 -0.9582  1.2700
 9085SOL    HW238892   2.903   3.454  10.659  0.4450 -0.1275  0.1475
 9086SOL     OW38893   0.817   2.450   2.802 -0.3314  0.9068 -0.8172
 9086SOL    HW138894   0.737   2.480   2.846  1.0636  0.9830  1.6435
 9086SOL    HW238895   0.793   2.448   2.709  1.0619  0.0613 -1.1535
 9087SOL     OW38896   2.516   0.062   5.294 -0.1644 -0.4080  0.0147
 9087SOL    HW138897   2.610   0.063   5.312 -0.6839  1.2038  2.5990
 9087SOL    HW238898   2.488   0.152   5.281 -0.0928 -0.1969  1.3546
 9088SOL     OW38899   3.000   4.632   6.535  0.2074 -0.0615  0.7367
 9088SOL    HW138900   3.085   4.666   6.508  0.3266 -0.0790  1.0888
 9088SOL    HW238901   2.935   4.702   6.525 -0.4213 -1.1641 -2.9780
 9089SOL     OW38902   1.635   0.007   7.643  0.2778  0.3463  0.3387
 9089SOL    HW138903   1.639   0.034   7.735 -2.2071  0.9747  0.2666
 9089SOL    HW238904   1.557   0.055   7.615  0.2977  0.2621  0.1383
 9090SOL     OW38905   2.802   3.209  14.631 -0.2025 -0.0831  0.0195
 9090SOL    HW138906   2.753   3.225  14.550  1.7425 -0.5168 -1.2514
 9090SOL    HW238907   2.805   3.294  14.675 -1.6344  0.0324 -0.1110
 9091SOL     OW38908   0.542   2.528   7.245  0.1704 -0.2345 -0.5916
 9091SOL    HW138909   0.505   2.557   7.329  0.4294 -1.6340  0.0073
 9091SOL    HW238910   0.595   2.453   7.271  1.2725  0.1455 -1.7598
 9092SOL     OW38911   1.416   1.543   1.263 -0.5750  0.2668 -0.5141
 9092SOL    HW138912   1.492   1.522   1.317  0.8245  0.2492 -2.4926
 9092SOL    HW238913   1.342   1.500   1.307  0.4584  0.5974  1.5689
 9093SOL     OW38914   3.867   3.827   1.657 -0.3324  0.6306 -0.1491
 9093SOL    HW138915   3.921   3.841   1.736 -3.1857  0.1633  1.8717
 9093SOL    HW238916   3.838   3.916   1.639 -1.3287  0.5850  1.2375
 9094SOL     OW38917   3.167   0.317   0.328 -0.2916  0.2266  0.1877
 9094SOL    HW138918   3.212   0.401   0.330 -0.9423  0.5997 -1.6285
 9094SOL    HW238919   3.121   0.329   0.245 -0.0920  2.0545  0.3541
 9095SOL     OW38920   3.844   0.159   4.950 -0.3727  0.0246  0.7390
 9095SOL    HW138921   3.840   0.068   4.924 -1.0033  0.2145  0.1615
 9095SOL    HW238922   3.867   0.153   5.043  1.0683  0.5858  0.4110
 9096SOL     OW38923   3.445   4.651   7.337 -0.1705 -0.1249 -0.2939
 9096SOL    HW138924   3.401   4.724   7.295  1.1260 -0.6032 -2.4447
 9096SOL    HW238925   3.392   4.642   7.417  0.7214  0.5128  0.3552
 9097SOL     OW38926   3.233   2.433  14.985  0.3165  0.3730 -0.6842
 9097SOL    HW138927   3.216   2.477  14.901 -0.6670 -0.3076 -0.8373
 9097SOL    HW238928   3.305   2.489  15.017  1.2852 -0.5236 -1.2814
 9098SOL     OW38929   3.116   1.317  11.356  0.3090 -0.1211  0.3215
 9098SOL    HW138930   3.030   1.353  11.337 -0.0352 -0.3796  1.3869
 9098SOL    HW238931   3.105   1.312  11.451  1.3454  0.9137  0.4957
 9099SOL     OW38932   0.206   1.727   4.195 -0.3256 -0.3104 -0.1933
 9099SOL    HW138933   0.278   1.667   4.177 -1.7009 -1.8066 -0.7015
 9099SOL    HW238934   0.238   1.756   4.281 -0.7354 -0.5916  0.0559
 9100SOL     OW38935   1.384   1.846  13.004  0.4382  0.0994 -0.6332
 9100SOL    HW138936   1.367   1.863  13.096 -1.8004 -0.7856 -0.8755
 9100SOL    HW238937   1.452   1.779  13.011  1.6867  1.0599 -3.5109
 9101SOL     OW38938   3.697   2.904  17.717  0.2892  0.1382  0.3851
 9101SOL    HW138939   3.779   2.924   0.017  0.6758 -0.1928 -0.1869
 9101SOL    HW238940   3.648   2.867   0.046 -0.0057  0.3998  0.3230
 9102SOL     OW38941   0.167   2.542   9.337 -0.0300  0.1277 -0.1051
 9102SOL    HW138942   0.079   2.554   9.302 -0.0693  0.1084 -0.0117
 9102SOL    HW238943   0.205   2.514   9.254 -0.4267 -1.6813  0.3274
 9103SOL     OW38944   2.643   3.840   1.505  0.6217  0.0589 -0.4126
 9103SOL    HW138945   2.564   3.833   1.452 -0.1888  2.0212  0.5258
 9103SOL    HW238946   2.678   3.928   1.487  1.1226 -0.1690 -0.5509
 9104SOL     OW38947   1.212   4.560   1.931  0.3300 -0.2198 -0.4908
 9104SOL    HW138948   1.284   4.567   1.868  0.6083 -0.3163 -0.1812
 9104SOL    HW238949   1.132   4.564   1.879 -0.1880  1.0428  0.4032
 9105SOL     OW38950   0.205   1.312   1.786 -0.3947  0.2084 -0.2038
 9105SOL    HW138951   0.208   1.392   1.734  1.1325  0.5624  0.4010
 9105SOL    HW238952   0.141   1.261   1.738 -0.6528  0.2644  0.0819
 9106SOL     OW38953   1.193   1.667  15.351  0.5310 -0.7512 -0.0811
 9106SOL    HW138954   1.233   1.608  15.414  2.2325 -0.4842 -0.8911
 9106SOL    HW238955   1.258   1.738  15.347  0.8350 -0.9888  0.6992
 9107SOL     OW38956   1.699   3.576  16.247  0.0753 -0.1071  0.4888
 9107SOL    HW138957   1.749   3.626  16.183 -2.6984 -0.1577 -1.7003
 9107SOL    HW238958   1.614   3.613  16.223 -0.8373 -0.7615  2.7019
 9108SOL     OW38959   2.322   3.057  11.804  0.0590  0.1022 -0.3511
 9108SOL    HW138960   2.262   3.114  11.852  2.0939  1.3240  0.7290
 9108SOL    HW238961   2.371   3.118  11.747  0.4786  1.5597  1.5753
 9109SOL     OW38962   4.513   4.674   3.191  0.5654 -0.4535 -0.0720
 9109SOL    HW138963   4.504   0.020   3.238  0.5001 -1.0890  1.0131
 9109SOL    HW238964   4.464   4.616   3.248  0.9874 -0.3382  0.4050
 9110SOL     OW38965   2.650   2.133   3.059 -0.1241 -0.2531  0.4889
 9110SOL    HW138966   2.720   2.082   3.099  1.8634  0.9057 -1.4655
 9110SOL    HW238967   2.682   2.221   3.076  0.1507  0.0390 -1.5501
 9111SOL     OW38968   3.300   3.803   7.513  0.2718 -0.6169 -0.1909
 9111SOL    HW138969   3.275   3.842   7.597  0.9666  2.6642 -1.4860
 9111SOL    HW238970   3.350   3.869   7.464  0.0990 -0.7364 -0.5286
 9112SOL     OW38971   1.428   1.330  13.286  0.0361 -0.4349 -0.1775
 9112SOL    HW138972   1.433   1.236  13.265  0.6345 -0.3242 -0.5221
 9112SOL    HW238973   1.345   1.329  13.333 -1.1179  1.9906 -2.1802
 9113SOL     OW38974   1.804   4.193   5.360 -0.0812 -0.2164 -1.0326
 9113SOL    HW138975   1.894   4.207   5.332 -0.4045 -2.4919 -3.2009
 9113SOL    HW238976   1.810   4.106   5.398  0.0781 -0.0706 -0.7262
 9114SOL     OW38977   0.987   2.316  10.259  0.2323 -0.2343 -0.1850
 9114SOL    HW138978   0.952   2.405  10.262  0.8078 -0.0220  0.1951
 9114SOL    HW238979   0.931   2.282  10.189  0.1456  0.3602 -0.4072
 9115SOL     OW38980   2.402   4.220  14.387 -0.1622  0.5444  0.0732
 9115SOL    HW138981   2.317   4.219  14.432  0.5192 -1.1633  1.3260
 9115SOL    HW238982   2.414   4.315  14.379  4.3793 -0.1926 -1.4677
 9116SOL     OW38983   3.208   1.501   3.938 -0.3422  0.3292  1.0221
 9116SOL    HW138984   3.263   1.568   3.978 -0.5002  2.0869 -1.6476
 9116SOL    HW238985   3.184   1.548   3.858  0.1432 -1.2694 -0.0589
 9117SOL     OW38986   0.818   0.625   4.042  0.1194 -0.4891  0.3257
 9117SOL    HW138987   0.757   0.622   4.115  0.6321 -0.7004  0.7419
 9117SOL    HW238988   0.793   0.540   4.006  0.7439 -1.5316  2.3503
 9118SOL     OW38989   0.957   3.922   9.846  0.3841  0.1689  0.4720
 9118SOL    HW138990   0.929   3.839   9.807 -1.0988  0.3478  1.1891
 9118SOL    HW238991   0.935   3.986   9.778 -0.1280 -0.8448 -0.3171
 9119SOL     OW38992   2.701   4.255   6.717  0.3039 -0.0483  0.1421
 9119SOL    HW138993   2.659   4.334   6.683 -0.9857  0.6547  3.3995
 9119SOL    HW238994   2.704   4.282   6.808  0.9481  2.6016 -0.6571
 9120SOL     OW38995   0.092   4.041  10.260  0.0232 -0.2029 -0.2262
 9120SOL    HW138996   0.158   4.077  10.320 -1.4053 -0.8869  1.7420
 9120SOL    HW238997   0.020   4.008  10.314 -1.0434 -0.9835 -2.1195
 9121SOL     OW38998   3.622   1.774   6.237 -0.3786 -0.0688 -0.1512
 9121SOL    HW138999   3.714   1.749   6.236 -0.5788 -0.8555  1.8808
 9121SOL    HW239000   3.634   1.845   6.300 -0.5245 -0.1009 -0.0883
 9122SOL     OW39001   0.630   0.481   5.426 -0.2593  0.3271 -0.0235
 9122SOL    HW139002   0.627   0.576   5.437 -1.5506  0.3029 -0.1561
 9122SOL    HW239003   0.590   0.480   5.339  0.2580  0.5453 -0.2597
 9123SOL     OW39004   2.038   4.077  10.478 -0.5142 -0.2179  0.4844
 9123SOL    HW139005   2.009   4.056  10.567 -2.2719  0.2284  0.0045
 9123SOL    HW239006   1.974   4.143  10.453  1.1263  0.3099 -2.3075
 9124SOL     OW39007   2.716   4.638   8.608 -0.4494 -0.1115 -0.2064
 9124SOL    HW139008   2.777   4.699   8.648 -1.3452  0.6999 -0.0707
 9124SOL    HW239009   2.770   4.559   8.609 -0.5905 -0.2047  0.5673
 9125SOL     OW39010   3.505   3.494   1.881 -0.1502 -0.2966  0.0981
 9125SOL    HW139011   3.453   3.427   1.836 -0.4090 -1.5758  2.3005
 9125SOL    HW239012   3.578   3.446   1.920  1.0281  0.7460 -0.8458
 9126SOL     OW39013   3.253   0.681  17.210  0.4085 -0.2733  0.5727
 9126SOL    HW139014   3.164   0.663  17.178 -0.0202  2.0019  0.5312
 9126SOL    HW239015   3.299   0.597  17.216  2.0898  0.4469 -2.7644
 9127SOL     OW39016   1.668   3.366   6.171  0.0057  0.2373 -0.2780
 9127SOL    HW139017   1.736   3.351   6.105 -0.1857 -1.2976 -0.1291
 9127SOL    HW239018   1.672   3.460   6.157  1.0580  0.2644  0.2709
 9128SOL     OW39019   1.352   1.804  13.336  0.6682  0.0765 -0.1094
 9128SOL    HW139020   1.414   1.733  13.354 -0.3905 -0.8148 -0.0330
 9128SOL    HW239021   1.334   1.842  13.422 -0.6829  1.3433 -0.9519
 9129SOL     OW39022   2.174   0.426  15.603  0.5040  0.5009  0.1423
 9129SOL    HW139023   2.208   0.442  15.515 -0.4380 -0.1762 -0.3447
 9129SOL    HW239024   2.200   0.334  15.615 -2.0659 -0.3519 -0.8556
 9130SOL     OW39025   3.152   3.422   6.849  0.2439 -0.1945  0.3637
 9130SOL    HW139026   3.101   3.424   6.930 -0.3508  0.5420 -0.0274
 9130SOL    HW239027   3.091   3.471   6.792  0.7061  0.3092  0.3050
 9131SOL     OW39028   3.198   3.689  13.282  0.3787  0.3002  0.0455
 9131SOL    HW139029   3.255   3.725  13.349  0.8684 -2.4606  1.1374
 9131SOL    HW239030   3.137   3.639  13.337  1.3925  0.9897  1.7919
 9132SOL     OW39031   2.629   4.258   2.811 -0.0272  0.9407 -0.0509
 9132SOL    HW139032   2.570   4.216   2.873 -1.3266 -0.4196 -2.2286
 9132SOL    HW239033   2.565   4.314   2.767 -0.5916  0.5840  0.3149
 9133SOL     OW39034   0.969   1.810   4.144 -0.2289 -0.0927 -0.0637
 9133SOL    HW139035   0.884   1.825   4.103 -0.9416  0.6664  1.7096
 9133SOL    HW239036   0.996   1.900   4.160  1.3905 -0.7611  0.8597
 9134SOL     OW39037   4.228   2.547  15.338 -0.0019  0.3851  0.1107
 9134SOL    HW139038   4.141   2.529  15.374  0.4481 -0.6632  0.6732
 9134SOL    HW239039   4.209   2.636  15.309  0.5980  0.9580  1.4962
 9135SOL     OW39040   2.562   0.894   8.057 -0.6482 -0.1567 -0.4160
 9135SOL    HW139041   2.487   0.896   8.116 -0.6758  2.0442 -0.5240
 9135SOL    HW239042   2.541   0.971   8.003 -1.0699  0.1253  0.1511
 9136SOL     OW39043   4.578   2.907  12.466  0.5216 -0.5015 -0.0503
 9136SOL    HW139044   4.584   2.993  12.509 -0.9543  0.1473 -1.1576
 9136SOL    HW239045   4.590   2.939  12.377 -1.7776  1.8892  0.5171
 9137SOL     OW39046   3.411   1.811   3.323  0.2523  0.2703  0.1416
 9137SOL    HW139047   3.322   1.793   3.293  0.0416  1.3207  0.1372
 9137SOL    HW239048   3.434   1.741   3.384  2.2615  0.5256 -0.3358
 9138SOL     OW39049   2.927   0.928   3.919 -0.1411  0.1134  0.1966
 9138SOL    HW139050   2.912   0.835   3.903 -2.1080  0.2994  0.9674
 9138SOL    HW239051   2.838   0.955   3.945  0.7421  0.9612  2.3735
 9139SOL     OW39052   0.820   1.061   2.768  0.2742 -0.9141  0.7983
 9139SOL    HW139053   0.766   1.123   2.817  0.3245 -1.4060  1.4778
 9139SOL    HW239054   0.785   1.078   2.680  0.3804 -3.3294  0.2815
 9140SOL     OW39055   3.684   3.232   3.488 -0.0985 -0.4856 -0.0127
 9140SOL    HW139056   3.682   3.315   3.536  0.1273  0.5298 -1.7671
 9140SOL    HW239057   3.610   3.235   3.427  0.9264  0.1088 -1.2302
 9141SOL     OW39058   1.448   4.722   1.996  0.8364 -0.0419 -0.3708
 9141SOL    HW139059   1.434   0.075   1.965 -0.8908 -0.0601  0.3964
 9141SOL    HW239060   1.363   4.691   2.024  1.4733 -1.4310  0.0044
 9142SOL     OW39061   3.262   3.664  15.113 -0.3280 -0.4333 -0.1708
 9142SOL    HW139062   3.341   3.636  15.160  0.0299  2.0963  0.7306
 9142SOL    HW239063   3.208   3.585  15.116  1.5784 -1.7653 -0.6217
 9143SOL     OW39064   1.605   3.716   0.536  0.7723  0.4068  0.2161
 9143SOL    HW139065   1.669   3.703   0.606 -0.2740  0.6376  1.2043
 9143SOL    HW239066   1.529   3.671   0.573 -0.5601  1.1041 -1.6906
 9144SOL     OW39067   0.611   0.851   8.320  0.2052 -0.3116  0.1776
 9144SOL    HW139068   0.571   0.766   8.340  0.4652 -1.0636 -2.5266
 9144SOL    HW239069   0.692   0.824   8.279  0.0867 -1.6958  0.8471
 9145SOL     OW39070   0.409   2.145   3.325  0.4344  0.7445 -1.4049
 9145SOL    HW139071   0.474   2.207   3.356  0.6705  0.1297 -0.6760
 9145SOL    HW239072   0.337   2.201   3.295  0.4890  0.7913 -1.4471
 9146SOL     OW39073   0.350   0.300   9.911  0.0936  0.1010  0.7847
 9146SOL    HW139074   0.275   0.247   9.885  1.8799 -0.8233 -2.4930
 9146SOL    HW239075   0.312   0.387   9.897  3.3202  1.0077 -2.4451
 9147SOL     OW39076   0.265   2.847  16.218  0.1502 -0.1271 -0.1275
 9147SOL    HW139077   0.268   2.939  16.191  2.2533  0.1333  1.0094
 9147SOL    HW239078   0.171   2.834  16.207  0.2560  0.5878 -1.8343
 9148SOL     OW39079   1.929   0.444   2.662 -0.1371 -0.4915 -0.3936
 9148SOL    HW139080   2.022   0.435   2.639  0.7196  1.1176  2.5025
 9148SOL    HW239081   1.949   0.513   2.726  0.1236 -0.9053 -0.0293
 9149SOL     OW39082   2.433   4.582   4.830  0.2706  0.0694  0.4498
 9149SOL    HW139083   2.456   4.592   4.923  0.5495 -0.0545  0.3962
 9149SOL    HW239084   2.517   4.581   4.785 -0.6227  1.3125 -1.2324
 9150SOL     OW39085   1.746   3.582   7.100 -0.0472 -0.5790  0.3390
 9150SOL    HW139086   1.826   3.596   7.150  0.8013  1.3897 -1.5719
 9150SOL    HW239087   1.777   3.573   7.010 -2.0228  1.9864 -0.6176
 9151SOL     OW39088   0.690   0.407   0.879  0.3732 -0.3788 -0.0220
 9151SOL    HW139089   0.649   0.385   0.963 -0.2122  0.9248  0.0420
 9151SOL    HW239090   0.731   0.491   0.902 -0.5639 -0.0272  0.3871
 9152SOL     OW39091   3.665   3.346   2.331 -0.0176 -0.2362 -0.3022
 9152SOL    HW139092   3.659   3.336   2.426 -2.0339  2.9567 -0.1093
 9152SOL    HW239093   3.736   3.410   2.329  0.3529 -0.6414 -0.1261
 9153SOL     OW39094   0.434   4.003   8.236 -0.1223 -0.7789 -0.0214
 9153SOL    HW139095   0.422   4.064   8.309  1.1409 -0.8801  0.2775
 9153SOL    HW239096   0.466   4.058   8.165 -1.1007 -1.2287 -0.7962
 9154SOL     OW39097   1.649   4.135  12.646  0.7095 -0.7605  0.4444
 9154SOL    HW139098   1.656   4.225  12.677 -2.5315  0.0680 -1.1527
 9154SOL    HW239099   1.665   4.154  12.554 -2.2470 -1.7160 -0.2657
 9155SOL     OW39100   1.041   0.359   1.253 -0.2602 -0.2518 -0.1933
 9155SOL    HW139101   1.072   0.279   1.212 -2.1076 -1.2253  0.2855
 9155SOL    HW239102   0.949   0.336   1.236 -0.1076 -0.7045 -0.4053
 9156SOL     OW39103   0.166   1.258   3.478  0.5772 -0.3484 -0.1437
 9156SOL    HW139104   0.151   1.171   3.515 -2.0338  0.0098 -0.3584
 9156SOL    HW239105   0.096   1.312   3.515  1.2247 -0.6499  1.5196
 9157SOL     OW39106   3.666   2.660   0.168 -0.1705 -0.5367  0.0893
 9157SOL    HW139107   3.635   2.630   0.082  1.1243 -1.6432 -0.0001
 9157SOL    HW239108   3.592   2.655   0.227 -0.8294  1.0917 -0.5977
 9158SOL     OW39109   0.910   4.243   4.544 -0.3834  0.1952 -0.7890
 9158SOL    HW139110   0.814   4.241   4.547 -0.2972 -1.2694  1.2871
 9158SOL    HW239111   0.935   4.262   4.454  0.6772  3.3266  0.1716
 9159SOL     OW39112   3.845   2.086   7.525 -0.6012  0.4536 -0.1462
 9159SOL    HW139113   3.821   2.127   7.608 -0.3498 -0.4052  0.3512
 9159SOL    HW239114   3.818   2.157   7.467  2.4969  1.7777 -0.0033
 9160SOL     OW39115   2.850   2.154   2.255 -0.2637  0.9411  0.2722
 9160SOL    HW139116   2.894   2.079   2.215  1.4033  1.3173  1.3893
 9160SOL    HW239117   2.783   2.112   2.308  0.9997  2.3327  2.9470
 9161SOL     OW39118   3.107   2.870   4.817  0.1804  0.2621 -0.3280
 9161SOL    HW139119   3.125   2.861   4.723 -1.4369  0.4335 -0.6508
 9161SOL    HW239120   3.157   2.949   4.834 -0.2166  0.2126  1.1021
 9162SOL     OW39121   2.787   4.055  10.137 -0.5422  0.0486 -0.0150
 9162SOL    HW139122   2.697   4.033  10.159  0.0338 -1.7732  0.6219
 9162SOL    HW239123   2.782   4.148  10.156 -2.0330 -0.2210  0.8879
 9163SOL     OW39124   2.338   1.962   2.069  0.2681 -0.2959  0.6807
 9163SOL    HW139125   2.379   2.033   2.021 -1.6486  0.8808  0.7747
 9163SOL    HW239126   2.246   1.979   2.047  0.7134  0.1841 -0.7810
 9164SOL     OW39127   1.057   1.911   5.538 -0.0575  0.7549 -0.0117
 9164SOL    HW139128   1.105   1.992   5.519  0.8562 -0.2599 -2.1161
 9164SOL    HW239129   1.070   1.900   5.633 -0.6475 -1.1564 -0.1408
 9165SOL     OW39130   1.156   2.695   2.159  0.2049 -0.1663 -0.4241
 9165SOL    HW139131   1.203   2.619   2.192 -1.7863 -0.7391  1.0780
 9165SOL    HW239132   1.234   2.724   2.111  0.0575 -0.0824 -0.6148
 9166SOL     OW39133   4.573   0.336  16.315 -0.3483  0.4179  0.6038
 9166SOL    HW139134   4.669   0.337  16.310 -0.3779  0.0924 -0.0583
 9166SOL    HW239135   4.538   0.325  16.226  0.7292  0.8503  0.1172
 9167SOL     OW39136   0.829   2.132  16.279 -0.3080  0.0266 -0.0351
 9167SOL    HW139137   0.915   2.163  16.310 -1.1264  0.7675  1.5140
 9167SOL    HW239138   0.779   2.105  16.356  0.0002  0.3053  0.2625
 9168SOL     OW39139   0.556   0.608   0.408 -0.6057  0.2217  0.4235
 9168SOL    HW139140   0.516   0.536   0.360  1.5537  0.2608 -1.4268
 9168SOL    HW239141   0.624   0.556   0.451  0.4281  0.1639 -1.2884
 9169SOL     OW39142   0.965   3.406  15.141  0.1528  0.7776 -0.4005
 9169SOL    HW139143   1.053   3.369  15.147 -0.0267  0.5577  0.8346
 9169SOL    HW239144   0.959   3.456  15.222 -0.9810 -1.1320  0.6959
 9170SOL     OW39145   3.577   0.729   4.816  0.3819  0.4184 -0.3631
 9170SOL    HW139146   3.558   0.636   4.811 -0.2613  0.4079  2.1870
 9170SOL    HW239147   3.635   0.728   4.892 -0.0656  2.3756  0.0056
 9171SOL     OW39148   4.641   1.538  12.808 -0.3458  0.4894 -0.0343
 9171SOL    HW139149   4.635   1.443  12.804 -1.8699  0.5520  0.9046
 9171SOL    HW239150   4.657   1.544  12.902  0.4705 -3.0119  0.0382
 9172SOL     OW39151   0.607   1.664   5.054  0.4932 -0.3458  0.5353
 9172SOL    HW139152   0.516   1.694   5.055  0.1127 -1.5519  1.0028
 9172SOL    HW239153   0.650   1.735   5.005 -3.1207  0.5148 -1.3327
 9173SOL     OW39154   0.954   1.361   8.334 -0.4999  0.9209  0.2414
 9173SOL    HW139155   0.944   1.334   8.425  3.2293 -1.1852  0.0628
 9173SOL    HW239156   0.973   1.454   8.335 -0.8102  1.0089 -1.6228
 9174SOL     OW39157   4.453   3.907   4.619 -0.2495 -0.2548  0.5448
 9174SOL    HW139158   4.372   3.934   4.577  0.0411  0.3673  0.3928
 9174SOL    HW239159   4.416   3.826   4.654  0.4843 -1.6326 -1.8711
 9175SOL     OW39160   2.565   4.153   7.837 -0.2567 -0.4225 -0.1922
 9175SOL    HW139161   2.516   4.122   7.762  1.0278  1.2927 -1.7569
 9175SOL    HW239162   2.635   4.204   7.795  1.4875 -0.4066  2.7249
 9176SOL     OW39163   3.018   1.728   4.605 -0.3349 -0.1310  0.1005
 9176SOL    HW139164   3.032   1.727   4.511  1.3429  0.7099  0.3248
 9176SOL    HW239165   3.007   1.634   4.621  0.6452 -0.3545 -0.5500
 9177SOL     OW39166   2.221   4.481   9.015 -0.1198 -0.3475  0.1962
 9177SOL    HW139167   2.177   4.399   8.992 -1.1646  0.1084  0.5692
 9177SOL    HW239168   2.141   4.533   9.008  0.4562  0.2617 -1.9080
 9178SOL     OW39169   1.494   1.097   3.859 -0.4886 -0.6502  0.0612
 9178SOL    HW139170   1.511   1.154   3.934  1.8064  1.1495 -1.8315
 9178SOL    HW239171   1.552   1.130   3.791  1.5084  0.3865  2.2589
 9179SOL     OW39172   1.325   1.412   4.745  0.2370  0.4808  0.0787
 9179SOL    HW139173   1.386   1.363   4.800 -0.2270  2.4419  2.3312
 9179SOL    HW239174   1.240   1.380   4.776  1.3219 -1.8878  0.6645
 9180SOL     OW39175   0.851   0.510  14.165 -0.1173  0.0811 -0.3081
 9180SOL    HW139176   0.839   0.456  14.087  0.9265  0.1828 -0.5490
 9180SOL    HW239177   0.903   0.579  14.123  1.3174 -0.2357  0.9342
 9181SOL     OW39178   4.400   4.212   1.962  0.0545 -0.5598  0.2329
 9181SOL    HW139179   4.383   4.160   1.883 -0.8055  0.9924 -0.5956
 9181SOL    HW239180   4.321   4.194   2.014 -0.3559  0.1473 -0.1483
 9182SOL     OW39181   0.098   1.591   3.796 -1.1278 -0.6320 -0.2096
 9182SOL    HW139182   0.128   1.611   3.884 -1.2356 -0.4596 -0.2131
 9182SOL    HW239183   0.127   1.663   3.739  0.5329  1.1500  2.9189
 9183SOL     OW39184   1.892   1.762  14.839  0.3585 -0.2866 -0.2285
 9183SOL    HW139185   1.850   1.733  14.920  1.2050  0.1963  0.3827
 9183SOL    HW239186   1.977   1.784  14.877  1.0952 -2.7849 -0.4418
 9184SOL     OW39187   3.425   2.748   3.820 -0.3040  0.0789 -0.0304
 9184SOL    HW139188   3.426   2.728   3.914  2.2107 -0.5060 -0.1916
 9184SOL    HW239189   3.461   2.667   3.783 -0.7860  0.3750 -1.1526
 9185SOL     OW39190   3.705   0.967   4.106 -0.0863 -0.5102  0.5289
 9185SOL    HW139191   3.731   1.058   4.119 -1.5507  0.0695 -0.5496
 9185SOL    HW239192   3.686   0.967   4.012  0.2379 -0.0245  0.4602
 9186SOL     OW39193   0.402   0.460   5.648  0.8780  0.4164  0.3290
 9186SOL    HW139194   0.318   0.453   5.694  0.2587  0.9888 -0.7164
 9186SOL    HW239195   0.380   0.430   5.560 -0.7162 -0.3746  0.9921
 9187SOL     OW39196   2.657   4.645   7.421 -0.8182  0.2629  0.0257
 9187SOL    HW139197   2.611   4.586   7.361 -0.5310  0.0343  0.0321
 9187SOL    HW239198   2.627   4.731   7.392  1.2055  0.3424 -1.8349
 9188SOL     OW39199   1.386   4.346   6.887  0.3920 -0.0246 -0.1441
 9188SOL    HW139200   1.355   4.374   6.800 -1.5004 -1.9920 -0.1127
 9188SOL    HW239201   1.464   4.298   6.859  0.0914  0.4489 -1.7810
 9189SOL     OW39202   2.078   1.506   4.257 -0.3498 -0.2573  0.3225
 9189SOL    HW139203   2.015   1.455   4.206  1.0601 -1.9826  0.3017
 9189SOL    HW239204   2.074   1.461   4.342  1.4999 -0.7237  0.1779
 9190SOL     OW39205   2.695   0.050   6.546 -0.2954  0.2085 -0.6886
 9190SOL    HW139206   2.751   0.036   6.622 -2.2122  1.2216  0.8934
 9190SOL    HW239207   2.618   0.086   6.590 -0.8810  0.2664 -1.7359
 9191SOL     OW39208   0.190   1.551  15.469 -0.5981  0.1472  0.4882
 9191SOL    HW139209   0.109   1.509  15.439 -1.4193  0.9172  1.6323
 9191SOL    HW239210   0.233   1.564  15.384 -0.3478  1.9479  0.8964
 9192SOL     OW39211   3.351   1.316  15.812  0.4004  0.7290 -0.7137
 9192SOL    HW139212   3.283   1.304  15.879  0.5924 -1.4572 -0.8967
 9192SOL    HW239213   3.406   1.242  15.838 -0.2091  0.3022 -0.6359
 9193SOL     OW39214   0.444   4.258   1.190  0.4839  0.3154 -0.7584
 9193SOL    HW139215   0.455   4.329   1.126  0.1146  0.0638 -1.0962
 9193SOL    HW239216   0.492   4.283   1.269  0.4239 -0.3477 -0.5123
 9194SOL     OW39217   0.561   1.595   6.960 -0.4667 -0.2940  0.1122
 9194SOL    HW139218   0.591   1.506   6.979 -3.5952 -1.2410  0.5275
 9194SOL    HW239219   0.501   1.601   7.034  0.4634 -1.5831  0.9790
 9195SOL     OW39220   3.945   1.878   3.325  0.4940 -0.1134 -0.0565
 9195SOL    HW139221   3.998   1.947   3.285  1.1324 -0.8135 -0.3983
 9195SOL    HW239222   3.977   1.876   3.416  1.2376  0.0819 -0.3151
 9196SOL     OW39223   1.209   0.496   4.926 -0.3202  0.2408 -0.2517
 9196SOL    HW139224   1.228   0.576   4.975 -0.6890  0.8367 -1.0845
 9196SOL    HW239225   1.137   0.523   4.869 -2.4091 -1.0477  1.7764
 9197SOL     OW39226   1.884   1.610  17.129  0.4882 -0.0040 -0.2830
 9197SOL    HW139227   1.873   1.638  17.220 -0.4100 -0.9075 -0.1127
 9197SOL    HW239228   1.794   1.582  17.111 -0.5009  0.9351  3.2342
 9198SOL     OW39229   0.721   1.529   7.491 -0.2167 -0.0300  0.3283
 9198SOL    HW139230   0.633   1.498   7.468  0.2273  0.0735 -1.4804
 9198SOL    HW239231   0.753   1.457   7.546 -0.3558 -0.1306  0.2785
 9199SOL     OW39232   1.235   1.062   3.292 -0.1752  0.1266  0.4809
 9199SOL    HW139233   1.174   1.102   3.231 -1.3110 -2.3497 -0.0166
 9199SOL    HW239234   1.311   1.052   3.236 -0.6009 -1.0987  0.1215
 9200SOL     OW39235   0.255   2.428   4.489 -0.1264  0.2474 -0.1159
 9200SOL    HW139236   0.350   2.419   4.479 -0.1976 -2.2735  1.5121
 9200SOL    HW239237   0.215   2.347   4.521 -2.1244  0.7155 -1.4489
 9201SOL     OW39238   0.801   2.705   5.040  0.1901  0.1067  0.1106
 9201SOL    HW139239   0.874   2.757   5.070  1.1063  0.2903 -2.4426
 9201SOL    HW239240   0.755   2.757   4.974  0.2631  0.3959  0.2924
 9202SOL     OW39241   2.370   2.245  13.648  0.0767  0.1094 -0.0221
 9202SOL    HW139242   2.293   2.213  13.695  0.5604  1.3713  1.6456
 9202SOL    HW239243   2.331   2.251  13.561 -0.6419  0.0073  0.2862
 9203SOL     OW39244   2.208   3.473   6.973 -0.0842 -0.4546 -0.5622
 9203SOL    HW139245   2.159   3.540   6.924 -0.8579 -1.9870 -1.8851
 9203SOL    HW239246   2.141   3.407   6.957  0.1392 -1.1194  1.3023
 9204SOL     OW39247   3.309   2.175  15.085 -0.3741  0.2942 -0.2345
 9204SOL    HW139248   3.396   2.179  15.045  0.2189  2.4012  1.3009
 9204SOL    HW239249   3.265   2.255  15.058 -1.6026  0.0876  1.1970
 9205SOL     OW39250   0.616   0.907   7.670 -0.1799 -0.0686  0.6609
 9205SOL    HW139251   0.550   0.911   7.601 -1.4849 -0.4326  1.8838
 9205SOL    HW239252   0.680   0.836   7.657 -0.7318 -0.3194 -0.6495
 9206SOL     OW39253   1.428   2.722   2.657  0.5574  0.5067 -0.1522
 9206SOL    HW139254   1.461   2.633   2.646 -0.0119  0.4154 -1.0935
 9206SOL    HW239255   1.336   2.703   2.677  1.4426 -2.5678  0.9794
 9207SOL     OW39256   1.480   1.454   4.497 -0.5945  0.4169 -0.4592
 9207SOL    HW139257   1.420   1.440   4.570  1.2715 -1.0006  0.7831
 9207SOL    HW239258   1.563   1.417   4.525 -0.1539  2.8174  1.3953
 9208SOL     OW39259   2.648   4.185  11.913  0.1150  0.3251  0.8290
 9208SOL    HW139260   2.725   4.195  11.969 -1.2135 -0.5379  2.7944
 9208SOL    HW239261   2.700   4.153  11.839 -0.9074  0.1754  0.1804
 9209SOL     OW39262   2.200   1.451  11.063 -0.5916 -0.0617 -0.3145
 9209SOL    HW139263   2.163   1.477  10.979  0.3754 -1.4461 -1.1653
 9209SOL    HW239264   2.285   1.495  11.054 -0.4239 -0.6365 -1.4926
 9210SOL     OW39265   0.896   3.290   4.339  0.3489 -0.0619  0.5872
 9210SOL    HW139266   0.901   3.319   4.430  0.0061  2.8878 -0.3323
 9210SOL    HW239267   0.903   3.374   4.293  0.0119 -0.2202  0.2450
 9211SOL     OW39268   0.759   4.323   8.852 -0.3491  0.1405 -0.4445
 9211SOL    HW139269   0.837   4.268   8.863 -0.0750  0.1209 -2.5106
 9211SOL    HW239270   0.693   4.271   8.897  1.1851 -1.0643  0.4294
 9212SOL     OW39271   0.060   4.639   9.326 -0.5308  0.5372 -0.1478
 9212SOL    HW139272   0.082   4.695   9.401 -0.1752  0.6565 -0.3385
 9212SOL    HW239273   0.052   4.550   9.360  2.0007  0.6424  0.7784
 9213SOL     OW39274   1.729   4.384  15.052  0.5841  0.2595  0.7151
 9213SOL    HW139275   1.786   4.344  14.987  0.5195  1.2388  0.0620
 9213SOL    HW239276   1.672   4.314  15.083  1.1131 -0.6589 -0.3788
 9214SOL     OW39277   3.497   4.705   3.494 -0.3868 -0.1213  0.9696
 9214SOL    HW139278   3.447   0.049   3.511 -0.6500 -0.0509 -0.1536
 9214SOL    HW239279   3.504   4.680   3.586 -2.0299  0.3343  1.2169
 9215SOL     OW39280   4.613   3.112   0.825  0.4968  0.3886  0.3074
 9215SOL    HW139281   4.633   3.018   0.826  0.5240  0.4025  0.8509
 9215SOL    HW239282   4.661   3.151   0.752 -0.2512 -0.9269 -0.8903
 9216SOL     OW39283   1.612   4.309   9.885  0.4330  0.4959  0.3238
 9216SOL    HW139284   1.623   4.298   9.979 -5.2771  0.2645  1.0134
 9216SOL    HW239285   1.525   4.268   9.884 -0.1069  1.6860 -1.2482
 9217SOL     OW39286   0.778   3.499   6.548  0.2003  0.2646  0.2069
 9217SOL    HW139287   0.866   3.482   6.515 -0.1314  0.8105 -0.9641
 9217SOL    HW239288   0.725   3.432   6.505  2.7198 -0.4337 -1.7800
 9218SOL     OW39289   0.109   0.023   9.563  0.0371  0.2845  0.3239
 9218SOL    HW139290   0.194   0.065   9.548  0.6739 -1.6823 -1.5533
 9218SOL    HW239291   0.102   4.730   9.654 -0.2821  1.4085  0.6643
 9219SOL     OW39292   2.307   3.423  13.316 -0.1325 -0.1179 -0.5116
 9219SOL    HW139293   2.277   3.508  13.283 -1.2445  1.1293  3.8110
 9219SOL    HW239294   2.401   3.438  13.306  0.1019 -0.1442  1.6820
 9220SOL     OW39295   0.241   4.662  13.856  0.0535 -0.0366  0.3196
 9220SOL    HW139296   0.168   4.631  13.803 -1.1600  2.3556  0.5836
 9220SOL    HW239297   0.209   0.013  13.879  0.0532  0.3126 -1.0452
 9221SOL     OW39298   0.869   1.798  12.927  0.2258 -0.2410 -0.4424
 9221SOL    HW139299   0.964   1.786  12.923  0.2929 -0.3458  1.8072
 9221SOL    HW239300   0.854   1.889  12.950  0.0578 -0.6746  1.1713
 9222SOL     OW39301   0.525   1.648   6.380 -0.4958 -0.1346 -0.1092
 9222SOL    HW139302   0.619   1.660   6.366 -1.0497  0.8863 -2.8871
 9222SOL    HW239303   0.515   1.552   6.382 -0.7687 -0.1205 -0.6940
 9223SOL     OW39304   0.714   4.713   6.416  0.1241 -0.0283  0.3056
 9223SOL    HW139305   0.656   0.023   6.356  1.9930  1.4279 -0.3571
 9223SOL    HW239306   0.667   0.004   6.495 -1.1883  0.2875 -0.5888
 9224SOL     OW39307   3.251   3.041  11.700 -0.6789 -0.3446  0.4198
 9224SOL    HW139308   3.167   3.002  11.677 -0.3512 -0.9925  0.3309
 9224SOL    HW239309   3.304   2.972  11.662 -0.6776 -0.0953 -0.0293
 9225SOL     OW39310   4.724   1.458   3.545  0.4718  0.4761  0.2282
 9225SOL    HW139311   0.055   1.517   3.579  1.2849  0.0246 -0.6042
 9225SOL    HW239312   4.715   1.468   3.450 -1.1050 -0.2886  0.2960
 9226SOL     OW39313   2.026   2.940   0.147 -0.2011  0.1011 -0.3150
 9226SOL    HW139314   1.946   2.898   0.178  1.0090  0.6882  3.5035
 9226SOL    HW239315   2.039   3.020   0.196 -1.1239 -0.2882  0.5573
 9227SOL     OW39316   3.456   0.668   7.717  0.4439 -0.2044  0.4046
 9227SOL    HW139317   3.445   0.627   7.632  2.6439  0.9701 -0.4337
 9227SOL    HW239318   3.546   0.641   7.735  1.0700 -0.2298 -2.8974
 9228SOL     OW39319   4.464   0.113   3.684  0.5633  0.2757  0.0603
 9228SOL    HW139320   4.369   0.108   3.685  0.7413 -3.1650 -0.5077
 9228SOL    HW239321   4.479   0.075   3.771  1.4742  0.1167 -0.1593
 9229SOL     OW39322   1.774   4.715   4.103 -0.1977 -0.5237  0.0085
 9229SOL    HW139323   1.727   4.637   4.133  1.0089 -0.1509  2.8530
 9229SOL    HW239324   1.864   4.705   4.133 -0.0361  1.8691  0.3131
 9230SOL     OW39325   1.828   4.043   3.118 -0.1292 -0.3240 -0.0183
 9230SOL    HW139326   1.908   4.003   3.150  1.3067  2.7672  0.2752
 9230SOL    HW239327   1.798   4.076   3.203 -0.2120 -0.0492 -0.1539
 9231SOL     OW39328   3.545   3.402   5.928  0.3807  0.0524 -0.6316
 9231SOL    HW139329   3.620   3.462   5.925 -1.6158  2.3974 -2.7061
 9231SOL    HW239330   3.581   3.321   5.965  0.5488  0.1593 -0.5606
 9232SOL     OW39331   2.029   3.922   3.232 -0.2505  0.2654  0.3267
 9232SOL    HW139332   2.054   3.939   3.323  1.8674 -0.2186 -0.1654
 9232SOL    HW239333   2.111   3.882   3.203  0.1741  0.3045  1.4292
 9233SOL     OW39334   3.218   1.435   7.667  0.3114  0.0872  0.0177
 9233SOL    HW139335   3.243   1.428   7.575 -0.2933 -1.0451 -0.0637
 9233SOL    HW239336   3.154   1.365   7.674  1.2433 -0.7784 -0.1841
 9234SOL     OW39337   1.712   0.092   6.905  0.0933  0.7858  0.8102
 9234SOL    HW139338   1.646   0.055   6.847  0.7625  0.4861  0.2282
 9234SOL    HW239339   1.781   0.028   6.883 -0.2704  0.3283  1.0108
 9235SOL     OW39340   3.475   3.011   3.731  0.4238  0.0649 -0.4345
 9235SOL    HW139341   3.539   2.983   3.666 -0.9324 -2.4791 -0.6562
 9235SOL    HW239342   3.468   2.928   3.778 -0.4922  0.0091 -0.6627
 9236SOL     OW39343   4.251   0.968  14.880  0.2525  0.0421  0.8918
 9236SOL    HW139344   4.329   0.918  14.858 -0.4734  0.6356 -3.1181
 9236SOL    HW239345   4.187   0.914  14.833  0.3159 -1.2764  2.3264
 9237SOL     OW39346   4.018   2.371   0.336  0.1809  0.0412 -0.5742
 9237SOL    HW139347   3.951   2.361   0.403  0.1898 -1.5459 -0.7859
 9237SOL    HW239348   3.993   2.460   0.313  1.1399  0.9187  1.8121
 9238SOL     OW39349   2.682   0.489   4.230  0.0168 -0.5451 -0.4914
 9238SOL    HW139350   2.618   0.509   4.161 -1.2099  0.2447  0.8923
 9238SOL    HW239351   2.706   0.577   4.260  1.0146 -0.2554 -2.0925
 9239SOL     OW39352   4.101   3.802   0.286  0.0018 -0.2447  0.1796
 9239SOL    HW139353   4.026   3.800   0.227 -0.4815  1.7039  0.7260
 9239SOL    HW239354   4.118   3.896   0.283  2.1307 -0.6671 -0.9559
 9240SOL     OW39355   2.897   1.798   6.326 -0.3055  0.2842  0.5327
 9240SOL    HW139356   2.984   1.788   6.366 -0.4865  0.6379  1.0121
 9240SOL    HW239357   2.840   1.814   6.400 -1.4200  2.5128 -0.8155
 9241SOL     OW39358   2.778   4.455   2.908  0.7833 -0.1401  0.4452
 9241SOL    HW139359   2.731   4.386   2.861  1.5888  2.1206 -3.6869
 9241SOL    HW239360   2.703   4.505   2.940 -0.2384 -1.3923  0.0133
 9242SOL     OW39361   2.105   2.724   4.308 -0.2878 -0.0031 -0.2857
 9242SOL    HW139362   2.130   2.794   4.368 -2.8734  2.1880 -1.7279
 9242SOL    HW239363   2.174   2.735   4.242 -1.3134 -0.4475 -1.4285
 9243SOL     OW39364   2.642   2.084   6.423  0.3928 -0.1865  0.0577
 9243SOL    HW139365   2.585   2.145   6.375  2.0996  0.8264 -0.6881
 9243SOL    HW239366   2.725   2.119   6.391  1.3043 -1.2617  1.2483
 9244SOL     OW39367   2.338   0.027  16.135  0.1085 -0.1325 -0.3005
 9244SOL    HW139368   2.329   0.122  16.137  1.8619  0.0396 -0.4626
 9244SOL    HW239369   2.250   0.004  16.106 -0.1738  2.1823 -1.3212
 9245SOL     OW39370   4.558   1.257  10.024 -0.0257  0.4987  0.0868
 9245SOL    HW139371   4.540   1.225  10.112 -1.9228  0.9227 -0.1439
 9245SOL    HW239372   4.590   1.178   9.981 -1.7496 -0.0612 -0.1681
 9246SOL     OW39373   1.732   3.037   5.858  0.5907 -0.2519 -0.2932
 9246SOL    HW139374   1.822   3.057   5.885 -0.3803 -0.9262  3.5228
 9246SOL    HW239375   1.697   3.016   5.945 -0.6240  1.2868 -0.4140
 9247SOL     OW39376   3.812   1.499   3.004 -0.1527 -0.0420  0.1248
 9247SOL    HW139377   3.734   1.443   3.012 -0.3483 -0.0809 -1.9071
 9247SOL    HW239378   3.869   1.435   2.961  1.1048  1.6410 -0.6848
 9248SOL     OW39379   2.543   2.937   5.784  0.1895  0.0981  0.0527
 9248SOL    HW139380   2.456   2.906   5.808  0.3061 -1.0472 -0.9818
 9248SOL    HW239381   2.544   3.028   5.755  1.6041 -0.6303 -2.1467
 9249SOL     OW39382   1.994   1.079   0.604  0.4019 -0.2146  0.2916
 9249SOL    HW139383   1.958   1.154   0.557  1.1237 -0.2321 -0.2816
 9249SOL    HW239384   2.039   1.121   0.677  0.9742  0.3325 -0.3696
 9250SOL     OW39385   2.653   1.423  16.504  0.4758  0.3648 -0.2739
 9250SOL    HW139386   2.730   1.378  16.537  1.4648  0.8257 -1.9644
 9250SOL    HW239387   2.689   1.492  16.448  0.4977 -0.2045 -0.9597
 9251SOL     OW39388   3.298   0.469   4.707 -0.3365  0.1601  0.1504
 9251SOL    HW139389   3.312   0.430   4.621 -2.9917 -0.0905 -0.1704
 9251SOL    HW239390   3.331   0.401   4.766 -0.2420  0.1909  0.1322
 9252SOL     OW39391   3.702   4.375   3.169  0.2837  0.1289  0.2526
 9252SOL    HW139392   3.715   4.297   3.114 -0.1635 -0.0741  0.4341
 9252SOL    HW239393   3.791   4.400   3.192  0.9203 -1.1157 -0.8096
 9253SOL     OW39394   1.300   4.406   8.539 -1.0604  0.0624 -0.0893
 9253SOL    HW139395   1.325   4.325   8.493 -2.5616 -1.0261  1.0270
 9253SOL    HW239396   1.366   4.471   8.515 -0.0517  0.1148  2.9115
 9254SOL     OW39397   0.008   4.189   6.441  0.1898 -0.0113 -0.5224
 9254SOL    HW139398   0.009   4.279   6.408 -1.3404  0.8296  1.7231
 9254SOL    HW239399   4.652   4.176   6.462  0.0402  0.0861 -1.1104
 9255SOL     OW39400   4.137   3.641   2.725  0.5194 -0.2511  0.4531
 9255SOL    HW139401   4.195   3.699   2.774  1.8815 -1.6985  0.5530
 9255SOL    HW239402   4.111   3.571   2.785 -1.3770 -0.1898 -0.2993
 9256SOL     OW39403   1.034   3.135   5.205 -0.3829 -0.0863  0.0332
 9256SOL    HW139404   0.987   3.204   5.251 -0.9267 -1.6353  1.8290
 9256SOL    HW239405   1.093   3.186   5.151  2.2999 -3.0069  0.2363
 9257SOL     OW39406   1.072   0.716  10.923 -0.2488 -0.3104  0.4341
 9257SOL    HW139407   0.998   0.769  10.896  0.6336  0.6314 -0.1194
 9257SOL    HW239408   1.031   0.676  11.000  2.2197 -1.9199  0.9142
 9258SOL     OW39409   0.351   1.568  14.015  0.0859 -0.1493 -0.1257
 9258SOL    HW139410   0.311   1.490  14.053  1.2223 -1.7577 -2.1965
 9258SOL    HW239411   0.295   1.635  14.055  0.3484 -0.9309  1.5479
 9259SOL     OW39412   4.343   2.410   8.710 -0.2276 -0.5247  0.1193
 9259SOL    HW139413   4.276   2.425   8.644 -0.2253 -0.1632  0.1998
 9259SOL    HW239414   4.393   2.491   8.695 -2.7459  0.6923 -1.7982
 9260SOL     OW39415   0.168   4.126  13.865 -0.2621  0.5982  0.3497
 9260SOL    HW139416   0.127   4.110  13.949 -0.1439  1.9942  0.6703
 9260SOL    HW239417   0.103   4.091  13.803 -0.5017  0.4337  0.6936
 9261SOL     OW39418   2.943   3.769  13.066 -0.5112 -0.0828  0.3409
 9261SOL    HW139419   3.005   3.802  13.131  0.8930  0.9756 -1.5206
 9261SOL    HW239420   2.967   3.814  12.985  0.8341 -2.6041 -0.6927
 9262SOL     OW39421   2.410   2.748  14.092 -0.0443  0.1811 -0.4364
 9262SOL    HW139422   2.357   2.736  14.014  2.4594 -1.1396 -1.9217
 9262SOL    HW239423   2.343   2.752  14.161 -0.1302  0.1435 -0.5183
 9263SOL     OW39424   2.412   3.701   5.380  0.1683 -0.1729  0.3312
 9263SOL    HW139425   2.400   3.621   5.430 -0.4577  0.5388  1.3222
 9263SOL    HW239426   2.458   3.666   5.304  2.4808  0.0388  1.6536
 9264SOL     OW39427   1.667   1.393   9.220 -0.2719 -0.7092 -0.1191
 9264SOL    HW139428   1.674   1.452   9.145 -1.5805  1.4311  1.4375
 9264SOL    HW239429   1.664   1.458   9.290  0.9354 -1.0714  0.2561
 9265SOL     OW39430   3.877   3.711  11.884 -0.6356 -0.2792  0.0769
 9265SOL    HW139431   3.917   3.625  11.899 -0.4536 -0.2974 -0.5007
 9265SOL    HW239432   3.950   3.771  11.895  0.3872 -1.1872 -1.6825
 9266SOL     OW39433   3.445   2.167   1.824 -0.0810 -0.4911 -0.3230
 9266SOL    HW139434   3.389   2.114   1.880  0.2132  0.6340  1.0459
 9266SOL    HW239435   3.386   2.221   1.773  1.5692  0.3175 -1.3681
 9267SOL     OW39436   4.068   0.566   7.934 -0.3599 -0.0208 -0.1332
 9267SOL    HW139437   4.126   0.571   7.858  0.8040 -1.5545  0.6515
 9267SOL    HW239438   4.110   0.634   7.987  0.0855  0.3796 -0.9932
 9268SOL     OW39439   1.325   1.081   8.470  0.4547 -0.0457 -0.5804
 9268SOL    HW139440   1.359   1.052   8.385 -0.1454 -1.8577 -0.1945
 9268SOL    HW239441   1.374   1.163   8.480 -1.7405  1.3610 -1.3352
 9269SOL     OW39442   2.827   1.897   0.568  0.2453  0.1773 -0.5869
 9269SOL    HW139443   2.744   1.938   0.542  0.9587  2.3351  0.5491
 9269SOL    HW239444   2.887   1.924   0.498  1.4043 -1.7964 -0.3596
 9270SOL     OW39445   0.808   0.220  10.146  0.2833 -0.3105  0.1703
 9270SOL    HW139446   0.724   0.216  10.101  1.5901 -0.9141 -2.2220
 9270SOL    HW239447   0.861   0.238  10.068 -0.3182  1.6674  0.2354
 9271SOL     OW39448   4.684   2.286   5.663  0.3432 -0.0187 -0.3613
 9271SOL    HW139449   0.028   2.306   5.616  1.0577 -0.0101  0.8887
 9271SOL    HW239450   4.706   2.226   5.734  2.9422 -1.7414 -2.5996
 9272SOL     OW39451   0.262   4.366   3.147 -0.3459  0.0847 -0.4391
 9272SOL    HW139452   0.236   4.291   3.093 -1.4909  0.0465  0.1891
 9272SOL    HW239453   0.217   4.356   3.230 -0.1966 -0.3043 -0.4035
 9273SOL     OW39454   3.365   3.506   0.553  0.8728  0.1695  0.6626
 9273SOL    HW139455   3.422   3.578   0.580  0.6753  1.1947 -1.6631
 9273SOL    HW239456   3.435   3.463   0.505 -0.9338 -2.0704  0.0527
 9274SOL     OW39457   0.413   4.388  10.304 -0.1916 -0.0011  0.3796
 9274SOL    HW139458   0.466   4.314  10.334 -1.5588 -0.6469  1.1794
 9274SOL    HW239459   0.473   4.460  10.284 -0.9966  0.5743  0.0170
 9275SOL     OW39460   1.476   4.611   8.417 -0.7485  0.2307  0.4791
 9275SOL    HW139461   1.532   4.687   8.432 -0.0260 -0.2241  0.0546
 9275SOL    HW239462   1.397   4.656   8.387 -1.3673 -1.8603 -0.9663
 9276SOL     OW39463   2.159   1.156   6.392  0.3043 -0.0075 -0.4701
 9276SOL    HW139464   2.070   1.138   6.360  0.0459  0.8652 -0.2466
 9276SOL    HW239465   2.163   1.250   6.378 -2.0625  0.2257  0.4186
 9277SOL     OW39466   2.360   4.608   5.449  0.0064  0.2635 -0.1624
 9277SOL    HW139467   2.313   4.556   5.385 -1.4154  3.0911 -1.4048
 9277SOL    HW239468   2.388   4.683   5.396  0.5315  0.5316  0.4846
 9278SOL     OW39469   3.174   3.864  14.535 -0.0418  0.4549  0.4301
 9278SOL    HW139470   3.158   3.935  14.472 -5.5248 -0.2612  1.0117
 9278SOL    HW239471   3.231   3.803  14.489 -0.8820 -0.2970  0.3756
 9279SOL     OW39472   4.649   0.192   9.374 -0.5467 -0.4874  0.5334
 9279SOL    HW139473   4.577   0.136   9.403 -1.3688  0.8140  0.9885
 9279SOL    HW239474   4.696   0.198   9.458 -0.8085  0.6198  0.6003
 9280SOL     OW39475   0.362   1.494   4.444 -0.1895 -0.2049 -0.8321
 9280SOL    HW139476   0.389   1.537   4.362  0.0988  1.4490  0.1285
 9280SOL    HW239477   0.275   1.462   4.420  0.1798 -1.3899 -0.5730
 9281SOL     OW39478   4.714   4.671   4.721 -0.3175 -0.2218 -0.4958
 9281SOL    HW139479   4.632   4.689   4.766  0.6755 -1.3419  1.7716
 9281SOL    HW239480   0.034   0.008   4.743 -0.3220 -0.2669 -0.3335
 9282SOL     OW39481   1.662   0.416   8.432 -0.3471  0.9815 -0.2522
 9282SOL    HW139482   1.749   0.402   8.394 -0.5357  0.2519 -0.4358
 9282SOL    HW239483   1.618   0.461   8.359 -0.3778  0.8751 -0.2998
 9283SOL     OW39484   2.637   3.838  14.865 -0.1080 -0.5963  0.1725
 9283SOL    HW139485   2.555   3.880  14.888  0.8963 -0.2021  3.0322
 9283SOL    HW239486   2.616   3.754  14.823 -0.0025 -0.6544  0.2340
 9284SOL     OW39487   0.750   0.864  13.666  0.7330 -0.1431 -0.0542
 9284SOL    HW139488   0.693   0.842  13.740  1.5897  1.8492  1.2087
 9284SOL    HW239489   0.702   0.938  13.628  1.1228  0.2535  0.2186
 9285SOL     OW39490   2.909   3.233   7.479 -0.2254 -0.5667 -0.3468
 9285SOL    HW139491   2.824   3.197   7.455 -0.9436  1.4208 -0.7230
 9285SOL    HW239492   2.962   3.153   7.472  0.1960 -0.3120 -0.0586
 9286SOL     OW39493   1.889   3.140   1.122 -0.1494 -0.5003  0.0710
 9286SOL    HW139494   1.802   3.108   1.101  0.4403 -1.4442 -0.9591
 9286SOL    HW239495   1.895   3.220   1.069 -0.0490 -0.3367  0.3289
 9287SOL     OW39496   3.791   2.973   5.791  0.3690  0.2143 -0.2703
 9287SOL    HW139497   3.723   2.906   5.786  0.1367  0.5699 -1.7974
 9287SOL    HW239498   3.872   2.923   5.797 -0.4041 -1.2052 -1.6463
 9288SOL     OW39499   2.289   0.500   1.886 -0.7533  0.6346  0.2824
 9288SOL    HW139500   2.287   0.592   1.860  0.8399  0.8549  0.9774
 9288SOL    HW239501   2.217   0.511   1.949 -1.2350  0.9228 -0.3098
 9289SOL     OW39502   0.421   0.161   8.593 -0.5400 -0.6315 -0.0266
 9289SOL    HW139503   0.392   0.155   8.684  1.3373 -1.7580  0.4870
 9289SOL    HW239504   0.379   0.082   8.560 -1.9856 -0.2338  0.8468
 9290SOL     OW39505   3.604   1.358   6.490  0.7730 -0.0102 -0.6213
 9290SOL    HW139506   3.619   1.393   6.578  1.2732  0.3683 -0.8546
 9290SOL    HW239507   3.632   1.267   6.501 -1.3249 -0.6651 -0.7367
 9291SOL     OW39508   0.340   0.443   2.901  0.2737 -0.1750  0.4685
 9291SOL    HW139509   0.305   0.482   2.820 -0.1978  0.7016  1.0841
 9291SOL    HW239510   0.430   0.423   2.876  0.3606  0.2739  0.4236
 9292SOL     OW39511   2.072   4.031   5.101  0.6333  0.0780  0.7743
 9292SOL    HW139512   2.097   3.946   5.138  0.1068 -0.1039  0.7108
 9292SOL    HW239513   2.159   4.052   5.065  0.3961  0.3713  0.3784
 9293SOL     OW39514   1.801   0.624   2.055  0.0634  0.1518  0.1682
 9293SOL    HW139515   1.856   0.650   1.981 -1.7801 -0.6688 -1.4814
 9293SOL    HW239516   1.847   0.665   2.128 -0.4356  2.5544 -0.8755
 9294SOL     OW39517   4.630   2.166   7.107 -0.2823  0.3424  0.0868
 9294SOL    HW139518   4.576   2.182   7.030  1.1813  0.3434 -0.9433
 9294SOL    HW239519   4.607   2.236   7.168  1.7437  1.0455  0.0308
 9295SOL     OW39520   1.038   3.075   1.590 -0.2453 -0.3569 -0.2390
 9295SOL    HW139521   0.948   3.103   1.572 -0.2349  0.9354  1.6587
 9295SOL    HW239522   1.065   3.139   1.656  0.2664 -0.2132 -0.5935
 9296SOL     OW39523   0.244   1.771  14.915  0.6777 -0.3848  0.0417
 9296SOL    HW139524   0.229   1.678  14.901  0.0498 -0.6667  2.4890
 9296SOL    HW239525   0.333   1.786  14.884  0.6971  0.9697  0.7177
 9297SOL     OW39526   3.093   4.084   5.635 -0.4455  0.1996  0.0760
 9297SOL    HW139527   3.129   4.003   5.598 -0.8034 -0.2107  0.6151
 9297SOL    HW239528   3.022   4.093   5.572  1.1496 -0.5321 -1.8083
 9298SOL     OW39529   0.070   0.535  15.471  0.8862  0.9978 -0.0545
 9298SOL    HW139530   0.156   0.565  15.500  1.1799 -0.6977  0.8356
 9298SOL    HW239531   0.025   0.545  15.556 -1.2807  0.6298 -1.1447
 9299SOL     OW39532   3.895   0.648   0.151  0.7715 -0.0232  0.2237
 9299SOL    HW139533   3.888   0.707   0.076 -1.5459  1.2191  1.4162
 9299SOL    HW239534   3.906   0.562   0.111  0.8784  0.2897 -0.4091
 9300SOL     OW39535   2.236   2.680  10.592 -0.3041 -0.3299  0.5278
 9300SOL    HW139536   2.302   2.633  10.643  1.1175  0.2683 -0.7598
 9300SOL    HW239537   2.151   2.661  10.633 -0.4081  2.5205  1.6474
 9301SOL     OW39538   0.738   2.951  13.866 -0.2620  0.2884 -0.5745
 9301SOL    HW139539   0.655   2.964  13.820 -1.1383  1.1952  1.2559
 9301SOL    HW239540   0.771   2.873  13.822 -0.8899 -0.0363 -0.4707
 9302SOL     OW39541   4.003   0.210   6.235  0.2328 -0.2685 -0.4545
 9302SOL    HW139542   4.095   0.201   6.211  0.5023 -0.7757  0.7576
 9302SOL    HW239543   3.986   0.295   6.195  1.3187  0.4524  0.6215
 9303SOL     OW39544   3.409   3.752   7.146  0.5840  0.3040  0.1815
 9303SOL    HW139545   3.440   3.839   7.122  2.4267 -0.6625 -0.8691
 9303SOL    HW239546   3.318   3.778   7.162  0.3283  0.1614 -1.0875
 9304SOL     OW39547   2.145   2.956  15.258 -0.8726  0.3015  0.1238
 9304SOL    HW139548   2.196   3.036  15.268 -2.7657  1.6435 -1.0171
 9304SOL    HW239549   2.138   2.957  15.162  0.9207  0.5982 -0.0035
 9305SOL     OW39550   0.014   2.040   2.184  0.0648  0.0803 -0.5080
 9305SOL    HW139551   0.077   2.110   2.172  0.7448 -0.0975  2.0664
 9305SOL    HW239552   4.702   2.059   2.264 -1.1749 -0.2251 -1.1873
 9306SOL     OW39553   1.273   1.954   6.638  0.0671 -0.6144 -0.4467
 9306SOL    HW139554   1.296   1.883   6.578 -0.2388 -1.1846  0.1140
 9306SOL    HW239555   1.322   2.029   6.603  0.5013 -1.6683 -2.1202
 9307SOL     OW39556   3.379   1.863   1.775  0.1234 -0.1267  0.2422
 9307SOL    HW139557   3.308   1.882   1.837 -0.2084 -1.3511  0.2347
 9307SOL    HW239558   3.441   1.933   1.799  1.3692 -1.3808  0.6986
 9308SOL     OW39559   0.318   1.754   5.041  0.0863  0.2292 -0.0586
 9308SOL    HW139560   0.331   1.808   4.963 -1.1641  1.6106  0.6837
 9308SOL    HW239561   0.236   1.713   5.015 -0.0764 -0.6013  1.7366
 9309SOL     OW39562   1.946   1.279  11.826  0.1503 -0.6195 -0.2560
 9309SOL    HW139563   2.026   1.299  11.777 -0.8176  0.6620 -1.3038
 9309SOL    HW239564   1.978   1.236  11.905 -1.5622  1.1201  1.3897
 9310SOL     OW39565   1.165   1.627   6.156  0.0239 -0.3120  0.4025
 9310SOL    HW139566   1.073   1.651   6.165  0.5831  2.3585 -1.0958
 9310SOL    HW239567   1.202   1.690   6.218  1.1513 -1.3905  0.8193
 9311SOL     OW39568   0.970   4.593   5.943  0.0452  0.1165  0.0068
 9311SOL    HW139569   0.964   4.682   5.908 -1.2400  0.5326  1.2564
 9311SOL    HW239570   0.993   4.613   6.034  1.0414  2.3690 -0.7572
 9312SOL     OW39571   0.488   0.272   4.958  0.7902  0.0307 -0.8557
 9312SOL    HW139572   0.494   0.206   4.889  0.5964 -0.8637 -0.0195
 9312SOL    HW239573   0.580   0.296   4.945  0.6755  0.3724 -1.0164
 9313SOL     OW39574   4.393   4.345  13.647 -0.0954 -0.1800  0.3466
 9313SOL    HW139575   4.409   4.293  13.567 -1.2472 -1.4814  0.9539
 9313SOL    HW239576   4.423   4.430  13.615  0.2971 -0.0841  0.9670
 9314SOL     OW39577   0.119   3.327   8.517  0.0270 -0.1355  0.4823
 9314SOL    HW139578   0.047   3.372   8.563  0.4807 -0.2742  1.3391
 9314SOL    HW239579   0.061   3.308   8.443 -0.4764  0.8452  0.6186
 9315SOL     OW39580   0.099   3.290   0.247  0.3288 -0.1161 -0.1796
 9315SOL    HW139581   0.136   3.320   0.164  0.3555  1.9196  0.5783
 9315SOL    HW239582   0.117   3.196   0.254  1.7510 -0.0292 -2.6450
 9316SOL     OW39583   2.228   3.464  12.643  0.0560  0.4022 -0.3215
 9316SOL    HW139584   2.152   3.522  12.648 -0.9193 -0.8709 -0.2826
 9316SOL    HW239585   2.186   3.378  12.640 -0.6046  0.7664 -1.9095
 9317SOL     OW39586   3.764   0.825  16.027  0.3759 -0.2948  0.7850
 9317SOL    HW139587   3.811   0.891  16.078  1.7556 -1.0587  0.5088
 9317SOL    HW239588   3.720   0.788  16.103 -1.5936 -1.1157 -0.7550
 9318SOL     OW39589   1.220   4.226   1.082 -0.6383 -0.3852  0.0756
 9318SOL    HW139590   1.174   4.280   1.146  1.9891  0.1616  1.5106
 9318SOL    HW239591   1.282   4.184   1.141  0.9955  1.2991 -0.4303
 9319SOL     OW39592   4.382   1.032  10.899 -0.4860 -0.6129 -0.6145
 9319SOL    HW139593   4.441   1.077  10.961 -0.0971  2.0604 -2.8908
 9319SOL    HW239594   4.315   1.099  10.911  0.3048  0.2897 -1.1717
 9320SOL     OW39595   1.829   3.121  11.743  0.8627 -0.0558  0.0391
 9320SOL    HW139596   1.876   3.057  11.796  1.1028  1.3566  1.5025
 9320SOL    HW239597   1.889   3.114  11.668  0.2990  2.8158 -0.7018
 9321SOL     OW39598   2.319   1.484   3.267  0.9150  0.2303  0.1525
 9321SOL    HW139599   2.252   1.530   3.318  0.8279  0.1230  0.1326
 9321SOL    HW239600   2.370   1.558   3.234  2.2643 -1.8467 -2.3294
 9322SOL     OW39601   3.982   1.872   7.188 -0.4034 -0.6321  0.2904
 9322SOL    HW139602   4.043   1.836   7.123  0.3479  0.7616  0.2024
 9322SOL    HW239603   3.902   1.888   7.138 -1.7870 -0.9829  2.4209
 9323SOL     OW39604   3.871   3.752   4.071  0.4958  0.0120  0.0477
 9323SOL    HW139605   3.957   3.711   4.079  0.9414  0.7632 -0.7958
 9323SOL    HW239606   3.869   3.797   4.156 -0.8939 -0.5460  0.3087
 9324SOL     OW39607   2.125   3.219   9.241  0.2694 -0.2225  0.2171
 9324SOL    HW139608   2.210   3.249   9.272 -0.0503  0.1343  0.7525
 9324SOL    HW239609   2.157   3.188   9.156 -0.4611  3.4349 -1.4345
 9325SOL     OW39610   1.325   4.600   5.299  0.5621 -0.3656 -0.1849
 9325SOL    HW139611   1.264   4.530   5.274 -1.6538  1.4775  0.0464
 9325SOL    HW239612   1.383   4.607   5.224 -1.2312 -0.7568 -1.5970
 9326SOL     OW39613   3.797   1.811   8.387  0.4141 -0.1222 -0.6154
 9326SOL    HW139614   3.800   1.778   8.477  0.2508  0.8996 -0.2381
 9326SOL    HW239615   3.887   1.842   8.375  1.0514 -1.2362  1.4412
 9327SOL     OW39616   0.825   2.066  13.665 -0.0227  0.3441  0.2227
 9327SOL    HW139617   0.802   1.973  13.672  2.8260 -0.2733  1.3660
 9327SOL    HW239618   0.907   2.061  13.615 -0.7809 -2.1955 -0.7692
 9328SOL     OW39619   4.132   4.334   3.847 -0.3033 -0.2014 -0.5788
 9328SOL    HW139620   4.203   4.372   3.898 -2.3618  1.5644  0.9336
 9328SOL    HW239621   4.106   4.409   3.794 -0.4091  0.2803  0.1573
 9329SOL     OW39622   3.100   2.582   7.325 -0.0099  0.7031  0.3337
 9329SOL    HW139623   3.015   2.539   7.319  0.0178  0.6066  0.6620
 9329SOL    HW239624   3.155   2.503   7.330  0.5715  1.3962  4.4919
 9330SOL     OW39625   2.034   4.419   7.407 -0.3779 -0.2985 -0.0978
 9330SOL    HW139626   1.962   4.478   7.426 -1.2401 -1.5917  0.6641
 9330SOL    HW239627   2.042   4.361   7.482  1.9787  1.1951  0.8193
 9331SOL     OW39628   0.343   0.613   9.073 -0.0976 -0.3479 -0.0676
 9331SOL    HW139629   0.274   0.671   9.041  0.2169 -1.2454 -2.3906
 9331SOL    HW239630   0.407   0.630   9.003  0.4862  0.4802  0.6671
 9332SOL     OW39631   0.136   3.105  17.421  0.1721 -0.1645 -0.3805
 9332SOL    HW139632   0.041   3.114  17.422  0.0367 -1.2911 -3.4795
 9332SOL    HW239633   0.150   3.023  17.468 -1.2410  0.5546  1.2720
 9333SOL     OW39634   0.187   4.264   4.081 -0.5022  0.3558  0.6410
 9333SOL    HW139635   0.249   4.193   4.093  1.0640  1.2974 -1.7872
 9333SOL    HW239636   0.141   4.249   3.998  1.0170 -2.4481  0.3127
 9334SOL     OW39637   3.104   4.222   3.885 -0.1960 -0.1122  0.1803
 9334SOL    HW139638   3.114   4.136   3.927 -1.1918 -0.7094 -0.8045
 9334SOL    HW239639   3.118   4.208   3.791 -3.3236 -0.0728 -0.2850
 9335SOL     OW39640   4.132   0.721   5.889 -0.5613  0.1044  0.1230
 9335SOL    HW139641   4.076   0.768   5.952 -2.7242 -1.3088 -0.7596
 9335SOL    HW239642   4.191   0.788   5.853  0.6951 -1.7483 -1.2128
 9336SOL     OW39643   0.607   1.801   3.076 -0.1530  0.2531  0.0989
 9336SOL    HW139644   0.511   1.798   3.076 -0.2169  2.1898 -0.0589
 9336SOL    HW239645   0.626   1.893   3.097 -1.9752  0.6417  0.0573
 9337SOL     OW39646   1.866   3.337   5.979 -0.1053  0.5316 -0.1875
 9337SOL    HW139647   1.900   3.249   5.963  1.5399  1.1506 -0.0825
 9337SOL    HW239648   1.937   3.395   5.953 -1.6045  1.2680 -2.6777
 9338SOL     OW39649   3.095   0.442   5.955 -0.1213 -0.0008 -0.4398
 9338SOL    HW139650   3.031   0.496   6.003  0.3066  1.9763 -2.0811
 9338SOL    HW239651   3.063   0.356   5.980  1.1804 -0.3889 -0.1419
 9339SOL     OW39652   1.391   3.486   2.970 -0.4304 -0.3044 -0.6534
 9339SOL    HW139653   1.480   3.453   2.955 -0.0427  0.2921  0.3402
 9339SOL    HW239654   1.396   3.581   2.960 -0.2624 -0.1547  0.8633
 9340SOL     OW39655   3.347   4.167   3.420  0.1810  0.5776 -0.7740
 9340SOL    HW139656   3.436   4.136   3.407 -0.2725 -0.3829 -1.5196
 9340SOL    HW239657   3.354   4.252   3.465  0.6534  1.7181 -2.9831
 9341SOL     OW39658   0.666   0.877   7.037  0.5343 -0.0109  0.4882
 9341SOL    HW139659   0.722   0.932   7.091  0.4338  2.5291 -1.9885
 9341SOL    HW239660   0.577   0.887   7.073 -0.0472 -0.3089 -0.8628
 9342SOL     OW39661   2.177   1.760   8.756 -0.0687 -0.2602 -0.5907
 9342SOL    HW139662   2.103   1.809   8.792  0.0107  0.9558 -2.0650
 9342SOL    HW239663   2.141   1.673   8.772 -0.4325 -0.0136 -0.0578
 9343SOL     OW39664   3.494   1.372   0.888  0.7329 -0.0767  0.4491
 9343SOL    HW139665   3.498   1.356   0.982 -2.0148 -0.5874  0.4929
 9343SOL    HW239666   3.541   1.298   0.849 -1.2757 -1.3806  0.4947
 9344SOL     OW39667   0.067   2.969   7.261  0.3485  0.6890  0.6273
 9344SOL    HW139668   0.050   2.930   7.175  0.9425 -0.4017  0.9938
 9344SOL    HW239669   0.031   2.896   7.311 -1.7029  0.7343 -0.7710
 9345SOL     OW39670   2.219   3.662   3.785  0.0988 -0.7323  0.0229
 9345SOL    HW139671   2.294   3.722   3.786 -0.7482  0.3365 -0.2952
 9345SOL    HW239672   2.265   3.578   3.786 -1.5146 -1.6130  0.6955
 9346SOL     OW39673   3.827   0.715  10.307  0.1120 -0.1934  0.5262
 9346SOL    HW139674   3.879   0.694  10.385 -0.7318 -1.3192  0.7842
 9346SOL    HW239675   3.886   0.682  10.240 -0.4599  0.4859 -0.3054
 9347SOL     OW39676   0.596   3.745   5.456 -0.0107  0.2104  0.9143
 9347SOL    HW139677   0.653   3.709   5.524  1.3126  3.1140  1.3513
 9347SOL    HW239678   0.610   3.675   5.393  4.0475  0.9557  0.9881
 9348SOL     OW39679   1.891   2.841   4.202 -0.4097  0.1603  0.4809
 9348SOL    HW139680   1.964   2.800   4.248 -0.6029  0.8346  1.3892
 9348SOL    HW239681   1.934   2.888   4.131 -2.6268  1.0128 -0.3077
 9349SOL     OW39682   3.353   3.572  11.352  0.0143 -0.5483 -0.4537
 9349SOL    HW139683   3.334   3.522  11.272  2.8427 -1.4758 -0.5634
 9349SOL    HW239684   3.380   3.656  11.315  2.5893 -1.2050 -0.1060
 9350SOL     OW39685   3.383   3.390   4.249  0.0643 -0.2469 -0.2594
 9350SOL    HW139686   3.445   3.322   4.276  1.1013  0.2170 -1.4342
 9350SOL    HW239687   3.373   3.363   4.158 -1.9735  0.9657 -0.4082
 9351SOL     OW39688   0.092   1.239   0.408 -0.2939 -0.3937  0.1641
 9351SOL    HW139689   0.015   1.183   0.419 -0.6945  0.6095  2.4919
 9351SOL    HW239690   0.078   1.308   0.474 -0.6050  1.3033 -1.6935
 9352SOL     OW39691   0.999   3.535   0.129  0.5198  0.2526 -0.6860
 9352SOL    HW139692   0.923   3.546   0.072  0.0219 -1.1516 -0.2944
 9352SOL    HW239693   1.000   3.626   0.159  1.8684  0.1194 -0.3246
 9353SOL     OW39694   1.580   3.515   0.206 -0.5879 -0.1000 -0.1684
 9353SOL    HW139695   1.542   3.428   0.208  0.8456 -0.7526 -1.5225
 9353SOL    HW239696   1.499   3.565   0.216  0.9052  1.7351  2.6326
 9354SOL     OW39697   1.104   0.519  17.147 -0.3107  0.2156  0.2171
 9354SOL    HW139698   1.073   0.455  17.082  0.4703 -2.9242  2.9228
 9354SOL    HW239699   1.052   0.594  17.119  0.8036  0.9769  0.1981
 9355SOL     OW39700   2.474   4.616   6.091 -0.4430  0.0534 -0.1230
 9355SOL    HW139701   2.565   4.588   6.095 -0.8571 -1.3749 -0.7607
 9355SOL    HW239702   2.436   4.528   6.095  0.2270 -0.2218  0.2080
 9356SOL     OW39703   4.684   0.288   4.641 -0.0709  0.0220 -0.0074
 9356SOL    HW139704   0.037   0.307   4.669  0.1947 -3.3351  1.4313
 9356SOL    HW239705   4.701   0.244   4.558  0.0891 -1.6770  0.9327
 9357SOL     OW39706   0.606   1.108  14.544 -0.1973 -0.4604 -0.8916
 9357SOL    HW139707   0.610   1.176  14.477  1.9255  0.7996  0.5024
 9357SOL    HW239708   0.683   1.055  14.523  0.0067 -1.3939  2.3149
 9358SOL     OW39709   2.406   4.415   6.490 -0.1337  0.2927 -0.1661
 9358SOL    HW139710   2.389   4.502   6.526 -1.7500  0.0154 -0.2427
 9358SOL    HW239711   2.334   4.372   6.537 -0.1385 -1.3849 -1.7058
 9359SOL     OW39712   0.739   3.454   3.978 -0.4183  0.0141 -0.2278
 9359SOL    HW139713   0.741   3.497   4.064  2.3319 -0.1812 -0.2063
 9359SOL    HW239714   0.799   3.515   3.935 -0.5594 -0.2757 -0.8259
 9360SOL     OW39715   1.395   3.937   5.589  0.1965  0.6233  0.0554
 9360SOL    HW139716   1.384   4.006   5.523 -0.5052 -0.4878 -0.9872
 9360SOL    HW239717   1.338   3.952   5.664 -1.8702  2.3958 -1.8481
 9361SOL     OW39718   0.870   2.839   0.814 -0.6653  0.9327  0.0061
 9361SOL    HW139719   0.811   2.783   0.866 -0.8969  1.9018  0.7908
 9361SOL    HW239720   0.953   2.801   0.843 -1.0184 -1.4136 -1.9924
 9362SOL     OW39721   4.326   4.233   5.136 -0.4038 -0.3376  0.8583
 9362SOL    HW139722   4.360   4.145   5.124 -1.8339 -0.5545 -1.3837
 9362SOL    HW239723   4.366   4.259   5.220  1.2513  0.6516 -0.2343
 9363SOL     OW39724   3.992   2.043  12.640  0.2506  0.0269 -0.9126
 9363SOL    HW139725   3.909   2.032  12.685  0.1809 -0.8835 -1.2696
 9363SOL    HW239726   4.056   2.046  12.711  1.0244 -1.0603 -1.5730
 9364SOL     OW39727   1.156   2.652   5.127 -0.5727  0.0947  0.2546
 9364SOL    HW139728   1.084   2.691   5.175  0.7738  0.3719  2.0500
 9364SOL    HW239729   1.230   2.714   5.124 -0.0908 -0.5234 -0.9272
 9365SOL     OW39730   0.004   4.164   6.743  0.2491 -0.4344  0.2715
 9365SOL    HW139731   0.025   4.241   6.796 -2.3552  0.7995 -0.4715
 9365SOL    HW239732   0.005   4.086   6.798  0.6936 -0.9850 -0.5158
 9366SOL     OW39733   3.405   3.049   5.016 -0.0797  0.4577 -0.0714
 9366SOL    HW139734   3.487   3.079   4.976 -0.1004 -1.1127 -1.2781
 9366SOL    HW239735   3.346   3.072   4.944 -1.1141  0.1908  0.6933
 9367SOL     OW39736   0.222   3.166   2.848  0.3545 -0.4004 -0.1425
 9367SOL    HW139737   0.179   3.151   2.764  0.7217 -0.1208 -0.3806
 9367SOL    HW239738   0.184   3.092   2.895 -0.2163  0.7498  1.2030
 9368SOL     OW39739   2.489   0.860  14.563  0.8300 -0.2300 -0.0302
 9368SOL    HW139740   2.562   0.905  14.520  0.6521 -1.2911 -1.4417
 9368SOL    HW239741   2.440   0.858  14.481  0.7959  0.8102 -0.0310
 9369SOL     OW39742   1.405   1.039   4.591 -0.4902 -0.1511 -0.2496
 9369SOL    HW139743   1.436   1.047   4.500 -1.8479 -0.2254 -0.7102
 9369SOL    HW239744   1.311   1.048   4.575 -0.4493  1.4302  0.4554
 9370SOL     OW39745   3.031   4.095   0.014 -0.4427  0.2301  0.2795
 9370SOL    HW139746   2.980   4.015   0.023  1.0718 -0.9255 -1.2184
 9370SOL    HW239747   2.956   4.155   0.013  0.0813  0.8773 -0.5722
 9371SOL     OW39748   3.335   3.619  17.300 -0.1743  0.0233 -0.0269
 9371SOL    HW139749   3.263   3.612  17.363 -1.0261  0.7066 -0.9150
 9371SOL    HW239750   3.395   3.549  17.325 -0.1663  0.3049  0.7338
 9372SOL     OW39751   4.475   0.791  10.332  0.2275 -0.0247  0.0393
 9372SOL    HW139752   4.430   0.837  10.261 -2.7633 -2.4924  0.3287
 9372SOL    HW239753   4.551   0.756  10.284 -0.3378  0.1074 -0.9565
 9373SOL     OW39754   0.641   4.499   3.507  0.0853  0.2333 -0.0845
 9373SOL    HW139755   0.690   4.432   3.459 -0.1490 -1.1148  1.5621
 9373SOL    HW239756   0.564   4.521   3.454  0.2512  0.5207 -0.2070
 9374SOL     OW39757   1.130   3.066   4.754  0.5158 -0.0309  0.0532
 9374SOL    HW139758   1.136   3.044   4.661  0.7914 -0.1007  0.0872
 9374SOL    HW239759   1.169   2.989   4.796  1.8090 -0.4029 -1.8142
 9375SOL     OW39760   4.708   2.883   4.399  0.0016 -0.2955 -0.0539
 9375SOL    HW139761   4.726   2.863   4.308  2.0085  1.9513 -0.1715
 9375SOL    HW239762   0.018   2.816   4.450  0.7796 -0.4460 -0.9614
 9376SOL     OW39763   0.811   4.259   6.949  0.1533 -0.2704 -0.3002
 9376SOL    HW139764   0.862   4.213   7.015 -0.0404  1.6407  1.1728
 9376SOL    HW239765   0.853   4.230   6.867  1.4517  0.4121  0.1247
 9377SOL     OW39766   0.187   0.731  16.180  0.7468  0.2257  0.3895
 9377SOL    HW139767   0.204   0.681  16.260  0.2976 -1.5148 -0.5867
 9377SOL    HW239768   0.092   0.740  16.172  0.8024  0.6464  0.2086
 9378SOL     OW39769   1.577   1.092   6.348 -0.7712  0.6228  0.3675
 9378SOL    HW139770   1.516   1.071   6.418 -2.0124  0.3134 -0.8148
 9378SOL    HW239771   1.646   1.027   6.363 -1.8893 -0.9615 -1.3638
 9379SOL     OW39772   1.818   3.247   2.783 -0.2883 -0.0088 -0.8179
 9379SOL    HW139773   1.832   3.341   2.793 -1.9268 -0.1978  3.0116
 9379SOL    HW239774   1.773   3.245   2.698  0.6780 -0.6871 -1.3104
 9380SOL     OW39775   4.502   3.788   2.791  0.2819 -0.2862  0.0271
 9380SOL    HW139776   4.494   3.876   2.828 -2.3589  0.0510 -1.3474
 9380SOL    HW239777   4.432   3.753   2.847 -0.7381  1.5743 -0.0954
 9381SOL     OW39778   1.550   2.793   8.336  0.2400 -0.0982 -0.3142
 9381SOL    HW139779   1.638   2.761   8.357  0.3359 -1.0056 -2.0607
 9381SOL    HW239780   1.563   2.866   8.275  0.7696  1.0002  1.1270
 9382SOL     OW39781   1.783   4.281   5.828 -1.1113 -0.0154 -0.2450
 9382SOL    HW139782   1.714   4.329   5.873 -1.6132 -0.6968 -0.2917
 9382SOL    HW239783   1.751   4.304   5.741 -3.3377  1.2687  0.9325
 9383SOL     OW39784   1.427   4.510   2.886 -0.1487  0.3970  0.4846
 9383SOL    HW139785   1.411   4.536   2.977  0.4989  0.5835  0.5487
 9383SOL    HW239786   1.406   4.587   2.833 -2.2157 -1.4777 -1.3898
 9384SOL     OW39787   3.458   3.520   5.143 -0.5524 -0.6127 -0.1755
 9384SOL    HW139788   3.442   3.489   5.233  2.2979  2.5425  1.4215
 9384SOL    HW239789   3.378   3.571   5.131  0.5734  0.8346 -1.4040
 9385SOL     OW39790   1.207   3.931   3.894  0.0426 -0.2851 -0.5329
 9385SOL    HW139791   1.257   3.859   3.933 -1.5591 -0.6136  0.9012
 9385SOL    HW239792   1.277   3.980   3.851 -1.0180  1.7524  0.0825
 9386SOL     OW39793   0.946   0.493   4.713 -0.4180  0.0228  0.4635
 9386SOL    HW139794   0.915   0.402   4.718  0.6359 -0.3444  0.5353
 9386SOL    HW239795   0.865   0.542   4.721 -0.7060 -0.1885 -1.2874
 9387SOL     OW39796   1.551   2.807   3.328  0.4515 -0.0741  0.0800
 9387SOL    HW139797   1.595   2.723   3.341  0.0441 -0.4248 -0.7535
 9387SOL    HW239798   1.461   2.774   3.324  0.5796 -0.3476 -0.6435
 9388SOL     OW39799   1.680   2.601   3.852  0.2087  0.3307  0.2415
 9388SOL    HW139800   1.688   2.569   3.942  0.8202  0.7070  0.3235
 9388SOL    HW239801   1.586   2.615   3.845  0.0806  0.8069  2.9591
 9389SOL     OW39802   4.079   0.949   4.497  0.8875  0.2954 -0.4351
 9389SOL    HW139803   4.120   0.868   4.468  0.8803  1.0517 -2.5377
 9389SOL    HW239804   4.157   1.002   4.512  1.3297  0.0568 -1.9898
 9390SOL     OW39805   3.224   2.877   6.764 -0.3251 -0.0215 -0.0499
 9390SOL    HW139806   3.173   2.952   6.796 -0.3143 -1.2536  2.9199
 9390SOL    HW239807   3.283   2.922   6.704  0.3252 -2.1612 -1.0342
 9391SOL     OW39808   1.938   3.842  13.121 -0.5250 -0.4742  0.1880
 9391SOL    HW139809   1.856   3.793  13.116 -0.7861 -0.0703  0.5392
 9391SOL    HW239810   1.924   3.894  13.041  2.2808  0.9055  0.6235
 9392SOL     OW39811   2.872   1.759  17.349 -0.1718 -0.3252  0.0496
 9392SOL    HW139812   2.912   1.844  17.368 -1.6666 -0.2571  2.8829
 9392SOL    HW239813   2.948   1.704  17.333  0.1852 -0.2768  1.5544
 9393SOL     OW39814   1.276   3.162   3.319 -0.1700 -0.5352  0.0843
 9393SOL    HW139815   1.322   3.171   3.402  1.2417 -0.7230 -0.6732
 9393SOL    HW239816   1.217   3.236   3.327  0.3144 -0.0446 -0.8359
 9394SOL     OW39817   3.188   4.282   5.038 -0.2828  0.0229  0.1417
 9394SOL    HW139818   3.100   4.275   5.002  0.1392 -0.5774 -0.7662
 9394SOL    HW239819   3.179   4.236   5.122  0.4510 -0.7647 -0.2166
 9395SOL     OW39820   0.147   0.250   5.203 -0.4272 -0.0144 -0.8051
 9395SOL    HW139821   0.204   0.305   5.257 -3.6267  3.2268 -0.6964
 9395SOL    HW239822   0.180   0.164   5.227  2.4757  1.2926 -0.1087
 9396SOL     OW39823   3.724   0.141   4.444 -0.1933  0.1725  0.1969
 9396SOL    HW139824   3.711   0.105   4.356  1.7475  0.5398 -0.2319
 9396SOL    HW239825   3.752   0.065   4.495 -0.8885 -0.5546 -0.5138
 9397SOL     OW39826   4.553   3.188   6.174  0.5954  0.3255 -0.4659
 9397SOL    HW139827   4.495   3.231   6.111 -0.7881  2.3669  2.2146
 9397SOL    HW239828   4.542   3.095   6.157  0.4841  0.3754 -0.6679
 9398SOL     OW39829   2.078   3.326   2.557  0.4017 -0.5743  0.6778
 9398SOL    HW139830   2.149   3.280   2.600  2.8715  0.8181 -1.8993
 9398SOL    HW239831   2.111   3.415   2.571  0.9761 -0.6677 -0.1014
 9399SOL     OW39832   1.860   1.485  11.266 -0.3323 -0.1713  0.5757
 9399SOL    HW139833   1.890   1.576  11.265 -1.5369  0.2185 -0.1835
 9399SOL    HW239834   1.919   1.468  11.340 -1.1228  0.8890  1.4416
 9400SOL     OW39835   0.133   1.832  16.669 -0.0074 -0.0100  1.0542
 9400SOL    HW139836   0.109   1.878  16.588 -1.6256 -2.2065  0.2839
 9400SOL    HW239837   0.046   1.795  16.681 -1.0798  1.4807 -2.0202
 9401SOL     OW39838   1.144   3.051  12.651  0.1605  0.6816  0.6099
 9401SOL    HW139839   1.156   3.113  12.723  0.2939  1.7908 -0.3606
 9401SOL    HW239840   1.218   3.065  12.592  1.6072 -3.1135  1.5355
 9402SOL     OW39841   3.850   4.132  12.882 -0.0014 -0.2159 -0.2901
 9402SOL    HW139842   3.755   4.142  12.888 -0.1850 -1.7754 -0.7998
 9402SOL    HW239843   3.868   4.170  12.796  0.5639  2.7753  1.1513
 9403SOL     OW39844   2.339   1.722   2.907 -0.1878 -0.2810  0.4773
 9403SOL    HW139845   2.284   1.687   2.837  1.4642 -1.0929 -0.4318
 9403SOL    HW239846   2.418   1.766   2.874 -0.8815  0.7290  0.1755
 9404SOL     OW39847   3.753   2.736   1.094  0.3557  0.0320  0.2622
 9404SOL    HW139848   3.789   2.648   1.105  0.1559 -0.1260 -0.3756
 9404SOL    HW239849   3.817   2.760   1.028 -2.8915  1.0149 -2.5288
 9405SOL     OW39850   0.024   3.482   7.379 -0.9315  0.2696  0.1045
 9405SOL    HW139851   0.062   3.425   7.311 -0.8505  1.0166 -0.4836
 9405SOL    HW239852   0.047   3.573   7.362  0.3503 -0.3536 -1.4864
 9406SOL     OW39853   1.821   3.376   3.946  0.6776  0.1376 -0.3279
 9406SOL    HW139854   1.762   3.361   3.872 -0.1445 -2.0200  0.7666
 9406SOL    HW239855   1.885   3.437   3.910  0.2602  1.0287  0.4190
 9407SOL     OW39856   2.242   2.795  11.761 -0.4204 -0.3729 -0.4799
 9407SOL    HW139857   2.270   2.885  11.774 -2.2267  0.0988  0.2093
 9407SOL    HW239858   2.309   2.768  11.698 -0.0901  0.6649 -0.5680
 9408SOL     OW39859   1.340   3.273   4.176  0.2006  0.2049  0.2959
 9408SOL    HW139860   1.361   3.185   4.208 -1.4079 -0.7281 -1.1723
 9408SOL    HW239861   1.353   3.260   4.082  1.4833 -0.1880  0.5298
 9409SOL     OW39862   2.539   4.415  12.015  0.3261 -0.1803  0.8005
 9409SOL    HW139863   2.490   4.396  12.095 -0.7581 -2.0956 -0.3250
 9409SOL    HW239864   2.562   4.326  11.987 -0.3667  0.3034 -1.3132
 9410SOL     OW39865   1.856   0.819  16.796  0.2663 -0.0895 -0.0194
 9410SOL    HW139866   1.951   0.832  16.785 -0.1485  1.1861 -1.9850
 9410SOL    HW239867   1.822   0.877  16.728  0.6811  0.5688  0.3334
 9411SOL     OW39868   3.271   4.730   2.244  0.4310 -0.3185 -0.0854
 9411SOL    HW139869   3.253   4.698   2.332  0.6425  1.1425  0.4872
 9411SOL    HW239870   3.223   4.668   2.189 -0.8029  2.1077 -1.7432
 9412SOL     OW39871   0.324   2.735   3.406  0.1236 -0.1020 -0.4832
 9412SOL    HW139872   0.276   2.788   3.470  1.2092  0.2117  0.0744
 9412SOL    HW239873   0.398   2.790   3.378  2.1496 -1.7408  1.6033
 9413SOL     OW39874   2.532   3.037   4.943 -0.1907 -0.3976  0.0798
 9413SOL    HW139875   2.516   2.945   4.966  2.4937 -0.9027 -0.1099
 9413SOL    HW239876   2.561   3.034   4.852  1.0635 -2.5481  0.5421
 9414SOL     OW39877   1.281   0.154  14.614 -0.5521 -0.9442 -0.1950
 9414SOL    HW139878   1.211   0.201  14.568  1.2995  1.1613 -0.8190
 9414SOL    HW239879   1.305   0.090  14.548  1.1455  0.8243 -1.2725
 9415SOL     OW39880   1.867   1.014   6.017 -0.1632  0.0183  0.9106
 9415SOL    HW139881   1.871   1.095   5.967 -0.1448 -0.7451 -0.3230
 9415SOL    HW239882   1.897   1.052   6.099 -2.4583 -0.4407  1.9684
 9416SOL     OW39883   3.608   3.470   7.141  0.1236 -0.1002 -0.3896
 9416SOL    HW139884   3.547   3.416   7.090 -2.2071  0.7508  1.5343
 9416SOL    HW239885   3.574   3.455   7.229 -0.1277 -0.8073 -0.6110
 9417SOL     OW39886   2.799   3.659   2.936  0.7611  0.1983 -0.0152
 9417SOL    HW139887   2.776   3.749   2.911  1.0462  0.3987  0.4476
 9417SOL    HW239888   2.778   3.609   2.857 -1.2713  0.8076  0.1557
 9418SOL     OW39889   2.853   3.945   3.606  0.0555  0.0465 -0.4858
 9418SOL    HW139890   2.827   3.892   3.531 -0.3597 -1.0385  0.4305
 9418SOL    HW239891   2.812   4.030   3.589  0.7164  0.5178  0.2745
 9419SOL     OW39892   2.541   3.455   2.342  0.1941  0.3613 -0.3228
 9419SOL    HW139893   2.476   3.522   2.325  0.7900  0.7146 -1.2180
 9419SOL    HW239894   2.544   3.391   2.270  0.3695  0.6482 -0.5731
 9420SOL     OW39895   2.204   0.047   9.759  0.0565  0.4668  0.0316
 9420SOL    HW139896   2.165   4.711   9.709  2.9200 -1.0381 -0.0191
 9420SOL    HW239897   2.206   0.114   9.692  0.5240 -0.2797 -0.6984
 9421SOL     OW39898   1.920   1.475  12.077  0.8429  0.2466  0.0475
 9421SOL    HW139899   2.015   1.488  12.067  0.7795  0.5482 -0.1640
 9421SOL    HW239900   1.903   1.419  12.002  3.1401 -0.6508  0.1748
 9422SOL     OW39901   4.585   2.064  10.083  0.0781  0.2960 -0.1024
 9422SOL    HW139902   4.647   1.996  10.109  0.0495  0.9740  1.6938
 9422SOL    HW239903   4.557   2.021  10.002 -1.0524 -0.3169  0.6321
 9423SOL     OW39904   1.981   2.498   1.687  0.0048 -0.4984 -0.2203
 9423SOL    HW139905   1.990   2.417   1.737  2.5718 -1.2404 -1.9301
 9423SOL    HW239906   2.071   2.508   1.659  0.0250 -2.7443 -0.9006
 9424SOL     OW39907   1.017   0.547  10.722  0.2372  0.1249  0.2867
 9424SOL    HW139908   1.039   0.606  10.651 -4.3638 -1.0894 -2.1213
 9424SOL    HW239909   1.036   0.604  10.797  1.8473  0.9016 -0.7229
 9425SOL     OW39910   4.393   2.194   2.759 -0.2617 -0.0063 -0.1026
 9425SOL    HW139911   4.460   2.130   2.735  2.3481  2.4716  0.7228
 9425SOL    HW239912   4.329   2.132   2.794  0.4091 -1.1137 -0.8334
 9426SOL     OW39913   1.090   2.032  13.892  0.2080  0.0254  0.3916
 9426SOL    HW139914   1.037   1.955  13.913  0.0579  0.4268  1.4907
 9426SOL    HW239915   1.153   2.020  13.963 -1.8317 -2.3995  1.8175
 9427SOL     OW39916   2.433   2.107   6.067  0.1747 -0.1185 -0.1210
 9427SOL    HW139917   2.481   2.122   6.148 -0.9786  0.9017  0.3824
 9427SOL    HW239918   2.506   2.073   6.015  1.0387 -0.7869  1.5397
 9428SOL     OW39919   2.701   1.094   9.506 -0.0821  0.4895  0.3280
 9428SOL    HW139920   2.766   1.024   9.516  0.2401  0.7176 -0.1764
 9428SOL    HW239921   2.679   1.099   9.599 -0.7602 -1.8400  0.2969
 9429SOL     OW39922   3.197   2.666  10.629  0.0931 -0.1109 -0.3498
 9429SOL    HW139923   3.229   2.576  10.622 -0.3458 -0.5294  3.2471
 9429SOL    HW239924   3.256   2.699  10.697  1.1699 -0.4235 -1.1375
 9430SOL     OW39925   0.179   1.372  11.569 -0.1312 -0.4001 -0.3891
 9430SOL    HW139926   0.209   1.342  11.655 -0.4671 -0.4636 -0.2949
 9430SOL    HW239927   0.088   1.343  11.569  0.5544 -2.5753  1.6121
 9431SOL     OW39928   0.518   0.255   1.733 -0.4141 -0.6278 -0.4184
 9431SOL    HW139929   0.495   0.196   1.805  0.5425 -1.7481 -1.0326
 9431SOL    HW239930   0.596   0.294   1.771 -0.3148  1.8111 -3.0417
 9432SOL     OW39931   3.693   2.079   8.120 -0.4356  0.2453  0.3087
 9432SOL    HW139932   3.634   2.125   8.060  0.2877  0.9438  0.1345
 9432SOL    HW239933   3.775   2.076   8.070 -0.4808  1.8077  0.1553
 9433SOL     OW39934   1.597   0.558  11.789  0.2065  0.3754  0.0372
 9433SOL    HW139935   1.665   0.593  11.846  0.8384  1.5504 -1.4347
 9433SOL    HW239936   1.574   0.633  11.733  1.5321 -0.2209 -1.2904
 9434SOL     OW39937   4.688   0.838  14.975 -0.1767  0.0158  0.7538
 9434SOL    HW139938   4.733   0.920  14.992 -1.2184  1.1515 -1.9830
 9434SOL    HW239939   4.706   0.787  15.054 -2.2158  0.7410  1.6771
 9435SOL     OW39940   2.607   1.886   1.149  0.1248 -0.1052  0.4667
 9435SOL    HW139941   2.681   1.941   1.122  0.2080 -0.2393  0.4181
 9435SOL    HW239942   2.559   1.954   1.196 -0.8841 -1.4974  1.4473
 9436SOL     OW39943   2.370   2.958   3.362 -0.0749  0.1459 -0.2704
 9436SOL    HW139944   2.455   2.979   3.323 -0.1818  1.3586  0.1564
 9436SOL    HW239945   2.318   3.016   3.307  1.2528 -0.5489 -2.2635
 9437SOL     OW39946   3.576   0.698   6.693 -0.0077  0.8018  0.0832
 9437SOL    HW139947   3.493   0.653   6.678  0.3218  0.0185  0.6360
 9437SOL    HW239948   3.595   0.672   6.783 -1.2950 -2.2767 -0.5529
 9438SOL     OW39949   2.429   3.221  17.024  0.5923  0.2175 -0.1552
 9438SOL    HW139950   2.504   3.194  16.972  0.4245 -0.8867  0.1904
 9438SOL    HW239951   2.425   3.150  17.087 -0.4720  1.1224  0.8149
 9439SOL     OW39952   3.135   4.130   6.356  0.2324 -0.1796  0.4793
 9439SOL    HW139953   3.134   4.225   6.343 -0.2137 -0.1299  0.8599
 9439SOL    HW239954   3.045   4.106   6.377 -0.7658  1.8640 -1.4274
 9440SOL     OW39955   3.232   0.526   4.427  0.0155 -1.0012  0.7680
 9440SOL    HW139956   3.173   0.507   4.354 -0.1466  1.7240  0.2090
 9440SOL    HW239957   3.310   0.476   4.402  0.0361 -1.6172  2.0385
 9441SOL     OW39958   1.629   3.585   3.909  0.2188 -0.0551  0.4484
 9441SOL    HW139959   1.682   3.660   3.936 -1.5363  1.6887 -0.8935
 9441SOL    HW239960   1.645   3.513   3.971  0.0402  2.3645  3.3314
 9442SOL     OW39961   0.486   1.116  10.552 -0.2203 -0.1818  0.1983
 9442SOL    HW139962   0.554   1.161  10.502  1.4028  0.7187  3.2014
 9442SOL    HW239963   0.438   1.186  10.597 -0.3668  1.3793 -2.3651
 9443SOL     OW39964   3.070   3.279   8.548 -0.3145  0.1025 -0.2986
 9443SOL    HW139965   3.012   3.345   8.510 -1.8955 -2.0553 -1.6096
 9443SOL    HW239966   3.068   3.212   8.481  0.6755 -1.2799  1.0589
 9444SOL     OW39967   3.834   3.577   2.003  0.0609 -0.1787 -0.2409
 9444SOL    HW139968   3.800   3.500   1.958  1.5241 -0.2032 -1.2844
 9444SOL    HW239969   3.871   3.526   2.075 -0.5146  3.4408  2.6549
 9445SOL     OW39970   2.733   2.212   9.276  0.1413  0.3720 -0.2730
 9445SOL    HW139971   2.709   2.175   9.361 -1.4734 -0.4358 -1.0806
 9445SOL    HW239972   2.662   2.185   9.217  0.7044 -0.1578 -0.7043
 9446SOL     OW39973   3.229   3.485   7.152  0.1581  0.7601 -0.3892
 9446SOL    HW139974   3.250   3.569   7.193 -0.3920  2.3545 -3.2915
 9446SOL    HW239975   3.170   3.445   7.215 -0.7949 -0.1335 -1.8304
 9447SOL     OW39976   0.608   2.907   2.998  0.0861  0.0487 -0.4657
 9447SOL    HW139977   0.624   2.917   2.904  1.0930  1.4654 -0.1389
 9447SOL    HW239978   0.512   2.905   3.002  0.1524  1.8380  1.9076
 9448SOL     OW39979   0.630   2.855   4.893 -0.5750 -0.2778 -0.2764
 9448SOL    HW139980   0.635   2.929   4.833  0.9714 -1.3746 -1.4907
 9448SOL    HW239981   0.538   2.829   4.885 -0.5037 -0.5967 -0.0551
 9449SOL     OW39982   3.463   0.328  15.449  0.4168 -0.7424 -0.5018
 9449SOL    HW139983   3.444   0.246  15.495  1.2711 -0.5817  0.1278
 9449SOL    HW239984   3.552   0.354  15.469  0.9521 -1.1698 -2.3552
 9450SOL     OW39985   2.835   3.055   4.250  0.2462 -0.4082  0.1206
 9450SOL    HW139986   2.850   2.962   4.235  0.9631 -0.3851  0.6724
 9450SOL    HW239987   2.778   3.066   4.175 -0.7832 -0.7564  0.8528
 9451SOL     OW39988   2.631   3.841   4.123  0.3981  0.8080 -0.6525
 9451SOL    HW139989   2.701   3.826   4.187  1.6827  1.8728 -1.8072
 9451SOL    HW239990   2.642   3.936   4.124  2.4759  0.5921 -1.5078
 9452SOL     OW39991   3.216   3.550   6.509  0.1502  0.3300  0.5514
 9452SOL    HW139992   3.299   3.532   6.554 -0.3622 -0.8367  1.0548
 9452SOL    HW239993   3.250   3.589   6.429 -0.5023  0.7606  0.4850
 9453SOL     OW39994   0.523   2.034   7.170 -0.0090 -0.3898  0.1022
 9453SOL    HW139995   0.547   1.954   7.217 -0.3036 -1.9530 -2.3502
 9453SOL    HW239996   0.432   2.042   7.197  0.7042 -0.4523  2.4578
 9454SOL     OW39997   1.509   3.030   6.180  0.5825 -0.3036  0.4069
 9454SOL    HW139998   1.485   3.062   6.093 -2.3063 -2.4022  0.4150
 9454SOL    HW239999   1.449   3.064   6.246  0.2361  1.3638 -0.7684
 9455SOL     OW40000   2.639   1.099  15.062 -0.7509  0.1728 -0.1305
 9455SOL    HW140001   2.615   1.008  15.074  1.9770 -0.4806  0.5115
 9455SOL    HW240002   2.596   1.104  14.977 -1.9545 -0.7368  0.4298
 9456SOL     OW40003   1.020   2.519   5.352 -0.4680 -0.3690  0.5922
 9456SOL    HW140004   0.967   2.592   5.320 -0.8650  0.8718  4.0903
 9456SOL    HW240005   1.077   2.500   5.278  0.2360 -0.6009  1.1917
 9457SOL     OW40006   4.520   2.558   6.274  0.3847 -0.4707 -0.0553
 9457SOL    HW140007   4.606   2.515   6.271  0.4120 -0.4714  0.8522
 9457SOL    HW240008   4.548   2.649   6.267  1.9925 -0.7501  2.4705
 9458SOL     OW40009   1.207   0.356   0.213 -0.4196 -0.1302  0.3011
 9458SOL    HW140010   1.195   0.281   0.155 -0.2478  0.4529 -0.4883
 9458SOL    HW240011   1.201   0.424   0.146  2.4215 -0.4020 -0.2264
 9459SOL     OW40012   4.240   3.499  12.804 -0.3024 -0.7272 -0.0989
 9459SOL    HW140013   4.241   3.590  12.831 -0.6875 -0.8618  0.3825
 9459SOL    HW240014   4.145   3.487  12.807 -0.5537  1.3688  0.1665
 9460SOL     OW40015   0.871   1.432   9.258 -0.1536  0.1863 -0.4274
 9460SOL    HW140016   0.952   1.394   9.226  1.2445  0.9571  2.2170
 9460SOL    HW240017   0.895   1.524   9.242 -0.2627  0.1396 -0.8821
 9461SOL     OW40018   4.177   3.442   4.408  0.0592 -0.4030 -0.5149
 9461SOL    HW140019   4.142   3.354   4.394  0.2883 -0.9192  2.3056
 9461SOL    HW240020   4.199   3.448   4.500 -0.9369 -0.9419 -0.2372
 9462SOL     OW40021   0.294   3.298   0.899  0.3008  0.2484  0.3084
 9462SOL    HW140022   0.280   3.271   0.808  1.0690 -0.9073  0.5292
 9462SOL    HW240023   0.382   3.336   0.889  0.7241 -0.5822  0.9005
 9463SOL     OW40024   4.114   4.507   2.707  0.8092  0.2642  0.1611
 9463SOL    HW140025   4.129   4.475   2.796  0.6986 -1.7329 -0.5393
 9463SOL    HW240026   4.199   4.478   2.674  0.0190 -3.3550  1.4038
 9464SOL     OW40027   3.226   2.774   3.479  0.2752 -0.3782  0.0875
 9464SOL    HW140028   3.243   2.680   3.468 -0.4629 -0.4328 -0.5779
 9464SOL    HW240029   3.314   2.806   3.458  0.0071 -0.7999 -1.7213
 9465SOL     OW40030   2.257   2.435  11.168 -0.1757  0.2291 -0.4040
 9465SOL    HW140031   2.173   2.475  11.144 -1.8518 -0.6603  4.0230
 9465SOL    HW240032   2.232   2.364  11.226  0.2966  1.6100  1.4771
 9466SOL     OW40033   4.593   3.935  13.318  0.0461 -0.0957 -0.5157
 9466SOL    HW140034   4.512   3.917  13.269  0.4984 -0.2036 -1.2256
 9466SOL    HW240035   4.568   3.907  13.406 -0.4208  0.6541 -0.4136
 9467SOL     OW40036   4.485   3.340   5.700  0.0540  0.4933 -0.1343
 9467SOL    HW140037   4.531   3.421   5.717 -0.8453  0.9154  0.2992
 9467SOL    HW240038   4.512   3.301   5.616  2.2451  1.1303  0.2923
 9468SOL     OW40039   4.306   2.342   8.255 -0.6411 -0.5753  0.2486
 9468SOL    HW140040   4.250   2.419   8.252  0.3853  0.1581  0.2100
 9468SOL    HW240041   4.392   2.373   8.283 -0.6156 -0.6089  0.2069
 9469SOL     OW40042   1.873   4.198  15.345  0.5218 -0.1733 -0.3048
 9469SOL    HW140043   1.876   4.289  15.316  0.1696 -0.0366  0.0865
 9469SOL    HW240044   1.884   4.145  15.266  1.2393 -0.8712  0.2636
 9470SOL     OW40045   0.148   3.189  12.372 -0.2348 -0.3504  0.2260
 9470SOL    HW140046   0.076   3.249  12.391  1.3513  0.8026  2.6136
 9470SOL    HW240047   0.128   3.131  12.446 -3.0500  0.1990 -0.1112
 9471SOL     OW40048   1.634   0.787   6.832  0.1820  0.2940 -0.2474
 9471SOL    HW140049   1.646   0.805   6.925 -1.7101 -0.5710  0.1790
 9471SOL    HW240050   1.538   0.791   6.828  0.2770  1.3836 -1.3043
 9472SOL     OW40051   3.000   2.412   0.255  0.0773 -0.0809 -0.0962
 9472SOL    HW140052   3.067   2.349   0.279  1.0410  1.6226  1.7049
 9472SOL    HW240053   2.927   2.364   0.216  1.3440 -2.1020  0.0340
 9473SOL     OW40054   2.712   2.888  14.525 -0.3434  0.7045 -0.3253
 9473SOL    HW140055   2.621   2.897  14.553 -0.7238 -2.1675 -0.5955
 9473SOL    HW240056   2.724   2.798  14.496  1.0460  0.2839  1.5222
 9474SOL     OW40057   3.545   1.454   3.213  0.0762 -0.0999  0.5065
 9474SOL    HW140058   3.493   1.374   3.217  0.3055 -0.2059  1.4793
 9474SOL    HW240059   3.491   1.516   3.164  0.4046  0.8540  1.3590
 9475SOL     OW40060   0.468   0.936   2.720 -0.2859  0.4168  0.0570
 9475SOL    HW140061   0.390   0.990   2.708 -0.7294 -0.2716 -0.1943
 9475SOL    HW240062   0.519   0.997   2.773  2.0527 -1.8730  0.4683
 9476SOL     OW40063   2.324   0.637   7.932  0.2546 -0.3666  0.4705
 9476SOL    HW140064   2.315   0.580   7.856 -3.5455  1.7032 -0.6599
 9476SOL    HW240065   2.235   0.646   7.967  0.1471 -1.4981  0.4591
 9477SOL     OW40066   3.970   3.406   3.741 -0.5528  0.3695  0.5216
 9477SOL    HW140067   3.918   3.465   3.686 -1.3002 -1.6006 -0.8713
 9477SOL    HW240068   3.947   3.314   3.725  1.4214  0.4638 -2.6020
 9478SOL     OW40069   0.909   1.839   5.909 -0.2242  0.1549 -0.1012
 9478SOL    HW140070   0.994   1.846   5.866 -1.2216  0.0981 -2.0786
 9478SOL    HW240071   0.886   1.746   5.903 -2.5606  0.6799  0.9864
 9479SOL     OW40072   1.801   0.848   7.049  0.4094 -0.2420  0.2386
 9479SOL    HW140073   1.806   0.777   7.114  1.9740  0.2869  0.6985
 9479SOL    HW240074   1.883   0.833   7.003 -0.8072  1.0765 -2.3256
 9480SOL     OW40075   3.543   4.313   4.892  0.0970 -0.2993 -0.2701
 9480SOL    HW140076   3.533   4.228   4.935  2.3931 -0.4339  0.0452
 9480SOL    HW240077   3.555   4.370   4.967 -0.6693  1.7580 -1.7048
 9481SOL     OW40078   0.677   1.803  17.168 -0.0557  0.4200 -0.1438
 9481SOL    HW140079   0.666   1.708  17.173 -1.2079  0.5540 -0.1755
 9481SOL    HW240080   0.764   1.804  17.206 -1.2786  2.8076  2.5922
 9482SOL     OW40081   0.835   1.618   3.066  0.3631  0.0671  0.1748
 9482SOL    HW140082   0.750   1.616   3.110 -0.5804 -1.4769 -1.7257
 9482SOL    HW240083   0.801   1.618   2.976 -1.0633  0.2543  0.7122
 9483SOL     OW40084   2.374   1.922   5.337  0.1945 -0.3693 -0.0072
 9483SOL    HW140085   2.400   1.968   5.417  2.4562 -0.7952 -0.4983
 9483SOL    HW240086   2.357   1.992   5.275 -1.0864 -0.6933 -0.0147
 9484SOL     OW40087   3.418   2.051   6.749 -0.4243 -0.7400  0.0713
 9484SOL    HW140088   3.454   2.074   6.835  0.6781  1.8293 -1.0827
 9484SOL    HW240089   3.327   2.075   6.768  0.0459  1.3277 -0.2552
 9485SOL     OW40090   4.084   1.357   3.192  0.1263  0.3051 -0.5732
 9485SOL    HW140091   4.063   1.265   3.205 -0.9622  0.6587  0.2759
 9485SOL    HW240092   4.024   1.361   3.118  0.0761 -2.3063 -0.6748
 9486SOL     OW40093   1.504   3.485   2.648 -0.1616  0.0718  0.5839
 9486SOL    HW140094   1.524   3.545   2.576  0.9555 -0.9899  0.0135
 9486SOL    HW240095   1.573   3.504   2.712 -0.4145 -1.9067  1.4532
 9487SOL     OW40096   1.380   2.927   4.996  0.6828 -0.1082 -0.5041
 9487SOL    HW140097   1.406   3.014   4.965  0.7785 -0.0087 -0.1379
 9487SOL    HW240098   1.325   2.885   4.929  0.8803  0.0966 -0.7950
 9488SOL     OW40099   1.654   4.092   6.355 -0.1316 -0.0515  0.3134
 9488SOL    HW140100   1.622   4.053   6.274  1.3261 -1.1529  0.2701
 9488SOL    HW240101   1.718   4.143   6.306  0.9337 -3.5629 -1.9022
 9489SOL     OW40102   1.944   1.310   4.011 -0.4927  0.1730 -0.1957
 9489SOL    HW140103   1.973   1.250   3.942 -0.1469  2.3416 -1.9381
 9489SOL    HW240104   1.997   1.274   4.082 -1.8789  0.2994  0.8860
 9490SOL     OW40105   4.325   4.314  13.910  0.2180 -0.0570 -0.0338
 9490SOL    HW140106   4.411   4.350  13.931 -0.1553  0.2348  0.9932
 9490SOL    HW240107   4.318   4.314  13.815  0.2728 -1.5023 -0.0239
 9491SOL     OW40108   2.470   1.978   8.181 -0.1747  0.0468  0.6918
 9491SOL    HW140109   2.527   2.001   8.255  1.0373 -3.5521  0.8668
 9491SOL    HW240110   2.526   1.992   8.104  1.7346 -0.5364  1.9671
 9492SOL     OW40111   0.365   3.394   7.855  0.5978 -0.2674 -0.2263
 9492SOL    HW140112   0.391   3.427   7.941  0.2217 -2.7286  0.8222
 9492SOL    HW240113   0.449   3.368   7.818  0.8891 -1.9447  1.6817
 9493SOL     OW40114   4.324   4.302   8.068  0.2914  0.1938 -0.3527
 9493SOL    HW140115   4.337   4.392   8.038  0.0334  0.4889  0.4177
 9493SOL    HW240116   4.409   4.263   8.048  0.6379  0.0178  1.4453
 9494SOL     OW40117   3.296   0.699   2.157 -0.1304 -0.2831  0.1429
 9494SOL    HW140118   3.386   0.723   2.136 -0.6133  0.4332 -1.1103
 9494SOL    HW240119   3.278   0.621   2.105 -1.1362 -0.0459  0.1336
 9495SOL     OW40120   2.398   2.315  10.618  0.5358  0.6342  0.1598
 9495SOL    HW140121   2.391   2.403  10.654  0.8016  0.6265  0.2329
 9495SOL    HW240122   2.370   2.312  10.527 -0.3881 -1.5947  0.5036
 9496SOL     OW40123   0.926   0.977  10.561  0.0136 -0.0367 -0.2724
 9496SOL    HW140124   0.947   0.971  10.655  1.4292  1.1055 -0.5225
 9496SOL    HW240125   0.836   0.945  10.557 -1.3113  3.4333  2.0014
 9497SOL     OW40126   3.196   4.599  17.696 -0.2478  0.4294  0.0411
 9497SOL    HW140127   3.113   4.551  17.688  1.1926 -2.3938  2.0976
 9497SOL    HW240128   3.205   4.634  17.607  0.9151 -0.2767 -0.1113
 9498SOL     OW40129   2.048   3.814   4.091  0.1408  0.2706  0.1328
 9498SOL    HW140130   2.131   3.846   4.057 -1.2894  3.2432 -0.5776
 9498SOL    HW240131   2.060   3.836   4.183  0.5862  2.2779 -0.4068
 9499SOL     OW40132   3.047   3.333   9.292 -0.3684 -0.1362  0.0093
 9499SOL    HW140133   3.070   3.351   9.383  2.0047  0.9661 -0.8214
 9499SOL    HW240134   3.119   3.358   9.235 -1.3281  2.0072 -0.2465
 9500SOL     OW40135   4.065   2.326   9.621  0.6829  0.7439 -0.0670
 9500SOL    HW140136   4.016   2.404   9.648  1.4853  1.1057  0.3498
 9500SOL    HW240137   4.019   2.282   9.549  1.4502  0.4221 -0.3579
 9501SOL     OW40138   0.358   0.464   4.805  0.0425 -0.1030 -0.0066
 9501SOL    HW140139   0.297   0.502   4.868 -0.9969 -0.7226 -0.6417
 9501SOL    HW240140   0.405   0.394   4.851 -2.5441 -1.7857  0.0392
 9502SOL     OW40141   4.209   3.291  10.704 -0.3406  0.2127 -0.1533
 9502SOL    HW140142   4.141   3.343  10.661 -1.4537  0.7304  2.2755
 9502SOL    HW240143   4.180   3.202  10.681 -2.9787  1.2211 -0.6302
 9503SOL     OW40144   1.999   3.142   2.367 -0.3377  0.0590  0.0305
 9503SOL    HW140145   1.993   3.215   2.429  2.5975 -1.0251  1.5325
 9503SOL    HW240146   2.093   3.127   2.360 -0.4220 -0.5755  0.3305
 9504SOL     OW40147   1.602   1.825   2.254 -0.1955 -0.4038  0.0913
 9504SOL    HW140148   1.651   1.850   2.332 -0.4745  0.5771 -0.0368
 9504SOL    HW240149   1.623   1.732   2.244  0.3763 -0.0142 -2.1642
 9505SOL     OW40150   0.908   2.166   2.223 -0.2848 -0.1736 -0.5349
 9505SOL    HW140151   0.900   2.097   2.156  0.6834  1.2618 -2.1402
 9505SOL    HW240152   0.997   2.159   2.257 -0.8588 -2.7330  0.3885
 9506SOL     OW40153   2.009   3.110  11.512 -0.3644  0.0859  0.5384
 9506SOL    HW140154   1.961   3.028  11.495 -0.6908 -0.0925  2.2570
 9506SOL    HW240155   2.103   3.092  11.507 -0.4576  0.3398 -2.0869
 9507SOL     OW40156   2.606   1.358   7.886 -0.3521 -0.8974  0.4353
 9507SOL    HW140157   2.632   1.366   7.794  0.0163 -1.4790  0.4894
 9507SOL    HW240158   2.672   1.302   7.926  1.5706 -0.7067 -2.4520
 9508SOL     OW40159   3.526   3.937  12.056 -0.1411  0.2159 -0.6245
 9508SOL    HW140160   3.499   3.958  11.967  0.8985 -0.5074 -1.1044
 9508SOL    HW240161   3.585   3.867  12.029 -1.5121 -1.4358  0.7083
 9509SOL     OW40162   0.665   3.369   7.050 -0.3692 -0.8788 -0.1362
 9509SOL    HW140163   0.729   3.388   6.982  0.3618 -0.7853  0.5706
 9509SOL    HW240164   0.600   3.437   7.034 -0.4947 -0.8282  0.5917
 9510SOL     OW40165   1.917   2.828  15.316 -0.3822 -0.5919 -0.1346
 9510SOL    HW140166   1.935   2.740  15.284  0.7858 -0.7377  0.9092
 9510SOL    HW240167   2.009   2.856  15.316  0.1747 -2.4521  0.1380
 9511SOL     OW40168   1.902   0.551   3.207  0.2545  0.3610  0.4840
 9511SOL    HW140169   1.967   0.579   3.272 -0.9401  3.3009  0.4368
 9511SOL    HW240170   1.955   0.542   3.128  0.5400 -2.0759  0.9373
 9512SOL     OW40171   1.263   3.059   7.537  0.4069  0.4645  0.4645
 9512SOL    HW140172   1.298   2.981   7.579  0.6664  0.4655  0.2545
 9512SOL    HW240173   1.337   3.084   7.481 -0.4764  0.0673 -0.8850
 9513SOL     OW40174   4.611   3.556   2.160 -0.6362  0.8635  0.0749
 9513SOL    HW140175   4.519   3.577   2.175 -0.4925  1.6835 -0.1475
 9513SOL    HW240176   4.653   3.563   2.246  0.7462 -0.7399 -0.4843
 9514SOL     OW40177   2.522   1.657  13.532 -0.3017 -0.4155  1.1333
 9514SOL    HW140178   2.537   1.563  13.546  0.2197 -1.1015 -3.6623
 9514SOL    HW240179   2.434   1.636  13.500  0.3170 -2.7278  0.9391
 9515SOL     OW40180   0.407   3.729   7.176 -0.1649 -0.3541  0.5655
 9515SOL    HW140181   0.468   3.674   7.126 -1.1016  1.2790 -2.3602
 9515SOL    HW240182   0.467   3.790   7.218  2.0088 -1.1798 -1.3257
 9516SOL     OW40183   0.496   2.611  14.287 -0.6635 -0.2115  0.4427
 9516SOL    HW140184   0.502   2.605  14.382 -0.9773 -2.1000  0.3350
 9516SOL    HW240185   0.417   2.665  14.276  0.1055  0.7623 -0.4048
 9517SOL     OW40186   3.426   3.437   9.145  0.2158 -0.3108 -0.5603
 9517SOL    HW140187   3.385   3.489   9.215 -1.8201 -0.6140 -1.5355
 9517SOL    HW240188   3.349   3.398   9.104 -0.8649 -0.2277  1.3837
 9518SOL     OW40189   0.192   1.466  14.994  0.1550  0.1977 -0.1702
 9518SOL    HW140190   0.280   1.442  14.965  0.5135  0.9270  0.3249
 9518SOL    HW240191   0.211   1.463  15.088 -0.0354 -0.6730 -0.1550
 9519SOL     OW40192   2.308   4.100   3.683  0.5630 -0.2381  0.3062
 9519SOL    HW140193   2.368   4.175   3.684 -0.6852  0.7659  0.1811
 9519SOL    HW240194   2.273   4.105   3.772 -3.5665 -2.0808 -1.2016
 9520SOL     OW40195   1.783   0.162   0.268  0.3910 -0.1200 -0.2861
 9520SOL    HW140196   1.716   0.231   0.273  0.0556 -0.2522 -2.9826
 9520SOL    HW240197   1.774   0.155   0.173  1.1937  1.1443 -0.4524
 9521SOL     OW40198   1.776   2.990   6.182 -0.1348 -0.2938  0.3149
 9521SOL    HW140199   1.822   3.057   6.233 -0.5283  1.1494 -1.2002
 9521SOL    HW240200   1.685   3.013   6.202 -0.0276  1.7487 -1.6274
 9522SOL     OW40201   0.117   0.586   5.449 -0.2927  0.5493  0.1050
 9522SOL    HW140202   0.125   0.650   5.520  1.6445  0.4371 -0.0062
 9522SOL    HW240203   0.036   0.552   5.485  1.6404 -3.2678  0.8272
 9523SOL     OW40204   2.658   4.291  16.455  0.7302  0.2068  0.4314
 9523SOL    HW140205   2.660   4.197  16.472  2.6113  0.2512  0.4119
 9523SOL    HW240206   2.629   4.324  16.540 -0.6956 -1.0189  0.4243
 9524SOL     OW40207   0.430   2.980   6.098 -0.5750 -0.2030 -0.1332
 9524SOL    HW140208   0.469   2.953   6.180 -0.5066 -1.0087 -0.4335
 9524SOL    HW240209   0.342   2.947   6.113 -0.0527 -0.5666  2.1308
 9525SOL     OW40210   4.032   1.665  12.169  0.1111 -0.2237  0.1331
 9525SOL    HW140211   3.982   1.590  12.201 -1.2244  1.0553  1.0501
 9525SOL    HW240212   4.040   1.720  12.247  0.8560  0.7788 -0.6602
 9526SOL     OW40213   3.920   4.411   7.948 -0.4455  0.2178 -0.5128
 9526SOL    HW140214   3.912   4.322   7.981  1.6488  0.9204  1.9546
 9526SOL    HW240215   3.837   4.427   7.902 -1.7779 -2.5432  0.9402
 9527SOL     OW40216   1.842   4.251  14.863  0.5370 -0.0906  0.0325
 9527SOL    HW140217   1.764   4.215  14.820 -0.8639  0.3983  2.1391
 9527SOL    HW240218   1.907   4.247  14.793 -0.2021 -0.6852 -0.6140
 9528SOL     OW40219   2.319   4.242  14.780  0.0424  0.0529 -0.1856
 9528SOL    HW140220   2.409   4.238  14.747  0.5315  0.4099  1.0869
 9528SOL    HW240221   2.269   4.272  14.704 -0.7073 -0.7137  0.0063
 9529SOL     OW40222   1.005   4.679   9.221  0.7635 -0.4061  0.2140
 9529SOL    HW140223   1.013   4.691   9.126 -3.5066  0.7907 -0.0018
 9529SOL    HW240224   0.951   4.600   9.221  0.4539 -0.1852  1.9605
 9530SOL     OW40225   0.773   1.763   7.669 -0.5855  0.2012  0.4337
 9530SOL    HW140226   0.822   1.702   7.725 -1.2302  0.7457  1.5923
 9530SOL    HW240227   0.734   1.699   7.610 -0.1305  1.2586 -0.9907
 9531SOL     OW40228   0.347   3.335  14.826 -0.1521 -0.1618 -0.1609
 9531SOL    HW140229   0.407   3.264  14.849  0.4996  0.3534 -0.2865
 9531SOL    HW240230   0.405   3.410  14.826  0.3396 -0.5418  0.6372
 9532SOL     OW40231   4.283   0.783   9.429  0.3272  0.0235  0.5758
 9532SOL    HW140232   4.193   0.753   9.415  1.4960 -3.1597 -0.1207
 9532SOL    HW240233   4.274   0.820   9.517  2.2718 -1.6516  1.4875
 9533SOL     OW40234   2.059   2.241   0.434  0.2810  0.5514  0.0919
 9533SOL    HW140235   1.966   2.239   0.457  0.3153 -0.0950  0.1962
 9533SOL    HW240236   2.097   2.234   0.522 -2.6022 -1.5384  1.1750
 9534SOL     OW40237   2.328   1.339   1.762  0.3825 -0.5819  0.2045
 9534SOL    HW140238   2.397   1.354   1.697 -0.9515 -0.0668 -1.1047
 9534SOL    HW240239   2.255   1.361   1.703  1.1610  1.2690 -0.0652
 9535SOL     OW40240   4.110   1.442   4.061  0.0598  0.0254  0.4617
 9535SOL    HW140241   4.199   1.450   4.026  0.7029 -2.4596  1.5231
 9535SOL    HW240242   4.104   1.349   4.038  1.2223  0.1548 -0.3677
 9536SOL     OW40243   1.841   2.845   2.628  0.1238  0.1964 -0.4233
 9536SOL    HW140244   1.831   2.753   2.604  0.3514  0.3220 -0.9931
 9536SOL    HW240245   1.779   2.893   2.574 -0.4527  1.5009  1.3937
 9537SOL     OW40246   1.171   1.967   7.753  0.3801 -0.2556  0.3414
 9537SOL    HW140247   1.137   1.940   7.838  0.8034 -2.2925 -0.1391
 9537SOL    HW240248   1.187   2.061   7.765  1.0763 -0.2080 -0.8389
 9538SOL     OW40249   2.932   4.446   5.306  0.1536  0.5018 -0.1187
 9538SOL    HW140250   2.869   4.379   5.279  1.1359 -0.3411 -0.3357
 9538SOL    HW240251   2.922   4.436   5.400 -0.0032 -1.4526 -0.3409
 9539SOL     OW40252   1.683   2.055   7.992 -0.2751  0.2835 -0.1357
 9539SOL    HW140253   1.638   2.011   8.065 -1.0457  1.6326  0.2183
 9539SOL    HW240254   1.614   2.071   7.927  0.9375 -0.0955 -1.4948
 9540SOL     OW40255   2.568   1.821   7.096 -0.6938 -0.2088  0.1617
 9540SOL    HW140256   2.571   1.742   7.151 -1.4672 -0.3411  0.0052
 9540SOL    HW240257   2.502   1.869   7.146 -0.4088 -0.6356  0.9531
 9541SOL     OW40258   3.392   3.120   3.341 -0.0356  0.2405 -0.0433
 9541SOL    HW140259   3.442   3.039   3.356  2.1323  1.3601 -1.3128
 9541SOL    HW240260   3.339   3.092   3.267 -0.2072  1.5518 -0.3998
 9542SOL     OW40261   1.635   0.570  14.166 -0.1469  0.4027  0.2078
 9542SOL    HW140262   1.663   0.646  14.116  0.5097  0.3011  0.4266
 9542SOL    HW240263   1.554   0.603  14.205 -0.7707  1.2302 -1.8141
 9543SOL     OW40264   2.882   0.870  13.115 -0.1586  0.1167 -0.9827
 9543SOL    HW140265   2.930   0.789  13.099  2.8146  1.2585  2.0208
 9543SOL    HW240266   2.956   0.925  13.140 -0.0708 -0.4711  0.0652
 9544SOL     OW40267   1.664   3.967   5.637  0.5224  0.0672 -0.1709
 9544SOL    HW140268   1.614   4.037   5.595 -0.6504 -0.9021 -0.4051
 9544SOL    HW240269   1.591   3.907   5.654  0.6071 -0.6417 -2.2092
 9545SOL     OW40270   3.541   4.597  17.675 -0.0789 -0.1879  0.2429
 9545SOL    HW140271   3.536   4.638  17.589 -0.2798 -2.2716 -0.7339
 9545SOL    HW240272   3.473   4.529  17.668 -0.5121  0.2487  0.2349
 9546SOL     OW40273   1.858   1.704  15.777 -0.1552 -0.3574 -0.2562
 9546SOL    HW140274   1.771   1.710  15.816  0.4213 -0.1452  0.9824
 9546SOL    HW240275   1.890   1.790  15.802 -1.5444  0.1629 -0.2714
 9547SOL     OW40276   3.825   0.492  10.844 -0.2405  0.0540  0.3734
 9547SOL    HW140277   3.744   0.504  10.892 -1.3100  2.3234 -1.9526
 9547SOL    HW240278   3.813   0.556  10.774  0.1750 -0.4931 -0.2014
 9548SOL     OW40279   1.161   4.316  13.473  0.8562  0.5498  0.0883
 9548SOL    HW140280   1.118   4.236  13.502 -1.7592  1.1723 -2.0838
 9548SOL    HW240281   1.081   4.368  13.460  0.4832  0.2026  0.9746
 9549SOL     OW40282   4.656   1.242   5.971  0.4178  0.2450  0.5712
 9549SOL    HW140283   4.702   1.158   5.977  0.1650 -0.0326 -1.3850
 9549SOL    HW240284   4.657   1.272   6.062 -2.2574  1.6892  0.1445
 9550SOL     OW40285   3.064   0.492   3.689  0.5144 -0.1641 -0.0737
 9550SOL    HW140286   3.068   0.407   3.733 -1.4805 -1.8047 -3.0994
 9550SOL    HW240287   3.147   0.526   3.721 -0.0640  1.4581 -0.2731
 9551SOL     OW40288   2.613   0.449   8.386 -0.0346  0.4630 -0.2431
 9551SOL    HW140289   2.611   0.530   8.436  1.5937 -0.0907  0.7301
 9551SOL    HW240290   2.582   0.482   8.302  1.0033 -0.7043 -1.1007
 9552SOL     OW40291   1.431   0.695   8.561 -0.0285 -0.1597  0.5209
 9552SOL    HW140292   1.442   0.706   8.467  0.7010  0.5089  0.6848
 9552SOL    HW240293   1.338   0.718   8.558 -0.8357 -3.1980  1.6813
 9553SOL     OW40294   0.021   2.705  12.522 -0.0771 -0.3131  0.2150
 9553SOL    HW140295   4.676   2.749  12.500  0.7894 -0.3441 -2.9832
 9553SOL    HW240296   0.016   2.634  12.458 -0.7397  0.5260 -0.6582
 9554SOL     OW40297   4.434   4.517   3.787  0.1326  0.5631 -0.1501
 9554SOL    HW140298   4.418   4.499   3.880  1.8296  0.6915  0.1695
 9554SOL    HW240299   4.528   4.500   3.792  0.1114  0.2748 -0.8553
 9555SOL     OW40300   3.566   1.287   6.913  0.1582  0.3800  0.5329
 9555SOL    HW140301   3.592   1.369   6.872  0.1356 -0.2839 -0.7944
 9555SOL    HW240302   3.526   1.246   6.836  0.8124 -1.7009  1.3021
 9556SOL     OW40303   2.176   3.022  14.687 -0.1549  0.0323 -0.5735
 9556SOL    HW140304   2.150   3.110  14.662 -0.9072 -0.4424 -1.4392
 9556SOL    HW240305   2.122   3.025  14.766 -0.5104 -0.7621 -0.7830
 9557SOL     OW40306   2.577   1.232   3.380  0.0736 -0.8640 -0.3737
 9557SOL    HW140307   2.490   1.233   3.420  1.2159  1.8821  1.9865
 9557SOL    HW240308   2.578   1.309   3.324 -0.9812 -0.5151  0.0947
 9558SOL     OW40309   4.039   1.302   7.512 -0.2259  0.2865  0.2551
 9558SOL    HW140310   3.947   1.326   7.520  0.3656  2.2710  0.9362
 9558SOL    HW240311   4.062   1.306   7.605  1.1487  2.6707 -0.1806
 9559SOL     OW40312   0.362   4.194   8.685  0.2429 -0.2092 -0.1704
 9559SOL    HW140313   0.272   4.192   8.655  0.9590 -0.7615 -2.2569
 9559SOL    HW240314   0.401   4.181   8.598 -0.1594 -0.0102 -0.3774
 9560SOL     OW40315   1.597   1.997  11.588 -0.4342  0.4125 -0.0651
 9560SOL    HW140316   1.658   2.071  11.590  0.4929 -0.3638 -0.1625
 9560SOL    HW240317   1.518   2.046  11.564 -0.2785  0.2617 -0.8775
 9561SOL     OW40318   3.306   3.823  12.844 -0.3146  0.2089 -0.5593
 9561SOL    HW140319   3.382   3.789  12.797  0.4475  0.5455  0.4430
 9561SOL    HW240320   3.313   3.779  12.928  0.4637  0.1766 -0.6366
 9562SOL     OW40321   1.185   1.978   6.894  0.4910  0.1335  0.2273
 9562SOL    HW140322   1.099   1.939   6.908  2.9539 -4.7847  1.6979
 9562SOL    HW240323   1.193   1.955   6.801 -2.5369 -1.5406  0.4017
 9563SOL     OW40324   4.214   4.257   4.475 -0.3930 -0.0389 -0.2388
 9563SOL    HW140325   4.209   4.165   4.501  1.3318  0.4785  1.9178
 9563SOL    HW240326   4.274   4.289   4.542 -2.6718 -1.6369  2.5473
 9564SOL     OW40327   1.850   2.463   5.785 -0.1456 -0.1524  0.6558
 9564SOL    HW140328   1.871   2.542   5.736  0.7347 -1.5976 -1.2882
 9564SOL    HW240329   1.800   2.497   5.859  0.5578 -0.9070  1.4668
 9565SOL     OW40330   0.257   3.846   6.989  0.5691  0.3096 -0.3920
 9565SOL    HW140331   0.300   3.778   7.040  0.1201 -1.0625 -1.8588
 9565SOL    HW240332   0.313   3.922   7.003 -0.7518  0.9447  1.6323
 9566SOL     OW40333   4.262   0.469   1.926  0.1015  0.2240  0.7185
 9566SOL    HW140334   4.320   0.431   1.860 -0.2576  2.2572 -0.7587
 9566SOL    HW240335   4.237   0.389   1.972 -0.1536  0.5112  1.0771
 9567SOL     OW40336   4.253   1.749   5.673  0.4315  0.3851  0.6360
 9567SOL    HW140337   4.219   1.829   5.714  0.5792 -0.0791  1.6581
 9567SOL    HW240338   4.250   1.771   5.580 -0.6204 -1.1639  0.2981
 9568SOL     OW40339   2.424   0.161  11.342  0.0447 -0.2967 -0.1298
 9568SOL    HW140340   2.501   0.145  11.287  0.7109 -1.2290  1.0651
 9568SOL    HW240341   2.451   0.103  11.414  2.3258  1.1247  0.1442
 9569SOL     OW40342   3.215   3.288   6.336  0.0747 -0.5216 -0.1013
 9569SOL    HW140343   3.140   3.290   6.395  0.4138 -0.4952  0.3327
 9569SOL    HW240344   3.177   3.321   6.255 -1.1519  1.0167  1.0850
   4.73659   4.73659  17.74482
